
# Create simulation box and atoms

read_data data.ML_graphite_m500atm_240K
  orthogonal box = (0 0 1.84677) to (49.22 49.0196 26.0932)
  8 by 5 by 2 MPI processor grid
  reading atoms ...
  4055 atoms
  reading velocities ...
  4055 velocities
group water type 1
1295 atoms in group water
group graphite type 2
2760 atoms in group graphite

# Define potential

pair_style sw
pair_coeff * * MLC_e.sw mW C


# Fix graphite atoms in place

fix 5 graphite setforce 0.0 0.0 0.0
velocity graphite set 0.0 0.0 0.0


# Equilibration of molecular water

# Add velocity/set timestep

velocity	    water create ${TEMP} ${SEED} rot yes dist gaussian
velocity	    water create 240 ${SEED} rot yes dist gaussian
velocity	    water create 240 14767 rot yes dist gaussian
timestep	    5.0

# Define output

compute			1 water msd
compute			3 water temp
thermo	    	50
thermo_style	custom step temp press vol etotal ke pe c_1[4] c_3

# Neighbor lists

neigh_modify    delay 0 every 1 check yes

# Set fixes

fix             1 water momentum 10 linear 1 1 1 rescale
fix             2 water nve
fix             3 water temp/csvr ${TEMP} ${TEMP} 500.0 ${SEED}
fix             3 water temp/csvr 240 ${TEMP} 500.0 ${SEED}
fix             3 water temp/csvr 240 240 500.0 ${SEED}
fix             3 water temp/csvr 240 240 500.0 14767
fix             4 water press/berendsen z ${PRES} ${PRES} 1000.0 modulus 20000
fix             4 water press/berendsen z -500 ${PRES} 1000.0 modulus 20000
fix             4 water press/berendsen z -500 -500 1000.0 modulus 20000

# Run 0.5 ns equilibration

dump		    1 all atom 2000 ${DIR}/eq.${NAME}-${TEMP}.dump
dump		    1 all atom 2000 run_10/eq.${NAME}-${TEMP}.dump
dump		    1 all atom 2000 run_10/eq.het_freeze_10-${TEMP}.dump
dump		    1 all atom 2000 run_10/eq.het_freeze_10-240.dump

reset_timestep  0

run	            100000
Neighbor list info ...
  update every 1 steps, delay 0 steps, check yes
  max neighbors/atom: 2000, page size: 100000
  master list distance cutoff = 6.67472
  ghost atom cutoff = 6.67472
  binsize = 3.33736, bins = 15 15 8
  1 neighbor lists, perpetual/occasional/extra = 1 0 0
  (1) pair sw, perpetual
      attributes: full, newton on
      pair build: full/bin/atomonly
      stencil: full/bin/3d
      bin: standard
Per MPI rank memory allocation (min/avg/max) = 4.096 | 4.284 | 4.472 Mbytes
Step Temp Press Volume TotEng KinEng PotEng c_1[4] c_3 
       0    76.605821   -1210.2423    58500.543   -12658.119    925.72037   -13583.839            0          240 
      50    78.049713   -1200.9759    58527.382   -12629.742    943.16865    -13572.91   0.48000019     244.5236 
     100    80.269397   -1593.8762    58546.844   -12615.843    969.99176   -13585.835   0.74469753    251.47769 
     150    77.678462   -1187.6118    58443.874   -12631.627    938.68238   -13570.309   0.95211841     243.3605 
     200    76.685323   -1401.4947    58417.207   -12638.584    926.68108   -13565.265    1.1025709    240.24907 
     250    77.225558   -1279.3892    58365.409   -12641.503    933.20939   -13574.713    1.1750135    241.94159 
     300    77.392164   -1247.0201    58310.008   -12679.009    935.22269   -13614.232    1.3525669    242.46355 
     350    78.031789   -1224.9084    58268.477   -12660.224    942.95205   -13603.176    1.5384073    244.46744 
     400    76.311492   -1179.1542    58200.052   -12684.534    922.16364   -13606.697    1.7392276    239.07789 
     450    76.031812   -1213.2415    58196.325    -12718.49    918.78392   -13637.274    1.9447142    238.20167 
     500    75.994923   -979.94497    58215.541   -12702.146    918.33815   -13620.484    2.0972567     238.0861 
     550    75.572372   -1397.1142    58252.252   -12678.723    913.23195   -13591.955    2.3009722    236.76228 
     600    77.961722   -901.42735    58286.683   -12663.185    942.10534    -13605.29    2.4322271    244.24793 
     650    77.976865   -698.74969    58294.252   -12660.824    942.28834   -13603.113    2.6793933    244.29537 
     700    76.429453   -1121.4425    58332.061   -12698.694     923.5891   -13622.283    2.9302764    239.44745 
     750    75.251089   -1267.0039    58285.514   -12689.725     909.3495   -13599.074    3.0829002    235.75573 
     800    77.681514   -963.69513    58285.898   -12718.171    938.71926    -13656.89    3.1401319    243.37006 
     850     76.95125   -1215.8893    58312.589   -12718.244     929.8946   -13648.139    3.2514046     241.0822 
     900    75.014548   -1083.2973    58286.489   -12701.062     906.4911   -13607.553    3.3741717    235.01467 
     950      75.3687    -1109.088    58261.315   -12701.404    910.77074   -13612.174    3.4694421    236.12419 
    1000    78.033229   -1012.1136    58209.808   -12693.596    942.96945   -13636.565    3.6482993    244.47195 
    1050    77.350393   -1198.9872    58117.176   -12693.203    934.71792   -13627.921    3.8925332    242.33268 
    1100    78.334217   -1247.5534    58113.498   -12697.818    946.60665   -13644.425    4.1373433    245.41493 
    1150     73.70936   -1050.0332    58123.592   -12719.738    890.71894   -13610.457    4.2768434    230.92561 
    1200     75.53986   -1234.4191    58119.581   -12712.668    912.83908   -13625.507    4.2784901    236.66043 
    1250    75.918564   -749.02443    58102.639   -12715.616     917.4154   -13633.032    4.3340585    237.84688 
    1300    74.066952   -1081.7626    58099.468   -12720.457    895.04016   -13615.497    4.3566319    232.04592 
    1350    77.547101   -691.03305     58084.94   -12738.528    937.09499   -13675.623    4.3882723    242.94896 
    1400    76.330406   -903.57122    58039.713   -12712.687     922.3922    -13635.08    4.5522977    239.13715 
    1450    75.330926   -1125.9009    58075.616   -12706.494    910.31427   -13616.808    4.8428578    236.00585 
    1500     76.25677   -896.49252    58042.999   -12700.568    921.50236    -13622.07     5.088979    238.90645 
    1550    73.682096   -837.60965    58046.597   -12716.915    890.38947   -13607.305    5.3140439     230.8402 
    1600    78.129153   -837.58807    58056.749   -12722.111    944.12862   -13666.239    5.4565558    244.77248 
    1650    76.738042   -1128.4474    58069.335   -12717.148    927.31815   -13644.467    5.5919909    240.41424 
    1700    77.105273   -1013.4094    58055.072   -12713.241    931.75585   -13644.997    5.6582638    241.56474 
    1750    77.900029   -657.86481    58100.254   -12735.405    941.35984   -13676.765    5.8116522    244.05465 
    1800    75.296978    -1131.379    58169.528   -12715.082    909.90403   -13624.986    5.9663601     235.8995 
    1850    78.703348   -658.36273    58240.473    -12684.29    951.06731   -13635.357    6.1626427    246.57138 
    1900     77.89209   -870.09831    58314.502   -12688.703     941.2639   -13629.967    6.3491593    244.02978 
    1950    75.679676   -1011.7501    58299.349   -12687.239    914.52864   -13601.767    6.4948304    237.09846 
    2000    78.538913    -1290.593    58308.705   -12700.168    949.08024   -13649.248    6.6742366    246.05622 
    2050    77.364797   -781.52272    58286.205   -12703.634    934.89198   -13638.526    6.8782106    242.37781 
    2100    76.206448   -1245.6935    58345.668    -12714.33    920.89426   -13635.225    6.9241665     238.7488 
    2150    76.832691   -1114.3951    58357.293   -12741.779    928.46191   -13670.241    7.0190985    240.71076 
    2200    77.365552   -1272.8283      58345.7   -12728.654    934.90111   -13663.555    7.1291221    242.38018 
    2250    76.744768    -948.2098    58368.263   -12696.756    927.39943   -13624.155    7.3888496    240.43531 
    2300    79.127295   -1022.3315    58387.237   -12702.158    956.19037   -13658.348    7.4569796    247.89958 
    2350    75.130739   -877.74764    58406.352   -12719.563    907.89517   -13627.458    7.5434254    235.37868 
    2400    74.298982   -957.14396    58433.245   -12740.223    897.84405   -13638.067    7.8016557    232.77285 
    2450    75.561332   -986.41778    58468.463   -12741.055    913.09855   -13654.154    8.2808346     236.7277 
    2500    75.877127   -661.07916    58448.317   -12738.408    916.91468   -13655.323    8.4462992    237.71706 
    2550    74.286965   -1304.2585    58425.713   -12738.532    897.69884   -13636.231     8.590467    232.73521 
    2600    74.417285   -1096.6212    58406.149   -12734.938    899.27365   -13634.212    8.7308997    233.14349 
    2650    75.289174   -1310.0704    58360.994   -12693.626    909.80974   -13603.435    8.9697901    235.87505 
    2700    76.898143   -842.45983     58335.75   -12701.467    929.25285    -13630.72    9.0868304    240.91582 
    2750    76.591707   -1033.1474    58339.332    -12724.53    925.54981    -13650.08    9.3609008    239.95578 
    2800    75.868933    -1149.009    58386.127   -12729.875    916.81565    -13646.69    9.6813225    237.69139 
    2850    76.423586   -993.30477    58388.118   -12709.368    923.51819   -13632.886    9.9022793    239.42907 
    2900    74.928925   -1013.8395    58338.757   -12719.095    905.45641   -13624.551    10.247903    234.74642 
    2950    73.392077   -1190.6308    58286.024   -12732.153    886.88482   -13619.038    10.444259    229.93159 
    3000    75.840404   -1032.3657    58235.122   -12723.397    916.47091   -13639.868    10.563417    237.60201 
    3050    77.247807   -964.56723    58213.066   -12711.119    933.47825   -13644.598    10.728669    242.01129 
    3100    78.857207   -1114.3247    58249.707   -12723.623    952.92658    -13676.55    10.734904    247.05341 
    3150    75.518858   -856.23677    58254.683   -12765.873    912.58528   -13678.458    10.911872    236.59463 
    3200    74.829718   -1196.5197    58279.462   -12766.386    904.25758   -13670.644    11.133058    234.43561 
    3250    76.991747   -992.32441    58292.558   -12732.879    930.38398   -13663.263    11.348816    241.20908 
    3300    73.113383   -992.39595    58274.441   -12762.015    883.51703   -13645.532    11.544327    229.05846 
    3350    74.853805   -1343.7064    58213.057   -12769.666    904.54864   -13674.214    11.729655    234.51107 
    3400    72.482212   -825.54856    58199.978   -12745.456    875.88984   -13621.346     11.93012    227.08106 
    3450    74.360927   -964.67907    58188.265   -12711.256    898.59261   -13609.848    12.047996    232.96692 
    3500    73.871039   -758.61002    58213.808   -12732.131     892.6727   -13624.804    12.065084    231.43214 
    3550    75.514095    -799.1262    58227.323   -12735.376    912.52772   -13647.904    12.071612    236.57971 
    3600    72.561379   -1141.0798    58285.485   -12730.522    876.84651   -13607.368    12.272101    227.32908 
    3650    76.350299   -819.79003    58316.387   -12708.878    922.63259   -13631.511    12.390197    239.19947 
    3700    77.324925   -933.80308    58343.611   -12673.816    934.41017   -13608.226    12.562086     242.2529 
    3750    76.690739   -1039.4139    58358.579   -12669.273    926.74653    -13596.02    12.753613    240.26604 
    3800    73.585684   -664.90897    58390.198   -12682.262    889.22441   -13571.486    13.028675    230.53815 
    3850    77.193442   -901.46295      58402.5   -12645.942     932.8213   -13578.763    13.200655    241.84097 
    3900    73.923228   -844.37581    58452.049   -12658.792    893.30336   -13552.096    13.490106    231.59565 
    3950    78.086431   -1237.2676    58445.142   -12640.558    943.61236    -13584.17    13.752955    244.63863 
    4000     75.20426   -1353.4676    58462.808   -12650.607    908.78362   -13559.391    14.133238    235.60902 
    4050    75.800456   -1328.6583     58430.61   -12644.944    915.98816   -13560.933    14.286211    237.47685 
    4100    76.287494   -1157.2457    58407.959   -12656.503    921.87364   -13578.376    14.511222    239.00271 
    4150    77.299355   -1361.4781    58412.157   -12634.154    934.10117   -13568.255    14.734157    242.17279 
    4200    75.712803   -1056.3677    58386.165   -12665.428    914.92895   -13580.357    14.846452    237.20224 
    4250    75.293201   -816.23848    58398.664   -12661.727     909.8584   -13571.585    15.032102    235.88766 
    4300    75.548267   -1136.9605     58331.99   -12676.581    912.94066   -13589.521    15.267047    236.68677 
    4350    76.003625   -1499.3219    58323.284   -12692.877     918.4433    -13611.32    15.456757    238.11337 
    4400    76.920798   -1020.5416    58365.425   -12671.349    929.52661   -13600.876    15.369742     240.9868 
    4450    76.267041   -1359.8397     58400.31   -12666.448    921.62648   -13588.075     15.56391    238.93863 
    4500    74.337971   -1205.0999    58433.072   -12688.186     898.3152   -13586.501    15.663113      232.895 
    4550    76.728671   -1071.9275    58376.336   -12689.129    927.20491   -13616.334    15.853229    240.38488 
    4600    79.669226   -1155.3843     58368.45   -12705.887    962.73917   -13668.626    15.965052     249.5974 
    4650     75.17053   -987.00773    58406.952    -12728.75    908.37601   -13637.126    16.238213    235.50334 
    4700    74.412717   -865.93679    58396.292   -12735.659    899.21844   -13634.878    16.268109    233.12918 
    4750    73.206697   -987.78656    58413.536   -12763.939    884.64466   -13648.583     16.14392    229.35081 
    4800    75.856292   -921.42538    58433.127   -12757.343     916.6629   -13674.006    16.151532    237.65178 
    4850    75.078803   -1181.6045    58413.053   -12732.556    907.26756   -13639.824    16.175142    235.21597 
    4900    76.530288   -1133.7912    58398.648   -12724.384    924.80761   -13649.192    16.234242    239.76336 
    4950    74.329421   -1426.8801    58377.796   -12735.518    898.21188    -13633.73    16.352026    232.86822 
    5000    74.376538    -1106.298    58379.323   -12719.453    898.78125   -13618.234    16.464258    233.01583 
    5050    77.186963   -1039.3779    58393.654   -12690.933      932.743   -13623.676    16.715229    241.82067 
    5100    75.373489   -1352.9018     58397.21   -12717.367    910.82862   -13628.195    17.027568     236.1392 
    5150    73.230437   -1066.7925    58382.127   -12741.833    884.93154   -13626.764    17.284587    229.42519 
    5200    76.598426   -1073.3016    58284.584   -12738.757      925.631   -13664.388    17.478792    239.97683 
    5250    76.469249   -829.99594    58245.962   -12706.666       924.07   -13630.736     17.74537    239.57213 
    5300    76.739567   -808.50812     58257.32     -12695.3    927.33658   -13622.637    17.916293    240.41902 
    5350    78.660946   -998.56586    58286.447   -12718.202    950.55491   -13668.757    18.002315    246.43854 
    5400    74.148464   -1066.7737     58326.36   -12764.237    896.02516   -13660.262    18.238066    232.30129 
    5450    73.086749   -853.81913    58365.179   -12781.429    883.19518   -13664.624    18.178409    228.97502 
    5500    75.954164   -1095.4607    58422.221   -12779.665    917.84561   -13697.511    18.185151    237.95841 
    5550    75.781399   -502.83729    58457.897   -12744.285    915.75788   -13660.043    18.187281    237.41715 
    5600    72.924771   -581.45995    58517.675   -12726.722    881.23781    -13607.96     18.15674    228.46756 
    5650    74.496986   -506.50112    58620.337   -12699.267    900.23677   -13599.504    18.452399    233.39319 
    5700    76.921732   -1052.4292    58711.604   -12700.793    929.53789   -13630.331    18.774821    240.98972 
    5750    73.629219   -866.66251    58684.268   -12724.046     889.7505   -13613.796    18.744895    230.67454 
    5800    76.213903    -829.9344    58712.304   -12713.137    920.98434   -13634.121    18.629345    238.77215 
    5850    75.036126    -851.8739    58701.488   -12707.683    906.75185   -13614.435    18.862518    235.08227 
    5900    76.089683   -1175.8496    58663.281   -12674.984    919.48325   -13594.467    18.920054    238.38298 
    5950    76.261228   -1138.5396     58689.93   -12689.781    921.55623   -13611.337    18.975134    238.92042 
    6000    78.483237   -1349.7296    58646.122    -12658.56    948.40744   -13606.968    19.140846    245.88179 
    6050    75.608245   -1215.0696    58637.828   -12712.296    913.66545   -13625.962    19.233133    236.87467 
    6100    76.722767   -1267.8011    58625.183   -12703.264    927.13356   -13630.397     19.42692    240.36638 
    6150    75.879423   -974.98463     58581.93   -12723.777    916.94243   -13640.719    19.466253    237.72425 
    6200    74.264595   -999.33836    58540.047   -12723.934    897.42852   -13621.362     19.38278    232.66512 
    6250    75.950881   -843.20434    58499.656   -12727.986    917.80594   -13645.792    19.543607    237.94812 
    6300    78.064351   -992.11334    58503.821   -12754.107    943.34554   -13697.453    19.700533    244.56946 
    6350    76.143257   -1229.3233    58558.337   -12769.769    920.13064   -13689.899    19.770172    238.55082 
    6400    71.608232   -1503.7546    58503.314   -12794.103    865.32848   -13659.431    19.819101    224.34295 
    6450    72.616724   -1229.9111    58420.396   -12750.735     877.5153    -13628.25    20.112112    227.50247 
    6500    76.631344   -665.00026    58411.071   -12734.705    926.02879   -13660.734    20.377768    240.07996 
    6550    77.058166   -1154.6281    58448.721   -12736.635    931.18659   -13667.821    20.582358    241.41716 
    6600    73.502124   -745.17479    58461.141   -12725.868    888.21466   -13614.083    21.028578    230.27636 
    6650    76.334017   -791.01281    58483.244   -12735.693    922.43582   -13658.129    21.182747    239.14846 
    6700    75.851588    -1239.086    58484.887   -12724.057    916.60606   -13640.663    21.352726    237.63705 
    6750    75.597743   -713.26801    58464.877   -12740.228    913.53854   -13653.766    21.413684    236.84177 
    6800    77.724606   -741.87529    58499.214   -12747.226       939.24   -13686.466    21.532782    243.50507 
    6850    74.414021   -1184.8983    58496.847   -12735.173    899.23421   -13634.408    21.746863    233.13326 
    6900    75.908061   -1322.4857    58497.698   -12698.638    917.28849   -13615.927    21.783694    237.81397 
    6950    76.464845   -1011.0651    58512.823   -12737.945    924.01678   -13661.962    21.874433    239.55833 
    7000    76.965717    -730.9363    58530.095    -12733.07    930.06942   -13663.139    21.979887    241.12752 
    7050    75.936085   -900.21293    58544.084   -12759.979    917.62714   -13677.607    22.162528    237.90177 
    7100    77.072759   -1061.5484    58537.606   -12757.323    931.36293   -13688.686    22.244373    241.46288 
    7150    75.154274   -819.81659    58498.101   -12724.206    908.17957   -13632.385    22.215737    235.45242 
    7200    74.391426   -948.62123    58480.393   -12706.832    898.96116   -13605.793    22.342288    233.06247 
    7250    75.581075   -850.75647    58488.518   -12705.987    913.33713   -13619.324     22.35784    236.78955 
    7300    78.433533   -582.76109    58505.071   -12706.749    947.80681   -13654.556    22.433008    245.72608 
    7350    76.696566   -948.04359    58539.333   -12699.277    926.81694   -13626.094     22.61531    240.28429 
    7400    75.599507   -1205.5492    58512.175   -12685.367    913.55986   -13598.927    22.800386     236.8473 
    7450    76.949192   -1623.1443    58446.361   -12676.025    929.86973   -13605.895    22.981295    241.07575 
    7500    79.091605   -1113.4818    58383.722   -12675.521    955.75908    -13631.28    23.187162    247.78776 
    7550    76.357788   -900.06875    58382.759   -12676.615    922.72308   -13599.338    23.472713    239.22293 
    7600    77.402472    -876.2465    58390.583   -12691.458    935.34725   -13626.806    23.263195    242.49584 
    7650    75.479938   -885.70359    58355.079   -12711.217    912.11497   -13623.332     23.63947     236.4727 
    7700    74.757183   -1295.3069    58350.547   -12709.164    903.38104   -13612.545    23.895888    234.20836 
    7750    75.045706   -544.67604     58288.93   -12729.463    906.86762   -13636.331     24.01801    235.11228 
    7800    78.619624   -782.27656    58357.573   -12702.101    950.05558   -13652.157    24.214117    246.30909 
    7850    79.424501   -744.11924      58421.3   -12670.397    959.78186   -13630.178    24.757976     248.8307 
    7900    76.740055   -781.74004    58470.026    -12682.19    927.34247   -13609.532    25.111255    240.42054 
    7950    78.060612   -908.71185    58450.021   -12661.124    943.30035   -13604.425    25.331421    244.55774 
    8000    79.108027    -1045.639    58434.628   -12698.056    955.95753   -13654.014    25.437855    247.83921 
    8050    76.180777    -1056.547    58428.526   -12693.508    920.58404   -13614.092    25.554648    238.66837 
    8100    76.457629   -862.74749    58416.953    -12687.52    923.92959    -13611.45    26.077164    239.53573 
    8150    75.830499   -968.12839    58416.184   -12692.794    916.35121   -13609.145    26.477771    237.57098 
    8200     74.94211   -580.00166    58423.144    -12699.12    905.61575   -13604.735    26.555246    234.78772 
    8250    76.176003   -1087.5784    58443.695   -12662.884    920.52635    -13583.41    26.858486    238.65341 
    8300    76.749745   -1065.5517    58383.259   -12665.927    927.45957   -13593.386    27.059288     240.4509 
    8350    76.504747    -878.8241    58364.919   -12694.172    924.49897   -13618.671    27.321579    239.68334 
    8400    79.356553    -1209.108    58382.142   -12650.204    958.96077   -13609.165    27.452646    248.61783 
    8450    77.349028   -546.94372    58376.407   -12684.083    934.70143   -13618.785    27.556177    242.32841 
    8500    76.972212   -1331.9925    58361.064     -12677.1    930.14791   -13607.248     27.65695    241.14787 
    8550    75.502589   -1553.1428     58310.16   -12699.063    912.38868   -13611.452    27.640817    236.54366 
    8600    74.828378    -820.9443     58274.01    -12682.51    904.24138   -13586.751    27.925696    234.43141 
    8650    76.881915    -1028.212    58248.879   -12692.656    929.05674   -13621.712     27.94482    240.86498 
    8700    77.955566   -829.57213    58235.164   -12688.503    942.03096   -13630.534     27.90989    244.22864 
    8750      73.8333   -1149.8348    58323.391   -12700.645    892.21665   -13592.862    28.233434    231.31391 
    8800    76.994877   -721.13165    58346.265   -12693.009     930.4218   -13623.431    28.266483    241.21888 
    8850    76.680957   -1367.3333    58348.662    -12684.63    926.62833   -13611.258    28.453666    240.23539 
    8900    77.111337   -532.49805    58350.559   -12669.758    931.82913   -13601.587    28.427199    241.58374 
    8950    77.299669   -1065.0257    58335.235    -12696.71    934.10497   -13630.815    28.562227    242.17377 
    9000    76.032839   -1436.9918    58326.577   -12716.385    918.79633   -13635.182    28.619794    238.20489 
    9050    74.658104   -781.31694    58255.465   -12711.418    902.18376   -13613.602    28.595225    233.89796 
    9100    77.974032   -1050.3621    58262.352   -12705.833    942.25411   -13648.087    28.789276     244.2865 
    9150    76.178087   -926.72581     58266.24   -12731.377    920.55154   -13651.929    28.599586    238.65994 
    9200    76.570101   -1036.8161    58253.599   -12738.057    925.28871   -13663.346    28.626612    239.88809 
    9250     76.54203   -761.64644    58241.283   -12711.967    924.94951   -13636.916    28.837877    239.80015 
    9300    76.009623   -870.56481    58272.502   -12717.652    918.51578   -13636.168     29.08267    238.13216 
    9350      75.8802   -925.28044    58247.661   -12711.408    916.95181    -13628.36    29.274445    237.72669 
    9400    76.758076    -1011.946    58329.987   -12724.769    927.56025   -13652.329    29.567725      240.477 
    9450    78.639122   -709.43729    58370.176   -12688.964    950.29119   -13639.255    29.702528    246.37017 
    9500    79.415242   -956.96777    58395.998   -12668.524    959.66998   -13628.194    29.785501    248.80169 
    9550    79.432147   -797.48827    58447.387    -12651.07    959.87427   -13610.944    29.952464    248.85466 
    9600    77.818474   -880.64383    58501.289   -12658.288    940.37432   -13598.662    30.290714    243.79915 
    9650    76.185022   -535.72101    58536.242    -12678.03    920.63534   -13598.666    30.356913    238.68167 
    9700    76.750218   -945.52125    58583.533   -12680.937    927.46528   -13608.403    30.307846    240.45238 
    9750    74.739881   -984.61088    58623.939   -12666.333    903.17197   -13569.505    30.384158    234.15416 
    9800    76.677657    -799.3698    58641.178   -12663.992    926.58844   -13590.581    30.623739    240.22506 
    9850    77.138206   -974.32956    58619.865   -12693.188    932.15381   -13625.342    30.530089    241.66792 
    9900    75.092785   -871.20046    58650.961   -12689.175    907.43653   -13596.611    30.546889    235.25978 
    9950    76.280092   -964.08886    58632.032   -12699.604    921.78419   -13621.388    30.516323    238.97951 
   10000     74.68613   -900.18191    58629.554   -12703.196    902.52243   -13605.719    30.693843    233.98576 
   10050    76.252198   -847.59473    58646.322     -12707.9    921.44711   -13629.347    31.148148    238.89213 
   10100    77.140262   -926.47701    58663.629   -12697.689    932.17866   -13629.868    31.373409    241.67436 
   10150     76.05345   -769.04066     58663.25   -12706.409     919.0454   -13625.455     31.47178    238.26946 
   10200    75.494744   -971.45366    58643.844    -12688.06    912.29388   -13600.354     31.82084    236.51908 
   10250    76.039293    -650.4038    58697.459   -12677.023    918.87432   -13595.897    31.890561    238.22511 
   10300    75.653972   -975.80958    58723.383   -12673.967    914.21802   -13588.185    31.947654    237.01793 
   10350     77.71175   -887.24796    58751.368   -12699.155    939.08463    -13638.24     32.09934    243.46479 
   10400    80.413305   -902.93055    58819.621    -12694.38    971.73078   -13666.111    32.012444    251.92855 
   10450     76.74928   -1050.6524    58845.709   -12688.656    927.45395    -13616.11    31.997377    240.44944 
   10500    76.639062   -1012.9096     58853.83   -12682.907    926.12206   -13609.029     32.08688    240.10414 
   10550    77.864607   -1196.8826    58848.293   -12670.424    940.93179   -13611.355    32.129509    243.94368 
   10600    75.257581   -1250.9885    58789.255   -12661.494    909.42796   -13570.922    32.017421    235.77607 
   10650    76.808269   -1287.2073    58768.964   -12676.121    928.16679   -13604.288    32.074016    240.63425 
   10700    76.440982   -1048.0057    58751.332   -12675.449    923.72842   -13599.177    32.164136    239.48357 
   10750    76.833634    -1562.916    58741.571   -12683.087     928.4733    -13611.56    32.202967    240.71372 
   10800    79.082333   -1128.2618    58711.933   -12665.033    955.64704    -13620.68    32.348207    247.75872 
   10850    77.767939   -953.58465    58743.317   -12678.271    939.76363   -13618.034    32.555251    243.64082 
   10900    77.736454   -591.58689    58793.497   -12693.377    939.38316   -13632.761     32.50002    243.54218 
   10950    78.876913   -904.84994    58853.964   -12681.683     953.1647   -13634.847    32.646752    247.11515 
   11000     76.40836   -682.85273    58885.352    -12694.99    923.33421   -13618.325    32.703457    239.38137 
   11050    77.626695   -1174.4123    58929.568    -12709.93    938.05681   -13647.986     32.57984    243.19832 
   11100     75.92681   -865.01146    58935.393   -12751.873    917.51506   -13669.388    32.547789    237.87271 
   11150    77.053547   -925.70802    58954.207   -12751.772    931.13078   -13682.903    32.919891    241.40269 
   11200    75.102746   -998.34136    58962.378   -12757.346     907.5569   -13664.902    33.059781    235.29098 
   11250    73.738944   -1178.8883     58930.66   -12767.212    891.07644   -13658.288    33.000448     231.0183 
   11300    75.272039   -1062.4206    58917.884    -12748.15    909.60267   -13657.753    32.941602    235.82136 
   11350    78.181254   -813.21155    58916.475   -12691.281    944.75822   -13636.039    32.772669    244.93571 
   11400    77.553047   -778.88973    58917.563   -12704.846    937.16684   -13642.013    32.953133    242.96758 
   11450    78.880319   -968.03726    58931.471   -12670.217    953.20586   -13623.423    33.094937    247.12582 
   11500     78.48898   -891.48343    58911.906   -12674.869    948.47684   -13623.346    33.255998    245.89979 
   11550    78.790172   -974.60214    58954.573   -12699.191    952.11651   -13651.308    33.530258     246.8434 
   11600    76.791646   -823.12509    58965.593   -12732.211    927.96591   -13660.177    33.470574    240.58217 
   11650    76.685838   -672.44508     59002.25   -12752.762    926.68731   -13679.449    33.588515    240.25069 
   11700    76.294265   -1100.9341    59009.552   -12754.862    921.95546   -13676.818    33.942418    239.02392 
   11750    77.947841   -1142.4274    58955.544   -12740.315    941.93761   -13682.253    34.026457    244.20444 
   11800     77.18684   -1276.5433     58911.07   -12735.677    932.74151   -13668.419     34.17341    241.82028 
   11850    75.562237   -1036.1811    58907.587   -12777.576    913.10948   -13690.685    34.076193    236.73053 
   11900    73.444257    -998.4814    58891.465   -12788.627    887.51538   -13676.143    34.232409    230.09507 
   11950    75.190439   -1175.4209    58904.395   -12776.214    908.61659   -13684.831    34.187809    235.56572 
   12000     75.76863   -960.38733     58865.73   -12753.767    915.60358    -13669.37    34.216264    237.37715 
   12050    75.982861   -909.09808     58909.38   -12753.923    918.19238   -13672.115    34.280636    238.04831 
   12100    77.400151   -790.92654    58895.453   -12745.846    935.31921   -13681.166    34.256819    242.48857 
   12150    76.191543   -1249.0972     58890.94   -12769.457    920.71415   -13690.171    34.438202     238.7021 
   12200    75.878571   -1136.4344    58858.263   -12761.313    916.93213   -13678.245    34.513468    237.72158 
   12250    76.642122   -1074.3783    58881.438   -12744.149    926.15903   -13670.308    34.655435    240.11373 
   12300    76.968752   -1211.9247    58847.086   -12724.764    930.10609    -13654.87    35.087818    241.13703 
   12350    78.511709    -870.4049    58875.187   -12719.655     948.7515   -13668.406    35.203999      245.971 
   12400    78.063719   -718.26213     58846.64   -12714.557     943.3379   -13657.895    35.292958    244.56748 
   12450      74.5105   -1132.7836    58832.022   -12743.979    900.40007   -13644.379    35.261542    233.43552 
   12500    75.707348   -1302.1261    58781.181   -12733.796    914.86303   -13648.659    34.966307    237.18515 
   12550    78.354936    -1232.463    58807.694   -12726.455    946.85703   -13673.312    35.095076    245.47984 
   12600    75.716473   -991.17261     58803.04   -12713.367     914.9733    -13628.34    35.308705    237.21374 
   12650    76.233688   -1257.6697    58782.066   -12702.373    921.22344   -13623.596    35.233729    238.83414 
   12700    76.500947   -1149.3911    58762.344   -12693.196    924.45305   -13617.649    35.398698    239.67144 
   12750    76.934382   -1041.6801    58779.273   -12683.977    929.69076   -13613.668    35.225065    241.02935 
   12800    76.696418   -1088.9129    58793.587   -12682.662    926.81516   -13609.477    35.072407    240.28383 
   12850    77.038978   -1172.4155    58758.811   -12709.543    930.95472   -13640.498    34.997522    241.35704 
   12900     76.34038   -1268.4305    58750.027   -12698.941    922.51272   -13621.453    35.079651    239.16839 
   12950    76.748667    -1173.653    58681.395   -12688.353    927.44655     -13615.8    35.165412    240.44753 
   13000    78.545419   -1153.2877    58658.074   -12685.872    949.15886   -13635.031    35.127828     246.0766 
   13050    76.367037   -913.35372    58668.127    -12703.38    922.83485   -13626.215     35.21152    239.25191 
   13100    78.168703   -1141.2746    58658.752   -12671.227    944.60655   -13615.834    35.505057    244.89639 
   13150    77.966426   -1083.3806    58660.017   -12686.197    942.16219   -13628.359    35.528631    244.26267 
   13200    77.466706   -1181.5889    58613.524   -12669.163    936.12348   -13605.286     35.57258    242.69708 
   13250    76.907405   -1067.3331    58635.255   -12656.255    929.36476    -13585.62    35.851392    240.94484 
   13300    76.662208   -972.01874    58675.031   -12657.425    926.40175   -13583.827    35.931467    240.17665 
   13350    78.147753   -1163.0111    58675.448    -12655.29    944.35338   -13599.643    36.048103    244.83075 
   13400    80.393934   -928.48689    58706.627   -12640.161    971.49669   -13611.658    36.429298    251.86786 
   13450    76.026203   -774.66598    58761.978   -12672.493    918.71614   -13591.209    36.567367     238.1841 
   13500    75.328585   -1457.2746    58735.852   -12672.012    910.28598   -13582.298    36.623032    235.99852 
   13550    77.827546   -932.97175    58721.875   -12630.185    940.48394   -13570.669    36.785674    243.82757 
   13600      78.5539   -1138.1474    58711.095   -12640.526    949.26135   -13589.787    36.805534    246.10318 
   13650    77.275408   -1120.2133    58699.008   -12654.978    933.81179    -13588.79     36.93153    242.09776 
   13700    78.708579   -1117.0308    58716.267    -12673.98    951.13052   -13625.111    36.996267    246.58777 
   13750    78.430415   -1079.3513    58692.828   -12662.229    947.76913   -13609.998    36.936275    245.71631 
   13800    78.508167   -854.00514     58687.77   -12670.463    948.70871   -13619.171    37.256957     245.9599 
   13850     79.74319   -1068.2685     58683.86   -12673.987    963.63297    -13637.62    37.533577    249.82913 
   13900    77.543616   -730.19528    58728.609   -12647.928    937.05287   -13584.981    37.622133    242.93804 
   13950    78.941462   -724.40003    58779.929   -12646.409    953.94473   -13600.354    37.815267    247.31738 
   14000    78.632813   -862.07408     58836.12    -12622.54    950.21495   -13572.755    38.114331     246.3504 
   14050    82.192097   -765.24115    58864.607   -12607.489    993.22606   -13600.715    38.537784    257.50136 
   14100    78.754044   -910.36833    58910.207   -12640.054    951.67993   -13591.734    38.672131    246.73021 
   14150    76.980143    -1126.591    58900.925   -12647.243    930.24375   -13577.486    39.189045    241.17272 
   14200    77.189633   -1111.2518     58874.97   -12668.737    932.77527   -13601.512    39.142581    241.82904 
   14250    77.061586   -1305.3059    58847.792   -12686.209    931.22792   -13617.437    39.357047    241.42787 
   14300    79.163589   -1366.9829    58804.816   -12667.919    956.62895   -13624.548    39.208664    248.01328 
   14350    77.570978   -1333.9721    58776.059   -12668.548    937.38351   -13605.932       39.227    243.02376 
   14400    75.286017   -820.93759    58747.292   -12668.484    909.77158   -13578.256    39.551714    235.86516 
   14450    75.805752   -1475.6035    58718.938   -12704.958    916.05217    -13621.01    39.544946    237.49345 
   14500    76.372821   -1100.4009     58696.77   -12723.156    922.90474   -13646.061    39.620107    239.27003 
   14550    79.417014   -1110.4419    58694.834   -12698.282    959.69139   -13657.974     39.82977    248.80724 
   14600    76.540135   -1279.7925    58721.531   -12685.881     924.9266   -13610.807    39.997993    239.79421 
   14650    77.882361   -999.69349    58738.226    -12695.91    941.14634   -13637.057    40.301245     243.9993 
   14700    77.028697   -1273.4643    58754.332   -12695.675    930.83049   -13626.505    40.729918    241.32484 
   14750    75.249144    -990.7423    58777.031   -12731.656      909.326   -13640.983    40.903276    235.74964 
   14800    76.395378   -1363.8681    58785.371   -12747.128    923.17732   -13670.305    41.187683     239.3407 
   14850     76.40551   -1205.3446    58816.895   -12749.195    923.29977   -13672.494    41.194481    239.37244 
   14900    76.305526   -1037.4427    58850.966   -12719.906    922.09154   -13641.997    41.217029     239.0592 
   14950    78.910832    -1188.689    58867.193   -12702.876    953.57459   -13656.451    41.187781    247.22142 
   15000     75.40439   -950.75339    58888.177   -12717.561    911.20203   -13628.763    41.460228    236.23601 
   15050    74.399077   -1327.8476    58885.347    -12731.34    899.05362   -13630.393    41.862747    233.08644 
   15100    75.351191   -1066.7394    58866.794   -12744.554    910.55916   -13655.113    42.170876    236.06934 
   15150     73.84189   -1159.2452    58822.041   -12778.169    892.32046   -13670.489    42.709164    231.34082 
   15200    74.625352   -1145.2442    58770.088   -12780.469    901.78798   -13682.257    42.910033    233.79535 
   15250    75.150617   -1370.8601    58780.126   -12745.763    908.13539   -13653.898    42.763886    235.44096 
   15300     74.13448     -1401.68    58738.803   -12732.941    895.85617   -13628.797    42.657585    232.25748 
   15350    80.980939   -982.32986    58727.886   -12716.349    978.59018    -13694.94    42.924619     253.7069 
   15400     76.58239   -1000.6777    58735.085   -12717.463    925.43722     -13642.9    43.333618    239.92659 
   15450    74.880298   -872.55406     58679.18   -12722.983    904.86879   -13627.852    43.306799    234.59407 
   15500    77.025083    -795.6556    58732.198   -12741.489    930.78681   -13672.276    43.651838    241.31351 
   15550    74.882413   -1055.0463    58757.722   -12747.141    904.89435   -13652.035    43.644967     234.6007 
   15600    77.382927   -1184.3749    58752.036   -12699.778    935.11107   -13634.889    43.710792    242.43461 
   15650    78.772553   -1148.5285     58742.71   -12690.336     951.9036   -13642.239     44.11633     246.7882 
   15700    77.633251    -844.9233    58764.801   -12663.214    938.13604    -13601.35    44.332931    243.21886 
   15750    78.132394   -757.20465    58761.896   -12671.288    944.16778   -13615.456     44.47638    244.78263 
   15800    77.781782    -1175.696    58771.585   -12663.896    939.93092   -13603.827    44.617709    243.68419 
   15850    78.350229   -1342.0554    58758.075   -12675.605    946.80015   -13622.405      45.0487    245.46509 
   15900    76.179217   -1282.9529    58736.967   -12710.689    920.56519   -13631.255    45.019291    238.66348 
   15950    76.204529   -959.71137    58676.217   -12735.023    920.87106   -13655.894    45.120146    238.74278 
   16000    75.840781   -1086.8115    58674.865   -12754.815    916.47547    -13671.29    45.075845    237.60319 
   16050    74.985749   -1081.9293    58707.625   -12769.106    906.14308   -13675.249    45.050378    234.92444 
   16100    76.477223   -928.11492    58653.306   -12773.792    924.16636   -13697.959    45.465277    239.59711 
   16150    77.599442   -1054.7526    58662.237   -12748.234    937.72748   -13685.962    45.664685    243.11293 
   16200    76.154921   -1003.1702    58636.431   -12775.909    920.27159   -13696.181    45.881365    238.58736 
   16250     74.47487   -1351.8869    58602.592   -12780.192    899.96951   -13680.162    46.123496     233.3239 
   16300    74.843644   -877.76548    58544.957   -12774.009    904.42586   -13678.435    46.274383    234.47924 
   16350    76.378869   -877.36953    58573.229   -12742.584    922.97783   -13665.562    46.501173    239.28898 
   16400    74.823368   -1040.0053    58567.827   -12749.859    904.18084    -13654.04    46.661477    234.41571 
   16450    78.861274   -1089.2665    58591.561   -12721.549    952.97572   -13674.524    46.836687    247.06616 
   16500    78.354464   -751.92495    58600.107   -12707.159    946.85132    -13654.01    47.132148    245.47836 
   16550    77.804317   -793.06588    58623.389   -12691.313    940.20324   -13631.516     47.24283    243.75479 
   16600    77.052009    -838.2083    58653.171   -12698.241    931.11219   -13629.353    47.108313    241.39787 
   16650    75.413605   -743.42323    58669.868   -12701.533    911.31338   -13612.847    47.288558    236.26488 
   16700    77.794286   -761.15437    58697.604   -12677.978    940.08202    -13618.06    47.389743    243.72337 
   16750    78.196313   -1023.7974    58719.336   -12666.421    944.94019   -13611.361    47.769374    244.98288 
   16800    78.336831   -1315.5229    58774.252   -12697.604    946.63825   -13644.243    47.973277    245.42312 
   16850    79.791832   -886.83473    58782.041   -12688.858    964.22077   -13653.079    48.304089    249.98152 
   16900    77.442153   -600.84975    58767.173   -12697.409    935.82677   -13633.236    48.322388    242.62016 
   16950    75.811834   -1144.3604      58780.6   -12744.451    916.12566   -13660.576    48.470598     237.5125 
   17000    76.465477   -1062.4111    58719.809   -12755.035    924.02441    -13679.06    48.768386    239.56031 
   17050    76.892774   -1010.9524    58680.081   -12750.691    929.18797   -13679.879    48.708905      240.899 
   17100    78.592259   -1186.6886    58733.885   -12758.968    949.72488   -13708.693    49.109702    246.22335 
   17150    76.208344   -708.11569    58773.325   -12777.895    920.91717   -13698.812    48.930874    238.75473 
   17200    75.868475   -1269.8032    58700.563   -12772.554    916.81012   -13689.364    48.841337    237.68995 
   17250    75.072463   -1222.1009    58644.725   -12768.575    907.19095   -13675.766    48.868779    235.19611 
   17300    75.332768   -887.33746    58614.464   -12754.058    910.33653   -13664.394    48.919971    236.01162 
   17350    78.397274   -824.80378    58614.192   -12772.868    947.36864   -13720.237    49.254184    245.61248 
   17400    75.619152     -882.951    58651.175   -12763.694    913.79725   -13677.491    49.523062    236.90884 
   17450    75.903358   -725.32138    58690.351   -12747.627    917.23166   -13664.858     49.44831    237.79924 
   17500    79.189365   -617.03996    58746.162   -12714.195    956.94044   -13671.135    49.672259    248.09404 
   17550    76.429179   -981.81209    58788.104   -12720.913    923.58579   -13644.499    50.029594    239.44659 
   17600    76.138132   -941.84421    58831.456   -12736.612    920.06871   -13656.681    50.307255    238.53477 
   17650    77.539763   -1198.6399    58882.523   -12728.077    937.00631   -13665.083    50.085372    242.92597 
   17700    75.536232   -818.39616     58910.73   -12740.714    912.79524   -13653.509    50.272704    236.64906 
   17750    77.961578   -1068.5089     58934.27   -12748.747     942.1036   -13690.851     50.42824    244.24748 
   17800    76.004166   -898.59697    58935.126    -12780.84    918.44985   -13699.289    50.434266    238.11506 
   17850    76.599901   -999.51443    58932.386   -12740.603    925.64882   -13666.252    50.331492    239.98145 
   17900     77.76313   -1123.4638    59008.925   -12703.401    939.70552   -13643.106    50.567135    243.62576 
   17950    75.076244   -1315.0075    59000.916   -12719.837    907.23665   -13627.073    50.786151    235.20796 
   18000    75.508341   -1077.6507    59012.002   -12735.151     912.4582   -13647.609    50.923529    236.56168 
   18050    74.288602   -1028.0072    58983.912   -12774.194    897.71861   -13671.912    50.988359    232.74033 
   18100    75.012387   -994.20544    58952.484   -12788.546    906.46499   -13695.011    51.223242     235.0079 
   18150    74.742149   -1061.7079    58938.319   -12802.058    903.19937   -13705.257     51.20713    234.16126 
   18200    73.061308   -1002.3898    58942.811   -12800.565    882.88774   -13683.453     51.06325    228.89532 
   18250    76.992459   -1322.0195    58922.625   -12774.068    930.39257   -13704.461    51.275862     241.2113 
   18300    73.333203   -1168.7465    58875.876   -12773.432    886.17337   -13659.606    51.060396    229.74714 
   18350    77.770579   -1138.6768    58855.545   -12750.756    939.79553   -13690.552    51.242112    243.64909 
   18400      76.3849   -1105.4862    58838.002   -12763.492    923.05071   -13686.543    51.319873    239.30787 
   18450    74.890112   -1146.5266    58813.633   -12773.085    904.98739   -13678.073     51.46126    234.62482 
   18500    77.305962    -1151.222    58832.891   -12799.847    934.18101   -13734.028    51.356362    242.19349 
   18550    75.213095   -1090.8195    58812.677   -12820.753    908.89038   -13729.643    51.500328     235.6367 
   18600    73.586866   -935.82892    58836.658   -12811.218    889.23869   -13700.457    51.245851    230.54185 
   18650    75.486804     -1065.56    58841.647   -12781.963    912.19793   -13694.161    51.476859    236.49421 
   18700    75.150476   -926.82083    58827.583   -12788.622    908.13368   -13696.756    51.488933    235.44052 
   18750    73.654094   -1594.2267    58826.034   -12798.488     890.0511    -13688.54    51.656901    230.75247 
   18800    75.440999   -824.91869    58876.268    -12821.95    911.64442   -13733.595    51.326227     236.3507 
   18850    74.191123   -1195.4318    58844.816   -12809.015    896.54067   -13705.556    51.644448    232.43494 
   18900    75.619292   -907.74289    58792.103   -12771.666    913.79894   -13685.465    51.908114    236.90928 
   18950     76.51834   -893.19327     58812.45   -12786.622    924.66323   -13711.285    52.229779    239.72593 
   19000    74.984925   -1027.6869    58813.388   -12751.504    906.13312   -13657.637    52.273649    234.92186 
   19050    79.938262   -921.03565    58838.803     -12694.1    965.99026   -13660.091    52.557132    250.44027 
   19100    78.838426   -1037.6212    58832.552   -12682.956    952.69962   -13635.656    52.764793    246.99457 
   19150    77.042385   -867.12555    58861.593   -12709.233     930.9959   -13640.229    53.157196    241.36772 
   19200    79.416198   -834.09597    58845.865   -12697.381    959.68153   -13657.063    53.120866    248.80469 
   19250    79.376156   -1189.9224    58893.948   -12679.119    959.19766   -13638.317    53.341682    248.67924 
   19300    78.210557   -628.69911    58916.392   -12684.699    945.11232   -13629.811    53.239171    245.02751 
   19350    77.115631   -1056.5909    58918.649   -12695.522    931.88101   -13627.403    53.461016    241.59719 
   19400    78.898935   -1098.3622    58897.309   -12699.949    953.43082   -13653.379    53.400428    247.18414 
   19450     79.52708    -940.6052    58848.946   -12704.952    961.02145   -13665.973    53.661354    249.15207 
   19500     76.54443   -1028.7173    58865.081   -12747.514     924.9785   -13672.493     53.58175    239.80766 
   19550    74.206165   -1002.3076     58870.32   -12767.868    896.72243   -13664.591     53.89352    232.48206 
   19600    74.423858   -809.98305    58865.286    -12758.84    899.35308   -13658.193    53.993416    233.16408 
   19650    74.593899   -767.81421    58838.932   -12767.929    901.40789   -13669.337    53.567842    233.69681 
   19700    73.897365   -834.69637    58783.554   -12744.459    892.99084    -13637.45    53.707395    231.51462 
   19750     75.38046   -974.84349    58809.089   -12711.262    910.91285   -13622.175    54.144354    236.16104 
   19800    75.654754   -981.32397    58802.355   -12710.245    914.22747   -13624.472    53.970871    237.02038 
   19850    77.926072   -761.33933    58845.713     -12719.3    941.67455   -13660.974    53.808487    244.13624 
   19900    75.668484   -1238.6855    58863.798   -12733.039     914.3934   -13647.432    53.944462     237.0634 
   19950    74.746496   -1111.6528    58871.018   -12745.962     903.2519   -13649.214    54.324444    234.17488 
   20000     75.99067   -943.00012    58858.427   -12751.244    918.28676   -13669.531    54.868694    238.07278 
   20050    77.815418   -727.84007    58915.932    -12729.52    940.33738   -13669.858    54.951035    243.78957 
   20100    76.397165    -893.6972    58923.712   -12694.415    923.19892   -13617.614    55.185636     239.3463 
   20150     79.13367    -1027.381    58964.509   -12677.373    956.26741    -13633.64    55.354294    247.91955 
   20200    77.492296   -1036.8126    58943.164   -12656.647     936.4327   -13593.079    55.501414    242.77725 
   20250    78.906424   -1011.3295    58933.816   -12637.273    953.52131   -13590.794    55.331483    247.20761 
   20300    79.325985   -800.46067    58944.539   -12639.526    958.59138   -13598.117    55.211987    248.52206 
   20350    81.310707   -1438.8068    58902.617   -12641.044    982.57517   -13623.619    55.069833    254.74004 
   20400    80.732837   -1085.5427     58850.86   -12646.053    975.59207   -13621.645    54.820149    252.92961 
   20450    77.551213   -1153.4786    58842.381   -12673.631    937.14467   -13610.775    55.019932    242.96184 
   20500    78.412527   -1059.1558    58828.102   -12671.617    947.55296    -13619.17    54.735356    245.66026 
   20550    78.322866   -1088.7877    58803.942   -12669.332    946.46948   -13615.801    55.078371    245.37936 
   20600    77.537235   -810.78965    58804.398   -12660.843    936.97576   -13597.819    54.845612    242.91804 
   20650    78.050967   -1225.6011    58814.838   -12646.708     943.1838   -13589.892    55.098979    244.52753 
   20700    77.451401    -1053.435    58778.039   -12670.795    935.93853   -13606.734    55.464108    242.64913 
   20750     79.11997   -1020.8387    58790.846   -12670.002    956.10185   -13626.104     55.67127    247.87663 
   20800    77.408496   -1120.7237    58800.895   -12673.523    935.42005   -13608.943    55.795421    242.51472 
   20850    76.811055   -941.90971    58778.661   -12695.275    928.20046   -13623.476    55.789433    240.64298 
   20900    76.157066   -999.27441    58848.981   -12689.153    920.29752   -13609.451    55.902024    238.59408 
   20950    78.431756   -1016.9371    58866.434   -12666.765    947.78533    -13614.55    55.756725    245.72051 
   21000    78.444445   -1009.0686    58869.732   -12633.143    947.93867   -13581.081    55.744802    245.76026 
   21050     78.01998   -931.29565    58861.425   -12618.791    942.80935     -13561.6    55.871417    244.43045 
   21100    79.614865   -745.29445    58815.573   -12622.817    962.08226   -13584.899    56.076054     249.4271 
   21150     76.60667   -1003.2439    58832.038   -12669.097    925.73062   -13594.827    56.609057    240.00266 
   21200    77.087109   -1339.9928    58806.264   -12653.424    931.53634   -13584.961    56.909217    241.50783 
   21250    78.902789   -1083.8925    58772.317   -12650.128    953.47739   -13603.606    56.614799    247.19622 
   21300    80.102698   -1378.0018    58731.502   -12648.956    967.97734   -13616.933    56.959377    250.95544 
   21350     79.57056   -949.98202    58642.077   -12698.108    961.54687   -13659.655    56.787647    249.28829 
   21400    76.806472   -959.33667    58562.072   -12702.986    928.14507   -13631.131    56.860864    240.62862 
   21450    76.541924   -1030.8131    58567.812   -12699.169    924.94822   -13624.117    56.936242    239.79982 
   21500     78.92451   -1033.8745    58560.461   -12687.685    953.73988   -13641.425    57.262499    247.26427 
   21550    77.309596   -1085.5618    58560.882   -12666.409    934.22492   -13600.634    57.640795    242.20487 
   21600    77.860939   -908.84739    58585.984   -12656.732    940.88747   -13597.619    57.685411    243.93219 
   21650    77.736335   -764.31536    58604.428   -12645.041    939.38172   -13584.422     58.23585    243.54181 
   21700    77.199314   -923.12729    58676.155   -12640.511    932.89225   -13573.403    58.690028    241.85936 
   21750    77.387314   -819.00482    58711.949   -12644.972    935.16408   -13580.136    59.174702    242.44835 
   21800    79.736436   -733.58229    58755.187   -12637.506    963.55136   -13601.057    59.458171    249.80797 
   21850    80.842656    -965.5588        58801   -12649.198    976.91915   -13626.117     59.44836    253.27367 
   21900    78.809472   -1239.5039    58809.913   -12652.949    952.34974   -13605.299    59.496824    246.90386 
   21950    79.761082   -1226.4008    58806.127   -12635.363    963.84918   -13599.212    60.178574    249.88518 
   22000    79.089929   -1311.2653    58852.414   -12683.445    955.73883   -13639.183    60.832699    247.78251 
   22050    78.413683   -1026.2623    58841.333   -12692.921    947.56694   -13640.488    61.053694    245.66389 
   22100    77.291129   -1085.5103    58807.331   -12675.596    934.00176   -13609.598    61.396025    242.14701 
   22150    77.461616   -830.91558    58797.603   -12638.826    936.06197   -13574.888    61.303062    242.68114 
   22200    76.554846   -734.55391    58780.582    -12684.44    925.10437   -13609.545    61.446467     239.8403 
   22250    79.215212   -692.57044    58777.806   -12683.472    957.25278   -13640.724    61.660235    248.17502 
   22300    77.901011      -951.18    58776.353   -12679.759     941.3717   -13621.131    61.341318    244.05773 
   22350    78.800846   -874.60572    58764.507   -12663.633     952.2455   -13615.879    61.160063    246.87684 
   22400    76.666875   -968.31268    58772.182   -12665.923    926.45816   -13592.381    60.909344    240.19128 
   22450    76.567695    -963.0785     58728.77   -12700.339    925.25965   -13625.599    61.283509    239.88055 
   22500    75.780863    -978.7078    58753.224   -12714.152     915.7514   -13629.903     61.31036    237.41547 
   22550    75.886231   -1408.2504    58754.731   -12752.866    917.02469   -13669.891    61.318894    237.74558 
   22600    77.629517   -730.47549    58730.444   -12739.448    938.09092   -13677.539    61.224213    243.20716 
   22650    76.810811    -554.1294    58761.044   -12725.357    928.19751   -13653.555     61.03315    240.64222 
   22700    78.665799   -789.10574    58790.429   -12744.205    950.61356   -13694.819    61.118044    246.45375 
   22750    78.168296   -559.16236     58797.49   -12766.739    944.60163   -13711.341    61.490363    244.89511 
   22800    75.296656   -1133.5774     58843.45   -12765.673    909.90015   -13675.573    62.148658    235.89849 
   22850    75.425682   -771.43159    58895.242    -12777.46    911.45932    -13688.92    62.111517    236.30272 
   22900    73.879657   -1217.1733     58889.49   -12769.252    892.77684   -13662.029    61.949204    231.45914 
   22950    76.158752    -951.8614    58929.778   -12766.732    920.31789    -13687.05    62.063885    238.59937 
   23000    77.025277   -1163.8253    58877.843   -12747.847    930.78915   -13678.636    62.216917    241.31412 
   23050    74.204901   -1287.5574    58830.617   -12758.776    896.70715   -13655.483    62.475292     232.4781 
   23100    75.519177   -1515.9447     58789.28   -12766.171    912.58914    -13678.76    62.480509    236.59563 
   23150    75.454494   -1130.7625    58739.737   -12763.659    911.80749   -13675.467    62.589213    236.39298 
   23200    76.211439   -692.02803    58791.392    -12733.59    920.95458   -13654.545    62.896886    238.76443 
   23250    74.221803   -728.21112    58847.491   -12762.686     896.9114   -13659.597    62.755878    232.53106 
   23300    74.647848   -1269.4881    58892.243   -12778.012    902.05982   -13680.072    62.606778    233.86582 
   23350    74.046654   -1053.3717    58925.818    -12801.69    894.79487   -13696.485    62.388867    231.98233 
   23400    74.239438   -1272.6798    58941.931   -12832.028    897.12451   -13729.153    62.455658    232.58631 
   23450    74.523847   -981.62915    58963.485   -12815.914    900.56136   -13716.476    62.465254    233.47734 
   23500    74.143886   -887.93166    58971.659   -12792.202    895.96984   -13688.171    62.332425    232.28695 
   23550    75.011677   -1021.6868    58986.112   -12762.386     906.4564   -13668.842    62.326808    235.00567 
   23600    74.082445   -1000.5088    58986.177   -12758.934    895.22738   -13654.162    62.497822    232.09446 
   23650    77.824428   -1168.8907    58956.005   -12730.172    940.44626   -13670.619    62.792035     243.8178 
   23700    77.798077   -864.58728     58934.49   -12743.292    940.12783    -13683.42    63.099557    243.73524 
   23750    75.303031   -857.07116    58915.158    -12769.03    909.97718   -13679.007    63.196288    235.91846 
   23800    75.577794   -947.78735     58934.21       -12761    913.29748   -13674.298    63.748468    236.77927 
   23850    75.548363   -1031.0004    58931.639   -12768.601    912.94183   -13681.543    64.139874    236.68707 
   23900    78.537582   -1091.7429    58968.298   -12764.029    949.06416   -13713.093    64.260996    246.05205 
   23950    74.798581   -1063.4245    58970.996    -12784.43    903.88131   -13688.312    64.651968    234.33806 
   24000    77.363597   -800.76028    59018.067   -12734.006    934.87748   -13668.884    64.505204    242.37405 
   24050    77.053946   -1291.1732    59037.242   -12750.993     931.1356   -13682.128    64.671439    241.40394 
   24100    75.776643   -1073.4064    58960.723   -12751.522    915.70041   -13667.222    64.627496    237.40225 
   24150    73.867438   -1081.8941    58983.343   -12760.306    892.62918   -13652.935    64.630119    231.42086 
   24200    75.195379   -965.61052    58998.247   -12763.992    908.67629   -13672.669    64.448213    235.58119 
   24250    73.194537   -1288.8737    58980.103   -12761.304    884.49771   -13645.802    64.403235    229.31272 
   24300    75.688534   -1029.7709    58933.847   -12759.786    914.63568   -13674.422    64.672975    237.12621 
   24350    75.597001   -1339.2242    58898.842    -12738.04    913.52958   -13651.569    64.303286    236.83945 
   24400    76.232652   -979.71339    58875.397   -12719.191    921.21091   -13640.402    64.340882    238.83089 
   24450    75.803759   -1233.6099    58876.768   -12738.082    916.02809    -13654.11    64.477338     237.4872 
   24500    75.247521   -1376.1575    58833.508   -12725.152    909.30639   -13634.458      64.5322    235.74455 
   24550    77.222517   -1349.2472    58777.799   -12735.112    933.17264   -13668.284    64.254868    241.93206 
   24600    77.146655   -1332.2687    58739.397   -12734.571    932.25591   -13666.827    64.522517    241.69439 
   24650    77.266645   -996.29836    58734.261   -12709.014    933.70589    -13642.72     64.75009    242.07031 
   24700     77.16303   -810.05659    58766.557   -12693.176    932.45379    -13625.63    65.106806    241.74569 
   24750    76.518027   -1094.4915      58732.2   -12704.679    924.65945   -13629.339    65.158264    239.72495 
   24800    73.981538   -1398.2466    58656.426   -12739.502    894.00799    -13633.51    65.544711    231.77833 
   24850    77.675975   -1223.3125    58631.845   -12724.321    938.65233   -13662.973    66.060719    243.35271 
   24900    74.479765   -902.22246    58676.077   -12727.824    900.02867   -13627.853     66.49052    233.33923 
   24950    77.571463   -1361.0268    58618.062   -12740.509    937.38938   -13677.898    66.902427    243.02528 
   25000    73.256466   -1388.1643    58579.354   -12733.339    885.24607   -13618.585    66.835018    229.50673 
   25050    76.820831   -1065.0155    58572.715   -12725.716    928.31859   -13654.035    66.590508    240.67361 
   25100    75.511696   -1244.2248    58552.812   -12714.042    912.49873   -13626.541    66.522953    236.57219 
   25150    76.514842   -966.64865    58527.076   -12693.911    924.62096   -13618.532    66.473173    239.71497 
   25200    77.875976   -1203.6398    58537.054    -12734.77    941.06918   -13675.839    66.661661    243.97929 
   25250     76.13851   -1259.2269    58543.589   -12751.602    920.07329   -13671.675    66.831434    238.53595 
   25300    76.757016   -1303.4904    58484.074   -12730.617    927.54743   -13658.165    66.967601    240.47368 
   25350    76.873571   -1191.0033    58465.997   -12724.042    928.95592   -13652.998    67.207918    240.83884 
   25400    76.817452   -1258.4137    58464.509   -12710.831    928.27775   -13639.109    67.318726    240.66302 
   25450    75.724245   -1102.5597    58362.968   -12709.294    915.06722   -13624.361     67.85479    237.23809 
   25500    79.961245   -905.00153    58373.734   -12713.174    966.26799   -13679.442    68.081397    250.51228 
   25550    75.998835   -1094.2265    58377.523    -12745.26    918.38542   -13663.645    67.713965    238.09836 
   25600     76.85375   -1223.7856    58413.475   -12745.709    928.71639   -13674.425    67.387516    240.77674 
   25650    75.750494   -944.36764    58423.138    -12743.01    915.38442   -13658.394     67.47731    237.32033 
   25700    75.230409   -1157.8236    58431.082   -12775.554     909.0996   -13684.654    67.307908    235.69094 
   25750    74.652739   -1108.4343     58389.97   -12809.415    902.11892   -13711.534    67.171966    233.88115 
   25800    72.866592   -1258.4576    58346.563    -12821.55    880.53476   -13702.085    66.953178    228.28529 
   25850    78.450719   -1112.6451    58297.084    -12773.58    948.01449   -13721.594    66.668796    245.77992 
   25900    75.180802   -638.37682      58307.1   -12763.227    908.50015   -13671.727    66.540866    235.53553 
   25950    74.980915   -930.10081    58391.124   -12747.523    906.08467   -13653.608    66.491935     234.9093 
   26000    77.365401   -1209.9038    58437.337   -12752.198    934.89928   -13687.097    66.712927     242.3797 
   26050    73.818197   -1159.3359     58485.11    -12756.96    892.03415   -13648.994    66.838725    231.26659 
   26100     73.95695   -1388.3445    58439.667   -12759.831    893.71087   -13653.542    67.292501    231.70129 
   26150    74.979991   -603.22072    58487.089   -12722.859    906.07351   -13628.933    67.503222     234.9064 
   26200    77.807656   -844.91966    58577.115   -12746.308    940.24359   -13686.552    67.299915    243.76525 
   26250    78.442721   -801.41831        58681   -12718.289    947.91784   -13666.207    67.567841    245.75486 
   26300    77.390577   -1131.3339    58743.682   -12698.868    935.20351   -13634.072    67.904888    242.45858 
   26350    76.064885   -745.29462    58777.321   -12731.513    919.18358   -13650.697    68.233645    238.30529 
   26400    76.766013   -1203.4111    58732.072    -12705.36    927.65616   -13633.016    68.238978    240.50187 
   26450    73.769589   -1593.7582    58659.845    -12714.03    891.44676   -13605.477    68.236625    231.11431 
   26500    75.654994   -1089.4204    58614.674   -12731.738    914.23037   -13645.968    68.539194    237.02113 
   26550    76.421115    -1071.923    58602.841   -12743.086    923.48834   -13666.574    68.590799    239.42133 
   26600    72.326376   -1197.0141    58540.467   -12744.988    874.00667   -13618.995    68.739689    226.59283 
   26650     74.69599   -941.26235    58566.919   -12748.007    902.64158   -13650.648    68.721743    234.01665 
   26700     76.55464   -1280.4832    58559.882   -12694.303    925.10188   -13619.404    68.413159    239.83965 
   26750    78.678294   -1259.1996    58512.835   -12706.126    950.76454    -13656.89    68.827492    246.49289 
   26800    77.981931   -1259.6727    58518.258   -12693.672    942.34956   -13636.021    68.700408    244.31124 
   26850    76.863948   -1050.1704    58503.324   -12705.388    928.83963   -13634.228    69.149418    240.80869 
   26900    79.461886   -968.41427    58498.072   -12682.077    960.23364    -13642.31    69.321647    248.94782 
   26950    76.027804   -1018.8204    58508.497   -12676.017    918.73549   -13594.753    69.741224    238.18912 
   27000    77.439817   -907.06241    58521.037   -12687.624    935.79854   -13623.422    69.602223    242.61284 
   27050    75.431323   -844.97586    58503.519   -12693.311    911.52749   -13604.839    69.300609    236.32039 
   27100    74.324595   -1067.6699    58533.418   -12697.427    898.15357   -13595.581    69.108478     232.8531 
   27150    76.792589   -800.35068     58527.93   -12709.323     927.9773     -13637.3    69.024071    240.58513 
   27200    75.126874   -721.57679    58504.755   -12699.031    907.84847    -13606.88    69.178174    235.36657 
   27250    73.592656   -973.06934    58550.142   -12705.666    889.30866   -13594.975    69.478069    230.55999 
   27300    75.965701   -980.05056    58509.322   -12701.572    917.98503   -13619.557    69.583978    237.99455 
   27350    75.888785   -1080.1422    58512.682   -12702.374    917.05556    -13619.43    69.751448    237.75358 
   27400    76.065862    -800.1263    58498.394   -12705.319    919.19539   -13624.514    69.773697    238.30835 
   27450     75.41096   -878.30601    58488.169   -12682.638    911.28143   -13593.919    70.173947    236.25659 
   27500    76.854405   -1335.9517    58451.088   -12693.054     928.7243   -13621.778    70.238161    240.77879 
   27550    77.469599   -1342.5691    58420.806   -12675.732    936.15843    -13611.89    70.344226    242.70615 
   27600    77.975075   -1013.8407    58396.109   -12697.567    942.26671   -13639.834    70.349189    244.28976 
   27650    78.270467   -1286.8645    58392.654   -12672.647    945.83629   -13618.484    70.747679     245.2152 
   27700    79.165604    -1054.563    58391.271    -12694.63    956.65331   -13651.283    71.108551     248.0196 
   27750    75.842709   -1267.4223    58334.145    -12710.33    916.49876   -13626.829    71.273486    237.60923 
   27800    76.609304   -962.05478     58276.82   -12749.487    925.76245    -13675.25    71.313066    240.01091 
   27850    73.552256   -1053.1115    58239.598   -12756.068    888.82046   -13644.889    71.671187    230.43342 
   27900    76.226961   -794.44231    58284.313   -12751.783    921.14214   -13672.926    71.972913    238.81306 
   27950    76.063655   -931.65773    58317.121   -12739.774    919.16871   -13658.943    72.538916    238.30143 
   28000    76.314307   -1317.2585    58336.691   -12735.194    922.19765   -13657.392    72.423708    239.08671 
   28050    75.997876   -471.86834    58374.606   -12716.485    918.37384   -13634.859     72.44043    238.09536 
   28100    76.570563   -971.53168    58430.312   -12710.023     925.2943   -13635.317     72.58226    239.88954 
   28150    77.424782   -949.32795    58413.765   -12687.058    935.61686   -13622.675     72.56542    242.56574 
   28200    74.910461   -837.94911    58426.314   -12703.286    905.23328   -13608.519    72.638365    234.68857 
   28250    77.258505   -1025.1708     58454.82   -12703.672    933.60753   -13637.279    72.526971     242.0448 
   28300    81.461227   -1217.6947    58427.097   -12659.488    984.39408   -13643.882    72.653185     255.2116 
   28350    78.550134    -1036.172    58405.491   -12636.015    949.21584   -13585.231    73.030811    246.09138 
   28400    79.986106   -924.41474    58443.162   -12613.412    966.56842    -13579.98    72.996394    250.59016 
   28450    79.220403   -990.43213    58490.686   -12638.677    957.31551   -13595.993    73.234045    248.19128 
   28500    77.204625   -1385.0307    58536.721   -12663.926    932.95643   -13596.883    73.976349      241.876 
   28550    78.594064   -1267.1605    58510.835   -12707.574     949.7467   -13657.321     74.23019    246.22901 
   28600     76.69742   -1223.3349     58475.98   -12684.319    926.82726   -13611.146    74.286749    240.28697 
   28650    76.747803   -1128.5354    58442.332   -12711.367     927.4361   -13638.803    74.442315    240.44482 
   28700    77.056686   -848.78998    58500.151   -12703.624    931.16871   -13634.793    74.546208    241.41252 
   28750    75.744924    -1326.111    58485.887   -12749.156    915.31711   -13664.473    74.583425    237.30288 
   28800    77.274206   -1345.5672    58479.188   -12709.175    933.79727   -13642.973     74.73805      242.094 
   28850    78.255251   -1192.9302    58422.906   -12699.875    945.65241   -13645.527    74.991875    245.16753 
   28900    79.895776   -928.54676    58503.161   -12664.551    965.47685   -13630.027    75.085971    250.30717 
   28950    80.858527   -712.60584    58595.334   -12661.791    977.11093   -13638.902     75.58218    253.32339 
   29000    79.260597   -1141.6308    58654.777   -12672.601    957.80122   -13630.402    75.687778     248.3172 
   29050    79.191006   -874.26686    58705.624   -12678.317    956.96027   -13635.278    76.064544    248.09918 
   29100    77.151107   -1126.0249    58726.686   -12694.702    932.30971   -13627.012    76.024217    241.70834 
   29150     77.22929   -906.15594    58748.345   -12680.578    933.25449   -13613.833    75.760679    241.95328 
   29200    78.192914   -992.38052    58786.097   -12677.834    944.89912   -13622.733    76.135003    244.97224 
   29250    79.636509   -1033.2396    58781.818   -12690.554    962.34382   -13652.898    75.767548    249.49491 
   29300    75.274674    -1372.196    58761.286   -12696.434    909.63451   -13606.069    75.763372    235.82962 
   29350    73.348054   -929.99049    58730.836   -12728.747    886.35284     -13615.1    75.885594    229.79367 
   29400    77.671357   -1411.5015     58647.14   -12714.059    938.59652   -13652.655    76.176907    243.33824 
   29450    75.628341   -1319.4803    58612.832   -12724.995     913.9083   -13638.903    76.364738    236.93763 
   29500    77.890016   -1065.4797     58569.51   -12694.498    941.23884   -13635.737    76.079904    244.02328 
   29550    78.024005   -927.07731    58612.747   -12679.836    942.85799   -13622.694    76.080527    244.44306 
   29600    76.825422   -1079.8217    58627.719   -12721.296    928.37406    -13649.67    76.819945    240.68799 
   29650    75.383174    -912.4548    58640.122   -12718.049    910.94564   -13628.995    77.275761    236.16954 
   29700    74.535116   -916.84558    58643.628   -12739.355    900.69755   -13640.052    77.404825    233.51264 
   29750    75.381997   -713.31591    58688.892    -12748.56    910.93142   -13659.491    77.536873    236.16585 
   29800    75.234396   -920.70894    58698.892   -12769.084    909.14779   -13678.232     77.92875    235.70343 
   29850    75.012214   -1100.1425    58746.911   -12776.551    906.46289   -13683.014    78.057469    235.00735 
   29900    76.041583   -1111.8586    58731.819   -12741.883      918.902   -13660.785    78.303401    238.23229 
   29950    76.059631   -1311.9306    58700.691   -12727.589    919.12009   -13646.709    78.079795    238.28883 
   30000    73.907879   -1224.4774    58600.802   -12746.565    893.11789   -13639.683    77.984178    231.54756 
   30050    76.396388   -1415.6187     58539.84    -12754.44    923.18954    -13677.63    77.834642    239.34386 
   30100    74.857514   -1207.2788    58493.863   -12754.723    904.59346   -13659.316    77.592088    234.52269 
   30150     73.63077   -1396.8002    58432.923   -12755.556    889.76924   -13645.326    77.661474     230.6794 
   30200    75.909236   -1247.2463    58402.099   -12735.393    917.30269   -13652.695    78.034416    237.81765 
   30250    74.925641   -993.12125    58376.016   -12690.522    905.41673   -13595.939    78.035234    234.73613 
   30300    77.451183   -834.54893    58401.236   -12735.749    935.93589   -13671.685     78.07618    242.64845 
   30350    77.949888   -882.49151    58395.661   -12719.509    941.96234   -13661.472    78.268828    244.21085 
   30400    77.080228   -773.47314    58405.855   -12728.919     931.4532   -13660.373     78.51769    241.48628 
   30450    76.067889   -735.61645    58444.319   -12747.312    919.21988   -13666.531    78.293852     238.3147 
   30500    76.017606    -962.9599    58482.632   -12769.635    918.61226   -13688.248    78.373623    238.15717 
   30550    75.662706   -1020.9425    58502.889   -12762.471    914.32358   -13676.795    78.677479     237.0453 
   30600    75.635962   -1165.2332    58602.489   -12751.438    914.00039   -13665.439    78.989147    236.96151 
   30650    75.487991   -1046.6956    58619.031   -12743.966    912.21227   -13656.179    79.207136    236.49792 
   30700    76.597486   -1228.9927    58679.938   -12708.415    925.61964   -13634.035    79.617518    239.97388 
   30750    75.922213    -1188.129    58663.106   -12709.479     917.4595   -13626.938    79.984859    237.85831 
   30800    79.171724    -1173.042    58660.485   -12686.806    956.72726   -13643.533    79.991413    248.03877 
   30850     76.84093   -793.11099    58641.837   -12690.264    928.56146   -13618.825    80.141966    240.73658 
   30900    78.174731   -925.62971    58637.884   -12727.182     944.6794   -13671.861    80.309351    244.91527 
   30950    75.038933   -1378.5773    58656.971   -12734.616    906.78577   -13641.402    80.826274    235.09106 
   31000    74.498363   -1177.6595    58639.887   -12766.032    900.25341   -13666.285    80.832712     233.3975 
   31050    77.728587   -1366.4685    58559.572   -12768.988     939.2881   -13708.276    81.000967    243.51754 
   31100    73.509263   -1182.2397    58527.953   -12785.986    888.30093   -13674.287    81.306872    230.29873 
   31150    76.869259   -1024.4474    58482.472   -12760.177    928.90381    -13689.08    81.190894    240.82533 
   31200    78.060352   -1164.4193    58487.247   -12747.917    943.29722   -13691.214     81.19096    244.55693 
   31250    77.130913   -1109.9769    58459.508   -12770.121    932.06568   -13702.187     80.96352    241.64507 
   31300    77.804291   -861.39419    58468.906   -12725.671    940.20291   -13665.874    81.090547    243.75471 
   31350    76.398439   -1014.1597    58443.985   -12743.043    923.21431   -13666.257    80.611799    239.35029 
   31400    77.961211   -1053.5558    58490.071   -12727.718    942.09918   -13669.818    80.941354    244.24633 
   31450    75.459258    -1014.322    58496.183   -12745.282    911.86506   -13657.147    81.247233    236.40791 
   31500    75.054626   -978.81444    58508.234   -12754.591     906.9754   -13661.566    81.272271    235.14023 
   31550    75.290906   -1457.6499    58496.197   -12757.297    909.83066   -13667.128    81.190998    235.88047 
   31600     77.33175   -955.11711    58474.639   -12729.211    934.49264   -13663.703    81.298491    242.27428 
   31650    76.241711   -1195.6093    58494.323    -12732.28    921.32039     -13653.6    81.617236    238.85927 
   31700    78.123648   -946.69947    58524.974   -12719.843     944.0621   -13663.905    81.772481    244.75523 
   31750    77.703673   -1340.4391    58509.825   -12714.631    938.98703   -13653.618    81.724916    243.43948 
   31800    77.608198   -1168.2852    58446.277   -12757.783    937.83329   -13695.617    81.404243    243.14037 
   31850    75.178806   -957.36415    58428.006   -12746.889    908.47602   -13655.365    81.825683    235.52927 
   31900    76.847378   -1234.3902    58432.199   -12739.599    928.63938   -13668.238    81.855001    240.75678 
   31950    75.726685   -873.12325     58434.95   -12728.963    915.09671    -13644.06    81.757023    237.24574 
   32000    79.550538   -1118.7063    58406.296   -12720.218    961.30493   -13681.522     81.95999    249.22557 
   32050    78.865477   -1224.9228    58426.666   -12700.131     953.0265   -13653.158    82.408783    247.07932 
   32100    76.700121     -906.444     58435.92   -12720.094     926.8599   -13646.954    82.413555    240.29543 
   32150     75.46593   -1544.8492    58463.208   -12722.565    911.94569   -13634.511    82.479403    236.42881 
   32200    76.742363   -918.82263    58456.574   -12778.239    927.37037   -13705.609    82.315504    240.42777 
   32250    77.039929   -1061.9649     58483.92   -12760.443    930.96622   -13691.409    82.545889    241.36003 
   32300    72.357892   -899.41762    58495.856   -12782.689    874.38752   -13657.077    82.799374    226.69157 
   32350    74.957527   -720.80288    58511.075   -12771.295    905.80204   -13677.097     83.16353    234.83602 
   32400    75.213063   -613.90151    58590.858   -12756.726    908.88999   -13665.616    83.348006     235.6366 
   32450    75.193249   -772.95482    58633.216   -12749.875    908.65055   -13658.525    83.963901    235.57452 
   32500    74.457134    -1064.024    58632.982   -12753.413    899.75519   -13653.168    84.708383    233.26833 
   32550    74.393138   -1044.7149    58641.469   -12723.719    898.98185   -13622.701    84.860049    233.06784 
   32600    75.278383   -1193.0837    58602.781   -12701.939    909.67934   -13611.619    85.096837    235.84124 
   32650    75.501386   -1270.6405    58560.358   -12688.092    912.37415   -13600.466     85.30922    236.53989 
   32700    75.188195   -969.13519    58552.923   -12672.476    908.58949   -13581.066    85.630123    235.55869 
   32750    79.623854   -1046.1544    58574.037   -12693.149    962.19088    -13655.34    85.512468    249.45526 
   32800    78.287888   -1071.1129    58587.748   -12682.897     946.0468   -13628.944    85.324629    245.26978 
   32850      77.7416   -1218.1911    58619.272   -12693.138    939.44534   -13632.583    85.560792     243.5583 
   32900    76.541167   -948.83247    58589.577   -12681.088    924.93907   -13606.027    85.517186    239.79744 
   32950    76.085543   -1544.3152    58560.514   -12707.708    919.43322   -13627.141    85.201333    238.37001 
   33000    73.391933   -1042.6714    58498.928   -12727.552    886.88308   -13614.435    85.276211    229.93114 
   33050    75.187315   -1162.5433    58508.529    -12706.97    908.57885   -13615.549     85.01315    235.55593 
   33100    77.869864   -1493.6699    58523.893   -12700.761    940.99532   -13641.756    85.035535    243.96015 
   33150    76.980223   -997.28132    58525.824   -12705.118    930.24471   -13635.363      85.3877    241.17297 
   33200    77.542793   -1113.5189    58533.171   -12685.649    937.04292   -13622.692    85.682384    242.93546 
   33250    75.131513   -860.47469    58539.542   -12676.576    907.90453    -13584.48    86.224879    235.38111 
   33300    77.793515   -1197.0874    58536.186   -12676.056    940.07271   -13616.129    86.297723    243.72095 
   33350    76.430766   -1067.8964     58553.31   -12697.208    923.60496   -13620.813    86.635356    239.45156 
   33400    75.477318   -900.55225     58550.62   -12653.209    912.08331   -13565.293    86.771704    236.46449 
   33450     79.67096   -652.34416    58559.772   -12650.093    962.76013   -13612.853    86.810492    249.60284 
   33500    75.166769   -952.44328    58520.597   -12688.133    908.33057   -13596.463      86.4959    235.49156 
   33550    74.680946   -1003.4265    58468.342   -12697.933    902.45978   -13600.393    87.030003    233.96952 
   33600     74.81457   -1139.0242    58466.649    -12713.47    904.07453   -13617.544    87.111853    234.38815 
   33650    76.599906   -1015.2497    58420.647   -12687.917    925.64889   -13613.566    87.429376    239.98147 
   33700    76.444888   -1037.8852    58406.336   -12689.615    923.77561   -13613.391     87.04194    239.49581 
   33750    76.310924   -1263.0006    58388.039   -12667.492    922.15677   -13589.649    87.528727    239.07611 
   33800    79.135524   -986.49061    58387.703   -12691.941    956.28982    -13648.23    87.665333    247.92536 
   33850    77.505823   -779.84406    58374.268   -12681.687    936.59618   -13618.283    87.413186    242.81964 
   33900    77.358655   -861.28826    58429.288   -12688.557    934.81777   -13623.375    87.675076    242.35857 
   33950    74.623731   -801.70527    58487.968   -12709.997    901.76838   -13611.765    87.634592    233.79027 
[...]
   92000      75.6531   -1378.8484    59752.377   -12945.133    914.20749   -13859.341    207.40096     237.0152 
   92050     77.67455   -1067.0336    59721.226    -12956.72     938.6351   -13895.355    207.70844    243.34824 
   92100    74.982961   -1292.9729    59711.623   -12951.403    906.10939   -13857.513    207.87913    234.91571 
   92150    76.425449   -904.63312    59733.516    -12954.96    923.54071     -13878.5    207.80621    239.43491 
   92200    76.924763   -1195.6568    59781.462   -12922.652    929.57453   -13852.227    208.29191    240.99922 
   92250    78.209515   -1399.2176    59802.213   -12894.856    945.09973   -13839.955    208.26369    245.02425 
   92300    80.758384   -1079.7609    59871.279   -12863.959    975.90078    -13839.86    208.09402    253.00965 
   92350    76.826287   -932.54046    59902.607   -12892.418    928.38452   -13820.803    208.53287     240.6907 
   92400    78.739772   -766.07969    59872.459   -12913.912    951.50747    -13865.42    208.39678     246.6855 
   92450    77.731097    -1058.489    59889.635   -12895.977    939.31843   -13835.296    208.75447     243.5254 
   92500    77.896651   -1288.1456    59853.926   -12943.236    941.31901   -13884.555    208.83087    244.04407 
   92550    75.258841   -1309.9425    59857.547   -12921.953    909.44319   -13831.396    208.62197    235.78002 
   92600    77.022982   -995.79763    59877.495   -12913.758    930.76142    -13844.52    209.08941    241.30693 
   92650    78.536494    -1172.718    59894.417   -12873.745    949.05101   -13822.796    209.35099    246.04864 
   92700    78.982343   -1136.6696     59876.76   -12908.584    954.43874   -13863.023    209.41851    247.44546 
   92750    75.652866   -1301.2036    59859.757   -12925.529    914.20466   -13839.733    209.44022    237.01447 
   92800    77.489678   -1109.9796    59871.499   -12913.088    936.40107   -13849.489    209.22056    242.76905 
   92850    78.061203   -1319.4985    59858.437   -12938.577    943.30749   -13881.885    209.14776    244.55959 
   92900    76.128122   -1114.0363    59887.003   -12924.193    919.94776   -13844.141    208.65345    238.50341 
   92950    80.463979   -1270.2003    59908.179    -12879.99    972.34314   -13852.333    208.54082    252.08731 
   93000    78.395931   -1059.8458    59921.866   -12883.265    947.35242   -13830.617     208.7729    245.60827 
   93050    79.894847   -1415.5682    59917.965   -12844.683    965.46563   -13810.149    209.11269    250.30426 
   93100    78.441707   -1332.3219    59931.119   -12859.624    947.90559   -13807.529    209.29805    245.75169 
   93150     76.56206   -1392.8544    59916.302   -12897.544    925.19155   -13822.736    208.56396     239.8629 
   93200    76.565518   -1567.6962    59859.935   -12952.565    925.23333   -13877.799    208.69186    239.87373 
   93250    77.532024   -1123.0232    59803.265   -12934.541    936.91279   -13871.454    209.26793    242.90172 
   93300    79.238103   -1582.2224    59781.316   -12915.816    957.52939   -13873.346    208.80972    248.24673 
   93350    74.194997   -1216.6724    59795.599    -12914.13    896.58748   -13810.718     208.7446    232.44708 
   93400    74.362761    -1357.864    59835.249   -12958.147    898.61478   -13856.761    208.79203    232.97267 
   93450    74.779284   -1596.1793    59855.407   -12962.831    903.64812   -13866.479    208.86645     234.2776 
   93500    76.700027   -1262.9014    59828.659   -12945.326    926.85877   -13872.185    208.90456    240.29514 
   93550    77.717524   -1308.5849    59781.776   -12930.332     939.1544   -13869.486    209.01544    243.48288 
   93600    74.719758   -1298.6019    59732.169   -12944.263     902.9288   -13847.192    208.42594    234.09111 
   93650    77.803955   -1033.7722    59740.331   -12936.908    940.19886   -13877.107    209.01703    243.75366 
   93700    74.888785   -1417.1429    59760.819   -12954.681    904.97135   -13859.653    209.16465    234.62066 
   93750    77.179883   -1125.6761    59781.815   -12945.971    932.65745   -13878.628    208.92823    241.79849 
   93800    75.749346   -1328.3461     59788.41   -12963.136    915.37054   -13878.507    209.22228    237.31673 
   93850     78.15133   -1266.7975    59774.625   -12971.521    944.39661   -13915.917    209.16955    244.84196 
   93900    74.125674    -1117.384    59791.757   -12965.746    895.74977   -13861.496    209.34772    232.22989 
   93950    74.395141   -1240.2707    59797.022   -13003.738    899.00606   -13902.744    210.15996    233.07411 
   94000    77.741237   -1229.7737     59793.56   -12944.325    939.44096   -13883.766    210.53303    243.55717 
   94050    77.357221   -1165.4626    59802.233    -12965.68    934.80044   -13900.481    210.09754    242.35408 
   94100    77.306303   -1537.2151    59813.962    -12976.31    934.18513   -13910.495    210.07699    242.19455 
   94150    75.509092   -1075.8003    59860.269   -12970.676    912.46727   -13883.143    209.71251    236.56403 
   94200    77.079771   -1298.1226    59856.109   -12925.458    931.44767   -13856.906    210.15645    241.48485 
   94250    75.704798   -1450.7034    59796.038   -12950.649    914.83222   -13865.481    209.69557    237.17717 
   94300    77.505178   -1263.8465    59785.244   -12977.401    936.58838   -13913.989    210.19501    242.81761 
   94350    78.271113   -1033.7562    59800.714   -12956.891    945.84409   -13902.735     210.1148    245.21723 
   94400    77.629377   -1353.1237    59829.225   -12953.414    938.08923   -13891.503    210.27349    243.20672 
   94450    79.222903   -1177.2253     59803.34   -12943.259    957.34571   -13900.604      210.286    248.19911 
   94500    76.910051   -1401.2691    59792.589   -12988.756    929.39674   -13918.153    210.21028    240.95313 
   94550    76.451856   -1257.2345    59780.103   -12995.748    923.85982   -13919.607    210.37114    239.51764 
   94600    77.192279    -1078.686    59824.137    -12998.89    932.80725   -13931.697    210.72082    241.83733 
   94650    77.715075   -1293.3049    59777.102   -12998.637    939.12481   -13937.762    210.65609     243.4752 
   94700    76.771526   -1486.0852     59760.97     -12993.5    927.72278   -13921.223    210.27282    240.51914 
   94750    75.507264   -1183.6446    59747.296   -12999.353    912.44517   -13911.798    210.88609     236.5583 
   94800    77.560127   -1235.5363    59766.478   -13017.293    937.25239   -13954.545    211.29936    242.98976 
   94850    75.349051   -1421.3561    59831.905   -13041.095     910.5333   -13951.628    210.80624    236.06264 
   94900    76.251352   -990.78318    59882.062   -13026.816    921.43689   -13948.253    210.71822    238.88947 
   94950    75.198734   -1307.7769     59912.78   -13006.131    908.71684   -13914.848    210.91646    235.59171 
   95000    76.002031   -1024.3621    59967.308   -13016.391    918.42405   -13934.815    210.53104    238.10837 
   95050    74.193052   -1041.5553    59996.729   -13019.998    896.56397   -13916.562    210.71447    232.44098 
   95100    78.000436   -1129.4205    59991.569   -12987.421    942.57318   -13929.994    210.41064    244.36922 
   95150     77.48741   -921.50077    59960.635   -12967.009    936.37367   -13903.383    210.36821    242.76195 
   95200    78.228762   -1012.8529    59978.291   -12976.415    945.33231   -13921.747    210.92587    245.08455 
   95250    77.194621   -1125.5228    59977.261   -12955.833    932.83555   -13888.669    210.46132    241.84466 
   95300    76.929487   -1152.7772    60018.357    -12963.85    929.63161   -13893.481    211.48262    241.01402 
   95350    77.159354   -1010.5334    60036.784   -12952.091    932.40937   -13884.501     211.7763    241.73417 
   95400    78.173394   -1171.7281    60026.218   -12940.485    944.66323   -13885.149    212.03321    244.91108 
   95450    76.831194   -1298.1724    60010.713    -12963.25    928.44382   -13891.694    212.88701    240.70608 
   95500    77.876068   -1230.2338    59980.409    -12981.01    941.07029   -13922.081     213.0634    243.97958 
   95550    78.342048   -1254.1543    59983.674   -12973.984    946.70128   -13920.685    213.32095    245.43946 
   95600    80.196851   -1029.6474    60008.079   -12975.453     969.1151   -13944.568    212.74333    251.25041 
   95650     76.49184   -1254.8402    60079.463    -12971.79    924.34299   -13896.133    213.18153     239.6429 
   95700    74.327487   -1399.0646    60036.962   -13018.439    898.18851   -13916.627     212.8518    232.86216 
   95750    75.191851   -1360.9598    59991.535   -13018.378    908.63367   -13927.012     212.8542    235.57014 
   95800    76.432316   -978.72804     59950.98   -13014.571    923.62369   -13938.195    212.49716    239.45642 
   95850    77.571984   -567.77741    59938.688   -12984.653    937.39568   -13922.048    213.08862    243.02691 
   95900    76.992539   -746.03885    60004.592   -12996.216    930.39354   -13926.609    212.87692    241.21156 
   95950    77.856698   -852.86101    60050.722   -12982.817    940.83622   -13923.653    212.88645     243.9189 
   96000    76.194558   -1282.1446    60076.801   -13022.209    920.75058    -13942.96    212.98712    238.71155 
   96050    70.933518   -1105.7013    60089.387   -13052.177     857.1751   -13909.352    213.24134    222.22912 
   96100    75.017252   -1323.0121    60130.864   -13047.008    906.52378   -13953.532    213.36133    235.02314 
   96150    74.942125   -1197.8535     60137.05   -13048.792    905.61592   -13954.408    213.43701    234.78777 
   96200    74.103216   -972.43712     60137.94   -13065.601    895.47837    -13961.08    213.45816    232.15953 
   96250    74.888289   -1000.6838    60149.678   -13065.806    904.96535   -13970.772    213.80054     234.6191 
   96300     75.38407   -1105.8277    60148.211   -13055.185    910.95647   -13966.141    213.59485    236.17235 
   96350    76.380286    -875.7983    60105.439   -13011.095    922.99495    -13934.09    213.90648    239.29342 
   96400    77.315447   -1331.3761    60139.443   -13016.645    934.29563   -13950.941    213.94773     242.2232 
   96450    76.332606   -1405.3158    60122.988   -13037.872    922.41878    -13960.29    214.21995    239.14404 
   96500    76.626532    -907.0092    60103.664   -12988.055    925.97064   -13914.026    214.02828    240.06488 
   96550    79.566357    -1146.685    60105.949    -12987.88    961.49608   -13949.376    213.87484    249.27512 
   96600    76.759339   -918.93787    60123.882   -13006.387    927.57551   -13933.962     213.3947    240.48096 
   96650    78.873384   -1236.3777    60096.143     -12986.8    953.12206   -13939.922    213.80329    247.10409 
   96700    73.784315   -1124.8667    60088.891   -13014.111    891.62471   -13905.736    213.43151    231.16044 
   96750    76.130447   -1116.7431    60067.013   -13029.005    919.97585   -13948.981    214.03383    238.51069 
   96800    76.276305   -1194.2613    60014.776   -13020.564    921.73843   -13942.302     214.0459    238.96765 
   96850     74.58422    -1086.577    60003.507   -13035.943    901.29092   -13937.233    214.39904    233.66648 
   96900    79.870762   -1300.2117     60001.62   -13005.568    965.17457   -13970.743    214.50272     250.2288 
   96950    76.252757   -1103.1577    59987.136   -13049.841    921.45386   -13971.295    214.31849    238.89388 
   97000    76.256132   -1282.2754    59976.443   -13056.878    921.49465   -13978.373    214.42071    238.90445 
   97050    74.490376   -1228.1422    59946.462   -13054.354     900.1569   -13954.511    214.49232    233.37248 
   97100    75.638337   -1201.4811    59852.523   -13050.239    914.02909   -13964.268     214.2354    236.96895 
   97150    77.488581   -767.88991    59856.255   -13071.394    936.38782   -14007.781    213.76659    242.76562 
   97200    73.886532   -993.90034    59842.105   -13102.389    892.85992   -13995.249    213.97444    231.48068 
   97250    73.388994   -1008.1191    59865.064   -13096.697    886.84757   -13983.545     213.7834    229.92193 
   97300    72.781328   -1178.0313    59863.313   -13069.661    879.50441   -13949.166    213.30802    228.01816 
   97350      76.5742   -1201.6533    59852.288   -13055.714    925.33824   -13981.052    212.84261    239.90093 
   97400    76.030614   -1449.4842      59789.8   -13048.901    918.76945    -13967.67    213.42182    238.19792 
   97450    78.507627    -1077.669    59836.661   -13056.485    948.70218   -14005.187    213.31008    245.95821 
   97500    78.167891   -1140.5434    59856.174    -13053.89    944.59673   -13998.487     213.4255    244.89384 
   97550    74.681294   -1010.7422    59892.979   -13043.773    902.46399   -13946.237    213.68655    233.97061 
   97600    76.319163   -964.45252    59946.211   -13053.701    922.25634   -13975.958    213.44715    239.10192 
   97650    76.442171   -980.97541    59988.888   -13063.367    923.74279   -13987.109    213.84757     239.4873 
   97700    75.973849   -1156.3334    59969.155   -13021.014    918.08348   -13939.098    213.75859    238.02008 
   97750     74.76046   -1264.3013    59991.393   -13007.311    903.42064   -13910.732    213.69102    234.21863 
   97800    78.627426   -1175.5388    60002.103   -12991.078    950.14985   -13941.228    213.68283    246.33353 
   97850    74.377511   -1141.2917    59983.397    -12997.71    898.79301   -13896.503    214.29509    233.01888 
   97900    78.049079   -1089.5657    60007.219   -12993.223    943.16099   -13936.384    213.99478    244.52161 
   97950    78.179159   -1057.9133    59969.986   -12999.607     944.7329    -13944.34    213.84423    244.92914 
   98000    77.196835   -983.22171    59934.279   -13000.828    932.86229    -13933.69    214.04209     241.8516 
   98050    79.980616   -973.06997    59943.582   -12957.178    966.50208    -13923.68    214.50051    250.57297 
   98100    81.521004    -845.3171    59996.749   -12964.565    985.11644   -13949.682    214.70363    255.39888 
   98150    76.012667   -1141.0043    60035.437   -12967.007    918.55257    -13885.56    214.84416    238.14169 
   98200    76.466257   -826.74901    60050.323   -12985.951    924.03384   -13909.985    215.31675    239.56275 
   98250    78.610148   -1154.3185    60145.197   -12997.376    949.94106   -13947.317    214.65095     246.2794 
   98300    76.691925   -1272.7956    60193.043   -12984.121    926.76087   -13910.882     214.5456    240.26976 
   98350    77.313308    -1142.292    60175.368   -13017.882    934.26978   -13952.152    214.12313     242.2165 
   98400    79.217628   -1344.1406    60154.251   -13027.071    957.28198   -13984.353    214.28995    248.18259 
   98450    77.272057   -1164.4486    60147.419   -13041.605     933.7713   -13975.377    213.96882    242.08726 
   98500     77.74353   -1301.1942     60168.52   -13050.572    939.46867    -13990.04    214.28031    243.56435 
   98550    76.237413   -1284.9375    60168.893   -13043.988    921.26844   -13965.256    214.45114     238.8458 
   98600    77.412149    -1537.667    60148.954    -13051.49     935.4642   -13986.954    214.74474    242.52616 
   98650    76.987478   -1408.4569    60084.476   -13047.291    930.33239   -13977.623    214.97737     241.1957 
   98700    76.470901    -1496.897    60049.698   -13054.504    924.08996   -13978.594    214.82451    239.57731 
   98750     75.99291   -1316.6148    60061.728   -13051.102    918.31382   -13969.416    214.84865     238.0798 
   98800    80.388948   -1596.0428    60084.473   -13001.703    971.43644    -13973.14    215.17777    251.85224 
   98850    78.617816   -1135.7626    60049.562   -13005.822    950.03372   -13955.855    215.23509    246.30342 
   98900    79.668467   -1209.7098    60050.619   -13016.216       962.73   -13978.946    214.53502    249.59503 
   98950    78.747127   -1248.2183    60081.398   -13007.008    951.59634   -13958.605    214.25804    246.70854 
   99000    76.960346   -1056.4679    60109.199   -13023.472    930.00452   -13953.477    214.69826     241.1107 
   99050    78.424546   -1047.3896    60173.212   -13020.679    947.69821   -13968.377     214.6295    245.69792 
   99100    76.670019   -1077.9911    60186.913    -13011.98    926.49614   -13938.476    214.76918    240.20113 
   99150    78.470921   -1329.7951    60188.575   -13003.853    948.25861   -13952.112    214.96161    245.84321 
   99200    77.197252   -1088.9077    60169.937   -13028.796    932.86734   -13961.663    215.25922    241.85291 
   99250    77.320856   -1041.5223    60143.107   -13041.794    934.36099   -13976.155    215.06475    242.24015 
   99300    75.875531   -966.73476    60164.843   -13072.694    916.89539   -13989.589    214.93389    237.71206 
   99350    75.272603     -1452.83    60196.219   -13056.481    909.60949   -13966.091    214.77896    235.82313 
   99400     77.64851   -1238.3895    60235.258   -13079.366    938.32043   -14017.686    214.73465    243.26666 
   99450     74.90887    -1195.636    60278.495   -13093.348    905.21406   -13998.562    214.30527    234.68358 
   99500    75.903422   -1331.8677    60315.051   -13081.869    917.23243   -13999.101    214.62619    237.79944 
   99550    75.560996   -1034.6454    60353.684   -13060.758    913.09449   -13973.853    214.93992    236.72665 
   99600    74.791679   -1455.2199     60316.27   -13092.276     903.7979   -13996.074    214.22388    234.31643 
   99650    74.765555   -1405.0605    60293.342   -13093.491    903.48222   -13996.974    214.45871    234.23459 
   99700    76.207957   -1498.5895    60284.025   -13085.696     920.9125   -14006.609    214.96902    238.75352 
   99750    74.820418    -1115.757    60293.393     -13059.8    904.14519   -13963.945    215.04741    234.40647 
   99800    75.351322   -1268.2357     60283.49   -13091.022    910.56075   -14001.583    215.40406    236.06975 
   99850    75.557106   -1092.8234    60255.351   -13110.175    913.04748   -14023.222    214.95314    236.71446 
   99900    77.521155   -1268.7539    60264.527   -13092.923    936.78145   -14029.704    214.79236    242.86767 
   99950    75.597417   -1181.0367    60247.985   -13087.299     913.5346   -14000.834    215.16044    236.84075 
  100000    74.992111   -1596.4306    60227.221   -13095.995    906.21997   -14002.214    215.15618    234.94437 
Loop time of 80.5384 on 80 procs for 100000 steps with 4055 atoms

Performance: 536.390 ns/day, 0.045 hours/ns, 1241.644 timesteps/s
99.4% CPU use with 80 MPI tasks x no OpenMP threads

MPI task timing breakdown:
Section |  min time  |  avg time  |  max time  |%varavg| %total
---------------------------------------------------------------
Pair    | 43.792     | 49.725     | 56.449     |  39.4 | 61.74
Neigh   | 0.44272    | 1.0333     | 1.9055     |  57.8 |  1.28
Comm    | 13.442     | 21.17      | 27.287     |  69.6 | 26.29
Output  | 0.12947    | 0.13303    | 0.25971    |   3.9 |  0.17
Modify  | 6.7105     | 7.5343     | 8.3586     |  12.6 |  9.35
Other   |            | 0.9426     |            |       |  1.17

Nlocal:    50.6875 ave 87 max 20 min
Histogram: 21 19 0 0 0 0 2 10 19 9
Nghost:    713.438 ave 756 max 672 min
Histogram: 8 7 15 5 5 6 7 11 11 5
Neighs:    0 ave 0 max 0 min
Histogram: 80 0 0 0 0 0 0 0 0 0
FullNghs:  5523.57 ave 11087 max 1085 min
Histogram: 40 0 0 0 0 0 1 9 18 12

Total # of neighbors = 441886
Ave neighs/atom = 108.973
Neighbor list builds = 5449
Dangerous builds = 0

write_data		${DIR}/data.eq-${NAME}-${TEMP}
write_data		run_10/data.eq-${NAME}-${TEMP}
write_data		run_10/data.eq-het_freeze_10-${TEMP}
write_data		run_10/data.eq-het_freeze_10-240
undump          1

reset_timestep  0

unfix           2
unfix           3
unfix           4


################################################
#######         Run Simulation         #########
################################################

log				${DIR}/log.run_${NAME}
log				run_10/log.run_${NAME}
log				run_10/log.run_het_freeze_10
