LAMMPS data file via write_data, version 16 Mar 2018, timestep = 100000

4560 atoms
2 atom types

0.0000000000000000e+00 4.9219999999999999e+01 xlo xhi
0.0000000000000000e+00 4.9019635930410494e+01 ylo yhi
1.2592021721939872e+00 3.2680797827806423e+01 zlo zhi

Masses

1 18.015
2 12.01

Atoms # atomic

147 2 0.0000000000000000e+00 2.8417180249513345e+00 3.3421244644909698e+00 0 0 0
149 2 0.0000000000000000e+00 0.0000000000000000e+00 3.3421244644909698e+00 0 0 0
151 2 1.2305000000000001e+00 7.1042950623783474e-01 3.3421244644909698e+00 0 0 0
158 2 1.2305000000000001e+00 2.1312885187134998e+00 3.3421244644909698e+00 0 0 0
160 2 2.4610000000000003e+00 2.8417180249513345e+00 3.3421244644909698e+00 0 0 0
162 2 2.4610000000000003e+00 0.0000000000000000e+00 3.3421244644909698e+00 0 0 0
164 2 3.6915000000000004e+00 7.1042950623783474e-01 3.3421244644909698e+00 0 0 0
179 2 3.6914999999999996e+00 2.1312885187134998e+00 3.3421244644909698e+00 0 0 0
181 2 4.9220000000000006e+00 2.8417180249513332e+00 3.3421244644909698e+00 0 0 0
183 2 4.9220000000000006e+00 0.0000000000000000e+00 3.3421244644909698e+00 0 0 0
185 2 6.1524999999999999e+00 7.1042950623783407e-01 3.3421244644909698e+00 0 0 0
208 2 6.1524999999999999e+00 2.1312885187134989e+00 3.3421244644909698e+00 0 0 0
210 2 7.3829999999999991e+00 2.8417180249513345e+00 3.3421244644909698e+00 0 0 0
212 2 7.3829999999999991e+00 0.0000000000000000e+00 3.3421244644909698e+00 0 0 0
320 2 8.6135000000000002e+00 1.2077301606043163e+01 6.3309359825776150e+00 0 0 0
214 2 8.6134999999999984e+00 7.1042950623783407e-01 3.3421244644909698e+00 0 0 0
245 2 8.6134999999999984e+00 2.1312885187135002e+00 3.3421244644909698e+00 0 0 0
247 2 9.8440000000000012e+00 2.8417180249513332e+00 3.3421244644909698e+00 0 0 0
249 2 9.8440000000000012e+00 0.0000000000000000e+00 3.3421244644909698e+00 0 0 0
251 2 1.1074500000000002e+01 7.1042950623783330e-01 3.3421244644909698e+00 0 0 0
290 2 1.1074500000000002e+01 2.1312885187135002e+00 3.3421244644909698e+00 0 0 0
154 2 0.0000000000000000e+00 4.2625770374269996e+00 3.3421244644909698e+00 0 0 0
156 2 1.2305000000000001e+00 4.9730065436648339e+00 3.3421244644909698e+00 0 0 0
171 2 1.2305000000000001e+00 6.3938655561404980e+00 3.3421244644909698e+00 0 0 0
175 2 2.4610000000000003e+00 4.2625770374269996e+00 3.3421244644909698e+00 0 0 0
177 2 3.6914999999999996e+00 4.9730065436648339e+00 3.3421244644909698e+00 0 0 0
200 2 3.6914999999999996e+00 6.3938655561404980e+00 3.3421244644909698e+00 0 0 0
152 2 0.0000000000000000e+00 7.1042950623783341e+00 3.3421244644909698e+00 0 0 0
173 2 2.4610000000000003e+00 7.1042950623783341e+00 3.3421244644909698e+00 0 0 0
204 2 4.9220000000000006e+00 4.2625770374269978e+00 3.3421244644909698e+00 0 0 0
206 2 6.1524999999999999e+00 4.9730065436648339e+00 3.3421244644909698e+00 0 0 0
237 2 6.1524999999999999e+00 6.3938655561404980e+00 3.3421244644909698e+00 0 0 0
241 2 7.3829999999999991e+00 4.2625770374269996e+00 3.3421244644909698e+00 0 0 0
202 2 4.9220000000000006e+00 7.1042950623783341e+00 3.3421244644909698e+00 0 0 0
239 2 7.3830000000000009e+00 7.1042950623783341e+00 3.3421244644909698e+00 0 0 0
243 2 8.6135000000000002e+00 4.9730065436648339e+00 3.3421244644909698e+00 0 0 0
282 2 8.6135000000000002e+00 6.3938655561404980e+00 3.3421244644909698e+00 0 0 0
286 2 9.8440000000000012e+00 4.2625770374270004e+00 3.3421244644909698e+00 0 0 0
288 2 1.1074500000000002e+01 4.9730065436648339e+00 3.3421244644909698e+00 0 0 0
329 2 1.1074500000000002e+01 6.3938655561404980e+00 3.3421244644909698e+00 0 0 0
284 2 9.8440000000000012e+00 7.1042950623783341e+00 3.3421244644909698e+00 0 0 0
167 2 0.0000000000000000e+00 8.5251540748539991e+00 3.3421244644909698e+00 0 0 0
169 2 1.2305000000000001e+00 9.2355835810918343e+00 3.3421244644909698e+00 0 0 0
196 2 2.4610000000000003e+00 8.5251540748539991e+00 3.3421244644909698e+00 0 0 0
198 2 3.6915000000000004e+00 9.2355835810918343e+00 3.3421244644909698e+00 0 0 0
165 2 0.0000000000000000e+00 1.1366872099805333e+01 3.3421244644909698e+00 0 0 0
192 2 1.2305000000000001e+00 1.0656442593567498e+01 3.3421244644909698e+00 0 0 0
194 2 2.4610000000000003e+00 1.1366872099805333e+01 3.3421244644909698e+00 0 0 0
229 2 3.6914999999999996e+00 1.0656442593567499e+01 3.3421244644909698e+00 0 0 0
233 2 4.9220000000000006e+00 8.5251540748539991e+00 3.3421244644909698e+00 0 0 0
235 2 6.1524999999999999e+00 9.2355835810918343e+00 3.3421244644909698e+00 0 0 0
278 2 7.3830000000000009e+00 8.5251540748539991e+00 3.3421244644909698e+00 0 0 0
231 2 4.9220000000000006e+00 1.1366872099805333e+01 3.3421244644909698e+00 0 0 0
274 2 6.1524999999999999e+00 1.0656442593567499e+01 3.3421244644909698e+00 0 0 0
276 2 7.3829999999999991e+00 1.1366872099805333e+01 3.3421244644909698e+00 0 0 0
280 2 8.6134999999999984e+00 9.2355835810918343e+00 3.3421244644909698e+00 0 0 0
325 2 9.8440000000000012e+00 8.5251540748539956e+00 3.3421244644909698e+00 0 0 0
327 2 1.1074500000000002e+01 9.2355835810918343e+00 3.3421244644909698e+00 0 0 0
321 2 8.6134999999999984e+00 1.0656442593567498e+01 3.3421244644909698e+00 0 0 0
323 2 9.8440000000000012e+00 1.1366872099805333e+01 3.3421244644909698e+00 0 0 0
368 2 1.1074500000000002e+01 1.0656442593567498e+01 3.3421244644909698e+00 0 0 0
370 2 1.2304999999999998e+01 1.1366872099805333e+01 3.3421244644909698e+00 0 0 0
148 2 0.0000000000000000e+00 1.4208590124756650e+00 6.3309359825776150e+00 0 0 0
150 2 0.0000000000000000e+00 0.0000000000000000e+00 6.3309359825776150e+00 0 0 0
159 2 1.2305000000000001e+00 2.1312885187134998e+00 6.3309359825776150e+00 0 0 0
161 2 2.4610000000000003e+00 1.4208590124756650e+00 6.3309359825776150e+00 0 0 0
163 2 2.4610000000000003e+00 0.0000000000000000e+00 6.3309359825776150e+00 0 0 0
180 2 3.6914999999999996e+00 2.1312885187134998e+00 6.3309359825776150e+00 0 0 0
157 2 1.2305000000000001e+00 3.5521475311891644e+00 6.3309359825776150e+00 0 0 0
178 2 3.6914999999999996e+00 3.5521475311891644e+00 6.3309359825776150e+00 0 0 0
182 2 4.9220000000000006e+00 1.4208590124756650e+00 6.3309359825776150e+00 0 0 0
184 2 4.9220000000000006e+00 0.0000000000000000e+00 6.3309359825776150e+00 0 0 0
209 2 6.1524999999999999e+00 2.1312885187134989e+00 6.3309359825776150e+00 0 0 0
211 2 7.3829999999999991e+00 1.4208590124756659e+00 6.3309359825776150e+00 0 0 0
213 2 7.3829999999999991e+00 0.0000000000000000e+00 6.3309359825776150e+00 0 0 0
207 2 6.1524999999999999e+00 3.5521475311891644e+00 6.3309359825776150e+00 0 0 0
246 2 8.6134999999999984e+00 2.1312885187135002e+00 6.3309359825776150e+00 0 0 0
248 2 9.8440000000000012e+00 1.4208590124756659e+00 6.3309359825776150e+00 0 0 0
250 2 9.8440000000000012e+00 0.0000000000000000e+00 6.3309359825776150e+00 0 0 0
291 2 1.1074500000000002e+01 2.1312885187135002e+00 6.3309359825776150e+00 0 0 0
244 2 8.6134999999999984e+00 3.5521475311891657e+00 6.3309359825776150e+00 0 0 0
289 2 1.1074500000000002e+01 3.5521475311891644e+00 6.3309359825776150e+00 0 0 0
153 2 0.0000000000000000e+00 5.6834360499026637e+00 6.3309359825776150e+00 0 0 0
155 2 0.0000000000000000e+00 4.2625770374269996e+00 6.3309359825776150e+00 0 0 0
172 2 1.2305000000000001e+00 6.3938655561404980e+00 6.3309359825776150e+00 0 0 0
174 2 2.4610000000000003e+00 5.6834360499026637e+00 6.3309359825776150e+00 0 0 0
176 2 2.4610000000000003e+00 4.2625770374269996e+00 6.3309359825776150e+00 0 0 0
201 2 3.6914999999999996e+00 6.3938655561404980e+00 6.3309359825776150e+00 0 0 0
170 2 1.2305000000000001e+00 7.8147245686161639e+00 6.3309359825776150e+00 0 0 0
199 2 3.6914999999999996e+00 7.8147245686161639e+00 6.3309359825776150e+00 0 0 0
203 2 4.9220000000000006e+00 5.6834360499026637e+00 6.3309359825776150e+00 0 0 0
205 2 4.9220000000000006e+00 4.2625770374269978e+00 6.3309359825776150e+00 0 0 0
238 2 6.1524999999999999e+00 6.3938655561404980e+00 6.3309359825776150e+00 0 0 0
240 2 7.3829999999999991e+00 5.6834360499026637e+00 6.3309359825776150e+00 0 0 0
242 2 7.3829999999999991e+00 4.2625770374269996e+00 6.3309359825776150e+00 0 0 0
236 2 6.1524999999999999e+00 7.8147245686161639e+00 6.3309359825776150e+00 0 0 0
283 2 8.6135000000000002e+00 6.3938655561404980e+00 6.3309359825776150e+00 0 0 0
285 2 9.8440000000000012e+00 5.6834360499026637e+00 6.3309359825776150e+00 0 0 0
287 2 9.8440000000000012e+00 4.2625770374270004e+00 6.3309359825776150e+00 0 0 0
330 2 1.1074500000000002e+01 6.3938655561404980e+00 6.3309359825776150e+00 0 0 0
281 2 8.6135000000000002e+00 7.8147245686161639e+00 6.3309359825776150e+00 0 0 0
328 2 1.1074500000000002e+01 7.8147245686161639e+00 6.3309359825776150e+00 0 0 0
166 2 0.0000000000000000e+00 9.9460130873296642e+00 6.3309359825776150e+00 0 0 0
168 2 0.0000000000000000e+00 8.5251540748539991e+00 6.3309359825776150e+00 0 0 0
195 2 2.4610000000000003e+00 9.9460130873296642e+00 6.3309359825776150e+00 0 0 0
197 2 2.4610000000000003e+00 8.5251540748539991e+00 6.3309359825776150e+00 0 0 0
191 2 1.2305000000000001e+00 1.2077301606043163e+01 6.3309359825776150e+00 0 0 0
193 2 1.2305000000000001e+00 1.0656442593567498e+01 6.3309359825776150e+00 0 0 0
228 2 3.6914999999999996e+00 1.2077301606043163e+01 6.3309359825776150e+00 0 0 0
230 2 3.6914999999999996e+00 1.0656442593567499e+01 6.3309359825776150e+00 0 0 0
232 2 4.9220000000000006e+00 9.9460130873296642e+00 6.3309359825776150e+00 0 0 0
234 2 4.9220000000000006e+00 8.5251540748539991e+00 6.3309359825776150e+00 0 0 0
277 2 7.3830000000000009e+00 9.9460130873296642e+00 6.3309359825776150e+00 0 0 0
279 2 7.3830000000000009e+00 8.5251540748539991e+00 6.3309359825776150e+00 0 0 0
273 2 6.1524999999999999e+00 1.2077301606043163e+01 6.3309359825776150e+00 0 0 0
275 2 6.1524999999999999e+00 1.0656442593567499e+01 6.3309359825776150e+00 0 0 0
322 2 8.6134999999999984e+00 1.0656442593567498e+01 6.3309359825776150e+00 0 0 0
367 2 1.1074500000000002e+01 1.2077301606043163e+01 6.3309359825776150e+00 0 0 0
369 2 1.1074500000000002e+01 1.0656442593567498e+01 6.3309359825776150e+00 0 0 0
324 2 9.8440000000000012e+00 9.9460130873296642e+00 6.3309359825776150e+00 0 0 0
326 2 9.8440000000000012e+00 8.5251540748539956e+00 6.3309359825776150e+00 0 0 0
476 2 0.0000000000000000e+00 2.8417180249513345e+00 9.3197475006634924e+00 0 0 0
477 2 0.0000000000000000e+00 0.0000000000000000e+00 9.3197475006634924e+00 0 0 0
478 2 1.2305000000000001e+00 7.1042950623783474e-01 9.3197475006634924e+00 0 0 0
482 2 1.2305000000000001e+00 2.1312885187134998e+00 9.3197475006634924e+00 0 0 0
483 2 2.4610000000000003e+00 2.8417180249513345e+00 9.3197475006634924e+00 0 0 0
484 2 2.4610000000000003e+00 0.0000000000000000e+00 9.3197475006634924e+00 0 0 0
485 2 3.6915000000000004e+00 7.1042950623783474e-01 9.3197475006634924e+00 0 0 0
493 2 3.6914999999999996e+00 2.1312885187134998e+00 9.3197475006634924e+00 0 0 0
2240 1 1.1557921068460457e+00 2.5050635074083192e+00 1.1923235012859246e+01 0 1 0
494 2 4.9220000000000006e+00 2.8417180249513332e+00 9.3197475006634924e+00 0 0 0
495 2 4.9220000000000006e+00 0.0000000000000000e+00 9.3197475006634924e+00 0 0 0
496 2 6.1524999999999999e+00 7.1042950623783407e-01 9.3197475006634924e+00 0 0 0
508 2 6.1524999999999999e+00 2.1312885187134989e+00 9.3197475006634924e+00 0 0 0
509 2 7.3829999999999991e+00 2.8417180249513345e+00 9.3197475006634924e+00 0 0 0
510 2 7.3829999999999991e+00 0.0000000000000000e+00 9.3197475006634924e+00 0 0 0
4254 1 7.8449609906250428e+00 2.1416429935305579e+00 1.1780677918624075e+01 0 0 0
4396 1 2.9667086663136888e+00 4.9527438872098823e+00 1.6030534422232087e+01 0 0 1
511 2 8.6134999999999984e+00 7.1042950623783407e-01 9.3197475006634924e+00 0 0 0
527 2 8.6134999999999984e+00 2.1312885187135002e+00 9.3197475006634924e+00 0 0 0
528 2 9.8440000000000012e+00 2.8417180249513332e+00 9.3197475006634924e+00 0 0 0
529 2 9.8440000000000012e+00 0.0000000000000000e+00 9.3197475006634924e+00 0 0 0
530 2 1.1074500000000002e+01 7.1042950623783330e-01 9.3197475006634924e+00 0 0 0
550 2 1.1074500000000002e+01 2.1312885187135002e+00 9.3197475006634924e+00 0 0 0
3551 1 1.0518293929299471e+01 2.6456061694730391e+00 1.2052479970910396e+01 1 1 0
4410 1 3.0713689040085135e+00 4.7116087035758936e+00 1.2051410056280947e+01 1 0 -1
480 2 0.0000000000000000e+00 4.2625770374269996e+00 9.3197475006634924e+00 0 0 0
481 2 1.2305000000000001e+00 4.9730065436648339e+00 9.3197475006634924e+00 0 0 0
489 2 1.2305000000000001e+00 6.3938655561404980e+00 9.3197475006634924e+00 0 0 0
491 2 2.4610000000000003e+00 4.2625770374269996e+00 9.3197475006634924e+00 0 0 0
492 2 3.6914999999999996e+00 4.9730065436648339e+00 9.3197475006634924e+00 0 0 0
504 2 3.6914999999999996e+00 6.3938655561404980e+00 9.3197475006634924e+00 0 0 0
479 2 0.0000000000000000e+00 7.1042950623783341e+00 9.3197475006634924e+00 0 0 0
490 2 2.4610000000000003e+00 7.1042950623783341e+00 9.3197475006634924e+00 0 0 0
999 1 2.2007952691174286e+00 7.4101180503512367e+00 1.2058642319185900e+01 1 0 0
2116 1 5.8361226769682704e+00 4.4413675516347961e+00 1.2014044906373575e+01 1 1 0
506 2 4.9220000000000006e+00 4.2625770374269978e+00 9.3197475006634924e+00 0 0 0
507 2 6.1524999999999999e+00 4.9730065436648339e+00 9.3197475006634924e+00 0 0 0
523 2 6.1524999999999999e+00 6.3938655561404980e+00 9.3197475006634924e+00 0 0 0
525 2 7.3829999999999991e+00 4.2625770374269996e+00 9.3197475006634924e+00 0 0 0
505 2 4.9220000000000006e+00 7.1042950623783341e+00 9.3197475006634924e+00 0 0 0
524 2 7.3830000000000009e+00 7.1042950623783341e+00 9.3197475006634924e+00 0 0 0
101 1 1.1504941568835161e+01 5.4933342237370546e+00 1.1757251111886990e+01 0 1 0
526 2 8.6135000000000002e+00 4.9730065436648339e+00 9.3197475006634924e+00 0 0 0
546 2 8.6135000000000002e+00 6.3938655561404980e+00 9.3197475006634924e+00 0 0 0
548 2 9.8440000000000012e+00 4.2625770374270004e+00 9.3197475006634924e+00 0 0 0
549 2 1.1074500000000002e+01 4.9730065436648339e+00 9.3197475006634924e+00 0 0 0
570 2 1.1074500000000002e+01 6.3938655561404980e+00 9.3197475006634924e+00 0 0 0
547 2 9.8440000000000012e+00 7.1042950623783341e+00 9.3197475006634924e+00 0 0 0
3353 1 1.0979136232791378e+01 8.2294031617545205e+00 1.1755452235614319e+01 1 0 0
487 2 0.0000000000000000e+00 8.5251540748539991e+00 9.3197475006634924e+00 0 0 0
488 2 1.2305000000000001e+00 9.2355835810918343e+00 9.3197475006634924e+00 0 0 0
502 2 2.4610000000000003e+00 8.5251540748539991e+00 9.3197475006634924e+00 0 0 0
503 2 3.6915000000000004e+00 9.2355835810918343e+00 9.3197475006634924e+00 0 0 0
486 2 0.0000000000000000e+00 1.1366872099805333e+01 9.3197475006634924e+00 0 0 0
500 2 1.2305000000000001e+00 1.0656442593567498e+01 9.3197475006634924e+00 0 0 0
501 2 2.4610000000000003e+00 1.1366872099805333e+01 9.3197475006634924e+00 0 0 0
519 2 3.6914999999999996e+00 1.0656442593567499e+01 9.3197475006634924e+00 0 0 0
3509 1 9.9329099068627991e-01 1.0169575013506531e+01 1.2293000489123195e+01 -1 1 1
4517 1 4.7407759751429195e+00 8.8260029337445189e+00 1.2843263612476010e+01 -1 0 0
1061 1 6.9034449553485970e+00 7.0324959998605854e+00 1.1711654971199884e+01 0 0 0
521 2 4.9220000000000006e+00 8.5251540748539991e+00 9.3197475006634924e+00 0 0 0
522 2 6.1524999999999999e+00 9.2355835810918343e+00 9.3197475006634924e+00 0 0 0
544 2 7.3830000000000009e+00 8.5251540748539991e+00 9.3197475006634924e+00 0 0 0
520 2 4.9220000000000006e+00 1.1366872099805333e+01 9.3197475006634924e+00 0 0 0
542 2 6.1524999999999999e+00 1.0656442593567499e+01 9.3197475006634924e+00 0 0 0
543 2 7.3829999999999991e+00 1.1366872099805333e+01 9.3197475006634924e+00 0 0 0
3467 1 8.3392179626793386e+00 9.4767590165510782e+00 1.2535532459848248e+01 1 -1 0
545 2 8.6134999999999984e+00 9.2355835810918343e+00 9.3197475006634924e+00 0 0 0
568 2 9.8440000000000012e+00 8.5251540748539956e+00 9.3197475006634924e+00 0 0 0
569 2 1.1074500000000002e+01 9.2355835810918343e+00 9.3197475006634924e+00 0 0 0
566 2 8.6134999999999984e+00 1.0656442593567498e+01 9.3197475006634924e+00 0 0 0
567 2 9.8440000000000012e+00 1.1366872099805333e+01 9.3197475006634924e+00 0 0 0
590 2 1.1074500000000002e+01 1.0656442593567498e+01 9.3197475006634924e+00 0 0 0
591 2 1.2304999999999998e+01 1.1366872099805333e+01 9.3197475006634924e+00 0 0 0
1030 1 1.1999057286814361e+01 5.7419857489061220e-02 1.2234714907582907e+01 1 0 -1
2042 1 5.1378459228261448e+00 1.1620360781157229e+01 1.1698902425498879e+01 0 0 -1
4558 1 4.0574812838423036e+00 1.0508073435332692e+01 1.4781039441465397e+01 0 0 -1
3432 1 8.8955367151165845e+00 6.7984174297114308e-01 1.6260025427582779e+01 0 1 -1
1044 1 1.0466592165369441e+01 2.5264254545470015e+00 1.4581896530483878e+01 1 1 0
4452 1 5.1906366333389160e+00 3.0422668490235121e+00 1.6145039768817739e+01 1 1 -1
3567 1 3.6609022845840569e+00 5.8873236184469946e-01 1.5621826352928615e+01 1 1 0
3514 1 1.1255834298058943e+01 8.5028003035117870e+00 1.5773905396123288e+01 0 0 0
4413 1 8.0631684268594235e+00 9.6674087468654992e+00 1.5121510270025846e+01 1 1 0
1049 1 6.0082412481303491e+00 1.1513205177009050e+01 1.6449303929394468e+01 1 0 0
3447 1 7.7123672239938577e+00 3.5396321871967364e+00 1.4839370801042236e+01 0 -1 0
3422 1 2.2886172641161444e+00 7.3097881100816835e+00 1.4922044876324236e+01 0 1 -1
1195 1 1.0804406717755207e+01 6.1870070934952075e+00 1.4362311649217322e+01 0 1 0
861 1 1.3139379862677527e+00 1.0179067438926754e+01 1.5035287527625290e+01 1 0 1
4427 1 1.7982472522447912e+00 2.9347652981568224e+00 1.4740719570350318e+01 0 -1 0
969 1 7.9666141302355085e+00 6.4565620017639445e+00 1.4416527004355894e+01 0 0 0
1986 1 1.1673565014187373e+01 4.3594381368674782e+00 1.6656485772957808e+01 0 0 0
4326 1 6.5904230990728694e+00 4.0733152855779714e-01 1.4713251949900700e+01 1 1 0
3499 1 1.0138531831386703e+00 4.3564766863963049e+00 1.8161000064884313e+01 0 0 -1
1199 1 3.9661984837654991e+00 1.3449038886740070e+00 2.0569150831343748e+01 1 0 1
2182 1 5.7878595165701148e+00 1.7042349033715769e+00 1.8743829418809014e+01 0 1 0
4395 1 9.9195158390943501e+00 1.2053190875108749e+01 2.3682794197407343e+01 1 0 0
1191 1 1.2103864419007095e+01 4.4427471083217958e+00 2.2223029113164039e+01 0 1 0
3209 1 1.1559262232169853e+01 7.2017362989572122e+00 2.2414678297399313e+01 1 -1 0
4299 1 2.8795523134167316e+00 5.1181375212141944e+00 2.0390100305784557e+01 1 1 -1
1286 1 4.9909980216745966e+00 5.2507653579050952e+00 1.8482025350480583e+01 0 1 0
141 1 1.3166887566064331e-01 1.1071534986980634e+01 1.9713439251487124e+01 0 0 0
3572 1 6.7129960698234674e+00 3.8434278455469189e+00 2.0492495745771041e+01 1 1 0
4437 1 9.4042724119253442e+00 4.9153983238314662e+00 2.0299769815440250e+01 0 1 0
2165 1 9.5972591355492209e+00 6.2356402335337435e+00 1.7757390578166369e+01 1 0 -1
2208 1 2.1205181889097844e+00 7.5076874065124333e+00 1.8207652417584004e+01 0 1 0
2347 1 8.4744622976673298e+00 1.1686850663945825e+00 1.9051037190874894e+01 1 0 0
4275 1 6.6029705772112184e+00 9.5694291687712401e+00 1.8348269989135744e+01 1 1 0
2323 1 3.9441157444555617e+00 9.3380529314260716e+00 1.9701927521679572e+01 0 1 0
1272 1 9.0662518913760870e+00 8.1087181154817483e+00 2.2028607221296664e+01 0 -1 0
906 1 2.0743840128786697e-01 4.9800623031401718e+00 2.2346155156415566e+01 0 1 0
3576 1 1.0735700561503958e+01 2.6763831398968736e+00 1.9725419114790764e+01 1 0 0
37 1 2.6156824055999430e+00 1.1477045329740392e+01 2.0568846702326518e+01 0 1 0
1279 1 2.2094133079597884e+00 2.6652419141827637e+00 2.2232631079220539e+01 1 1 0
917 1 1.8222278829823628e+00 5.3690538116043891e-03 1.9222332648407814e+01 0 2 0
103 1 4.3266074056933779e-01 7.3261238647154308e+00 2.4227390249361139e+01 1 1 0
84 1 6.5643865393366827e+00 1.6447210656956415e+00 2.2633832376224415e+01 0 0 0
4555 1 9.7757002758283829e+00 1.2193959129003320e+01 1.7893559717389294e+01 1 -1 -1
4447 1 1.9434106572624874e+00 7.6784327963376180e+00 2.1470743011171063e+01 1 0 -1
4276 1 1.0784642877865295e+01 8.4643378492129173e+00 1.9187587456116056e+01 0 1 -1
1148 1 4.5302472740809030e+00 8.1738529518509946e+00 2.2653302936165975e+01 0 0 0
2384 1 1.1490480609661160e+01 1.0879777114537386e+00 2.2019229869013387e+01 1 1 0
2434 1 6.7756396778035910e+00 6.5289858520627408e+00 2.1928225072504866e+01 0 0 0
4332 1 8.6762979480866829e+00 1.0242668936029869e+01 2.0125808492641831e+01 0 1 -1
60 1 6.8772839566315609e+00 6.9627327793220095e+00 1.7229067306269663e+01 1 0 0
1142 1 1.0275136734958881e-01 9.2241088248483489e+00 1.7673808164968786e+01 0 0 0
1108 1 8.9031182876135126e+00 9.8226023634173458e+00 2.4567272620779480e+01 1 0 0
1176 1 3.8560205497366551e-01 9.0779919858778846e-01 2.3169872829196837e+01 1 -1 0
4277 1 5.0301237061177524e+00 1.0911145186812055e+01 2.3123374473337996e+01 0 0 0
2213 1 3.4194935373945701e-01 1.6277510491314133e+00 1.7356092258846044e+01 1 0 -1
3171 1 6.8736666390984258e+00 5.5639965122715189e+00 2.4535205933666699e+01 1 0 0
2199 1 2.9600875898022707e+00 1.1574441427411438e+01 2.4765552809118820e+01 0 0 0
1162 1 3.0531053351247293e+00 1.7673839510915361e+00 2.7565409432459500e+01 1 1 0
3440 1 1.9713559118411933e-01 5.4854955520019866e+00 3.1933421266454665e+01 1 1 0
887 1 8.1081688795817541e+00 4.5789482033743401e-01 3.2627547675443694e+01 0 0 0
1190 1 6.9700163479072934e+00 2.2542824520380709e+00 2.7136168586091564e+01 0 0 0
2140 1 9.9951883607448551e+00 4.2093571101959011e+00 3.2170091456403647e+01 0 0 0
2297 1 9.4123459667087044e+00 3.8763551695132270e-01 2.6938295705931633e+01 0 1 1
4501 1 2.6555143682153197e+00 5.7755310281458758e+00 2.5625585162664766e+01 2 1 0
2177 1 3.4122358944432758e+00 8.6528125703431709e+00 2.9154578618462811e+01 0 0 0
973 1 4.8729213369884201e+00 7.3761257717634052e+00 2.5553791611517443e+01 1 1 0
3217 1 6.0365671133373953e+00 9.0092481253236389e+00 2.8443597649402605e+01 0 -1 -1
1121 1 7.8888087387420951e+00 6.7808713524936728e+00 2.8515559400319059e+01 -1 1 -1
4550 1 2.9674135148837681e+00 3.1409355453222947e+00 2.4928742888772945e+01 0 0 0
3366 1 9.0693791655603757e+00 5.5840933546214933e+00 2.6208692406670082e+01 1 0 0
4401 1 7.0828040856039669e+00 8.1090358171721917e+00 3.1426241779010134e+01 1 0 0
1032 1 5.6508147465908187e-01 1.0222828629478544e+01 2.5331964317310788e+01 1 0 0
2194 1 2.8861533176539278e-01 1.3606398690774510e+00 3.1388708778882076e+01 1 0 -1
2118 1 9.7368014425141833e+00 1.1447855390355972e+01 2.8333548971147465e+01 0 0 0
3532 1 1.1016897601411204e+01 9.4260145891449376e+00 2.6509107033080966e+01 0 1 1
1181 1 2.6994980847421375e+00 4.6348079388760322e-01 3.2356618336785886e+01 1 0 0
899 1 2.6415914486571662e-01 5.0521536444529129e+00 2.9068104753312255e+01 0 0 0
3229 1 6.4266713571404770e+00 1.0208255323877921e+01 2.5716290314328234e+01 -1 0 0
3199 1 4.3997641205227644e+00 3.6652399816277468e+00 2.9155572469178637e+01 0 0 -1
3439 1 7.1266445416216619e+00 1.1602305504474021e+01 2.8923247180738276e+01 1 0 -1
3305 1 1.0269143674024120e+01 3.0036655189601662e+00 2.6532783655842948e+01 1 0 0
4426 1 7.6295161632307877e+00 2.9455754966035181e+00 3.2105499286258812e+01 0 0 -1
1155 1 1.1047479710267840e+01 9.6749222550913601e+00 3.1799589780442822e+01 -1 1 -1
1115 1 2.6171332257502868e+00 5.8833581023849515e+00 2.8633218400416997e+01 0 0 0
3135 1 7.2836451848963275e+00 3.9017250609406351e+00 2.9308370772557293e+01 0 1 0
4444 1 2.8861330941787293e+00 5.3269848466739456e+00 3.1578939703293376e+01 1 0 0
933 1 1.0396681998861762e+01 8.3346729943670290e+00 2.9204284226835103e+01 1 0 0
4237 1 3.2853796062770164e+00 1.1836795316180217e+01 2.9236167139080131e+01 1 0 0
2380 1 1.2004669893103555e+01 2.1935869209973049e+00 3.2314572370794465e+01 1 1 0
2295 1 5.5182102647738840e-01 2.1777708602784869e+00 2.8731638143032317e+01 0 0 0
904 1 2.3874648556360571e+00 9.9770945623878706e+00 3.2219209221695138e+01 0 0 0
4272 1 6.5482650614946325e-01 9.9859981767058912e+00 2.8170551313398473e+01 0 1 -1
2314 1 1.0084624278760401e-01 1.1621543967979042e+01 3.1975559764328636e+01 1 0 1
1293 1 4.7645680253023466e+00 2.6681461527399719e+00 3.1908057002003531e+01 0 1 0
3172 1 1.1905159615166214e+01 1.1842514591699228e+01 2.9996661012854009e+01 1 -1 0
1033 1 4.0481727611302798e+00 7.7054581892058218e+00 3.1820120759051228e+01 1 1 -1
3427 1 9.7847198956972914e+00 7.0390030880267815e+00 3.2265558245698031e+01 0 -1 0
3174 1 1.0514803783192834e+01 4.1659040063734647e+00 2.9233268809267390e+01 0 0 -1
2260 1 1.1602396808758066e+01 6.8347544493438317e+00 2.5637545734696733e+01 1 1 -1
3214 1 8.5752785866230461e+00 1.0405272834908052e+01 3.2655723146217255e+01 0 0 0
2135 1 5.6094177297668786e+00 2.9018082732573505e+00 2.4935753727476911e+01 0 1 0
188 2 0.0000000000000000e+00 1.2787731112280996e+01 3.3421244644909698e+00 0 0 0
190 2 1.2305000000000001e+00 1.3498160618518829e+01 3.3421244644909698e+00 0 0 0
225 2 2.4610000000000003e+00 1.2787731112280996e+01 3.3421244644909698e+00 0 0 0
227 2 3.6915000000000004e+00 1.3498160618518829e+01 3.3421244644909698e+00 0 0 0
186 2 0.0000000000000000e+00 1.5629449137232333e+01 3.3421244644909698e+00 0 0 0
221 2 1.2305000000000001e+00 1.4919019630994494e+01 3.3421244644909698e+00 0 0 0
223 2 2.4610000000000003e+00 1.5629449137232328e+01 3.3421244644909698e+00 0 0 0
266 2 3.6915000000000004e+00 1.4919019630994494e+01 3.3421244644909698e+00 0 0 0
270 2 4.9220000000000006e+00 1.2787731112280996e+01 3.3421244644909698e+00 0 0 0
272 2 6.1524999999999990e+00 1.3498160618518829e+01 3.3421244644909698e+00 0 0 0
317 2 7.3829999999999991e+00 1.2787731112280996e+01 3.3421244644909698e+00 0 0 0
268 2 4.9220000000000006e+00 1.5629449137232333e+01 3.3421244644909698e+00 0 0 0
313 2 6.1524999999999990e+00 1.4919019630994494e+01 3.3421244644909698e+00 0 0 0
315 2 7.3829999999999991e+00 1.5629449137232333e+01 3.3421244644909698e+00 0 0 0
319 2 8.6135000000000002e+00 1.3498160618518835e+01 3.3421244644909698e+00 0 0 0
364 2 9.8440000000000012e+00 1.2787731112280996e+01 3.3421244644909698e+00 0 0 0
366 2 1.1074500000000002e+01 1.3498160618518829e+01 3.3421244644909698e+00 0 0 0
360 2 8.6135000000000002e+00 1.4919019630994494e+01 3.3421244644909698e+00 0 0 0
362 2 9.8440000000000012e+00 1.5629449137232328e+01 3.3421244644909698e+00 0 0 0
402 2 1.1074500000000002e+01 1.4919019630994494e+01 3.3421244644909698e+00 0 0 0
217 2 0.0000000000000000e+00 1.7050308149707998e+01 3.3421244644909698e+00 0 0 0
262 2 2.4610000000000003e+00 1.7050308149707998e+01 3.3421244644909698e+00 0 0 0
215 2 0.0000000000000000e+00 1.9892026174659328e+01 3.3421244644909698e+00 0 0 0
219 2 1.2305000000000001e+00 1.7760737655945832e+01 3.3421244644909698e+00 0 0 0
258 2 1.2305000000000001e+00 1.9181596668421495e+01 3.3421244644909698e+00 0 0 0
260 2 2.4610000000000003e+00 1.9892026174659328e+01 3.3421244644909698e+00 0 0 0
264 2 3.6914999999999996e+00 1.7760737655945832e+01 3.3421244644909698e+00 0 0 0
305 2 3.6914999999999996e+00 1.9181596668421495e+01 3.3421244644909698e+00 0 0 0
309 2 4.9220000000000006e+00 1.7050308149707998e+01 3.3421244644909698e+00 0 0 0
356 2 7.3830000000000009e+00 1.7050308149707998e+01 3.3421244644909698e+00 0 0 0
307 2 4.9220000000000006e+00 1.9892026174659328e+01 3.3421244644909698e+00 0 0 0
311 2 6.1524999999999999e+00 1.7760737655945832e+01 3.3421244644909698e+00 0 0 0
352 2 6.1524999999999999e+00 1.9181596668421495e+01 3.3421244644909698e+00 0 0 0
354 2 7.3829999999999991e+00 1.9892026174659328e+01 3.3421244644909698e+00 0 0 0
398 2 9.8440000000000012e+00 1.7050308149707998e+01 3.3421244644909698e+00 0 0 0
432 2 1.2304999999999998e+01 1.7050308149707998e+01 3.3421244644909698e+00 0 0 0
358 2 8.6134999999999984e+00 1.7760737655945832e+01 3.3421244644909698e+00 0 0 0
394 2 8.6135000000000002e+00 1.9181596668421495e+01 3.3421244644909698e+00 0 0 0
396 2 9.8440000000000012e+00 1.9892026174659335e+01 3.3421244644909698e+00 0 0 0
400 2 1.1074500000000002e+01 1.7760737655945835e+01 3.3421244644909698e+00 0 0 0
428 2 1.1074500000000002e+01 1.9181596668421495e+01 3.3421244644909698e+00 0 0 0
252 2 0.0000000000000000e+00 2.4154603212086325e+01 3.3421244644909698e+00 0 0 0
254 2 0.0000000000000000e+00 2.1312885187134999e+01 3.3421244644909698e+00 0 0 0
256 2 1.2304999999999993e+00 2.2023314693372832e+01 3.3421244644909698e+00 0 0 0
297 2 1.2304999999999993e+00 2.3444173705848499e+01 3.3421244644909698e+00 0 0 0
299 2 2.4610000000000003e+00 2.4154603212086325e+01 3.3421244644909698e+00 0 0 0
301 2 2.4610000000000003e+00 2.1312885187134995e+01 3.3421244644909698e+00 0 0 0
303 2 3.6914999999999996e+00 2.2023314693372832e+01 3.3421244644909698e+00 0 0 0
344 2 3.6915000000000004e+00 2.3444173705848499e+01 3.3421244644909698e+00 0 0 0
346 2 4.9220000000000006e+00 2.4154603212086325e+01 3.3421244644909698e+00 0 0 0
348 2 4.9220000000000006e+00 2.1312885187134995e+01 3.3421244644909698e+00 0 0 0
350 2 6.1524999999999990e+00 2.2023314693372832e+01 3.3421244644909698e+00 0 0 0
386 2 6.1524999999999999e+00 2.3444173705848499e+01 3.3421244644909698e+00 0 0 0
388 2 7.3830000000000009e+00 2.4154603212086336e+01 3.3421244644909698e+00 0 0 0
390 2 7.3829999999999991e+00 2.1312885187134999e+01 3.3421244644909698e+00 0 0 0
392 2 8.6135000000000002e+00 2.2023314693372832e+01 3.3421244644909698e+00 0 0 0
420 2 8.6134999999999984e+00 2.3444173705848499e+01 3.3421244644909698e+00 0 0 0
422 2 9.8440000000000012e+00 2.4154603212086336e+01 3.3421244644909698e+00 0 0 0
424 2 9.8440000000000012e+00 2.1312885187134999e+01 3.3421244644909698e+00 0 0 0
426 2 1.1074500000000002e+01 2.2023314693372832e+01 3.3421244644909698e+00 0 0 0
446 2 1.1074500000000002e+01 2.3444173705848499e+01 3.3421244644909698e+00 0 0 0
189 2 0.0000000000000000e+00 1.2787731112280996e+01 6.3309359825776150e+00 0 0 0
226 2 2.4610000000000003e+00 1.2787731112280996e+01 6.3309359825776150e+00 0 0 0
187 2 0.0000000000000000e+00 1.4208590124756663e+01 6.3309359825776150e+00 0 0 0
222 2 1.2305000000000001e+00 1.4919019630994494e+01 6.3309359825776150e+00 0 0 0
224 2 2.4610000000000003e+00 1.4208590124756663e+01 6.3309359825776150e+00 0 0 0
267 2 3.6915000000000004e+00 1.4919019630994494e+01 6.3309359825776150e+00 0 0 0
271 2 4.9220000000000006e+00 1.2787731112280996e+01 6.3309359825776150e+00 0 0 0