LAMMPS data file via write_data, version 16 Mar 2018, timestep = 8000000

4560 atoms
2 atom types

0.0000000000000000e+00 4.9219999999999999e+01 xlo xhi
0.0000000000000000e+00 4.9019635930410494e+01 ylo yhi
7.1381444295736429e-01 3.3226185557057413e+01 zlo zhi

Masses

1 18.015
2 12.01

Atoms # atomic

147 2 0.0000000000000000e+00 2.8417180249513345e+00 2.8690437098347710e+00 0 0 0
149 2 0.0000000000000000e+00 0.0000000000000000e+00 2.8690437098347710e+00 0 0 0
151 2 1.2305000000000001e+00 7.1042950623783474e-01 2.8690437098347710e+00 0 0 0
158 2 1.2305000000000001e+00 2.1312885187134998e+00 2.8690437098347710e+00 0 0 0
160 2 2.4610000000000003e+00 2.8417180249513345e+00 2.8690437098347710e+00 0 0 0
162 2 2.4610000000000003e+00 0.0000000000000000e+00 2.8690437098347710e+00 0 0 0
164 2 3.6915000000000004e+00 7.1042950623783474e-01 2.8690437098347710e+00 0 0 0
179 2 3.6914999999999996e+00 2.1312885187134998e+00 2.8690437098347710e+00 0 0 0
181 2 4.9220000000000006e+00 2.8417180249513332e+00 2.8690437098347710e+00 0 0 0
183 2 4.9220000000000006e+00 0.0000000000000000e+00 2.8690437098347710e+00 0 0 0
185 2 6.1524999999999999e+00 7.1042950623783407e-01 2.8690437098347710e+00 0 0 0
208 2 6.1524999999999999e+00 2.1312885187134989e+00 2.8690437098347710e+00 0 0 0
210 2 7.3829999999999991e+00 2.8417180249513345e+00 2.8690437098347710e+00 0 0 0
212 2 7.3829999999999991e+00 0.0000000000000000e+00 2.8690437098347710e+00 0 0 0
214 2 8.6134999999999984e+00 7.1042950623783407e-01 2.8690437098347710e+00 0 0 0
245 2 8.6134999999999984e+00 2.1312885187135002e+00 2.8690437098347710e+00 0 0 0
247 2 9.8440000000000012e+00 2.8417180249513332e+00 2.8690437098347710e+00 0 0 0
249 2 9.8440000000000012e+00 0.0000000000000000e+00 2.8690437098347710e+00 0 0 0
251 2 1.1074500000000002e+01 7.1042950623783330e-01 2.8690437098347710e+00 0 0 0
290 2 1.1074500000000002e+01 2.1312885187135002e+00 2.8690437098347710e+00 0 0 0
154 2 0.0000000000000000e+00 4.2625770374269996e+00 2.8690437098347710e+00 0 0 0
156 2 1.2305000000000001e+00 4.9730065436648339e+00 2.8690437098347710e+00 0 0 0
171 2 1.2305000000000001e+00 6.3938655561404980e+00 2.8690437098347710e+00 0 0 0
175 2 2.4610000000000003e+00 4.2625770374269996e+00 2.8690437098347710e+00 0 0 0
177 2 3.6914999999999996e+00 4.9730065436648339e+00 2.8690437098347710e+00 0 0 0
200 2 3.6914999999999996e+00 6.3938655561404980e+00 2.8690437098347710e+00 0 0 0
152 2 0.0000000000000000e+00 7.1042950623783341e+00 2.8690437098347710e+00 0 0 0
173 2 2.4610000000000003e+00 7.1042950623783341e+00 2.8690437098347710e+00 0 0 0
204 2 4.9220000000000006e+00 4.2625770374269978e+00 2.8690437098347710e+00 0 0 0
206 2 6.1524999999999999e+00 4.9730065436648339e+00 2.8690437098347710e+00 0 0 0
237 2 6.1524999999999999e+00 6.3938655561404980e+00 2.8690437098347710e+00 0 0 0
241 2 7.3829999999999991e+00 4.2625770374269996e+00 2.8690437098347710e+00 0 0 0
202 2 4.9220000000000006e+00 7.1042950623783341e+00 2.8690437098347710e+00 0 0 0
239 2 7.3830000000000009e+00 7.1042950623783341e+00 2.8690437098347710e+00 0 0 0
243 2 8.6135000000000002e+00 4.9730065436648339e+00 2.8690437098347710e+00 0 0 0
282 2 8.6135000000000002e+00 6.3938655561404980e+00 2.8690437098347710e+00 0 0 0
286 2 9.8440000000000012e+00 4.2625770374270004e+00 2.8690437098347710e+00 0 0 0
288 2 1.1074500000000002e+01 4.9730065436648339e+00 2.8690437098347710e+00 0 0 0
329 2 1.1074500000000002e+01 6.3938655561404980e+00 2.8690437098347710e+00 0 0 0
284 2 9.8440000000000012e+00 7.1042950623783341e+00 2.8690437098347710e+00 0 0 0
167 2 0.0000000000000000e+00 8.5251540748539991e+00 2.8690437098347710e+00 0 0 0
169 2 1.2305000000000001e+00 9.2355835810918343e+00 2.8690437098347710e+00 0 0 0
196 2 2.4610000000000003e+00 8.5251540748539991e+00 2.8690437098347710e+00 0 0 0
198 2 3.6915000000000004e+00 9.2355835810918343e+00 2.8690437098347710e+00 0 0 0
165 2 0.0000000000000000e+00 1.1366872099805333e+01 2.8690437098347710e+00 0 0 0
192 2 1.2305000000000001e+00 1.0656442593567498e+01 2.8690437098347710e+00 0 0 0
194 2 2.4610000000000003e+00 1.1366872099805333e+01 2.8690437098347710e+00 0 0 0
229 2 3.6914999999999996e+00 1.0656442593567499e+01 2.8690437098347710e+00 0 0 0
233 2 4.9220000000000006e+00 8.5251540748539991e+00 2.8690437098347710e+00 0 0 0
235 2 6.1524999999999999e+00 9.2355835810918343e+00 2.8690437098347710e+00 0 0 0
278 2 7.3830000000000009e+00 8.5251540748539991e+00 2.8690437098347710e+00 0 0 0
231 2 4.9220000000000006e+00 1.1366872099805333e+01 2.8690437098347710e+00 0 0 0
274 2 6.1524999999999999e+00 1.0656442593567499e+01 2.8690437098347710e+00 0 0 0
276 2 7.3829999999999991e+00 1.1366872099805333e+01 2.8690437098347710e+00 0 0 0
280 2 8.6134999999999984e+00 9.2355835810918343e+00 2.8690437098347710e+00 0 0 0
325 2 9.8440000000000012e+00 8.5251540748539956e+00 2.8690437098347710e+00 0 0 0
327 2 1.1074500000000002e+01 9.2355835810918343e+00 2.8690437098347710e+00 0 0 0
321 2 8.6134999999999984e+00 1.0656442593567498e+01 2.8690437098347710e+00 0 0 0
323 2 9.8440000000000012e+00 1.1366872099805333e+01 2.8690437098347710e+00 0 0 0
368 2 1.1074500000000002e+01 1.0656442593567498e+01 2.8690437098347710e+00 0 0 0
370 2 1.2304999999999998e+01 1.1366872099805333e+01 2.8690437098347710e+00 0 0 0
148 2 0.0000000000000000e+00 1.4208590124756650e+00 5.9616094194581724e+00 0 0 0
150 2 0.0000000000000000e+00 0.0000000000000000e+00 5.9616094194581724e+00 0 0 0
159 2 1.2305000000000001e+00 2.1312885187134998e+00 5.9616094194581724e+00 0 0 0
161 2 2.4610000000000003e+00 1.4208590124756650e+00 5.9616094194581724e+00 0 0 0
163 2 2.4610000000000003e+00 0.0000000000000000e+00 5.9616094194581724e+00 0 0 0
180 2 3.6914999999999996e+00 2.1312885187134998e+00 5.9616094194581724e+00 0 0 0
157 2 1.2305000000000001e+00 3.5521475311891644e+00 5.9616094194581724e+00 0 0 0
178 2 3.6914999999999996e+00 3.5521475311891644e+00 5.9616094194581724e+00 0 0 0
182 2 4.9220000000000006e+00 1.4208590124756650e+00 5.9616094194581724e+00 0 0 0
184 2 4.9220000000000006e+00 0.0000000000000000e+00 5.9616094194581724e+00 0 0 0
209 2 6.1524999999999999e+00 2.1312885187134989e+00 5.9616094194581724e+00 0 0 0
211 2 7.3829999999999991e+00 1.4208590124756659e+00 5.9616094194581724e+00 0 0 0
213 2 7.3829999999999991e+00 0.0000000000000000e+00 5.9616094194581724e+00 0 0 0
207 2 6.1524999999999999e+00 3.5521475311891644e+00 5.9616094194581724e+00 0 0 0
246 2 8.6134999999999984e+00 2.1312885187135002e+00 5.9616094194581724e+00 0 0 0
248 2 9.8440000000000012e+00 1.4208590124756659e+00 5.9616094194581724e+00 0 0 0
250 2 9.8440000000000012e+00 0.0000000000000000e+00 5.9616094194581724e+00 0 0 0
291 2 1.1074500000000002e+01 2.1312885187135002e+00 5.9616094194581724e+00 0 0 0
244 2 8.6134999999999984e+00 3.5521475311891657e+00 5.9616094194581724e+00 0 0 0
289 2 1.1074500000000002e+01 3.5521475311891644e+00 5.9616094194581724e+00 0 0 0
153 2 0.0000000000000000e+00 5.6834360499026637e+00 5.9616094194581724e+00 0 0 0
155 2 0.0000000000000000e+00 4.2625770374269996e+00 5.9616094194581724e+00 0 0 0
172 2 1.2305000000000001e+00 6.3938655561404980e+00 5.9616094194581724e+00 0 0 0
174 2 2.4610000000000003e+00 5.6834360499026637e+00 5.9616094194581724e+00 0 0 0
176 2 2.4610000000000003e+00 4.2625770374269996e+00 5.9616094194581724e+00 0 0 0
201 2 3.6914999999999996e+00 6.3938655561404980e+00 5.9616094194581724e+00 0 0 0
170 2 1.2305000000000001e+00 7.8147245686161639e+00 5.9616094194581724e+00 0 0 0
199 2 3.6914999999999996e+00 7.8147245686161639e+00 5.9616094194581724e+00 0 0 0
203 2 4.9220000000000006e+00 5.6834360499026637e+00 5.9616094194581724e+00 0 0 0
205 2 4.9220000000000006e+00 4.2625770374269978e+00 5.9616094194581724e+00 0 0 0
238 2 6.1524999999999999e+00 6.3938655561404980e+00 5.9616094194581724e+00 0 0 0
240 2 7.3829999999999991e+00 5.6834360499026637e+00 5.9616094194581724e+00 0 0 0
242 2 7.3829999999999991e+00 4.2625770374269996e+00 5.9616094194581724e+00 0 0 0
236 2 6.1524999999999999e+00 7.8147245686161639e+00 5.9616094194581724e+00 0 0 0
283 2 8.6135000000000002e+00 6.3938655561404980e+00 5.9616094194581724e+00 0 0 0
285 2 9.8440000000000012e+00 5.6834360499026637e+00 5.9616094194581724e+00 0 0 0
287 2 9.8440000000000012e+00 4.2625770374270004e+00 5.9616094194581724e+00 0 0 0
330 2 1.1074500000000002e+01 6.3938655561404980e+00 5.9616094194581724e+00 0 0 0
281 2 8.6135000000000002e+00 7.8147245686161639e+00 5.9616094194581724e+00 0 0 0
328 2 1.1074500000000002e+01 7.8147245686161639e+00 5.9616094194581724e+00 0 0 0
166 2 0.0000000000000000e+00 9.9460130873296642e+00 5.9616094194581724e+00 0 0 0
168 2 0.0000000000000000e+00 8.5251540748539991e+00 5.9616094194581724e+00 0 0 0
195 2 2.4610000000000003e+00 9.9460130873296642e+00 5.9616094194581724e+00 0 0 0
197 2 2.4610000000000003e+00 8.5251540748539991e+00 5.9616094194581724e+00 0 0 0
191 2 1.2305000000000001e+00 1.2077301606043163e+01 5.9616094194581724e+00 0 0 0
193 2 1.2305000000000001e+00 1.0656442593567498e+01 5.9616094194581724e+00 0 0 0
228 2 3.6914999999999996e+00 1.2077301606043163e+01 5.9616094194581724e+00 0 0 0
230 2 3.6914999999999996e+00 1.0656442593567499e+01 5.9616094194581724e+00 0 0 0
232 2 4.9220000000000006e+00 9.9460130873296642e+00 5.9616094194581724e+00 0 0 0
234 2 4.9220000000000006e+00 8.5251540748539991e+00 5.9616094194581724e+00 0 0 0
277 2 7.3830000000000009e+00 9.9460130873296642e+00 5.9616094194581724e+00 0 0 0
279 2 7.3830000000000009e+00 8.5251540748539991e+00 5.9616094194581724e+00 0 0 0
273 2 6.1524999999999999e+00 1.2077301606043163e+01 5.9616094194581724e+00 0 0 0
275 2 6.1524999999999999e+00 1.0656442593567499e+01 5.9616094194581724e+00 0 0 0
322 2 8.6134999999999984e+00 1.0656442593567498e+01 5.9616094194581724e+00 0 0 0
369 2 1.1074500000000002e+01 1.0656442593567498e+01 5.9616094194581724e+00 0 0 0
324 2 9.8440000000000012e+00 9.9460130873296642e+00 5.9616094194581724e+00 0 0 0
367 2 1.1074500000000002e+01 1.2077301606043163e+01 5.9616094194581724e+00 0 0 0
326 2 9.8440000000000012e+00 8.5251540748539956e+00 5.9616094194581724e+00 0 0 0
320 2 8.6135000000000002e+00 1.2077301606043163e+01 5.9616094194581724e+00 0 0 0
476 2 0.0000000000000000e+00 2.8417180249513345e+00 9.0541751290751318e+00 0 0 0
477 2 0.0000000000000000e+00 0.0000000000000000e+00 9.0541751290751318e+00 0 0 0
478 2 1.2305000000000001e+00 7.1042950623783474e-01 9.0541751290751318e+00 0 0 0
482 2 1.2305000000000001e+00 2.1312885187134998e+00 9.0541751290751318e+00 0 0 0
483 2 2.4610000000000003e+00 2.8417180249513345e+00 9.0541751290751318e+00 0 0 0
484 2 2.4610000000000003e+00 0.0000000000000000e+00 9.0541751290751318e+00 0 0 0
485 2 3.6915000000000004e+00 7.1042950623783474e-01 9.0541751290751318e+00 0 0 0
493 2 3.6914999999999996e+00 2.1312885187134998e+00 9.0541751290751318e+00 0 0 0
3346 1 3.2252826358152373e+00 2.7375777275418915e+00 1.2282780761619813e+01 0 2 0
3360 1 1.0762103295812411e+00 4.4275931040264087e+00 1.1635117149463341e+01 1 2 -1
494 2 4.9220000000000006e+00 2.8417180249513332e+00 9.0541751290751318e+00 0 0 0
495 2 4.9220000000000006e+00 0.0000000000000000e+00 9.0541751290751318e+00 0 0 0
496 2 6.1524999999999999e+00 7.1042950623783407e-01 9.0541751290751318e+00 0 0 0
508 2 6.1524999999999999e+00 2.1312885187134989e+00 9.0541751290751318e+00 0 0 0
509 2 7.3829999999999991e+00 2.8417180249513345e+00 9.0541751290751318e+00 0 0 0
510 2 7.3829999999999991e+00 0.0000000000000000e+00 9.0541751290751318e+00 0 0 0
3168 1 7.5879094965042331e+00 2.8500842384045484e+00 1.2577040397993640e+01 0 -3 0
2104 1 3.6039851413697557e+00 1.0970709707275965e+01 1.4852812491865180e+01 -4 2 0
511 2 8.6134999999999984e+00 7.1042950623783407e-01 9.0541751290751318e+00 0 0 0
527 2 8.6134999999999984e+00 2.1312885187135002e+00 9.0541751290751318e+00 0 0 0
528 2 9.8440000000000012e+00 2.8417180249513332e+00 9.0541751290751318e+00 0 0 0
529 2 9.8440000000000012e+00 0.0000000000000000e+00 9.0541751290751318e+00 0 0 0
530 2 1.1074500000000002e+01 7.1042950623783330e-01 9.0541751290751318e+00 0 0 0
550 2 1.1074500000000002e+01 2.1312885187135002e+00 9.0541751290751318e+00 0 0 0
4296 1 9.8647861550653602e+00 4.0741363169579348e+00 1.1813595471861303e+01 -1 0 0
480 2 0.0000000000000000e+00 4.2625770374269996e+00 9.0541751290751318e+00 0 0 0
481 2 1.2305000000000001e+00 4.9730065436648339e+00 9.0541751290751318e+00 0 0 0
489 2 1.2305000000000001e+00 6.3938655561404980e+00 9.0541751290751318e+00 0 0 0
491 2 2.4610000000000003e+00 4.2625770374269996e+00 9.0541751290751318e+00 0 0 0
492 2 3.6914999999999996e+00 4.9730065436648339e+00 9.0541751290751318e+00 0 0 0
504 2 3.6914999999999996e+00 6.3938655561404980e+00 9.0541751290751318e+00 0 0 0
479 2 0.0000000000000000e+00 7.1042950623783341e+00 9.0541751290751318e+00 0 0 0
490 2 2.4610000000000003e+00 7.1042950623783341e+00 9.0541751290751318e+00 0 0 0
2004 1 1.1854748960121659e+00 7.2923997601631170e+00 1.2444948647922418e+01 1 -1 0
4232 1 5.4262151749596903e+00 4.4391324408076018e+00 1.1525665847422028e+01 1 3 0
506 2 4.9220000000000006e+00 4.2625770374269978e+00 9.0541751290751318e+00 0 0 0
507 2 6.1524999999999999e+00 4.9730065436648339e+00 9.0541751290751318e+00 0 0 0
523 2 6.1524999999999999e+00 6.3938655561404980e+00 9.0541751290751318e+00 0 0 0
525 2 7.3829999999999991e+00 4.2625770374269996e+00 9.0541751290751318e+00 0 0 0
505 2 4.9220000000000006e+00 7.1042950623783341e+00 9.0541751290751318e+00 0 0 0
524 2 7.3830000000000009e+00 7.1042950623783341e+00 9.0541751290751318e+00 0 0 0
890 1 5.4846491872631118e+00 7.0916504963627105e+00 1.2521330503081661e+01 -1 1 -1
526 2 8.6135000000000002e+00 4.9730065436648339e+00 9.0541751290751318e+00 0 0 0
546 2 8.6135000000000002e+00 6.3938655561404980e+00 9.0541751290751318e+00 0 0 0
548 2 9.8440000000000012e+00 4.2625770374270004e+00 9.0541751290751318e+00 0 0 0
549 2 1.1074500000000002e+01 4.9730065436648339e+00 9.0541751290751318e+00 0 0 0
570 2 1.1074500000000002e+01 6.3938655561404980e+00 9.0541751290751318e+00 0 0 0
547 2 9.8440000000000012e+00 7.1042950623783341e+00 9.0541751290751318e+00 0 0 0
3183 1 1.0216195973582906e+01 6.7314771845231736e+00 1.2372599078424317e+01 2 -2 -1
1179 1 3.3339294009559768e+00 8.5442146707130462e+00 1.1480538409874903e+01 1 0 0
487 2 0.0000000000000000e+00 8.5251540748539991e+00 9.0541751290751318e+00 0 0 0
488 2 1.2305000000000001e+00 9.2355835810918343e+00 9.0541751290751318e+00 0 0 0
502 2 2.4610000000000003e+00 8.5251540748539991e+00 9.0541751290751318e+00 0 0 0
503 2 3.6915000000000004e+00 9.2355835810918343e+00 9.0541751290751318e+00 0 0 0
486 2 0.0000000000000000e+00 1.1366872099805333e+01 9.0541751290751318e+00 0 0 0
500 2 1.2305000000000001e+00 1.0656442593567498e+01 9.0541751290751318e+00 0 0 0
501 2 2.4610000000000003e+00 1.1366872099805333e+01 9.0541751290751318e+00 0 0 0
519 2 3.6914999999999996e+00 1.0656442593567499e+01 9.0541751290751318e+00 0 0 0
3127 1 3.4704744952330606e+00 1.1011919426504052e+01 1.2189655810719131e+01 2 2 0
1049 1 7.9996777144025737e+00 8.1660511250085772e+00 1.1563396233031645e+01 2 0 0
521 2 4.9220000000000006e+00 8.5251540748539991e+00 9.0541751290751318e+00 0 0 0
522 2 6.1524999999999999e+00 9.2355835810918343e+00 9.0541751290751318e+00 0 0 0
544 2 7.3830000000000009e+00 8.5251540748539991e+00 9.0541751290751318e+00 0 0 0
520 2 4.9220000000000006e+00 1.1366872099805333e+01 9.0541751290751318e+00 0 0 0
542 2 6.1524999999999999e+00 1.0656442593567499e+01 9.0541751290751318e+00 0 0 0
543 2 7.3829999999999991e+00 1.1366872099805333e+01 9.0541751290751318e+00 0 0 0
4364 1 7.8191874141531654e+00 1.0768465880962777e+01 1.2643332706370904e+01 -1 0 0
545 2 8.6134999999999984e+00 9.2355835810918343e+00 9.0541751290751318e+00 0 0 0
568 2 9.8440000000000012e+00 8.5251540748539956e+00 9.0541751290751318e+00 0 0 0
569 2 1.1074500000000002e+01 9.2355835810918343e+00 9.0541751290751318e+00 0 0 0
566 2 8.6134999999999984e+00 1.0656442593567498e+01 9.0541751290751318e+00 0 0 0
567 2 9.8440000000000012e+00 1.1366872099805333e+01 9.0541751290751318e+00 0 0 0
590 2 1.1074500000000002e+01 1.0656442593567498e+01 9.0541751290751318e+00 0 0 0
591 2 1.2304999999999998e+01 1.1366872099805333e+01 9.0541751290751318e+00 0 0 0
3353 1 3.5100501690616310e+00 8.5427061275088452e+00 1.6151775961765747e+01 2 -2 0
3357 1 3.4431374087390401e+00 2.6130866413475977e+00 1.5218829991939383e+01 2 -2 -1
3497 1 8.0356103383942781e+00 2.4363184349465556e+00 1.5191847430804744e+01 2 1 0
2075 1 5.6169061984101099e+00 4.1168642994092322e+00 1.6181739384177845e+01 0 2 0
2360 1 8.2456434368926885e+00 8.0309189454242453e+00 1.6094112361528264e+01 -1 -1 1
4479 1 1.1262014647409113e+00 4.4581075190077648e+00 1.6103858470017784e+01 -4 0 0
4559 1 1.3733702451236400e+00 7.0623713751525523e+00 1.5071140298639863e+01 0 0 0
1082 1 5.8571414002492332e+00 6.8558353438358139e+00 1.5350016118502930e+01 3 0 0
905 1 1.0415651548911340e+01 3.7724790867523659e+00 1.5961058775074807e+01 1 2 0
1977 1 1.0196654768250266e+01 6.4666774570333718e+00 1.5234268109677581e+01 3 0 0
4492 1 8.2770207638792446e+00 1.0933737016900341e+01 1.5442339430629202e+01 3 -1 0
4495 1 1.2217523629180553e+01 1.0887141531472553e+01 1.5120504680949828e+01 2 1 0
2253 1 3.5864117112204021e+00 1.9752908911225597e-01 1.1450196740504996e+01 0 4 -1
2283 1 1.2268908104667013e+01 1.0959734433077779e+01 1.2254949600041687e+01 -2 2 0
955 1 1.2223542290442136e+01 2.7774434552388394e+00 1.2371602680747735e+01 -2 2 0
875 1 5.5899027023318375e+00 1.2180827668374633e+01 1.1493060112629239e+01 2 -1 0
912 1 7.9535823242839321e+00 4.2628894106605236e-01 1.1200184598077891e+01 2 3 0
3187 1 3.3050466786591901e+00 1.9708016770118606e+00 1.9417980027891250e+01 0 1 0
2023 1 9.0333558429378846e-01 3.6255286942571594e+00 1.9155135372243318e+01 -1 0 0
1128 1 5.6545119288763965e+00 3.3360590984454030e+00 1.8621662680170928e+01 0 3 0
2330 1 8.0551345250021082e+00 2.1391035929851494e+00 1.9249089203974012e+01 2 1 0
3201 1 1.0267352856518608e+01 3.3444803149577855e+00 1.8655424397166058e+01 1 3 -1
3457 1 3.4517397998115138e+00 6.7593521026054386e+00 2.0679702284438982e+01 3 1 0
1212 1 1.1469606506180574e+00 5.6020555752353118e+00 2.1120836797703266e+01 0 0 0
72 1 5.6351290539802577e+00 5.2632427212353265e+00 2.0594478471889783e+01 1 3 0
3391 1 7.9697571012432489e+00 6.7816753737290369e+00 2.0483712260067207e+01 0 2 0
20 1 1.0149400719039406e+01 5.0458877530497022e+00 2.0997291176946430e+01 0 1 1
3385 1 3.5079409392325283e+00 8.9326774802058395e+00 1.8989879732784107e+01 1 -2 -1
4326 1 1.1488242020794082e+00 9.9746594038534848e+00 1.9360673540340265e+01 1 3 0
2143 1 5.8160285632743403e+00 1.0214115102220976e+01 1.9500788096496269e+01 -2 3 0
4370 1 8.0260597859883926e+00 8.8016769863433773e+00 1.8549732127619066e+01 -2 2 1
3489 1 1.0370501946313983e+01 1.0253508939828956e+01 1.9236993678589055e+01 4 -1 0
2126 1 3.3159427743766718e+00 1.7535092298995987e+00 2.2114756009641848e+01 2 0 0
3344 1 1.1283109543125056e+00 3.3032265987805300e+00 2.2985569871662427e+01 2 1 0
4363 1 5.5510994849534505e+00 3.2439270524506645e+00 2.2651345196507613e+01 0 2 0
2197 1 7.7873842816010237e+00 1.8510712951503818e+00 2.2001725044256606e+01 4 2 0
36 1 1.0065173678529931e+01 3.0218587896359526e+00 2.2895786363248355e+01 -3 2 1
3129 1 3.3707111861109098e+00 8.4228204180687865e+00 2.2819870721742088e+01 0 -3 0
3409 1 1.1328295810949829e+00 9.8693380511599251e+00 2.1977194003168780e+01 2 -1 0
4426 1 8.0230163226335645e+00 8.7306635128103931e+00 2.2813599043279197e+01 -1 2 -1
4290 1 5.5687325527562672e+00 1.0116062735269178e+01 2.2340314699569252e+01 1 0 0
104 1 1.0174190776541822e+01 1.0274461229289631e+01 2.2172697706011096e+01 2 -3 0
857 1 1.2277491709995841e+01 1.9642056128917369e+00 2.2124370727476879e+01 -1 0 0
3509 1 3.3619787714600746e+00 2.5765670311682518e+00 2.6808538718008084e+01 -3 -1 1
4419 1 8.6756138976186747e+00 1.0889979019427946e+01 3.2662487743156426e+01 0 -1 0
101 1 7.5627906890534256e+00 2.5484720671858971e+00 2.6744242079744048e+01 1 -1 0
2213 1 9.7593371205266273e+00 3.8818607199618906e+00 2.5680805555790673e+01 1 1 -1
2367 1 1.1219810183958645e+00 7.0569589000354682e+00 2.6405236842485596e+01 0 -1 0
1112 1 1.3529955696805513e+00 4.1937019254549321e+00 2.5622620327017209e+01 1 -2 0
1302 1 5.2869127847838815e+00 6.5822232378813821e+00 2.6321879559594301e+01 0 -1 0
2065 1 5.2924825811816509e+00 3.8892431377584278e+00 2.5300542577651413e+01 1 2 0
992 1 1.0071725640305125e+01 6.7362925781063936e+00 2.6041597226135991e+01 4 3 0
1004 1 6.2959515645432376e+00 6.8298936705929041e+00 3.2907557785279224e+01 -1 1 0
1220 1 3.3356570610897496e+00 1.1286627494825899e+01 2.6399305863331403e+01 -3 0 0
4478 1 3.3537775854890275e+00 1.1139943891822922e+01 3.2523440369357687e+01 0 3 0
1090 1 7.8060212320044364e+00 8.0211572359844183e+00 2.5581881370489398e+01 -1 0 -1
4248 1 8.2046580878186202e+00 1.0938001592853325e+01 2.9432234290138055e+01 3 2 -1
65 1 7.9945849837022616e+00 1.0786211498790804e+01 2.6454350227057557e+01 1 0 0
4351 1 3.5047176032707665e+00 2.5795874753078207e+00 2.9437235024895202e+01 1 3 0
1109 1 1.5618916005858297e+00 1.1184289341001490e+00 3.2654789146703877e+01 4 3 -1
2298 1 1.1645484003123499e+00 1.3692281934096213e+00 3.0049992092722050e+01 3 -1 0
1963 1 1.1190301358762410e+01 9.6793257454696739e+00 3.2336276513014433e+01 3 -3 0
4534 1 6.4369568814431002e+00 1.1355870162147057e+00 3.2690724640603236e+01 -1 0 0
1032 1 6.0000378634643043e+00 1.3251012649911298e+00 3.0171792283597803e+01 1 1 0
4455 1 8.7797532323084280e+00 2.7873600407678114e+00 3.2617166099993838e+01 2 0 -1
2149 1 8.3209431762901307e+00 2.8573885984096110e+00 2.9454363898751630e+01 1 1 0
2167 1 1.1344083071643471e+01 1.6649536758958912e+00 3.2430822560401566e+01 -3 -1 0
3313 1 1.1017281670145250e+01 1.7561215064603228e+00 2.9221911495994956e+01 -1 0 0
872 1 8.9713994957061749e-01 6.9801052271116921e+00 2.9204309596229482e+01 0 3 0
3169 1 3.6913822082844487e+00 5.5473434408541378e+00 3.3026947961655253e+01 2 1 0
2040 1 3.3053914095391703e+00 5.5327758458616074e+00 3.0100374055029224e+01 3 1 0
3471 1 1.0646153914327801e+00 6.7714765396565229e+00 3.2459028398483312e+01 0 0 1
940 1 3.2099797025305694e+00 8.4452736258897509e+00 2.5696345523623894e+01 -1 0 0
3504 1 5.5906900752000599e+00 6.7591774175191670e+00 2.9138372972950066e+01 3 -1 0
3544 1 1.0826370003179468e+01 6.6443347670521735e+00 2.8937312806953496e+01 -2 0 0
1078 1 8.7468934370407574e+00 5.5860884701945075e+00 3.2350763978362920e+01 1 2 -1
3404 1 8.0718916909825893e+00 5.5876415532513066e+00 2.9652721141867588e+01 -1 3 0
3284 1 1.0711566790448989e+01 9.3384201800044604e+00 2.9336687253616471e+01 -1 0 -1
3318 1 1.0300408731746145e+00 9.5261667683000866e+00 3.2723899346813205e+01 1 0 0
1988 1 1.1578520862940422e+00 9.6639285661323306e+00 2.9989009064761479e+01 1 0 0
3547 1 3.5697678049693997e+00 1.1156141401788128e+01 2.9306091074473184e+01 3 1 0
3317 1 5.7213903512821229e+00 9.6760646448969521e+00 2.9765027615674285e+01 0 -2 0
2363 1 5.9280972724095662e+00 9.7648134197906149e+00 3.2485792814583874e+01 2 -2 0
3446 1 3.9602320871980772e+00 2.7034337842045932e+00 3.2706506739145809e+01 1 2 0
1094 1 1.0240418109982473e+01 1.2211464305922693e+01 2.5762516216818774e+01 -1 0 0
4267 1 1.1645986920067221e+01 2.1026400179373810e+00 2.6542709615752404e+01 -1 -3 0
60 1 1.2264011809996562e+01 1.0802320590395235e+01 2.6947692866471655e+01 -1 0 0
4277 1 1.2244934655278513e+01 8.2387445518690487e+00 2.5918322372621812e+01 -4 0 0
1076 1 1.1128565960074727e+01 6.9743947568919982e+00 3.3094364019647429e+01 3 5 -1
188 2 0.0000000000000000e+00 1.2787731112280996e+01 2.8690437098347710e+00 0 0 0
190 2 1.2305000000000001e+00 1.3498160618518829e+01 2.8690437098347710e+00 0 0 0
225 2 2.4610000000000003e+00 1.2787731112280996e+01 2.8690437098347710e+00 0 0 0
227 2 3.6915000000000004e+00 1.3498160618518829e+01 2.8690437098347710e+00 0 0 0
186 2 0.0000000000000000e+00 1.5629449137232333e+01 2.8690437098347710e+00 0 0 0
221 2 1.2305000000000001e+00 1.4919019630994494e+01 2.8690437098347710e+00 0 0 0
223 2 2.4610000000000003e+00 1.5629449137232328e+01 2.8690437098347710e+00 0 0 0
266 2 3.6915000000000004e+00 1.4919019630994494e+01 2.8690437098347710e+00 0 0 0
270 2 4.9220000000000006e+00 1.2787731112280996e+01 2.8690437098347710e+00 0 0 0
272 2 6.1524999999999990e+00 1.3498160618518829e+01 2.8690437098347710e+00 0 0 0
317 2 7.3829999999999991e+00 1.2787731112280996e+01 2.8690437098347710e+00 0 0 0
268 2 4.9220000000000006e+00 1.5629449137232333e+01 2.8690437098347710e+00 0 0 0
313 2 6.1524999999999990e+00 1.4919019630994494e+01 2.8690437098347710e+00 0 0 0
315 2 7.3829999999999991e+00 1.5629449137232333e+01 2.8690437098347710e+00 0 0 0
319 2 8.6135000000000002e+00 1.3498160618518835e+01 2.8690437098347710e+00 0 0 0
364 2 9.8440000000000012e+00 1.2787731112280996e+01 2.8690437098347710e+00 0 0 0
366 2 1.1074500000000002e+01 1.3498160618518829e+01 2.8690437098347710e+00 0 0 0
360 2 8.6135000000000002e+00 1.4919019630994494e+01 2.8690437098347710e+00 0 0 0
362 2 9.8440000000000012e+00 1.5629449137232328e+01 2.8690437098347710e+00 0 0 0
402 2 1.1074500000000002e+01 1.4919019630994494e+01 2.8690437098347710e+00 0 0 0
217 2 0.0000000000000000e+00 1.7050308149707998e+01 2.8690437098347710e+00 0 0 0
262 2 2.4610000000000003e+00 1.7050308149707998e+01 2.8690437098347710e+00 0 0 0
215 2 0.0000000000000000e+00 1.9892026174659328e+01 2.8690437098347710e+00 0 0 0
219 2 1.2305000000000001e+00 1.7760737655945832e+01 2.8690437098347710e+00 0 0 0
258 2 1.2305000000000001e+00 1.9181596668421495e+01 2.8690437098347710e+00 0 0 0
260 2 2.4610000000000003e+00 1.9892026174659328e+01 2.8690437098347710e+00 0 0 0
264 2 3.6914999999999996e+00 1.7760737655945832e+01 2.8690437098347710e+00 0 0 0
305 2 3.6914999999999996e+00 1.9181596668421495e+01 2.8690437098347710e+00 0 0 0
309 2 4.9220000000000006e+00 1.7050308149707998e+01 2.8690437098347710e+00 0 0 0
356 2 7.3830000000000009e+00 1.7050308149707998e+01 2.8690437098347710e+00 0 0 0
307 2 4.9220000000000006e+00 1.9892026174659328e+01 2.8690437098347710e+00 0 0 0
311 2 6.1524999999999999e+00 1.7760737655945832e+01 2.8690437098347710e+00 0 0 0
352 2 6.1524999999999999e+00 1.9181596668421495e+01 2.8690437098347710e+00 0 0 0
354 2 7.3829999999999991e+00 1.9892026174659328e+01 2.8690437098347710e+00 0 0 0
398 2 9.8440000000000012e+00 1.7050308149707998e+01 2.8690437098347710e+00 0 0 0
432 2 1.2304999999999998e+01 1.7050308149707998e+01 2.8690437098347710e+00 0 0 0
358 2 8.6134999999999984e+00 1.7760737655945832e+01 2.8690437098347710e+00 0 0 0
394 2 8.6135000000000002e+00 1.9181596668421495e+01 2.8690437098347710e+00 0 0 0
396 2 9.8440000000000012e+00 1.9892026174659335e+01 2.8690437098347710e+00 0 0 0
400 2 1.1074500000000002e+01 1.7760737655945835e+01 2.8690437098347710e+00 0 0 0
428 2 1.1074500000000002e+01 1.9181596668421495e+01 2.8690437098347710e+00 0 0 0
252 2 0.0000000000000000e+00 2.4154603212086325e+01 2.8690437098347710e+00 0 0 0
254 2 0.0000000000000000e+00 2.1312885187134999e+01 2.8690437098347710e+00 0 0 0
256 2 1.2304999999999993e+00 2.2023314693372832e+01 2.8690437098347710e+00 0 0 0
297 2 1.2304999999999993e+00 2.3444173705848499e+01 2.8690437098347710e+00 0 0 0
299 2 2.4610000000000003e+00 2.4154603212086325e+01 2.8690437098347710e+00 0 0 0
301 2 2.4610000000000003e+00 2.1312885187134995e+01 2.8690437098347710e+00 0 0 0
303 2 3.6914999999999996e+00 2.2023314693372832e+01 2.8690437098347710e+00 0 0 0
344 2 3.6915000000000004e+00 2.3444173705848499e+01 2.8690437098347710e+00 0 0 0
346 2 4.9220000000000006e+00 2.4154603212086325e+01 2.8690437098347710e+00 0 0 0
348 2 4.9220000000000006e+00 2.1312885187134995e+01 2.8690437098347710e+00 0 0 0
350 2 6.1524999999999990e+00 2.2023314693372832e+01 2.8690437098347710e+00 0 0 0
386 2 6.1524999999999999e+00 2.3444173705848499e+01 2.8690437098347710e+00 0 0 0
388 2 7.3830000000000009e+00 2.4154603212086336e+01 2.8690437098347710e+00 0 0 0
390 2 7.3829999999999991e+00 2.1312885187134999e+01 2.8690437098347710e+00 0 0 0
392 2 8.6135000000000002e+00 2.2023314693372832e+01 2.8690437098347710e+00 0 0 0
420 2 8.6134999999999984e+00 2.3444173705848499e+01 2.8690437098347710e+00 0 0 0
422 2 9.8440000000000012e+00 2.4154603212086336e+01 2.8690437098347710e+00 0 0 0
424 2 9.8440000000000012e+00 2.1312885187134999e+01 2.8690437098347710e+00 0 0 0
426 2 1.1074500000000002e+01 2.2023314693372832e+01 2.8690437098347710e+00 0 0 0
446 2 1.1074500000000002e+01 2.3444173705848499e+01 2.8690437098347710e+00 0 0 0
189 2 0.0000000000000000e+00 1.2787731112280996e+01 5.9616094194581724e+00 0 0 0
226 2 2.4610000000000003e+00 1.2787731112280996e+01 5.9616094194581724e+00 0 0 0
187 2 0.0000000000000000e+00 1.4208590124756663e+01 5.9616094194581724e+00 0 0 0
222 2 1.2305000000000001e+00 1.4919019630994494e+01 5.9616094194581724e+00 0 0 0
224 2 2.4610000000000003e+00 1.4208590124756663e+01 5.9616094194581724e+00 0 0 0
267 2 3.6915000000000004e+00 1.4919019630994494e+01 5.9616094194581724e+00 0 0 0
271 2 4.9220000000000006e+00 1.2787731112280996e+01 5.9616094194581724e+00 0 0 0
318 2 7.3829999999999991e+00 1.2787731112280996e+01 5.9616094194581724e+00 0 0 0
269 2 4.9220000000000006e+00 1.4208590124756663e+01 5.9616094194581724e+00 0 0 0
314 2 6.1524999999999990e+00 1.4919019630994494e+01 5.9616094194581724e+00 0 0 0
316 2 7.3830000000000009e+00 1.4208590124756663e+01 5.9616094194581724e+00 0 0 0
365 2 9.8440000000000012e+00 1.2787731112280996e+01 5.9616094194581724e+00 0 0 0
361 2 8.6135000000000002e+00 1.4919019630994494e+01 5.9616094194581724e+00 0 0 0
363 2 9.8440000000000012e+00 1.4208590124756663e+01 5.9616094194581724e+00 0 0 0
401 2 1.1074500000000002e+01 1.6339878643470161e+01 5.9616094194581724e+00 0 0 0
403 2 1.1074500000000002e+01 1.4919019630994494e+01 5.9616094194581724e+00 0 0 0
405 2 1.2304999999999998e+01 1.4208590124756658e+01 5.9616094194581724e+00 0 0 0
218 2 0.0000000000000000e+00 1.7050308149707998e+01 5.9616094194581724e+00 0 0 0
220 2 1.2305000000000001e+00 1.6339878643470165e+01 5.9616094194581724e+00 0 0 0