LAMMPS data file via write_data, version 16 Mar 2018, timestep = 100000

6768 atoms
2 atom types

0.0000000000000000e+00 4.9219999999999999e+01 xlo xhi
0.0000000000000000e+00 4.9019635930410494e+01 ylo yhi
-2.3632496344740872e-01 6.0298324963447236e+01 zlo zhi

Masses

1 18.015
2 12.01

Atoms # atomic

295 1 3.7926793737324078e+00 4.2042971433789971e+00 1.2894632147541905e+00 0 -1 0
415 1 1.8624821248779386e+00 5.1719180534579321e+00 9.2555156148379114e-02 2 1 1
191 1 6.7727683492767221e-01 6.9746327924757958e+00 1.0868538772598853e+01 1 0 1
4773 1 7.9798717826148229e+00 1.5253964502911692e+00 4.6935907263675780e-01 0 -1 1
3146 1 1.1863778239516183e+01 2.6897242961985408e+00 8.9891003482155689e+00 0 2 1
3877 1 1.2058327465089588e+01 1.6416108121292265e+01 8.1661516580778510e+00 2 1 0
1826 1 9.4831720745193735e+00 3.7259281898716603e+00 3.2635047405553825e+00 1 0 0
3416 1 2.3303336074901622e+00 1.2211325287985574e+01 2.4049142641448307e+00 -1 1 0
4952 1 3.9125797640149873e+00 9.0844638657528076e+00 3.0824242570380331e+00 0 0 1
5693 1 2.6254659298981942e+00 2.1734543520734313e+01 -9.0740306254381509e-02 1 0 1
1591 1 5.4920530986147389e+00 8.8470849879328239e-01 4.1039841111757642e+00 0 -1 1
3287 1 1.0571697691547508e+01 6.9983570974409943e+00 1.1460515391871276e+01 0 1 0
22 1 4.6261973883895084e+00 1.7500597862483487e+00 8.1637784272468572e+00 1 1 1
6411 1 1.2084715337227303e+01 1.9193739214697509e+01 9.6604442205140177e+00 0 0 1
1960 1 8.2843449838028871e+00 9.2398000315806463e+00 2.7864242858316319e+00 0 1 0
5071 1 1.0217161794983246e+01 7.0576719876501013e+00 6.2677172704093198e-01 0 1 1
4009 1 9.8251245592292449e+00 1.1571111042469207e+01 3.1431809193965536e+00 0 0 1
5270 1 3.3767098504890343e+00 2.4406547341494022e+01 9.4762651801501132e+00 1 0 0
3607 1 3.1995728669302439e+00 1.3347923686453971e+01 1.0492593295765607e-01 1 1 0
2179 1 1.2027360057574072e+01 1.0825250767692216e+01 1.6290684985003778e+00 1 1 0
3168 1 8.9771264013993513e+00 1.4066884847297745e+01 2.3335523676839007e+00 0 1 0
3409 1 4.0074977809941731e-01 4.9175767199971432e+00 8.9319957692335681e+00 0 0 0
1322 1 6.9651739202326732e+00 2.2746651033775468e+01 6.0150807169552678e+00 2 1 1
4745 1 1.0894607894846514e+01 1.6588127481987073e+01 3.7641282549638131e+00 0 1 1
388 1 4.4730109093735013e+00 1.6263637008083087e+01 2.5373502683928320e+00 1 0 0
1736 1 3.6361182038849580e+00 2.0475702482646962e+01 2.1947636865265325e+00 -1 0 0
5038 1 6.2632754556483556e+00 1.4293705171307215e+01 1.9080567484332409e+00 0 1 1
6534 1 2.9518469056236096e+00 2.4005109098848500e+01 4.7636764587963629e+00 0 1 1
3619 1 7.6700005444106223e+00 2.1131846437058542e+01 3.8053914546091541e+00 0 2 0
5136 1 1.0701112440048908e+01 1.8731204103230851e+01 1.3609041851187174e+00 0 0 0
3334 1 6.0660861998844249e+00 1.8382998676695941e+01 1.0750150507098452e+01 1 0 1
6647 1 5.4613113364395183e+00 1.8470973983252456e+01 2.0670797483324961e+00 0 1 1
1695 1 4.8135666778608970e+00 2.2849433512335402e+01 2.7393596676214784e+00 0 0 1
6570 1 7.4791554854808222e+00 2.3740817417155135e+01 2.5934775626063065e+00 1 0 1
1834 1 2.4925896504031875e+00 1.6260399168291311e+01 5.3773756408873741e-01 0 1 1
5153 1 8.6426338902752669e+00 7.5529542174423270e-01 4.6378589530031693e+00 0 1 1
4921 1 1.0009634510792479e+01 2.1356812713046157e+01 2.3956282798692339e+00 -1 0 1
204 1 1.0386279730845295e+01 2.3070672584070223e+01 4.9642722512104331e-02 0 0 0
2244 1 4.2102198768281385e+00 2.2777724020041038e+01 1.1439612512016581e+01 0 2 1
5564 1 4.4391797547381362e+00 5.0670073530877637e+00 1.1210771855377262e+01 0 -1 0
186 1 1.6960671632315389e+00 5.3634463612086556e+00 4.5813359977953612e+00 0 0 0
5438 1 4.2632654078701488e+00 4.5632887573999472e+00 4.0033676460366276e+00 1 -1 0
17 1 7.0021114748891087e+00 3.6907750274953277e+00 5.0341849359365511e+00 0 0 0
5126 1 3.3472695520913880e+00 1.8307742252252204e+00 5.6678563125743100e+00 0 2 0
4767 1 6.7128051399538453e+00 3.2517611168279124e+00 7.8947657762974686e+00 0 1 1
5567 1 4.5735005678061444e+00 1.3268094479235513e+00 1.2488147479425928e+00 0 2 0
1532 1 5.9726117781723187e-01 1.4340806811702601e+01 9.6550733269027837e+00 0 -1 1
1470 1 1.9466073009439289e+00 6.3755760208480448e+00 6.9218089083676082e+00 -1 -1 1
1838 1 4.3905493923515975e+00 7.1541444466643567e+00 7.1299782827962970e+00 1 0 0
5635 1 7.5542410439491778e+00 7.5606078871085991e+00 5.5071995921624719e+00 0 2 1
3054 1 5.0030993796274323e+00 7.0661168328449175e+00 4.6174056348804982e+00 0 2 1
1843 1 8.9396766868675996e+00 6.0760626821537436e+00 9.5935217946605960e+00 0 0 0
6703 1 9.5488849978957688e+00 6.8754926725151781e+00 3.7813641320681031e+00 1 1 0
2160 1 9.1770279512783155e+00 2.3989188404476039e+01 1.0957291107480843e+01 1 0 0
185 1 4.6793884705250637e+00 9.8922923505662652e+00 6.7946533231308521e+00 -1 0 0
2264 1 4.6756453245036980e+00 1.2949037259660557e+01 3.7065994227866557e+00 0 0 1
5593 1 5.7850811252801595e+00 1.0458269154587063e+01 4.2949811132253322e+00 0 0 1
3111 1 8.1280069144247449e+00 1.0102009991238623e+01 6.3814926361289066e+00 1 2 1
3253 1 9.7993849207280022e+00 8.3440200821471322e+00 8.0543051285803884e+00 0 0 1
2127 1 8.3106415599030681e-01 1.1609121330636237e+01 5.5473541044663088e+00 0 0 0
4779 1 1.1337594081207172e+01 7.4621564589699076e+00 5.3929996547691621e+00 0 1 1
4821 1 9.7498375432857820e+00 2.2613799403464238e+01 6.7984176511038354e+00 0 -2 1
6602 1 3.6503277433309802e+00 1.6371485514840870e+01 5.0041908594175055e+00 1 1 1
6740 1 3.9333042711720831e+00 1.3915059907667784e+01 6.6777254436693054e+00 0 1 1
5392 1 8.3604905572731880e+00 1.6413147234169134e+01 4.6832863916433407e+00 0 1 0
5584 1 6.1160863194821564e+00 1.4302487197953408e+01 8.5314231583049107e+00 2 0 1
2142 1 8.4254241362539819e+00 1.5812390474072323e+01 7.2860821567551257e+00 0 1 0
3822 1 1.0243148906082160e+01 1.4006150378641470e+01 7.6496348704030908e+00 0 0 0
5284 1 1.0054003634936421e+01 1.2296567304861089e+01 5.8368150161713501e+00 1 0 0
6537 1 1.8110315664140721e+00 2.0118890332643897e+01 4.0627106236044090e+00 1 0 1
2343 1 2.5436887878025733e+00 2.1398736712688677e+01 6.5712481792136161e+00 0 0 1
6606 1 9.0284533216596108e-01 1.7406998869802333e+01 4.8528149056744034e+00 -1 1 1
4737 1 6.5258059409603595e+00 1.8567333663647688e+01 4.5502085904501852e+00 0 -2 1
1894 1 1.1539174083210870e+01 1.7983659235721092e+01 6.1219463977342361e+00 1 0 0
5436 1 9.4186851983876618e+00 1.9593930240615183e+01 5.9144809845756168e+00 1 0 0
5209 1 1.3161936670239043e+00 2.3189306842120885e+01 8.2548388558173222e+00 1 1 0
1586 1 4.8661475877198423e-01 6.7876697004968136e+00 2.3498322490862646e+00 1 0 1
1831 1 4.3689738070625737e+00 1.0260718354390015e+01 1.1440207989369719e+01 0 0 0
1676 1 5.1911853226572600e+00 2.1227480935630364e+01 7.4447342216150458e+00 -1 -1 1
6359 1 2.0903375830898447e+00 1.3198445131047387e+00 2.9496156711085848e+00 1 -1 1
5257 1 1.1077250367774084e+01 2.2430332614471759e+01 4.5225138433414438e+00 0 1 0
1425 1 3.6002863126745566e+00 2.5858075384960326e+00 1.0514307350944526e+01 0 0 1
3540 1 8.7093750147637228e-01 2.5369625480170295e+00 1.0215990427382252e+01 1 -1 0
6609 1 6.2966931769371648e+00 2.1118755936056562e+01 1.0329534546339140e+01 1 0 1
3051 1 1.1313576113799078e+01 1.8757162898264337e+00 4.1898407968839226e+00 0 1 1
4709 1 8.8922724163815303e+00 2.5256638925026582e+00 9.2391549050837050e+00 1 1 0
5541 1 1.0311855232771967e-01 1.6108716899287270e+00 7.4557558108159796e+00 0 1 0
4719 1 6.1663301181323540e+00 5.5731900227521773e+00 8.8414458543624370e+00 0 1 1
1454 1 6.6223896744519140e+00 7.9916299554958661e+00 1.1158473924211874e+01 0 1 1
3465 1 5.8509989625283099e-01 2.9516054567349608e+00 4.9585665540695931e+00 2 1 0
5028 1 9.2140012939758140e+00 9.6317374719840174e+00 1.1371237082272993e+01 -1 0 1
1949 1 2.7132182713612503e+00 1.1475933643117154e+01 7.6192393047219440e+00 0 1 0
5363 1 1.8440491214091899e+00 1.0803784878356732e+01 1.0465747611905623e+01 0 1 0
1687 1 6.2277332642682603e+00 1.0169460390043799e+01 9.0398667359793894e+00 0 1 1
5554 1 7.0434672048649212e+00 1.2546466212817794e+01 1.0078951583798064e+01 1 0 0
4917 1 9.7580072964797608e+00 1.2055530596633302e+01 9.6641522440791849e+00 1 0 1
3455 1 1.1642433580324836e+01 1.0045421156768754e+01 8.2464933526771791e+00 -1 2 0
3344 1 2.7162990839257235e+00 1.7435064399559600e+01 8.3173040029723548e+00 0 0 0
5018 1 1.1952719555017217e+00 9.4913938892703111e+00 3.0912263570140426e+00 0 1 1
5096 1 1.2252250734186556e+00 1.4957167952641022e+01 7.0255210373832666e+00 2 0 0
1613 1 4.8984925134177333e+00 1.6129701415987650e+01 9.9716802094018409e+00 0 0 1
4762 1 4.7982324964337959e+00 8.6605461226758429e+00 5.6453778327703408e-01 2 0 1
6657 1 7.8800096408775424e+00 1.8308046063188915e+01 8.5723656762062692e+00 1 0 1
4826 1 1.1437005528188070e+01 1.3409301614428550e+01 1.1172677321580132e+01 1 -1 1
5125 1 1.0880662011154945e+01 1.6279075520080831e+01 1.0903097674763382e+01 1 0 0
2072 1 1.0942856998899995e+00 1.9423438640863484e+01 7.3838623580312657e+00 0 0 0
214 1 1.0115558604154636e+01 3.0914215051090981e+00 7.9449586835366381e-01 1 0 0
4886 1 5.0568220219513389e+00 1.8374462225944715e+01 6.9338737599654472e+00 0 -1 1
1348 1 7.6370183345943843e-01 1.7050006580516435e+01 1.0144268328147493e+01 -1 0 1
496 1 9.4775846621187547e+00 2.0510015572831577e+01 9.1519093107559915e+00 0 0 0
2120 1 7.0241817899664118e+00 1.0531722739889011e+01 2.2358915324378559e-02 1 1 0
4791 1 7.5966118320575866e+00 1.8028613234521199e+01 7.0709675676189077e-02 1 -2 1
1438 1 6.3937207087736887e+00 6.7323977892242235e+00 1.7595881080649325e+00 1 2 1
1878 1 1.1519737528985994e+01 2.3680119138833639e+01 9.0347034125636512e+00 1 0 0
6755 1 4.2608484120922077e+00 2.4313834803639502e+01 1.1241651802735725e-01 2 0 1
5109 1 7.7110020510285064e+00 2.4237231796689571e+01 8.7712395233995437e+00 1 0 0
6558 1 1.0009378635044379e+00 6.1423993826194989e-01 5.2151151802683204e-01 0 0 1
1573 1 5.2598096633996116e-01 2.1096807853305332e+01 9.8951463303447955e+00 1 0 1
188 1 4.5241045156274140e-02 8.4196324715711466e+00 6.0904143024508102e+00 0 -1 0
2047 1 5.8359301778563487e-02 1.5687268018873668e+01 1.2012728208247476e+00 1 -1 0
1331 1 1.8768556644220815e+00 1.3272272360482077e+01 1.1867741618244295e+01 0 1 1
1511 1 7.0239985244612608e+00 2.3327730197256347e+01 -2.1901089666613890e-01 -1 -1 0
5139 1 1.0160721587317616e+01 1.4836096132920739e+01 5.6336980726876984e-02 1 1 0
6457 1 2.3623737226074053e+00 3.1189172695074854e+00 1.5951521074552161e+01 0 0 1
3444 1 4.7049524422819733e+00 2.7906443478125804e+00 1.4340850435271257e+01 0 1 0
71 1 1.0804567789487038e+01 1.3262948058436841e+01 2.2878617299367797e+01 0 1 0
3879 1 9.0513438664547650e+00 9.5768039864712797e+00 2.3330233179457146e+01 1 1 1
451 1 3.2743676517806395e+00 7.5043676593445028e+00 1.1904758588274422e+01 1 0 0
3905 1 1.0166900093116994e-01 1.8140347613544066e+01 1.7595457200810984e+01 1 1 0
3412 1 2.8851909833244571e+00 7.3024261887525110e+00 1.4489974534457932e+01 0 1 0
2277 1 8.2142748279033473e+00 1.2429703919219662e+01 2.3335234288177475e+01 1 1 1
574 1 5.6839531372347736e+00 6.8745544099744045e+00 1.4078565760651031e+01 0 1 1
1502 1 5.4227577612097777e+00 7.2284199732104808e+00 1.7182090975758818e+01 0 1 1
3761 1 1.2174198749427754e+01 1.8982015194152808e+01 1.2706452666938549e+01 1 -1 0
1642 1 1.0031655064328891e+01 4.9882346128420698e+00 1.5882493715449407e+01 -1 1 1
142 1 1.0006559674866141e+01 1.0740453026936256e+01 1.3914887309660719e+01 0 0 0
4875 1 9.2536263406179895e+00 5.1430970870778179e+00 1.3365163071795182e+01 0 0 1
3751 1 2.2787324911887112e+00 1.1795450271392845e+01 1.4577500849444158e+01 1 0 0
3255 1 6.2391426303322488e+00 4.4717629379174513e+00 1.2824098362642093e+01 1 0 1
1356 1 7.2202219805765617e+00 9.1269554543353362e+00 1.4506192468049386e+01 0 1 1
5015 1 5.2058653944047260e+00 1.1357462766600815e+01 1.7533533320024226e+01 1 0 0
1788 1 5.3381223202665957e+00 1.1134793498913142e+01 1.4044978321932899e+01 0 0 0
2207 1 7.6835389507295027e+00 1.4208632391241384e+01 1.4399449993859436e+01 0 1 1
1536 1 1.0281631659775258e+01 1.3347880382576829e+01 1.3563641109497963e+01 -1 1 1
1908 1 4.6467523464920797e+00 1.6388673695582789e+01 1.4293114717558764e+01 0 0 0
4754 1 5.5504553284164508e+00 3.2372918681678625e-01 2.3318134527033155e+01 0 1 1
3611 1 7.4007201790535122e+00 1.6660383450938912e+01 1.4446574661712800e+01 1 0 0
5500 1 8.0093165531670003e+00 1.4691564535224696e+01 1.8720243396742891e+01 0 0 1
5568 1 6.0255090590808740e+00 1.3129832552264578e+01 1.2678169615538261e+01 1 0 0
1873 1 3.9219861257435946e+00 2.1586846612155721e+01 2.3353076385721305e+01 0 0 0
3530 1 1.3038096603227001e+00 1.7386902428380601e+01 1.2908880454297101e+01 1 0 0
1458 1 2.4820094505361721e+00 1.9593834866160989e+01 1.3900041666283590e+01 0 0 1
317 1 5.3065250290380348e+00 1.9088859161664761e+01 1.3472759274189333e+01 0 0 0
5300 1 6.5731988656972967e-02 1.5532719555924640e+01 2.1011219590342659e+01 1 1 0
2206 1 9.6484032564522426e+00 1.9311053799313232e+01 1.3350981004158594e+01 0 0 0
3340 1 1.0877915114093387e+01 1.7323492322406906e+01 2.0789677433019133e+01 2 0 1
2082 1 4.7949192725979479e+00 2.2995105680230829e+01 1.5078998468721096e+01 -1 1 0
3428 1 1.3243265650799274e+00 9.3735889347169223e+00 1.4962844177422710e+01 1 0 1
5581 1 4.1747222949983547e+00 6.1769484640423344e-01 1.2733314034786199e+01 0 1 0
1984 1 7.6819442352588787e+00 2.3022269332666788e+01 1.4803051594075431e+01 -1 1 0
3734 1 5.4375119018199349e+00 2.4457412535661163e+01 1.9500238426154425e+01 0 1 0
3440 1 4.1976154964157755e-02 9.0206540814688019e+00 2.3616248090377010e+01 1 1 0
3276 1 7.6474943751902114e-01 1.1969260457318767e+00 1.8628216769857104e+01 1 0 0
3391 1 9.3133606077857678e+00 2.3850874805069271e+00 1.6773582326437403e+01 -1 1 1
1944 1 3.9796588959136328e+00 1.4887340310868769e+01 1.2049647526752993e+01 1 2 0
2119 1 6.7548628717037023e+00 3.5198935521321073e+00 2.0677956845043525e+01 0 1 0
2027 1 8.2524702727902781e+00 2.2886266811929520e+01 2.3570871568409142e+01 0 0 0
6415 1 1.0815846126633243e+01 3.2170973497250634e+00 2.1134131405492397e+01 0 0 1
5226 1 2.1624550653524093e+00 5.5742763586408568e+00 1.9652123522921336e+01 2 1 1
5396 1 4.8581224553023334e+00 5.5223539326014821e+00 1.9352101680186745e+01 -2 1 0
1728 1 1.0383136167706004e+01 7.2154051454722916e+00 1.7065089080699664e+01 0 1 0
3584 1 3.0696962598936217e+00 1.2317010951804834e+01 1.9992631558276532e+01 0 0 0
5473 1 2.0390596242250090e+00 8.2031932738450255e+00 1.9035613792168082e+01 0 1 0
3406 1 3.6746293629020981e+00 9.0855745722901631e+00 1.7183322505606760e+01 0 1 1
5052 1 7.9442197799643939e+00 8.5077694201298062e+00 1.7121063977924244e+01 0 0 0
3079 1 7.4717982123832671e+00 1.2943563508124040e+01 1.6862352100178768e+01 -1 -1 1
433 1 5.4272398754918276e+00 8.8287461544741799e+00 2.0737386719094509e+01 0 0 0
289 1 1.1341691964478274e+01 1.1593153273504189e+01 1.8569446848920833e+01 0 1 0
6467 1 2.8212062193230665e+00 2.9717997129783109e+00 1.8410454002483544e+01 0 1 1
2256 1 2.6521117390923079e+00 1.2925709667212088e+01 1.7021135015260331e+01 0 1 1
5398 1 3.7659054906901845e+00 1.5378631458508289e+01 1.6974949316269040e+01 1 0 0
3544 1 4.7325656202870867e+00 1.3907285964990201e+01 2.0959828231389920e+01 1 1 0
3266 1 7.2430559778467956e+00 1.0121171081722480e+01 1.9371505468557057e+01 1 0 1
2053 1 5.1876835132432753e+00 1.5817615148071363e+01 1.9341825628715515e+01 0 0 0
488 1 9.4821498186209023e+00 1.1236703943357918e+01 1.6569103133605708e+01 0 0 0
6719 1 1.1784461616130141e+01 1.6110086472376828e+01 1.6532624174318091e+01 1 0 1
3477 1 6.5635357853205112e-01 1.7170494773893186e+01 2.3217650526295625e+01 1 1 0
5174 1 1.7137475456864699e+00 1.6501111234526707e+01 1.8589394086735233e+01 0 1 1
2123 1 4.0084783183878079e+00 1.8063437266065691e+01 2.0238928064112081e+01 0 1 0
5 1 7.0590446392090218e+00 2.0393035679935036e+01 1.5212362090899990e+01 2 0 1
210 1 9.2661033568644786e+00 1.9628840723059437e+01 1.6646015254175570e+01 0 0 0
5649 1 4.7759145882440537e+00 1.6840388002071563e-01 2.0300125297519429e+01 1 2 1
4931 1 8.8923615914816700e+00 1.6932288670034307e+01 1.6787461629218452e+01 0 -1 1
4721 1 3.1572027489587762e+00 2.0392648945036786e+01 1.8953598064895196e+01 1 0 1
104 1 2.3279704214876666e+00 7.8590063990279713e-01 2.3580557249374653e+01 -1 1 0
1793 1 3.8022793959169991e+00 2.0768826658422299e+01 1.6317958313556581e+01 0 0 0
4883 1 8.1830417820375789e+00 2.3470146787376041e+01 2.0684794247443769e+01 1 0 1
6474 1 2.8621644940203989e-01 1.3829587690111271e+00 1.5729693490889105e+01 0 1 0
5347 1 1.4846936240741851e-01 1.3814258417558431e+01 1.8054412555419727e+01 2 0 0
110 1 7.0095661607379913e+00 1.8807314585085933e+01 2.3386578399137221e+01 1 0 0
3413 1 1.2062877871581583e+00 5.7645466105730181e+00 1.5957409767010446e+01 1 -1 0
1933 1 6.7539090538435849e+00 1.3385895584916603e+00 1.6088867591346279e+01 0 2 0
5249 1 9.2305360890724231e+00 2.2792553584450687e+01 1.7012043899569857e+01 -1 2 0
1325 1 8.4923799607113928e+00 1.7362767696864548e+01 1.1911484400821058e+01 0 0 1
3379 1 8.5169643676608757e+00 1.4301858141092989e+00 2.0694223795351807e+01 -1 -1 0
1595 1 1.1294138327032149e+01 2.9091885028134583e+00 1.3023254024462362e+01 0 0 1
1898 1 1.0339503205821256e+01 1.5784433503715793e+01 2.3017633858020833e+01 -1 -1 0
3572 1 1.0896979247986367e+01 2.0087236379856137e+01 2.1500524631582241e+01 -1 0 1
1824 1 5.8348922254093214e+00 6.2455984213370241e+00 2.2087819696369248e+01 1 1 0
3522 1 8.9743129900840639e+00 5.3950991889177686e+00 2.1323820542086061e+01 0 0 1
2239 1 5.5796447898307244e-01 4.2498237879458484e-01 1.2354349091554182e+01 0 0 0
487 1 8.4167572413270442e+00 6.9702881087408319e-01 2.3169682808963621e+01 -1 0 1
485 1 4.8537938899786820e-01 2.0474793046213097e+01 1.8651710333623779e+01 0 1 0
3425 1 1.0429747654908804e+01 7.3588583796369820e+00 1.9799140197363055e+01 1 0 0
3012 1 4.9984226267707967e+00 2.1777784906195414e+01 2.0712463829629719e+01 -1 1 1
5163 1 1.1856448642444379e+01 3.5217438075536038e+00 1.8663117632094579e+01 -1 1 1
5502 1 3.5144155435290232e+00 1.0193274216268886e+01 2.1306552097815445e+01 -1 1 0
2075 1 5.2561383796719650e+00 1.9570478973873651e+00 1.8500813684900265e+01 1 2 0
5162 1 9.9056165412202706e+00 1.0026100159776997e+01 2.0473022317843849e+01 0 1 0
468 1 7.3223542372231769e+00 1.2458747306863083e+01 2.0773733303914149e+01 1 0 0
3043 1 8.0477116946771829e+00 1.6463822971867298e+01 2.3916660854765574e+01 0 1 1
6712 1 8.7131130163596382e-01 1.2851480452357501e+01 2.3720987458515456e+01 0 -1 0
613 1 1.0519941410905179e+01 4.8204499417673637e-02 1.8634606346314115e+01 -2 0 1
6539 1 8.3300072694571323e+00 2.1840414864635179e+01 1.2291403721311328e+01 0 1 1
456 1 2.0414795091952977e+00 2.3298061169440818e+01 2.0486601729879599e+01 0 -1 0
5526 1 4.3434418155948444e+00 1.4769275339960730e+01 2.3472533887399230e+01 0 1 0
3565 1 9.3835026872574421e+00 2.0333675494475973e+01 2.3918015963768671e+01 0 1 0
369 1 9.1657827320787766e-01 1.2855977424174393e+01 2.0892703679040793e+01 0 1 0
3399 1 1.2304221723704364e+01 1.3411303366575613e+01 2.0249639838440046e+01 -1 0 1
6730 1 8.2989851347405921e+00 1.7286450831218737e+01 2.0099010876879753e+01 0 1 0
6624 1 3.5280561196887050e+00 1.7218795742263683e+01 2.2751014919065124e+01 1 0 0
5576 1 6.5145074800494598e+00 1.9525859024860459e+01 2.0750929392951726e+01 1 0 1
6658 1 8.9868178194435870e+00 2.1192650602313467e+01 1.9418593304276730e+01 0 1 0
2163 1 3.5297913635017442e+00 1.2250194079773252e+01 2.3941213070091603e+01 1 0 0
5003 1 1.2735096639978429e+00 2.2616565666030144e+01 2.3190114949230935e+01 1 0 1
6630 1 1.7905827865362696e+00 2.1835651928688360e+01 1.2619010305636028e+01 1 1 1
3993 1 1.0992208447984561e+01 5.9352006154363113e-01 1.5148702104610372e+01 0 0 1
354 1 2.5914585544673687e+00 5.4503315040403155e+00 2.2420713162666551e+01 0 0 0
2321 1 6.8956920667002448e+00 8.0564174199689020e+00 2.3884708634188428e+01 0 0 0
5179 1 8.5731304696724777e+00 5.0367215833585979e+00 2.3822245208902309e+01 0 1 1
5212 1 1.1066092433976101e+01 6.3133830495212777e+00 2.3820339063406109e+01 1 0 0
3027 1 8.3233664797484970e+00 2.5939751460466929e+00 1.1912493258575969e+01 1 2 1
623 2 0.0000000000000000e+00 2.8417180249513345e+00 2.6797593176663760e+01 0 0 0
625 2 0.0000000000000000e+00 0.0000000000000000e+00 2.6797593176663760e+01 0 0 0
627 2 1.2305000000000001e+00 7.1042950623783474e-01 2.6797593176663760e+01 0 0 0
634 2 1.2305000000000001e+00 2.1312885187134998e+00 2.6797593176663760e+01 0 0 0
636 2 2.4610000000000003e+00 2.8417180249513345e+00 2.6797593176663760e+01 0 0 0
638 2 2.4610000000000003e+00 0.0000000000000000e+00 2.6797593176663760e+01 0 0 0
640 2 3.6915000000000004e+00 7.1042950623783474e-01 2.6797593176663760e+01 0 0 0
655 2 3.6914999999999996e+00 2.1312885187134998e+00 2.6797593176663760e+01 0 0 0
1078 2 8.6135000000000002e+00 2.2023314693372832e+01 3.3264406823340678e+01 0 0 0
657 2 4.9220000000000006e+00 2.8417180249513332e+00 2.6797593176663760e+01 0 0 0
659 2 4.9220000000000006e+00 0.0000000000000000e+00 2.6797593176663760e+01 0 0 0
661 2 6.1524999999999999e+00 7.1042950623783407e-01 2.6797593176663760e+01 0 0 0
684 2 6.1524999999999999e+00 2.1312885187134989e+00 2.6797593176663760e+01 0 0 0
686 2 7.3829999999999991e+00 2.8417180249513345e+00 2.6797593176663760e+01 0 0 0
688 2 7.3829999999999991e+00 0.0000000000000000e+00 2.6797593176663760e+01 0 0 0
346 1 5.5578790657568362e+00 1.3485831748181816e+01 3.5874294461049779e+01 0 0 -1
690 2 8.6134999999999984e+00 7.1042950623783407e-01 2.6797593176663760e+01 0 0 0
721 2 8.6134999999999984e+00 2.1312885187135002e+00 2.6797593176663760e+01 0 0 0
723 2 9.8440000000000012e+00 2.8417180249513332e+00 2.6797593176663760e+01 0 0 0
725 2 9.8440000000000012e+00 0.0000000000000000e+00 2.6797593176663760e+01 0 0 0
727 2 1.1074500000000002e+01 7.1042950623783330e-01 2.6797593176663760e+01 0 0 0
766 2 1.1074500000000002e+01 2.1312885187135002e+00 2.6797593176663760e+01 0 0 0
628 2 0.0000000000000000e+00 7.1042950623783341e+00 2.6797593176663760e+01 0 0 0
630 2 0.0000000000000000e+00 4.2625770374269996e+00 2.6797593176663760e+01 0 0 0
632 2 1.2305000000000001e+00 4.9730065436648339e+00 2.6797593176663760e+01 0 0 0
647 2 1.2305000000000001e+00 6.3938655561404980e+00 2.6797593176663760e+01 0 0 0
649 2 2.4610000000000003e+00 7.1042950623783341e+00 2.6797593176663760e+01 0 0 0
651 2 2.4610000000000003e+00 4.2625770374269996e+00 2.6797593176663760e+01 0 0 0
653 2 3.6914999999999996e+00 4.9730065436648339e+00 2.6797593176663760e+01 0 0 0
676 2 3.6914999999999996e+00 6.3938655561404980e+00 2.6797593176663760e+01 0 0 0
678 2 4.9220000000000006e+00 7.1042950623783341e+00 2.6797593176663760e+01 0 0 0
680 2 4.9220000000000006e+00 4.2625770374269978e+00 2.6797593176663760e+01 0 0 0
682 2 6.1524999999999999e+00 4.9730065436648339e+00 2.6797593176663760e+01 0 0 0
713 2 6.1524999999999999e+00 6.3938655561404980e+00 2.6797593176663760e+01 0 0 0
715 2 7.3830000000000009e+00 7.1042950623783341e+00 2.6797593176663760e+01 0 0 0
717 2 7.3829999999999991e+00 4.2625770374269996e+00 2.6797593176663760e+01 0 0 0
1008 2 0.0000000000000000e+00 2.1312885187134999e+01 3.3264406823340678e+01 0 0 0
719 2 8.6135000000000002e+00 4.9730065436648339e+00 2.6797593176663760e+01 0 0 0
758 2 8.6135000000000002e+00 6.3938655561404980e+00 2.6797593176663760e+01 0 0 0
760 2 9.8440000000000012e+00 7.1042950623783341e+00 2.6797593176663760e+01 0 0 0
762 2 9.8440000000000012e+00 4.2625770374270004e+00 2.6797593176663760e+01 0 0 0
764 2 1.1074500000000002e+01 4.9730065436648339e+00 2.6797593176663760e+01 0 0 0
805 2 1.1074500000000002e+01 6.3938655561404980e+00 2.6797593176663760e+01 0 0 0
3349 1 1.0574234882460836e+01 2.3165854312443685e+01 3.5604720114748659e+01 -1 1 -1
641 2 0.0000000000000000e+00 1.1366872099805333e+01 2.6797593176663760e+01 0 0 0
643 2 0.0000000000000000e+00 8.5251540748539991e+00 2.6797593176663760e+01 0 0 0
645 2 1.2305000000000001e+00 9.2355835810918343e+00 2.6797593176663760e+01 0 0 0
668 2 1.2305000000000001e+00 1.0656442593567498e+01 2.6797593176663760e+01 0 0 0
670 2 2.4610000000000003e+00 1.1366872099805333e+01 2.6797593176663760e+01 0 0 0
672 2 2.4610000000000003e+00 8.5251540748539991e+00 2.6797593176663760e+01 0 0 0
674 2 3.6915000000000004e+00 9.2355835810918343e+00 2.6797593176663760e+01 0 0 0
705 2 3.6914999999999996e+00 1.0656442593567499e+01 2.6797593176663760e+01 0 0 0
707 2 4.9220000000000006e+00 1.1366872099805333e+01 2.6797593176663760e+01 0 0 0
709 2 4.9220000000000006e+00 8.5251540748539991e+00 2.6797593176663760e+01 0 0 0
711 2 6.1524999999999999e+00 9.2355835810918343e+00 2.6797593176663760e+01 0 0 0
750 2 6.1524999999999999e+00 1.0656442593567499e+01 2.6797593176663760e+01 0 0 0
752 2 7.3829999999999991e+00 1.1366872099805333e+01 2.6797593176663760e+01 0 0 0
754 2 7.3830000000000009e+00 8.5251540748539991e+00 2.6797593176663760e+01 0 0 0
756 2 8.6134999999999984e+00 9.2355835810918343e+00 2.6797593176663760e+01 0 0 0
797 2 8.6134999999999984e+00 1.0656442593567498e+01 2.6797593176663760e+01 0 0 0
799 2 9.8440000000000012e+00 1.1366872099805333e+01 2.6797593176663760e+01 0 0 0
801 2 9.8440000000000012e+00 8.5251540748539956e+00 2.6797593176663760e+01 0 0 0
803 2 1.1074500000000002e+01 9.2355835810918343e+00 2.6797593176663760e+01 0 0 0
844 2 1.1074500000000002e+01 1.0656442593567498e+01 2.6797593176663760e+01 0 0 0
846 2 1.2304999999999998e+01 1.1366872099805333e+01 2.6797593176663760e+01 0 0 0
1076 2 7.3830000000000009e+00 2.4154603212086336e+01 3.3264406823340678e+01 0 0 0
662 2 0.0000000000000000e+00 1.5629449137232333e+01 2.6797593176663760e+01 0 0 0
664 2 0.0000000000000000e+00 1.2787731112280996e+01 2.6797593176663760e+01 0 0 0
666 2 1.2305000000000001e+00 1.3498160618518829e+01 2.6797593176663760e+01 0 0 0
697 2 1.2305000000000001e+00 1.4919019630994494e+01 2.6797593176663760e+01 0 0 0
699 2 2.4610000000000003e+00 1.5629449137232328e+01 2.6797593176663760e+01 0 0 0
701 2 2.4610000000000003e+00 1.2787731112280996e+01 2.6797593176663760e+01 0 0 0
703 2 3.6915000000000004e+00 1.3498160618518829e+01 2.6797593176663760e+01 0 0 0
742 2 3.6915000000000004e+00 1.4919019630994494e+01 2.6797593176663760e+01 0 0 0
744 2 4.9220000000000006e+00 1.5629449137232333e+01 2.6797593176663760e+01 0 0 0
746 2 4.9220000000000006e+00 1.2787731112280996e+01 2.6797593176663760e+01 0 0 0
748 2 6.1524999999999990e+00 1.3498160618518829e+01 2.6797593176663760e+01 0 0 0
789 2 6.1524999999999990e+00 1.4919019630994494e+01 2.6797593176663760e+01 0 0 0
791 2 7.3829999999999991e+00 1.5629449137232333e+01 2.6797593176663760e+01 0 0 0
793 2 7.3829999999999991e+00 1.2787731112280996e+01 2.6797593176663760e+01 0 0 0
1095 2 1.1074500000000002e+01 2.2023314693372832e+01 3.3264406823340678e+01 0 0 0
795 2 8.6135000000000002e+00 1.3498160618518835e+01 2.6797593176663760e+01 0 0 0
836 2 8.6135000000000002e+00 1.4919019630994494e+01 2.6797593176663760e+01 0 0 0
838 2 9.8440000000000012e+00 1.5629449137232328e+01 2.6797593176663760e+01 0 0 0
840 2 9.8440000000000012e+00 1.2787731112280996e+01 2.6797593176663760e+01 0 0 0
842 2 1.1074500000000002e+01 1.3498160618518829e+01 2.6797593176663760e+01 0 0 0
878 2 1.1074500000000002e+01 1.4919019630994494e+01 2.6797593176663760e+01 0 0 0
2294 1 6.9297404790842645e+00 5.0070107349345161e+00 3.5790288707172024e+01 0 0 0
691 2 0.0000000000000000e+00 1.9892026174659328e+01 2.6797593176663760e+01 0 0 0
693 2 0.0000000000000000e+00 1.7050308149707998e+01 2.6797593176663760e+01 0 0 0
695 2 1.2305000000000001e+00 1.7760737655945832e+01 2.6797593176663760e+01 0 0 0
734 2 1.2305000000000001e+00 1.9181596668421495e+01 2.6797593176663760e+01 0 0 0
736 2 2.4610000000000003e+00 1.9892026174659328e+01 2.6797593176663760e+01 0 0 0
738 2 2.4610000000000003e+00 1.7050308149707998e+01 2.6797593176663760e+01 0 0 0
740 2 3.6914999999999996e+00 1.7760737655945832e+01 2.6797593176663760e+01 0 0 0
781 2 3.6914999999999996e+00 1.9181596668421495e+01 2.6797593176663760e+01 0 0 0
783 2 4.9220000000000006e+00 1.9892026174659328e+01 2.6797593176663760e+01 0 0 0
785 2 4.9220000000000006e+00 1.7050308149707998e+01 2.6797593176663760e+01 0 0 0
787 2 6.1524999999999999e+00 1.7760737655945832e+01 2.6797593176663760e+01 0 0 0
828 2 6.1524999999999999e+00 1.9181596668421495e+01 2.6797593176663760e+01 0 0 0
830 2 7.3829999999999991e+00 1.9892026174659328e+01 2.6797593176663760e+01 0 0 0
832 2 7.3830000000000009e+00 1.7050308149707998e+01 2.6797593176663760e+01 0 0 0
1105 2 1.1074500000000002e+01 2.3444173705848499e+01 3.3264406823340678e+01 0 0 0
834 2 8.6134999999999984e+00 1.7760737655945832e+01 2.6797593176663760e+01 0 0 0
870 2 8.6135000000000002e+00 1.9181596668421495e+01 2.6797593176663760e+01 0 0 0
872 2 9.8440000000000012e+00 1.9892026174659335e+01 2.6797593176663760e+01 0 0 0
874 2 9.8440000000000012e+00 1.7050308149707998e+01 2.6797593176663760e+01 0 0 0
876 2 1.1074500000000002e+01 1.7760737655945835e+01 2.6797593176663760e+01 0 0 0
904 2 1.1074500000000002e+01 1.9181596668421495e+01 2.6797593176663760e+01 0 0 0
908 2 1.2304999999999998e+01 1.7050308149707998e+01 2.6797593176663760e+01 0 0 0
6741 1 5.6899508951433928e+00 2.3443908860898990e+01 2.4369852273362650e+01 2 1 1
728 2 0.0000000000000000e+00 2.4154603212086325e+01 2.6797593176663760e+01 0 0 0
730 2 0.0000000000000000e+00 2.1312885187134999e+01 2.6797593176663760e+01 0 0 0
732 2 1.2304999999999993e+00 2.2023314693372832e+01 2.6797593176663760e+01 0 0 0
773 2 1.2304999999999993e+00 2.3444173705848499e+01 2.6797593176663760e+01 0 0 0
775 2 2.4610000000000003e+00 2.4154603212086325e+01 2.6797593176663760e+01 0 0 0
777 2 2.4610000000000003e+00 2.1312885187134995e+01 2.6797593176663760e+01 0 0 0
779 2 3.6914999999999996e+00 2.2023314693372832e+01 2.6797593176663760e+01 0 0 0
820 2 3.6915000000000004e+00 2.3444173705848499e+01 2.6797593176663760e+01 0 0 0
1093 2 9.8440000000000012e+00 2.4154603212086336e+01 3.3264406823340678e+01 0 0 0
822 2 4.9220000000000006e+00 2.4154603212086325e+01 2.6797593176663760e+01 0 0 0