LAMMPS data file via write_data, version 16 Mar 2018, timestep = 100000

6328 atoms
2 atom types

0.0000000000000000e+00 4.9219999999999999e+01 xlo xhi
0.0000000000000000e+00 4.9019635930410494e+01 ylo yhi
3.4907744788458963e+00 5.6571225521152691e+01 zlo zhi

Masses

1 18.015
2 12.01

Atoms # atomic

22 1 6.1174959549179428e+00 1.1347018961377899e+00 6.3322062208827052e+00 0 0 0
3452 1 7.1126683867683589e+00 3.9045937506327277e+00 5.4326733503462812e+00 1 0 1
1367 1 9.3979756494198234e+00 2.0455225856184005e+00 5.3812967460668144e+00 1 0 0
3665 1 4.0691122006544589e+00 6.5087297054994648e+00 4.9027556729198380e+00 0 0 0
3184 1 7.5310642039044069e+00 1.3727205560809157e+01 9.3700153204967442e+00 0 -1 0
1304 1 3.4977921914966705e+00 5.3905313793941962e+00 7.3135814951107339e+00 1 0 1
1562 1 9.9793534852594181e+00 6.6549309908078751e+00 4.5204864166662215e+00 0 -1 1
5303 1 9.6228085423541110e+00 4.9203754632497141e+00 6.7981192276794147e+00 0 1 1
26 1 1.0942737403188669e+01 1.2714263600953108e+01 9.8257288109865009e+00 0 0 0
4720 1 2.3336281630544584e+00 6.0646904370678456e-01 9.6623677931859362e+00 0 0 1
44 1 5.9306462806141296e+00 8.1919233655280141e+00 6.3605917209063918e+00 -1 0 0
1718 1 9.5965179537250407e+00 1.3026338306712148e+01 1.3800776540423985e+01 -1 1 1
1336 1 7.8045533206870346e+00 8.0942326655010302e+00 4.2041805265045920e+00 0 0 0
1441 1 4.2950866118813386e-01 3.0857760419803717e+00 1.0824238465261505e+01 0 1 1
1722 1 2.3999359296006832e+00 1.2712702083848107e+01 1.3949699487090530e+01 0 1 1
2926 1 7.6025534549553884e+00 1.5036456246135696e+01 5.3377297626218967e+00 0 0 1
4625 1 5.5338687435030023e+00 1.3070701418370811e+01 5.8203101005477649e+00 -1 0 1
6252 1 1.1387363249267441e+01 1.0845193119389561e+01 7.7197365739998371e+00 0 1 0
473 1 7.1326420598741480e+00 1.6064738192464070e+01 8.0695834034978766e+00 0 0 1
1378 1 1.0036205506984881e+01 1.4395071337252338e+01 4.8613087304473463e+00 0 -1 1
3154 1 1.8928447432383908e+00 3.3568896884938910e+00 6.1215940124948434e+00 0 1 1
371 1 4.5835675168453580e+00 1.8910412458731780e+00 1.0714963904721902e+01 0 1 1
429 1 1.7462284881221752e+00 9.8419396650946911e-01 1.3561700280890355e+01 0 0 0
2106 1 5.2645439026301846e+00 3.4686752025873928e+00 8.4253554514978148e+00 0 1 0
1940 1 1.0524229648055769e+01 1.7617204205926276e+00 8.1356932001261306e+00 0 1 0
3323 1 9.3504507163033761e+00 2.4412177571449099e+00 1.3511716112980231e+01 0 1 0
3435 1 1.6038933124976977e+00 6.9826664327596761e+00 8.6172923392921668e+00 0 0 1
1569 1 7.9202073624630929e+00 6.6602611284598030e+00 7.8661363832557702e+00 1 0 1
350 1 7.1150973216681654e+00 4.8142124141979936e+00 9.9049794090790773e+00 0 1 0
5221 1 8.2728199862882548e+00 6.0429796856315741e-02 9.3843089287933594e+00 1 1 0
3495 1 9.9140174077979513e+00 8.1841076211108383e+00 8.9585353865856447e+00 2 0 0
3371 1 9.7146675427987628e+00 4.0655637899811108e+00 1.0033870651308288e+01 -1 0 1
1247 1 7.7833633127880164e-01 1.0683699742504773e+01 9.2363151729940043e+00 2 1 0
420 1 5.1498434164429066e+00 1.0716953635296173e+01 7.4693043117667184e+00 0 0 0
1760 1 3.9742455616570753e+00 1.0613116044175698e+01 9.9977740925326692e+00 -1 2 0
1328 1 9.6425273724694698e+00 1.1852830385016681e+01 5.7185685493910698e+00 0 0 1
4737 1 7.7937174935768860e+00 1.1558590500001195e+01 7.6841050622891185e+00 1 1 0
6124 1 2.6634163097853270e+00 1.3662500554882708e+01 6.1873380243365759e+00 0 0 1
3253 1 4.4298324198688848e+00 1.5131081366293133e+01 8.1565849410293119e+00 0 1 1
3545 1 1.6727563896580713e+00 1.5918211531840234e+01 9.3197138970043305e+00 0 0 0
1420 1 8.9182654838321884e+00 1.4465192264387202e+01 1.1542505203012791e+01 2 1 1
3176 1 6.3210649025076560e+00 4.2452373402446431e-01 1.2860243731299223e+01 0 0 0
1788 1 2.9893054948810867e+00 3.2116573774268331e+00 1.2586666434586963e+01 2 1 0
4886 1 7.6464229469198211e+00 2.0004220504492207e+00 1.1248148673988062e+01 1 1 0
3531 1 3.2149736918503717e+00 9.9754557880962231e+00 1.3921906411280672e+01 1 1 0
2831 1 1.6066476965352239e+00 7.5229825931075913e+00 3.5087374301087211e+00 0 0 1
4710 1 2.2795579335566365e+00 8.4912790343695743e+00 1.1073683886001859e+01 0 1 1
3001 1 3.1984635526418801e+00 6.3225255282268913e+00 1.2218258078303073e+01 0 0 0
3243 1 1.4607930055300111e+00 1.0861875899569098e+01 6.2032276746499377e+00 1 1 0
4963 1 6.0318326427613336e+00 6.7682887886996328e+00 1.1434440832685329e+01 0 1 0
4801 1 2.4398410852743249e+00 1.4126148372971716e+00 3.9915925372067278e+00 1 1 0
2026 1 5.5293317047068333e+00 1.5131603925314643e+01 1.2567560596101078e+01 1 1 1
2002 1 1.0304664412568243e+01 6.6084870433800758e+00 1.1549823965545185e+01 0 1 0
5003 1 6.5131022884980281e+00 9.7193470271727076e+00 1.1054946357298366e+01 0 1 0
1690 1 9.0344689721784466e+00 1.0356949802588053e+01 1.0116400653072786e+01 1 2 1
1911 1 9.6504214610434147e+00 1.0358110629369538e+01 1.3086003249634027e+01 1 1 0
4677 1 1.9578222395250113e+00 1.3843069113351632e+01 1.1377248514268278e+01 0 1 1
4788 1 3.7923808816672100e-01 1.9358282521815331e+00 8.0297633109251549e+00 1 1 0
6153 1 5.6781605063849030e+00 1.1044547825584397e+01 1.3456994578563755e+01 0 0 0
1878 1 4.6884692250507962e+00 1.3501363556219809e+01 1.0343139010210969e+01 1 1 0
3077 1 3.6120418903843315e-01 5.6035334244246613e+00 1.0600010480638309e+01 2 1 1
2986 1 1.1014916312520322e+01 1.4487898546130280e+01 7.7328889230121796e+00 1 0 1
6242 1 5.0727296903013830e+00 1.5333154361778289e+00 3.6532523414708296e+00 1 0 1
1798 1 1.2114572509798442e+01 9.1845049806859258e+00 1.2598059247539767e+01 1 0 0
5275 1 3.5645461787687305e+00 9.6517623352911830e+00 4.6626003439411843e+00 0 1 0
2914 1 1.8195851928816561e-02 1.1944340537553790e+01 4.1575243509592310e+00 1 0 0
5127 1 8.1575211771480962e+00 7.1676899855773755e+00 1.3278417337585273e+01 0 0 0
1791 1 3.8995288136877992e-01 1.3637700883269613e+01 8.2087206582389314e+00 2 1 0
4513 1 1.1419642716706203e+01 7.8562019740209643e-01 1.0826701179571357e+01 1 1 0
1980 1 1.1888527860374591e+00 1.4443643045467548e+01 3.7257239299761555e+00 1 1 0
4668 1 1.1013367175099795e+01 2.7423261662685627e+00 3.5530179174393699e+00 0 0 1
135 1 2.3172306912291887e-01 8.4891430096706078e+00 1.7692754410910794e+01 0 0 0
5200 1 9.0430734460149651e+00 1.5676464434725832e+00 1.6571256089089296e+01 0 1 0
3215 1 7.5635373887058481e+00 1.3521517648514029e+01 2.4516883574177236e+01 1 -1 0
5286 1 9.8819633029689449e-02 1.1179349497348971e+01 2.4398037839347957e+01 1 0 1
4591 1 1.1576128638835579e+00 5.8963183659601865e+00 1.6539940987980732e+01 0 0 1
6093 1 3.5829546176235429e+00 6.2242339684374981e+00 1.5283983649868668e+01 1 1 1
4524 1 4.1963409190172856e+00 3.7174184523730220e+00 1.6423197600336508e+01 1 0 1
4906 1 6.5912719732460836e+00 5.2096847340187500e+00 1.7091392137066975e+01 0 0 0
451 1 1.0858470131037057e+01 1.1448347661154271e+01 2.0744597634213992e+01 1 0 1
2037 1 5.4896348376368576e-01 1.1315153737553274e+01 1.7383250986541121e+01 1 1 0
6040 1 9.1404266566470920e+00 6.1296131241943428e+00 1.5829450376648769e+01 1 0 0
392 1 9.4942355772723310e+00 1.3836476368523929e+01 2.1976067668718763e+01 1 1 0
3209 1 1.0900781035321780e+01 9.4479460120618857e+00 2.4185901074114813e+01 0 0 0
215 1 6.5020159482144263e-02 3.4255040042936566e+00 1.7595124082430367e+01 1 1 0
2015 1 1.1679490359344225e+01 1.0027098673244833e+01 1.6418487437785899e+01 0 1 0
3195 1 5.2558416256537601e+00 1.9569651732092974e-01 1.6697216939905285e+01 0 1 0
3204 1 1.4538521472853150e+00 5.9862628408938594e+00 2.0996242239529540e+01 1 0 0
6 1 5.1819278690593222e+00 1.3512238056561296e+01 1.5166942369277519e+01 0 0 0
1604 1 6.6163244042449483e+00 1.2560339383721509e+01 2.1907300704099374e+01 0 0 1
5313 1 1.0973320334792859e+01 1.2383503491926339e+01 1.8009723208941566e+01 0 1 0
6020 1 4.2929316747438993e+00 1.3348563120155744e+01 2.4018743449847666e+01 1 -1 0
5176 1 1.2110224907419505e+01 1.3931658955408496e+01 1.4398186166356734e+01 0 1 0
3120 1 7.9516070061772197e+00 1.4554898264807209e+01 1.5331651577796293e+01 0 0 0
1689 1 2.1029917714472268e+00 1.5493768238091055e+00 1.6369505983812701e+01 0 1 1
3261 1 5.5141351322457348e+00 9.2312598440843474e-01 2.1467009733117848e+01 -1 0 0
3408 1 2.3941401109670557e+00 3.5379996697329763e+00 2.1294135487439483e+01 1 0 0
3301 1 9.1182091089891826e-01 8.6900376559698831e+00 2.0404356356132809e+01 1 0 0
5168 1 6.6374013097320645e+00 3.3490229883345362e+00 2.1225150441754081e+01 1 0 1
1819 1 8.2011039966457400e+00 3.4891218699078044e+00 1.8595251007037188e+01 0 0 0
5136 1 3.7365067534863949e+00 2.2693945181069108e+00 1.9149981900536119e+01 1 0 1
4964 1 1.0411173382998971e+01 1.5294959545585716e+01 2.4368381257741230e+01 -1 1 1
1928 1 6.7269335944862494e+00 5.9214838507357994e+00 2.4227921689262018e+01 1 0 0
1439 1 3.2461425098166194e+00 5.5677376444719933e+00 1.8522263179825597e+01 0 0 1
4489 1 4.7669220553438825e+00 5.4045340638496189e+00 2.1732622167431785e+01 1 1 0
5233 1 5.4108487776172609e+00 7.5341669969140854e+00 1.8267297276478686e+01 1 0 0
2128 1 5.1991679894557352e+00 8.0731391674273532e+00 2.0811258504748608e+01 0 1 0
4853 1 1.0699792858629822e+01 6.8161988805139009e+00 2.1206002573593931e+01 0 1 0
6035 1 1.0330286011493156e+01 5.3045706774649188e+00 1.8691036286877555e+01 0 1 0
1527 1 2.7759508361556584e+00 1.1842329244823169e+01 1.8740172398374401e+01 1 0 1
4613 1 3.1292119971738779e+00 1.0052426583813418e+01 2.0835815653646957e+01 0 0 1
1778 1 1.7706436693052199e+00 1.2485370298308622e+01 2.2339196300778440e+01 -1 1 0
4937 1 7.3035516555081266e+00 9.2782528972928464e+00 1.4964668250857589e+01 1 1 1
5253 1 2.7426775599930129e+00 1.4589315932023752e+01 1.9300292445639030e+01 1 0 0
4671 1 4.6228464719005782e+00 1.1255801149424070e+01 1.6838289643115463e+01 1 0 1
3643 1 9.3407043910906697e+00 9.0194707841528370e+00 1.7084248952071565e+01 0 0 1
1486 1 9.6110934514755737e+00 9.1137650753715320e+00 2.0055870628058688e+01 0 0 1
4807 1 1.1639419348127818e+01 4.9963298825642593e+00 2.4279273652611543e+01 0 0 -1
3318 1 1.0458892872134312e+01 1.5784560163416776e+01 2.0059830345929239e+01 2 1 0
1538 1 1.3742436745296396e-01 1.7807463374355379e+00 1.9774697737873066e+01 -1 0 1
5085 1 3.9898425465479161e+00 1.5361762998014566e+01 1.6973320785353387e+01 1 1 1
6163 1 8.3164511781957344e+00 1.3085138388955546e+01 1.7696848524480714e+01 0 0 0
4841 1 7.0859111303058055e+00 1.0551197475916169e+01 1.8238063676306254e+01 0 0 1
2873 1 1.8044893557196779e+00 2.5544323603726884e+00 2.3616537409546819e+01 1 0 1
4883 1 7.2477415382936412e+00 1.4575488993012602e+01 1.9777309491897842e+01 2 0 1
79 1 8.6312011833435456e+00 3.9019650892011279e+00 2.3269890096057182e+01 0 0 1
4586 1 6.6783756297775394e+00 2.2329434010944667e+00 1.5125257833887799e+01 0 1 0
1275 1 3.8547315867966714e+00 4.4529567127881418e+00 2.4355187625988567e+01 0 1 0
4763 1 1.9971533839477247e+00 1.5701813674736924e+01 1.4994601548772684e+01 0 1 0
5159 1 8.4281304294287516e+00 1.0773129499024632e+01 2.4508401205130532e+01 0 1 0
6159 1 1.8773955358028864e+00 6.4826219356463106e+00 2.3687522974733497e+01 0 0 1
4970 1 1.1997612366516712e+01 1.0808090655083988e+00 1.6621903657201198e+01 1 0 0
3285 1 9.5428331985461892e+00 6.9761513366699015e+00 2.3769473838322661e+01 0 0 0
387 1 1.1409506522676843e+01 1.2190339698813784e+01 2.3748412687621681e+01 1 1 0
1938 1 1.0840718808303034e+01 2.7052693245184374e+00 2.1808047128385564e+01 -1 1 0
5981 1 4.6566586152620157e+00 1.5220897001742857e+01 2.1117944362804359e+01 1 1 0
1754 1 2.2425020419947037e+00 9.0442022797917740e+00 2.4460763966912886e+01 1 0 1
50 1 6.4868104613659394e+00 8.7294193969716467e+00 2.3887282625294109e+01 1 0 0
3362 1 1.0468261257104384e+01 5.0538159141912474e-02 2.1271017765466183e+01 0 1 0
5256 1 7.4143047594219134e+00 9.8653616293118240e+00 2.1491083631237366e+01 0 0 1
3128 1 1.2930517705218325e+00 1.5072161464085115e+01 2.3825008126805411e+01 1 1 1
3686 1 7.7217713564080332e+00 1.3757777531522712e+00 2.4300265690263167e+01 0 1 1
6275 1 3.2784541038697599e+00 8.7487829314829941e+00 1.6785181453380307e+01 0 1 1
5100 1 1.1963033044341540e+01 1.5202555658846888e+01 1.7003518346238863e+01 1 1 0
4947 1 5.5841840969248477e-02 1.4238139379123899e+01 2.0386306693145389e+01 1 0 0
3561 1 4.2939256778271222e+00 1.0325745664153997e+01 2.3576016961663942e+01 1 1 1
266 1 2.5712415979802765e+00 1.3507385528391783e-01 2.4058254241591552e+01 1 0 0
1476 1 1.1217916787468111e+01 4.7530737569528227e+00 1.4369862089406146e+01 0 1 1
552 2 0.0000000000000000e+00 2.8417180249513345e+00 2.6863415917580596e+01 0 0 0
554 2 0.0000000000000000e+00 0.0000000000000000e+00 2.6863415917580596e+01 0 0 0
556 2 1.2305000000000001e+00 7.1042950623783474e-01 2.6863415917580596e+01 0 0 0
563 2 1.2305000000000001e+00 2.1312885187134998e+00 2.6863415917580596e+01 0 0 0
565 2 2.4610000000000003e+00 2.8417180249513345e+00 2.6863415917580596e+01 0 0 0
567 2 2.4610000000000003e+00 0.0000000000000000e+00 2.6863415917580596e+01 0 0 0
569 2 3.6915000000000004e+00 7.1042950623783474e-01 2.6863415917580596e+01 0 0 0
584 2 3.6914999999999996e+00 2.1312885187134998e+00 2.6863415917580596e+01 0 0 0
586 2 4.9220000000000006e+00 2.8417180249513332e+00 2.6863415917580596e+01 0 0 0
588 2 4.9220000000000006e+00 0.0000000000000000e+00 2.6863415917580596e+01 0 0 0
590 2 6.1524999999999999e+00 7.1042950623783407e-01 2.6863415917580596e+01 0 0 0
613 2 6.1524999999999999e+00 2.1312885187134989e+00 2.6863415917580596e+01 0 0 0
615 2 7.3829999999999991e+00 2.8417180249513345e+00 2.6863415917580596e+01 0 0 0
617 2 7.3829999999999991e+00 0.0000000000000000e+00 2.6863415917580596e+01 0 0 0
619 2 8.6134999999999984e+00 7.1042950623783407e-01 2.6863415917580596e+01 0 0 0
650 2 8.6134999999999984e+00 2.1312885187135002e+00 2.6863415917580596e+01 0 0 0
652 2 9.8440000000000012e+00 2.8417180249513332e+00 2.6863415917580596e+01 0 0 0
654 2 9.8440000000000012e+00 0.0000000000000000e+00 2.6863415917580596e+01 0 0 0
656 2 1.1074500000000002e+01 7.1042950623783330e-01 2.6863415917580596e+01 0 0 0
695 2 1.1074500000000002e+01 2.1312885187135002e+00 2.6863415917580596e+01 0 0 0
559 2 0.0000000000000000e+00 4.2625770374269996e+00 2.6863415917580596e+01 0 0 0
561 2 1.2305000000000001e+00 4.9730065436648339e+00 2.6863415917580596e+01 0 0 0
576 2 1.2305000000000001e+00 6.3938655561404980e+00 2.6863415917580596e+01 0 0 0
580 2 2.4610000000000003e+00 4.2625770374269996e+00 2.6863415917580596e+01 0 0 0
582 2 3.6914999999999996e+00 4.9730065436648339e+00 2.6863415917580596e+01 0 0 0
605 2 3.6914999999999996e+00 6.3938655561404980e+00 2.6863415917580596e+01 0 0 0
557 2 0.0000000000000000e+00 7.1042950623783341e+00 2.6863415917580596e+01 0 0 0
578 2 2.4610000000000003e+00 7.1042950623783341e+00 2.6863415917580596e+01 0 0 0
609 2 4.9220000000000006e+00 4.2625770374269978e+00 2.6863415917580596e+01 0 0 0
611 2 6.1524999999999999e+00 4.9730065436648339e+00 2.6863415917580596e+01 0 0 0
642 2 6.1524999999999999e+00 6.3938655561404980e+00 2.6863415917580596e+01 0 0 0
646 2 7.3829999999999991e+00 4.2625770374269996e+00 2.6863415917580596e+01 0 0 0
607 2 4.9220000000000006e+00 7.1042950623783341e+00 2.6863415917580596e+01 0 0 0
644 2 7.3830000000000009e+00 7.1042950623783341e+00 2.6863415917580596e+01 0 0 0
648 2 8.6135000000000002e+00 4.9730065436648339e+00 2.6863415917580596e+01 0 0 0
687 2 8.6135000000000002e+00 6.3938655561404980e+00 2.6863415917580596e+01 0 0 0
691 2 9.8440000000000012e+00 4.2625770374270004e+00 2.6863415917580596e+01 0 0 0
693 2 1.1074500000000002e+01 4.9730065436648339e+00 2.6863415917580596e+01 0 0 0
734 2 1.1074500000000002e+01 6.3938655561404980e+00 2.6863415917580596e+01 0 0 0
689 2 9.8440000000000012e+00 7.1042950623783341e+00 2.6863415917580596e+01 0 0 0
572 2 0.0000000000000000e+00 8.5251540748539991e+00 2.6863415917580596e+01 0 0 0
574 2 1.2305000000000001e+00 9.2355835810918343e+00 2.6863415917580596e+01 0 0 0
601 2 2.4610000000000003e+00 8.5251540748539991e+00 2.6863415917580596e+01 0 0 0
603 2 3.6915000000000004e+00 9.2355835810918343e+00 2.6863415917580596e+01 0 0 0
570 2 0.0000000000000000e+00 1.1366872099805333e+01 2.6863415917580596e+01 0 0 0
597 2 1.2305000000000001e+00 1.0656442593567498e+01 2.6863415917580596e+01 0 0 0
599 2 2.4610000000000003e+00 1.1366872099805333e+01 2.6863415917580596e+01 0 0 0
634 2 3.6914999999999996e+00 1.0656442593567499e+01 2.6863415917580596e+01 0 0 0
638 2 4.9220000000000006e+00 8.5251540748539991e+00 2.6863415917580596e+01 0 0 0
640 2 6.1524999999999999e+00 9.2355835810918343e+00 2.6863415917580596e+01 0 0 0
683 2 7.3830000000000009e+00 8.5251540748539991e+00 2.6863415917580596e+01 0 0 0
636 2 4.9220000000000006e+00 1.1366872099805333e+01 2.6863415917580596e+01 0 0 0
679 2 6.1524999999999999e+00 1.0656442593567499e+01 2.6863415917580596e+01 0 0 0
681 2 7.3829999999999991e+00 1.1366872099805333e+01 2.6863415917580596e+01 0 0 0
685 2 8.6134999999999984e+00 9.2355835810918343e+00 2.6863415917580596e+01 0 0 0
730 2 9.8440000000000012e+00 8.5251540748539956e+00 2.6863415917580596e+01 0 0 0
732 2 1.1074500000000002e+01 9.2355835810918343e+00 2.6863415917580596e+01 0 0 0
726 2 8.6134999999999984e+00 1.0656442593567498e+01 2.6863415917580596e+01 0 0 0
728 2 9.8440000000000012e+00 1.1366872099805333e+01 2.6863415917580596e+01 0 0 0
773 2 1.1074500000000002e+01 1.0656442593567498e+01 2.6863415917580596e+01 0 0 0
775 2 1.2304999999999998e+01 1.1366872099805333e+01 2.6863415917580596e+01 0 0 0
593 2 0.0000000000000000e+00 1.2787731112280996e+01 2.6863415917580596e+01 0 0 0
595 2 1.2305000000000001e+00 1.3498160618518829e+01 2.6863415917580596e+01 0 0 0
630 2 2.4610000000000003e+00 1.2787731112280996e+01 2.6863415917580596e+01 0 0 0
632 2 3.6915000000000004e+00 1.3498160618518829e+01 2.6863415917580596e+01 0 0 0
591 2 0.0000000000000000e+00 1.5629449137232333e+01 2.6863415917580596e+01 0 0 0
626 2 1.2305000000000001e+00 1.4919019630994494e+01 2.6863415917580596e+01 0 0 0
628 2 2.4610000000000003e+00 1.5629449137232328e+01 2.6863415917580596e+01 0 0 0
671 2 3.6915000000000004e+00 1.4919019630994494e+01 2.6863415917580596e+01 0 0 0
675 2 4.9220000000000006e+00 1.2787731112280996e+01 2.6863415917580596e+01 0 0 0
677 2 6.1524999999999990e+00 1.3498160618518829e+01 2.6863415917580596e+01 0 0 0
722 2 7.3829999999999991e+00 1.2787731112280996e+01 2.6863415917580596e+01 0 0 0
673 2 4.9220000000000006e+00 1.5629449137232333e+01 2.6863415917580596e+01 0 0 0
718 2 6.1524999999999990e+00 1.4919019630994494e+01 2.6863415917580596e+01 0 0 0
720 2 7.3829999999999991e+00 1.5629449137232333e+01 2.6863415917580596e+01 0 0 0
724 2 8.6135000000000002e+00 1.3498160618518835e+01 2.6863415917580596e+01 0 0 0
769 2 9.8440000000000012e+00 1.2787731112280996e+01 2.6863415917580596e+01 0 0 0
771 2 1.1074500000000002e+01 1.3498160618518829e+01 2.6863415917580596e+01 0 0 0
765 2 8.6135000000000002e+00 1.4919019630994494e+01 2.6863415917580596e+01 0 0 0
767 2 9.8440000000000012e+00 1.5629449137232328e+01 2.6863415917580596e+01 0 0 0
807 2 1.1074500000000002e+01 1.4919019630994494e+01 2.6863415917580596e+01 0 0 0
553 2 0.0000000000000000e+00 1.4208590124756650e+00 3.0030999999999345e+01 0 0 0
555 2 0.0000000000000000e+00 0.0000000000000000e+00 3.0030999999999345e+01 0 0 0
564 2 1.2305000000000001e+00 2.1312885187134998e+00 3.0030999999999345e+01 0 0 0
566 2 2.4610000000000003e+00 1.4208590124756650e+00 3.0030999999999345e+01 0 0 0
568 2 2.4610000000000003e+00 0.0000000000000000e+00 3.0030999999999345e+01 0 0 0
585 2 3.6914999999999996e+00 2.1312885187134998e+00 3.0030999999999345e+01 0 0 0
562 2 1.2305000000000001e+00 3.5521475311891644e+00 3.0030999999999345e+01 0 0 0
583 2 3.6914999999999996e+00 3.5521475311891644e+00 3.0030999999999345e+01 0 0 0
587 2 4.9220000000000006e+00 1.4208590124756650e+00 3.0030999999999345e+01 0 0 0
589 2 4.9220000000000006e+00 0.0000000000000000e+00 3.0030999999999345e+01 0 0 0
614 2 6.1524999999999999e+00 2.1312885187134989e+00 3.0030999999999345e+01 0 0 0
616 2 7.3829999999999991e+00 1.4208590124756659e+00 3.0030999999999345e+01 0 0 0
618 2 7.3829999999999991e+00 0.0000000000000000e+00 3.0030999999999345e+01 0 0 0
612 2 6.1524999999999999e+00 3.5521475311891644e+00 3.0030999999999345e+01 0 0 0
651 2 8.6134999999999984e+00 2.1312885187135002e+00 3.0030999999999345e+01 0 0 0
653 2 9.8440000000000012e+00 1.4208590124756659e+00 3.0030999999999345e+01 0 0 0
655 2 9.8440000000000012e+00 0.0000000000000000e+00 3.0030999999999345e+01 0 0 0
696 2 1.1074500000000002e+01 2.1312885187135002e+00 3.0030999999999345e+01 0 0 0
649 2 8.6134999999999984e+00 3.5521475311891657e+00 3.0030999999999345e+01 0 0 0
694 2 1.1074500000000002e+01 3.5521475311891644e+00 3.0030999999999345e+01 0 0 0
558 2 0.0000000000000000e+00 5.6834360499026637e+00 3.0030999999999345e+01 0 0 0
560 2 0.0000000000000000e+00 4.2625770374269996e+00 3.0030999999999345e+01 0 0 0
577 2 1.2305000000000001e+00 6.3938655561404980e+00 3.0030999999999345e+01 0 0 0
579 2 2.4610000000000003e+00 5.6834360499026637e+00 3.0030999999999345e+01 0 0 0
581 2 2.4610000000000003e+00 4.2625770374269996e+00 3.0030999999999345e+01 0 0 0
606 2 3.6914999999999996e+00 6.3938655561404980e+00 3.0030999999999345e+01 0 0 0
575 2 1.2305000000000001e+00 7.8147245686161639e+00 3.0030999999999345e+01 0 0 0
604 2 3.6914999999999996e+00 7.8147245686161639e+00 3.0030999999999345e+01 0 0 0
608 2 4.9220000000000006e+00 5.6834360499026637e+00 3.0030999999999345e+01 0 0 0
610 2 4.9220000000000006e+00 4.2625770374269978e+00 3.0030999999999345e+01 0 0 0
643 2 6.1524999999999999e+00 6.3938655561404980e+00 3.0030999999999345e+01 0 0 0
645 2 7.3829999999999991e+00 5.6834360499026637e+00 3.0030999999999345e+01 0 0 0
647 2 7.3829999999999991e+00 4.2625770374269996e+00 3.0030999999999345e+01 0 0 0
641 2 6.1524999999999999e+00 7.8147245686161639e+00 3.0030999999999345e+01 0 0 0
688 2 8.6135000000000002e+00 6.3938655561404980e+00 3.0030999999999345e+01 0 0 0
690 2 9.8440000000000012e+00 5.6834360499026637e+00 3.0030999999999345e+01 0 0 0
692 2 9.8440000000000012e+00 4.2625770374270004e+00 3.0030999999999345e+01 0 0 0
735 2 1.1074500000000002e+01 6.3938655561404980e+00 3.0030999999999345e+01 0 0 0
686 2 8.6135000000000002e+00 7.8147245686161639e+00 3.0030999999999345e+01 0 0 0
733 2 1.1074500000000002e+01 7.8147245686161639e+00 3.0030999999999345e+01 0 0 0
571 2 0.0000000000000000e+00 9.9460130873296642e+00 3.0030999999999345e+01 0 0 0
573 2 0.0000000000000000e+00 8.5251540748539991e+00 3.0030999999999345e+01 0 0 0
600 2 2.4610000000000003e+00 9.9460130873296642e+00 3.0030999999999345e+01 0 0 0
602 2 2.4610000000000003e+00 8.5251540748539991e+00 3.0030999999999345e+01 0 0 0
596 2 1.2305000000000001e+00 1.2077301606043163e+01 3.0030999999999345e+01 0 0 0
598 2 1.2305000000000001e+00 1.0656442593567498e+01 3.0030999999999345e+01 0 0 0
633 2 3.6914999999999996e+00 1.2077301606043163e+01 3.0030999999999345e+01 0 0 0
635 2 3.6914999999999996e+00 1.0656442593567499e+01 3.0030999999999345e+01 0 0 0
637 2 4.9220000000000006e+00 9.9460130873296642e+00 3.0030999999999345e+01 0 0 0
639 2 4.9220000000000006e+00 8.5251540748539991e+00 3.0030999999999345e+01 0 0 0
682 2 7.3830000000000009e+00 9.9460130873296642e+00 3.0030999999999345e+01 0 0 0
684 2 7.3830000000000009e+00 8.5251540748539991e+00 3.0030999999999345e+01 0 0 0
678 2 6.1524999999999999e+00 1.2077301606043163e+01 3.0030999999999345e+01 0 0 0
680 2 6.1524999999999999e+00 1.0656442593567499e+01 3.0030999999999345e+01 0 0 0
729 2 9.8440000000000012e+00 9.9460130873296642e+00 3.0030999999999345e+01 0 0 0
731 2 9.8440000000000012e+00 8.5251540748539956e+00 3.0030999999999345e+01 0 0 0
725 2 8.6135000000000002e+00 1.2077301606043163e+01 3.0030999999999345e+01 0 0 0
727 2 8.6134999999999984e+00 1.0656442593567498e+01 3.0030999999999345e+01 0 0 0
772 2 1.1074500000000002e+01 1.2077301606043163e+01 3.0030999999999345e+01 0 0 0
774 2 1.1074500000000002e+01 1.0656442593567498e+01 3.0030999999999345e+01 0 0 0
594 2 0.0000000000000000e+00 1.2787731112280996e+01 3.0030999999999345e+01 0 0 0
631 2 2.4610000000000003e+00 1.2787731112280996e+01 3.0030999999999345e+01 0 0 0
592 2 0.0000000000000000e+00 1.4208590124756663e+01 3.0030999999999345e+01 0 0 0
627 2 1.2305000000000001e+00 1.4919019630994494e+01 3.0030999999999345e+01 0 0 0
629 2 2.4610000000000003e+00 1.4208590124756663e+01 3.0030999999999345e+01 0 0 0
672 2 3.6915000000000004e+00 1.4919019630994494e+01 3.0030999999999345e+01 0 0 0
676 2 4.9220000000000006e+00 1.2787731112280996e+01 3.0030999999999345e+01 0 0 0
723 2 7.3829999999999991e+00 1.2787731112280996e+01 3.0030999999999345e+01 0 0 0
674 2 4.9220000000000006e+00 1.4208590124756663e+01 3.0030999999999345e+01 0 0 0
719 2 6.1524999999999990e+00 1.4919019630994494e+01 3.0030999999999345e+01 0 0 0
721 2 7.3830000000000009e+00 1.4208590124756663e+01 3.0030999999999345e+01 0 0 0
770 2 9.8440000000000012e+00 1.2787731112280996e+01 3.0030999999999345e+01 0 0 0
766 2 8.6135000000000002e+00 1.4919019630994494e+01 3.0030999999999345e+01 0 0 0
768 2 9.8440000000000012e+00 1.4208590124756663e+01 3.0030999999999345e+01 0 0 0
806 2 1.1074500000000002e+01 1.6339878643470161e+01 3.0030999999999345e+01 0 0 0
808 2 1.1074500000000002e+01 1.4919019630994494e+01 3.0030999999999345e+01 0 0 0
810 2 1.2304999999999998e+01 1.4208590124756658e+01 3.0030999999999345e+01 0 0 0
881 2 0.0000000000000000e+00 2.8417180249513345e+00 3.3198584082419991e+01 0 0 0
882 2 0.0000000000000000e+00 0.0000000000000000e+00 3.3198584082419991e+01 0 0 0
883 2 1.2305000000000001e+00 7.1042950623783474e-01 3.3198584082419991e+01 0 0 0
887 2 1.2305000000000001e+00 2.1312885187134998e+00 3.3198584082419991e+01 0 0 0
888 2 2.4610000000000003e+00 2.8417180249513345e+00 3.3198584082419991e+01 0 0 0
889 2 2.4610000000000003e+00 0.0000000000000000e+00 3.3198584082419991e+01 0 0 0
890 2 3.6915000000000004e+00 7.1042950623783474e-01 3.3198584082419991e+01 0 0 0
898 2 3.6914999999999996e+00 2.1312885187134998e+00 3.3198584082419991e+01 0 0 0
899 2 4.9220000000000006e+00 2.8417180249513332e+00 3.3198584082419991e+01 0 0 0
900 2 4.9220000000000006e+00 0.0000000000000000e+00 3.3198584082419991e+01 0 0 0
901 2 6.1524999999999999e+00 7.1042950623783407e-01 3.3198584082419991e+01 0 0 0
913 2 6.1524999999999999e+00 2.1312885187134989e+00 3.3198584082419991e+01 0 0 0
914 2 7.3829999999999991e+00 2.8417180249513345e+00 3.3198584082419991e+01 0 0 0
915 2 7.3829999999999991e+00 0.0000000000000000e+00 3.3198584082419991e+01 0 0 0
916 2 8.6134999999999984e+00 7.1042950623783407e-01 3.3198584082419991e+01 0 0 0
932 2 8.6134999999999984e+00 2.1312885187135002e+00 3.3198584082419991e+01 0 0 0
933 2 9.8440000000000012e+00 2.8417180249513332e+00 3.3198584082419991e+01 0 0 0
934 2 9.8440000000000012e+00 0.0000000000000000e+00 3.3198584082419991e+01 0 0 0
935 2 1.1074500000000002e+01 7.1042950623783330e-01 3.3198584082419991e+01 0 0 0
955 2 1.1074500000000002e+01 2.1312885187135002e+00 3.3198584082419991e+01 0 0 0
885 2 0.0000000000000000e+00 4.2625770374269996e+00 3.3198584082419991e+01 0 0 0
886 2 1.2305000000000001e+00 4.9730065436648339e+00 3.3198584082419991e+01 0 0 0
894 2 1.2305000000000001e+00 6.3938655561404980e+00 3.3198584082419991e+01 0 0 0
896 2 2.4610000000000003e+00 4.2625770374269996e+00 3.3198584082419991e+01 0 0 0
897 2 3.6914999999999996e+00 4.9730065436648339e+00 3.3198584082419991e+01 0 0 0
909 2 3.6914999999999996e+00 6.3938655561404980e+00 3.3198584082419991e+01 0 0 0
884 2 0.0000000000000000e+00 7.1042950623783341e+00 3.3198584082419991e+01 0 0 0
895 2 2.4610000000000003e+00 7.1042950623783341e+00 3.3198584082419991e+01 0 0 0
911 2 4.9220000000000006e+00 4.2625770374269978e+00 3.3198584082419991e+01 0 0 0
912 2 6.1524999999999999e+00 4.9730065436648339e+00 3.3198584082419991e+01 0 0 0
928 2 6.1524999999999999e+00 6.3938655561404980e+00 3.3198584082419991e+01 0 0 0
930 2 7.3829999999999991e+00 4.2625770374269996e+00 3.3198584082419991e+01 0 0 0
910 2 4.9220000000000006e+00 7.1042950623783341e+00 3.3198584082419991e+01 0 0 0
929 2 7.3830000000000009e+00 7.1042950623783341e+00 3.3198584082419991e+01 0 0 0
931 2 8.6135000000000002e+00 4.9730065436648339e+00 3.3198584082419991e+01 0 0 0
951 2 8.6135000000000002e+00 6.3938655561404980e+00 3.3198584082419991e+01 0 0 0
953 2 9.8440000000000012e+00 4.2625770374270004e+00 3.3198584082419991e+01 0 0 0
954 2 1.1074500000000002e+01 4.9730065436648339e+00 3.3198584082419991e+01 0 0 0
975 2 1.1074500000000002e+01 6.3938655561404980e+00 3.3198584082419991e+01 0 0 0
952 2 9.8440000000000012e+00 7.1042950623783341e+00 3.3198584082419991e+01 0 0 0
892 2 0.0000000000000000e+00 8.5251540748539991e+00 3.3198584082419991e+01 0 0 0
893 2 1.2305000000000001e+00 9.2355835810918343e+00 3.3198584082419991e+01 0 0 0
907 2 2.4610000000000003e+00 8.5251540748539991e+00 3.3198584082419991e+01 0 0 0
908 2 3.6915000000000004e+00 9.2355835810918343e+00 3.3198584082419991e+01 0 0 0
891 2 0.0000000000000000e+00 1.1366872099805333e+01 3.3198584082419991e+01 0 0 0
905 2 1.2305000000000001e+00 1.0656442593567498e+01 3.3198584082419991e+01 0 0 0
906 2 2.4610000000000003e+00 1.1366872099805333e+01 3.3198584082419991e+01 0 0 0
924 2 3.6914999999999996e+00 1.0656442593567499e+01 3.3198584082419991e+01 0 0 0
926 2 4.9220000000000006e+00 8.5251540748539991e+00 3.3198584082419991e+01 0 0 0
927 2 6.1524999999999999e+00 9.2355835810918343e+00 3.3198584082419991e+01 0 0 0
949 2 7.3830000000000009e+00 8.5251540748539991e+00 3.3198584082419991e+01 0 0 0
925 2 4.9220000000000006e+00 1.1366872099805333e+01 3.3198584082419991e+01 0 0 0
947 2 6.1524999999999999e+00 1.0656442593567499e+01 3.3198584082419991e+01 0 0 0
948 2 7.3829999999999991e+00 1.1366872099805333e+01 3.3198584082419991e+01 0 0 0
950 2 8.6134999999999984e+00 9.2355835810918343e+00 3.3198584082419991e+01 0 0 0
973 2 9.8440000000000012e+00 8.5251540748539956e+00 3.3198584082419991e+01 0 0 0
974 2 1.1074500000000002e+01 9.2355835810918343e+00 3.3198584082419991e+01 0 0 0
971 2 8.6134999999999984e+00 1.0656442593567498e+01 3.3198584082419991e+01 0 0 0