LAMMPS data file via write_data, version 16 Mar 2018, timestep = 8000000

6328 atoms
2 atom types

0.0000000000000000e+00 4.9219999999999999e+01 xlo xhi
0.0000000000000000e+00 4.9019635930410494e+01 ylo yhi
1.9697819855597238e+00 5.8092218014434607e+01 zlo zhi

Masses

1 18.015
2 12.01

Atoms # atomic

521 1 3.2680767102529220e+00 4.2084970214312074e+00 4.8525829022795168e+00 5 -3 1
2911 1 3.7456014037367904e+00 1.2463056984631798e+01 2.6026097756162279e+00 1 1 1
4934 1 2.5042791248155520e+00 1.6004549415702753e+00 5.4238392466530065e+00 4 -3 1
1410 1 1.0079445544408987e+01 1.4684158756276600e+01 1.2564064208603090e+01 2 -2 1
20 1 8.3838264713240971e+00 1.2027675511477676e+00 4.4061553394840445e+00 2 -2 0
1494 1 5.9358169236978107e+00 1.7211506124023304e+00 5.6128003235991795e+00 -5 -3 0
6211 1 3.3372647056224433e-02 5.8161440165441771e+00 4.8429361230148569e+00 0 1 0
1267 1 5.9784924055015782e+00 1.5881820249945232e+01 6.0482923688747245e+00 1 0 1
1847 1 3.0285600785396705e+00 8.7718308512759222e+00 4.6213557311527724e+00 -1 -1 0
1523 1 2.3162316074192670e+00 6.6467500240052759e+00 5.9289902945661570e+00 -2 2 1
1452 1 7.9224555123849401e+00 5.6264547570630015e+00 4.9939234742269827e+00 5 5 1
2892 1 1.1580693752143125e+01 1.1974187259260368e+01 2.3049514197146603e+00 5 -1 1
3539 1 1.1642851533678140e+01 7.8560093761558356e+00 4.9046780348150278e+00 1 -2 0
6152 1 8.9210781649340500e+00 8.0574187777712503e+00 5.9001174067485156e+00 -2 -5 0
2058 1 4.6462551009727262e+00 1.2866527906862498e+01 5.2371821229304034e+00 5 2 1
6104 1 2.2905777510289100e+00 1.1282678721303135e+01 6.2781621719015215e+00 1 1 0
6142 1 8.0153851338835835e+00 1.0368572973353261e+01 4.8416604060895789e+00 3 -1 1
142 1 5.3907344428853508e+00 1.0063075820936970e+01 5.7690492998368033e+00 -3 -3 0
5256 1 1.0285244985284978e+01 1.4539228337138351e+01 9.7475556048446634e+00 6 1 1
4774 1 1.1609436464523526e+01 1.2229457461963610e+01 5.0452211716200059e+00 3 -2 1
5973 1 3.7977660694081611e-01 1.4660440008918640e+01 1.3111166367533784e+01 1 1 0
3477 1 1.0509552466722441e+01 1.0078082936528801e+01 1.2323619775766741e+01 2 0 0
4511 1 1.3786098000969831e+00 1.2301413195438641e+01 1.2055999162972254e+01 2 -7 1
5137 1 7.2629593495300302e+00 1.4054745095190205e+01 4.5689284397793042e+00 3 -3 0
3190 1 7.8726030531590556e+00 1.0079471839103462e+01 2.1595593019017323e+00 3 6 0
4454 1 1.1797285770823413e+01 3.4099943338232941e+00 4.4313797411990201e+00 0 -3 1
2999 1 2.5545282496398407e+00 1.4008815057267605e+00 8.2676977346507030e+00 0 -1 1
3704 1 5.1677870670574189e+00 1.3624971557756560e+00 8.6814309045274793e+00 7 2 1
5111 1 6.6155192049177556e+00 3.4721910675778389e+00 9.7858234892116940e+00 3 4 0
1924 1 9.2903460708110082e+00 3.3766398343727149e+00 5.6033835724397925e+00 -1 -3 1
189 1 8.9725094400778023e+00 3.4560310212911336e+00 8.3760295733993395e+00 -3 -4 0
6229 1 2.6272755794668439e+00 5.5611467654668960e+00 8.8459011480815768e+00 3 -2 1
5055 1 1.5126408847009456e+00 7.8771928567389526e+00 9.4880625715319127e+00 2 -2 0
1980 1 5.7222933349138518e+00 4.6012898227672814e+00 6.0010394695004488e+00 1 2 0
4983 1 5.3320641736381740e+00 5.4546712217429949e+00 8.8200534823744796e+00 2 -1 0
5276 1 6.7815574113053634e+00 7.8810429515841376e+00 9.2966543718812247e+00 0 -2 1
216 1 9.2418967298989525e+00 7.7326204101117852e+00 8.6030694907205945e+00 1 -1 0
4627 1 2.9889378960150141e+00 9.9627550173668258e+00 8.6408859893302932e+00 -5 4 1
1775 1 5.6826138651349947e+00 1.0153646871541779e+01 8.3340950110998033e+00 -2 -1 0
2939 1 1.0145121588538272e+01 1.0143549268961353e+01 9.5571603590829532e+00 0 0 0
1339 1 9.1925595479396502e+00 1.2625236073689553e+01 5.9831911503530426e+00 1 1 1
82 1 2.6241240017108352e+00 1.4727986815235495e+01 6.0295311217333651e+00 -3 -1 0
6030 1 2.7050182084768108e+00 1.4629285960958375e+01 8.6540393731480538e+00 1 -4 1
4558 1 5.4394737714168020e+00 1.4656674220951086e+01 8.7037761550156816e+00 -2 3 1
6084 1 6.4134492049596368e+00 1.2385310253511598e+01 9.7330106132128797e+00 -2 0 1
78 1 8.7774667576770966e+00 1.2432212262553076e+01 8.5498391136484386e+00 3 -5 1
4988 1 1.3669460614730642e+00 3.3308066946590755e+00 9.5142891911955019e+00 1 5 1
1404 1 1.3914719981034820e+00 3.8221437120751736e+00 1.2175286244466347e+01 1 0 0
289 1 5.9365521661263028e+00 3.6142342480066292e+00 1.2406774266660872e+01 2 -1 1
80 1 6.2379095644384241e+00 1.2308626172673097e+01 1.2403803982463089e+01 1 -5 0
6213 1 1.0239469734931248e+01 1.1232487778623814e+00 9.1041189842632395e+00 3 5 0
3197 1 1.0051166956074681e+01 1.1055847274266746e+00 1.1797125696557201e+01 4 -7 0
2953 1 9.2051760646063496e-01 7.7678926310302261e+00 1.2242688842938186e+01 -2 -2 1
4428 1 1.5045938126777674e+00 1.2177207369734280e+01 9.3975087517428690e+00 2 -1 1
4489 1 6.1314658359513148e+00 7.9222983649104961e+00 1.1960152051169878e+01 3 4 0
6156 1 1.0248888245040417e+01 5.5326820856342795e+00 9.5993532987394659e+00 0 -1 1
1820 1 9.9737341564845039e+00 5.5503438557481468e+00 1.2401798995797876e+01 1 1 1
2936 1 7.7357397549908269e+00 5.4805617537865894e+00 2.1820328850461133e+00 -2 -2 1
6224 1 1.1438209785202334e+01 7.7023983729989896e+00 2.2337190699236071e+00 -3 2 0
3064 1 7.5507589646673701e+00 1.0136644753870527e+01 1.2989885611650555e+01 0 -3 0
5157 1 1.1410342482913443e+01 3.2700415949452566e+00 1.2808585628932164e+01 -1 2 0
5117 1 3.6649891655702342e+00 2.7546260926273183e+00 1.2983883022647666e+01 2 -4 0
5315 1 3.6838207221225847e+00 3.6791828143537861e+00 2.2704664417196776e+00 3 1 0
4408 1 7.7701849784875314e+00 1.5467343816766346e+00 1.3185277888709226e+01 3 1 1
2147 1 1.2474014383571136e-01 1.0266957089112665e+01 2.0885766277687015e+01 0 -3 0
415 1 1.1180431723020008e+00 3.7375531512332443e+00 1.6581315015561902e+01 1 4 1
1908 1 3.8476087282048947e+00 3.5948735294890199e+00 1.5710931052061888e+01 2 5 0
3606 1 7.9409569960378263e+00 1.3319700286621561e+00 1.6020227246357116e+01 1 4 0
419 1 2.4999426137805381e-01 1.4751371577517068e+01 1.5912962817777055e+01 3 -5 0
3603 1 1.1425658930984586e+01 3.4205774393592967e+00 1.5579805295514619e+01 -1 4 1
4994 1 8.9204870156667315e+00 3.5006639173119671e+00 1.6888190838164771e+01 -2 2 1
4542 1 1.1446493637953846e+01 1.2409729773620736e+01 1.3542629190840527e+01 4 -1 0
193 1 2.4684398873355012e-01 1.2756409558065345e+00 1.3337100555164602e+01 0 -4 1
1814 1 3.9389948703257605e+00 7.9796521327084511e+00 1.6031432087247047e+01 1 -3 0
473 1 7.6766649842197276e+00 5.7530938789565722e+00 1.6060483693714954e+01 2 -2 1
495 1 1.1332443369809608e+01 7.7388752133664420e+00 1.5953296287841296e+01 0 -2 1
3145 1 8.8397449961042405e+00 7.8430066496337298e+00 1.6975707301418787e+01 -2 0 1
6203 1 1.1427090467693441e+01 1.2257963846798017e+01 2.3518952856490756e+01 1 -2 1
1812 1 3.6183765733394893e+00 1.2482904257772294e+01 2.3458299740541960e+01 5 3 0
322 1 7.7663544682899097e+00 1.0230991066546252e+01 1.5868922474082069e+01 0 0 1
2990 1 3.7323581701489426e+00 1.2349935757124086e+01 1.6194133042242488e+01 1 -5 1
4714 1 1.2679533736144990e+00 1.2491783887438213e+01 1.7005636549064189e+01 5 -2 1
1376 1 8.9218830299344454e+00 8.1345732406173958e+00 2.4285176467625035e+01 0 0 1
6096 1 7.6633728004880490e+00 1.4802400223405748e+01 1.6049054313520287e+01 -1 1 1
2027 1 5.1317227056503381e+00 1.4855754695980933e+01 1.6957078985408934e+01 -2 5 1
1414 1 9.4345595458595266e-01 1.2371420455232542e+01 2.4160678746861947e+01 -2 -4 0
4651 1 1.8076274225264971e-01 1.4202404563270004e+00 2.3168660214812700e+01 0 -1 1
1762 1 1.1632319576277846e+01 1.2087435811652268e+01 1.6252961687090419e+01 -1 1 0
4893 1 1.1786632949932732e+00 3.7483194071570911e+00 1.9503505541754876e+01 0 -5 1
528 1 3.6210005390444926e+00 3.6757413414183620e+00 2.0618455291358735e+01 0 -2 1
6268 1 5.3888762973120627e+00 1.5619088429103223e+00 1.6988254018557740e+01 0 -2 0
5084 1 5.3251200387936803e+00 1.5698774496752754e+00 1.9713823574573016e+01 -3 -1 0
1495 1 7.8657192947588159e+00 1.5354878208962848e+00 2.0505646502809469e+01 -1 1 1
6317 1 8.9680770352937582e+00 3.8361794055912188e+00 1.9574114615771023e+01 2 3 1
398 1 1.1510408811443035e+01 3.5753582213473201e+00 2.0532417507705205e+01 -5 1 0
3323 1 1.1225225467289963e+00 7.8452347526470989e+00 1.6751581911706978e+01 3 -2 0
4762 1 1.1726017307278678e+00 7.8112159525669727e+00 1.9554369229679065e+01 -1 0 0
178 1 4.9295027136558698e+00 5.6975485920741740e+00 1.7058889776119180e+01 -2 1 0
1400 1 5.0025169662221858e+00 5.7907557976305277e+00 1.9892661120586009e+01 -1 -3 0
187 1 7.6876458667129324e+00 5.9509799243099541e+00 2.0793569221977783e+01 -1 -1 0
2013 1 9.0169880395595676e+00 7.9524437653577911e+00 1.9549670112521845e+01 -2 -3 0
411 1 5.2263108948222436e+00 1.0196774834266739e+01 1.7090106106414943e+01 -3 0 1
124 1 5.0932244036969436e+00 1.0164071695919686e+01 1.9754725154227359e+01 -3 -2 1
1258 1 7.6670889427036393e+00 9.9227890105898204e+00 2.0718816268525348e+01 2 0 0
1688 1 9.8022578451882503e-01 1.2589943975794769e+01 1.9852039012972785e+01 -1 -4 0
4875 1 3.6777505997764095e+00 1.2377678232828488e+01 2.0624671756166393e+01 4 0 1
2059 1 7.3112916530919296e+00 1.4360414195815585e+01 2.0716899104975631e+01 3 1 1
3430 1 4.8581064927068764e+00 1.4516060359485605e+01 1.9618051946769537e+01 -1 5 0
2880 1 8.8471761456998923e+00 1.2279360008255033e+01 1.9856085892627632e+01 -5 -3 1
2875 1 8.7763240878565707e+00 1.2520238100442125e+01 1.7304935266814788e+01 -5 3 1
1449 1 1.1505916917623601e+01 1.2485080039107590e+01 2.0891000688454675e+01 2 -3 1
2882 1 7.6833532614327078e+00 1.4681165468870768e+01 2.3569130059936505e+01 3 1 1
344 1 3.6201980801515528e+00 3.6015716908391719e+00 2.3341884007745882e+01 0 0 1
4966 1 3.6252452320574360e+00 1.1364511759117267e+01 1.3389060119613687e+01 -2 4 1
1596 1 7.8085389826243636e+00 1.4649420070124417e+00 2.2999433437379668e+01 0 0 1
1402 1 1.1443852070073033e+01 7.7487822824133819e+00 1.3244984717296107e+01 3 -2 1
162 1 7.3927600154436917e+00 5.7674297419682530e+00 1.3321837502422461e+01 -1 -2 0
1888 1 1.1613730819048053e+01 3.3952426029424840e+00 2.3370752783151008e+01 4 4 0
1263 1 5.0665462204235512e+00 1.4632645610660189e+01 2.4215774807362930e+01 1 -2 1
3437 1 3.7663820424801049e+00 7.6792592233445074e+00 2.3359324030161982e+01 -4 0 0
2149 1 3.6381086344434381e+00 8.1010319612094683e+00 2.0646662074140181e+01 2 -1 0
1657 1 7.9897932296701057e+00 5.6743484177084182e+00 2.3517001692692947e+01 -1 2 1
2020 1 7.5221523817502209e+00 1.0597932293997433e+01 2.3529750337767052e+01 0 3 1
5112 1 1.1540924072003115e+01 7.8666825046240927e+00 2.0534220824930383e+01 4 1 0
2795 1 1.1499525876661840e+01 7.9981898705534338e+00 2.3240963466273151e+01 -2 1 1
4818 1 3.6504017480958035e+00 8.4851125071154510e+00 1.3252922074311149e+01 2 -2 1
1910 1 5.0904729200501633e+00 5.5025991077126486e+00 2.4305345570268766e+01 2 1 1
4615 1 9.2833784394267287e+00 3.3311487102836628e+00 2.4315778312029195e+01 2 3 0
3175 1 7.5411771439861122e+00 1.4753675636212822e+01 1.3488983966754811e+01 1 0 1
3559 1 4.8266708459569845e+00 1.0000072629185276e+01 2.4301557170691343e+01 0 0 0
1586 1 5.2259706953752136e+00 1.5417989271342933e+00 2.3927795345927120e+01 0 3 0
5985 1 1.1120566002002117e+00 7.5275599903046206e+00 2.4051300672246981e+01 3 -6 0
552 2 0.0000000000000000e+00 2.8417180249513345e+00 2.6681884995492652e+01 0 0 0
554 2 0.0000000000000000e+00 0.0000000000000000e+00 2.6681884995492652e+01 0 0 0
556 2 1.2305000000000001e+00 7.1042950623783474e-01 2.6681884995492652e+01 0 0 0
563 2 1.2305000000000001e+00 2.1312885187134998e+00 2.6681884995492652e+01 0 0 0
565 2 2.4610000000000003e+00 2.8417180249513345e+00 2.6681884995492652e+01 0 0 0
567 2 2.4610000000000003e+00 0.0000000000000000e+00 2.6681884995492652e+01 0 0 0
569 2 3.6915000000000004e+00 7.1042950623783474e-01 2.6681884995492652e+01 0 0 0
584 2 3.6914999999999996e+00 2.1312885187134998e+00 2.6681884995492652e+01 0 0 0
586 2 4.9220000000000006e+00 2.8417180249513332e+00 2.6681884995492652e+01 0 0 0
588 2 4.9220000000000006e+00 0.0000000000000000e+00 2.6681884995492652e+01 0 0 0
590 2 6.1524999999999999e+00 7.1042950623783407e-01 2.6681884995492652e+01 0 0 0
613 2 6.1524999999999999e+00 2.1312885187134989e+00 2.6681884995492652e+01 0 0 0
615 2 7.3829999999999991e+00 2.8417180249513345e+00 2.6681884995492652e+01 0 0 0
617 2 7.3829999999999991e+00 0.0000000000000000e+00 2.6681884995492652e+01 0 0 0
619 2 8.6134999999999984e+00 7.1042950623783407e-01 2.6681884995492652e+01 0 0 0
650 2 8.6134999999999984e+00 2.1312885187135002e+00 2.6681884995492652e+01 0 0 0
652 2 9.8440000000000012e+00 2.8417180249513332e+00 2.6681884995492652e+01 0 0 0
654 2 9.8440000000000012e+00 0.0000000000000000e+00 2.6681884995492652e+01 0 0 0
656 2 1.1074500000000002e+01 7.1042950623783330e-01 2.6681884995492652e+01 0 0 0
695 2 1.1074500000000002e+01 2.1312885187135002e+00 2.6681884995492652e+01 0 0 0
559 2 0.0000000000000000e+00 4.2625770374269996e+00 2.6681884995492652e+01 0 0 0
561 2 1.2305000000000001e+00 4.9730065436648339e+00 2.6681884995492652e+01 0 0 0
576 2 1.2305000000000001e+00 6.3938655561404980e+00 2.6681884995492652e+01 0 0 0
580 2 2.4610000000000003e+00 4.2625770374269996e+00 2.6681884995492652e+01 0 0 0
582 2 3.6914999999999996e+00 4.9730065436648339e+00 2.6681884995492652e+01 0 0 0
605 2 3.6914999999999996e+00 6.3938655561404980e+00 2.6681884995492652e+01 0 0 0
557 2 0.0000000000000000e+00 7.1042950623783341e+00 2.6681884995492652e+01 0 0 0
578 2 2.4610000000000003e+00 7.1042950623783341e+00 2.6681884995492652e+01 0 0 0
609 2 4.9220000000000006e+00 4.2625770374269978e+00 2.6681884995492652e+01 0 0 0
611 2 6.1524999999999999e+00 4.9730065436648339e+00 2.6681884995492652e+01 0 0 0
642 2 6.1524999999999999e+00 6.3938655561404980e+00 2.6681884995492652e+01 0 0 0
646 2 7.3829999999999991e+00 4.2625770374269996e+00 2.6681884995492652e+01 0 0 0
607 2 4.9220000000000006e+00 7.1042950623783341e+00 2.6681884995492652e+01 0 0 0
644 2 7.3830000000000009e+00 7.1042950623783341e+00 2.6681884995492652e+01 0 0 0
648 2 8.6135000000000002e+00 4.9730065436648339e+00 2.6681884995492652e+01 0 0 0
687 2 8.6135000000000002e+00 6.3938655561404980e+00 2.6681884995492652e+01 0 0 0
691 2 9.8440000000000012e+00 4.2625770374270004e+00 2.6681884995492652e+01 0 0 0
693 2 1.1074500000000002e+01 4.9730065436648339e+00 2.6681884995492652e+01 0 0 0
734 2 1.1074500000000002e+01 6.3938655561404980e+00 2.6681884995492652e+01 0 0 0
689 2 9.8440000000000012e+00 7.1042950623783341e+00 2.6681884995492652e+01 0 0 0
572 2 0.0000000000000000e+00 8.5251540748539991e+00 2.6681884995492652e+01 0 0 0
574 2 1.2305000000000001e+00 9.2355835810918343e+00 2.6681884995492652e+01 0 0 0
601 2 2.4610000000000003e+00 8.5251540748539991e+00 2.6681884995492652e+01 0 0 0
603 2 3.6915000000000004e+00 9.2355835810918343e+00 2.6681884995492652e+01 0 0 0
570 2 0.0000000000000000e+00 1.1366872099805333e+01 2.6681884995492652e+01 0 0 0
597 2 1.2305000000000001e+00 1.0656442593567498e+01 2.6681884995492652e+01 0 0 0
599 2 2.4610000000000003e+00 1.1366872099805333e+01 2.6681884995492652e+01 0 0 0
634 2 3.6914999999999996e+00 1.0656442593567499e+01 2.6681884995492652e+01 0 0 0
638 2 4.9220000000000006e+00 8.5251540748539991e+00 2.6681884995492652e+01 0 0 0
640 2 6.1524999999999999e+00 9.2355835810918343e+00 2.6681884995492652e+01 0 0 0
683 2 7.3830000000000009e+00 8.5251540748539991e+00 2.6681884995492652e+01 0 0 0
636 2 4.9220000000000006e+00 1.1366872099805333e+01 2.6681884995492652e+01 0 0 0
679 2 6.1524999999999999e+00 1.0656442593567499e+01 2.6681884995492652e+01 0 0 0
681 2 7.3829999999999991e+00 1.1366872099805333e+01 2.6681884995492652e+01 0 0 0
685 2 8.6134999999999984e+00 9.2355835810918343e+00 2.6681884995492652e+01 0 0 0
730 2 9.8440000000000012e+00 8.5251540748539956e+00 2.6681884995492652e+01 0 0 0
732 2 1.1074500000000002e+01 9.2355835810918343e+00 2.6681884995492652e+01 0 0 0
726 2 8.6134999999999984e+00 1.0656442593567498e+01 2.6681884995492652e+01 0 0 0
728 2 9.8440000000000012e+00 1.1366872099805333e+01 2.6681884995492652e+01 0 0 0
773 2 1.1074500000000002e+01 1.0656442593567498e+01 2.6681884995492652e+01 0 0 0
775 2 1.2304999999999998e+01 1.1366872099805333e+01 2.6681884995492652e+01 0 0 0
593 2 0.0000000000000000e+00 1.2787731112280996e+01 2.6681884995492652e+01 0 0 0
595 2 1.2305000000000001e+00 1.3498160618518829e+01 2.6681884995492652e+01 0 0 0
630 2 2.4610000000000003e+00 1.2787731112280996e+01 2.6681884995492652e+01 0 0 0
632 2 3.6915000000000004e+00 1.3498160618518829e+01 2.6681884995492652e+01 0 0 0
591 2 0.0000000000000000e+00 1.5629449137232333e+01 2.6681884995492652e+01 0 0 0
626 2 1.2305000000000001e+00 1.4919019630994494e+01 2.6681884995492652e+01 0 0 0
628 2 2.4610000000000003e+00 1.5629449137232328e+01 2.6681884995492652e+01 0 0 0
671 2 3.6915000000000004e+00 1.4919019630994494e+01 2.6681884995492652e+01 0 0 0
1012 2 1.1074500000000002e+01 1.4919019630994494e+01 3.3380115004488530e+01 0 0 0
675 2 4.9220000000000006e+00 1.2787731112280996e+01 2.6681884995492652e+01 0 0 0
677 2 6.1524999999999990e+00 1.3498160618518829e+01 2.6681884995492652e+01 0 0 0
722 2 7.3829999999999991e+00 1.2787731112280996e+01 2.6681884995492652e+01 0 0 0
673 2 4.9220000000000006e+00 1.5629449137232333e+01 2.6681884995492652e+01 0 0 0
718 2 6.1524999999999990e+00 1.4919019630994494e+01 2.6681884995492652e+01 0 0 0
720 2 7.3829999999999991e+00 1.5629449137232333e+01 2.6681884995492652e+01 0 0 0
993 2 9.8440000000000012e+00 1.2787731112280996e+01 3.3380115004488530e+01 0 0 0
724 2 8.6135000000000002e+00 1.3498160618518835e+01 2.6681884995492652e+01 0 0 0
769 2 9.8440000000000012e+00 1.2787731112280996e+01 2.6681884995492652e+01 0 0 0
771 2 1.1074500000000002e+01 1.3498160618518829e+01 2.6681884995492652e+01 0 0 0
765 2 8.6135000000000002e+00 1.4919019630994494e+01 2.6681884995492652e+01 0 0 0
767 2 9.8440000000000012e+00 1.5629449137232328e+01 2.6681884995492652e+01 0 0 0
807 2 1.1074500000000002e+01 1.4919019630994494e+01 2.6681884995492652e+01 0 0 0
553 2 0.0000000000000000e+00 1.4208590124756650e+00 3.0030999999997235e+01 0 0 0
555 2 0.0000000000000000e+00 0.0000000000000000e+00 3.0030999999997235e+01 0 0 0
564 2 1.2305000000000001e+00 2.1312885187134998e+00 3.0030999999997235e+01 0 0 0
566 2 2.4610000000000003e+00 1.4208590124756650e+00 3.0030999999997235e+01 0 0 0
568 2 2.4610000000000003e+00 0.0000000000000000e+00 3.0030999999997235e+01 0 0 0
585 2 3.6914999999999996e+00 2.1312885187134998e+00 3.0030999999997235e+01 0 0 0
562 2 1.2305000000000001e+00 3.5521475311891644e+00 3.0030999999997235e+01 0 0 0
583 2 3.6914999999999996e+00 3.5521475311891644e+00 3.0030999999997235e+01 0 0 0
587 2 4.9220000000000006e+00 1.4208590124756650e+00 3.0030999999997235e+01 0 0 0
589 2 4.9220000000000006e+00 0.0000000000000000e+00 3.0030999999997235e+01 0 0 0
614 2 6.1524999999999999e+00 2.1312885187134989e+00 3.0030999999997235e+01 0 0 0
616 2 7.3829999999999991e+00 1.4208590124756659e+00 3.0030999999997235e+01 0 0 0
618 2 7.3829999999999991e+00 0.0000000000000000e+00 3.0030999999997235e+01 0 0 0
612 2 6.1524999999999999e+00 3.5521475311891644e+00 3.0030999999997235e+01 0 0 0
651 2 8.6134999999999984e+00 2.1312885187135002e+00 3.0030999999997235e+01 0 0 0
653 2 9.8440000000000012e+00 1.4208590124756659e+00 3.0030999999997235e+01 0 0 0
655 2 9.8440000000000012e+00 0.0000000000000000e+00 3.0030999999997235e+01 0 0 0
696 2 1.1074500000000002e+01 2.1312885187135002e+00 3.0030999999997235e+01 0 0 0
649 2 8.6134999999999984e+00 3.5521475311891657e+00 3.0030999999997235e+01 0 0 0
694 2 1.1074500000000002e+01 3.5521475311891644e+00 3.0030999999997235e+01 0 0 0
558 2 0.0000000000000000e+00 5.6834360499026637e+00 3.0030999999997235e+01 0 0 0
560 2 0.0000000000000000e+00 4.2625770374269996e+00 3.0030999999997235e+01 0 0 0
577 2 1.2305000000000001e+00 6.3938655561404980e+00 3.0030999999997235e+01 0 0 0
579 2 2.4610000000000003e+00 5.6834360499026637e+00 3.0030999999997235e+01 0 0 0
581 2 2.4610000000000003e+00 4.2625770374269996e+00 3.0030999999997235e+01 0 0 0
606 2 3.6914999999999996e+00 6.3938655561404980e+00 3.0030999999997235e+01 0 0 0
575 2 1.2305000000000001e+00 7.8147245686161639e+00 3.0030999999997235e+01 0 0 0
604 2 3.6914999999999996e+00 7.8147245686161639e+00 3.0030999999997235e+01 0 0 0
608 2 4.9220000000000006e+00 5.6834360499026637e+00 3.0030999999997235e+01 0 0 0
610 2 4.9220000000000006e+00 4.2625770374269978e+00 3.0030999999997235e+01 0 0 0
643 2 6.1524999999999999e+00 6.3938655561404980e+00 3.0030999999997235e+01 0 0 0
645 2 7.3829999999999991e+00 5.6834360499026637e+00 3.0030999999997235e+01 0 0 0
647 2 7.3829999999999991e+00 4.2625770374269996e+00 3.0030999999997235e+01 0 0 0
641 2 6.1524999999999999e+00 7.8147245686161639e+00 3.0030999999997235e+01 0 0 0
688 2 8.6135000000000002e+00 6.3938655561404980e+00 3.0030999999997235e+01 0 0 0
690 2 9.8440000000000012e+00 5.6834360499026637e+00 3.0030999999997235e+01 0 0 0
692 2 9.8440000000000012e+00 4.2625770374270004e+00 3.0030999999997235e+01 0 0 0
735 2 1.1074500000000002e+01 6.3938655561404980e+00 3.0030999999997235e+01 0 0 0
686 2 8.6135000000000002e+00 7.8147245686161639e+00 3.0030999999997235e+01 0 0 0
733 2 1.1074500000000002e+01 7.8147245686161639e+00 3.0030999999997235e+01 0 0 0
571 2 0.0000000000000000e+00 9.9460130873296642e+00 3.0030999999997235e+01 0 0 0
573 2 0.0000000000000000e+00 8.5251540748539991e+00 3.0030999999997235e+01 0 0 0
600 2 2.4610000000000003e+00 9.9460130873296642e+00 3.0030999999997235e+01 0 0 0
602 2 2.4610000000000003e+00 8.5251540748539991e+00 3.0030999999997235e+01 0 0 0
596 2 1.2305000000000001e+00 1.2077301606043163e+01 3.0030999999997235e+01 0 0 0
598 2 1.2305000000000001e+00 1.0656442593567498e+01 3.0030999999997235e+01 0 0 0
633 2 3.6914999999999996e+00 1.2077301606043163e+01 3.0030999999997235e+01 0 0 0
635 2 3.6914999999999996e+00 1.0656442593567499e+01 3.0030999999997235e+01 0 0 0
637 2 4.9220000000000006e+00 9.9460130873296642e+00 3.0030999999997235e+01 0 0 0
639 2 4.9220000000000006e+00 8.5251540748539991e+00 3.0030999999997235e+01 0 0 0
682 2 7.3830000000000009e+00 9.9460130873296642e+00 3.0030999999997235e+01 0 0 0
684 2 7.3830000000000009e+00 8.5251540748539991e+00 3.0030999999997235e+01 0 0 0
678 2 6.1524999999999999e+00 1.2077301606043163e+01 3.0030999999997235e+01 0 0 0
680 2 6.1524999999999999e+00 1.0656442593567499e+01 3.0030999999997235e+01 0 0 0
729 2 9.8440000000000012e+00 9.9460130873296642e+00 3.0030999999997235e+01 0 0 0
731 2 9.8440000000000012e+00 8.5251540748539956e+00 3.0030999999997235e+01 0 0 0
725 2 8.6135000000000002e+00 1.2077301606043163e+01 3.0030999999997235e+01 0 0 0
727 2 8.6134999999999984e+00 1.0656442593567498e+01 3.0030999999997235e+01 0 0 0
772 2 1.1074500000000002e+01 1.2077301606043163e+01 3.0030999999997235e+01 0 0 0
774 2 1.1074500000000002e+01 1.0656442593567498e+01 3.0030999999997235e+01 0 0 0
594 2 0.0000000000000000e+00 1.2787731112280996e+01 3.0030999999997235e+01 0 0 0
631 2 2.4610000000000003e+00 1.2787731112280996e+01 3.0030999999997235e+01 0 0 0
592 2 0.0000000000000000e+00 1.4208590124756663e+01 3.0030999999997235e+01 0 0 0
627 2 1.2305000000000001e+00 1.4919019630994494e+01 3.0030999999997235e+01 0 0 0
629 2 2.4610000000000003e+00 1.4208590124756663e+01 3.0030999999997235e+01 0 0 0
672 2 3.6915000000000004e+00 1.4919019630994494e+01 3.0030999999997235e+01 0 0 0
676 2 4.9220000000000006e+00 1.2787731112280996e+01 3.0030999999997235e+01 0 0 0
723 2 7.3829999999999991e+00 1.2787731112280996e+01 3.0030999999997235e+01 0 0 0
674 2 4.9220000000000006e+00 1.4208590124756663e+01 3.0030999999997235e+01 0 0 0
719 2 6.1524999999999990e+00 1.4919019630994494e+01 3.0030999999997235e+01 0 0 0
721 2 7.3830000000000009e+00 1.4208590124756663e+01 3.0030999999997235e+01 0 0 0
770 2 9.8440000000000012e+00 1.2787731112280996e+01 3.0030999999997235e+01 0 0 0
766 2 8.6135000000000002e+00 1.4919019630994494e+01 3.0030999999997235e+01 0 0 0
768 2 9.8440000000000012e+00 1.4208590124756663e+01 3.0030999999997235e+01 0 0 0
806 2 1.1074500000000002e+01 1.6339878643470161e+01 3.0030999999997235e+01 0 0 0
808 2 1.1074500000000002e+01 1.4919019630994494e+01 3.0030999999997235e+01 0 0 0
810 2 1.2304999999999998e+01 1.4208590124756658e+01 3.0030999999997235e+01 0 0 0
881 2 0.0000000000000000e+00 2.8417180249513345e+00 3.3380115004488530e+01 0 0 0
882 2 0.0000000000000000e+00 0.0000000000000000e+00 3.3380115004488530e+01 0 0 0
883 2 1.2305000000000001e+00 7.1042950623783474e-01 3.3380115004488530e+01 0 0 0
887 2 1.2305000000000001e+00 2.1312885187134998e+00 3.3380115004488530e+01 0 0 0
888 2 2.4610000000000003e+00 2.8417180249513345e+00 3.3380115004488530e+01 0 0 0
889 2 2.4610000000000003e+00 0.0000000000000000e+00 3.3380115004488530e+01 0 0 0
890 2 3.6915000000000004e+00 7.1042950623783474e-01 3.3380115004488530e+01 0 0 0
898 2 3.6914999999999996e+00 2.1312885187134998e+00 3.3380115004488530e+01 0 0 0
992 2 9.8440000000000012e+00 1.5629449137232328e+01 3.3380115004488530e+01 0 0 0
899 2 4.9220000000000006e+00 2.8417180249513332e+00 3.3380115004488530e+01 0 0 0
900 2 4.9220000000000006e+00 0.0000000000000000e+00 3.3380115004488530e+01 0 0 0
901 2 6.1524999999999999e+00 7.1042950623783407e-01 3.3380115004488530e+01 0 0 0
913 2 6.1524999999999999e+00 2.1312885187134989e+00 3.3380115004488530e+01 0 0 0
914 2 7.3829999999999991e+00 2.8417180249513345e+00 3.3380115004488530e+01 0 0 0
915 2 7.3829999999999991e+00 0.0000000000000000e+00 3.3380115004488530e+01 0 0 0
916 2 8.6134999999999984e+00 7.1042950623783407e-01 3.3380115004488530e+01 0 0 0
932 2 8.6134999999999984e+00 2.1312885187135002e+00 3.3380115004488530e+01 0 0 0
933 2 9.8440000000000012e+00 2.8417180249513332e+00 3.3380115004488530e+01 0 0 0
934 2 9.8440000000000012e+00 0.0000000000000000e+00 3.3380115004488530e+01 0 0 0
935 2 1.1074500000000002e+01 7.1042950623783330e-01 3.3380115004488530e+01 0 0 0
955 2 1.1074500000000002e+01 2.1312885187135002e+00 3.3380115004488530e+01 0 0 0
885 2 0.0000000000000000e+00 4.2625770374269996e+00 3.3380115004488530e+01 0 0 0
886 2 1.2305000000000001e+00 4.9730065436648339e+00 3.3380115004488530e+01 0 0 0
894 2 1.2305000000000001e+00 6.3938655561404980e+00 3.3380115004488530e+01 0 0 0
896 2 2.4610000000000003e+00 4.2625770374269996e+00 3.3380115004488530e+01 0 0 0
897 2 3.6914999999999996e+00 4.9730065436648339e+00 3.3380115004488530e+01 0 0 0
909 2 3.6914999999999996e+00 6.3938655561404980e+00 3.3380115004488530e+01 0 0 0
884 2 0.0000000000000000e+00 7.1042950623783341e+00 3.3380115004488530e+01 0 0 0
895 2 2.4610000000000003e+00 7.1042950623783341e+00 3.3380115004488530e+01 0 0 0
911 2 4.9220000000000006e+00 4.2625770374269978e+00 3.3380115004488530e+01 0 0 0
912 2 6.1524999999999999e+00 4.9730065436648339e+00 3.3380115004488530e+01 0 0 0
928 2 6.1524999999999999e+00 6.3938655561404980e+00 3.3380115004488530e+01 0 0 0
930 2 7.3829999999999991e+00 4.2625770374269996e+00 3.3380115004488530e+01 0 0 0
910 2 4.9220000000000006e+00 7.1042950623783341e+00 3.3380115004488530e+01 0 0 0
929 2 7.3830000000000009e+00 7.1042950623783341e+00 3.3380115004488530e+01 0 0 0
931 2 8.6135000000000002e+00 4.9730065436648339e+00 3.3380115004488530e+01 0 0 0
951 2 8.6135000000000002e+00 6.3938655561404980e+00 3.3380115004488530e+01 0 0 0
953 2 9.8440000000000012e+00 4.2625770374270004e+00 3.3380115004488530e+01 0 0 0
954 2 1.1074500000000002e+01 4.9730065436648339e+00 3.3380115004488530e+01 0 0 0
975 2 1.1074500000000002e+01 6.3938655561404980e+00 3.3380115004488530e+01 0 0 0
952 2 9.8440000000000012e+00 7.1042950623783341e+00 3.3380115004488530e+01 0 0 0
892 2 0.0000000000000000e+00 8.5251540748539991e+00 3.3380115004488530e+01 0 0 0
893 2 1.2305000000000001e+00 9.2355835810918343e+00 3.3380115004488530e+01 0 0 0
907 2 2.4610000000000003e+00 8.5251540748539991e+00 3.3380115004488530e+01 0 0 0
908 2 3.6915000000000004e+00 9.2355835810918343e+00 3.3380115004488530e+01 0 0 0
891 2 0.0000000000000000e+00 1.1366872099805333e+01 3.3380115004488530e+01 0 0 0
905 2 1.2305000000000001e+00 1.0656442593567498e+01 3.3380115004488530e+01 0 0 0
906 2 2.4610000000000003e+00 1.1366872099805333e+01 3.3380115004488530e+01 0 0 0
924 2 3.6914999999999996e+00 1.0656442593567499e+01 3.3380115004488530e+01 0 0 0
926 2 4.9220000000000006e+00 8.5251540748539991e+00 3.3380115004488530e+01 0 0 0
927 2 6.1524999999999999e+00 9.2355835810918343e+00 3.3380115004488530e+01 0 0 0
949 2 7.3830000000000009e+00 8.5251540748539991e+00 3.3380115004488530e+01 0 0 0
925 2 4.9220000000000006e+00 1.1366872099805333e+01 3.3380115004488530e+01 0 0 0
947 2 6.1524999999999999e+00 1.0656442593567499e+01 3.3380115004488530e+01 0 0 0
948 2 7.3829999999999991e+00 1.1366872099805333e+01 3.3380115004488530e+01 0 0 0
950 2 8.6134999999999984e+00 9.2355835810918343e+00 3.3380115004488530e+01 0 0 0
973 2 9.8440000000000012e+00 8.5251540748539956e+00 3.3380115004488530e+01 0 0 0
974 2 1.1074500000000002e+01 9.2355835810918343e+00 3.3380115004488530e+01 0 0 0
971 2 8.6134999999999984e+00 1.0656442593567498e+01 3.3380115004488530e+01 0 0 0
972 2 9.8440000000000012e+00 1.1366872099805333e+01 3.3380115004488530e+01 0 0 0
995 2 1.1074500000000002e+01 1.0656442593567498e+01 3.3380115004488530e+01 0 0 0
996 2 1.2304999999999998e+01 1.1366872099805333e+01 3.3380115004488530e+01 0 0 0
903 2 0.0000000000000000e+00 1.2787731112280996e+01 3.3380115004488530e+01 0 0 0
904 2 1.2305000000000001e+00 1.3498160618518829e+01 3.3380115004488530e+01 0 0 0
922 2 2.4610000000000003e+00 1.2787731112280996e+01 3.3380115004488530e+01 0 0 0
923 2 3.6915000000000004e+00 1.3498160618518829e+01 3.3380115004488530e+01 0 0 0
902 2 0.0000000000000000e+00 1.5629449137232333e+01 3.3380115004488530e+01 0 0 0
920 2 1.2305000000000001e+00 1.4919019630994494e+01 3.3380115004488530e+01 0 0 0
921 2 2.4610000000000003e+00 1.5629449137232328e+01 3.3380115004488530e+01 0 0 0
943 2 3.6915000000000004e+00 1.4919019630994494e+01 3.3380115004488530e+01 0 0 0
968 2 7.3829999999999991e+00 1.5629449137232333e+01 3.3380115004488530e+01 0 0 0