LAMMPS data file via write_data, version 29 Oct 2020, timestep = 6000000

6768 atoms
2 atom types

0.20247614992124952 49.01752385007576 xlo xhi
0.2016519129137322 48.8179840174886 ylo yhi
-0.7829661769803948 60.844966176985096 zlo zhi

Masses

1 18.015
2 12.01

Atoms # atomic

1571 1 4.2081274613508 1.4374250083849527 0.09663811553241963 0 0 1
85 1 3.7931208201776965 1.302232364596658 2.7462122078071958 1 3 0
6676 1 20.49691479675341 21.327085041622972 -0.6061464428526946 0 -2 1
6499 1 19.673055780328948 0.42196229620550774 14.619664817132824 2 0 1
1918 1 8.33094372932759 1.0475906846087613 0.1697158934604306 0 -1 0
1410 1 8.087169285777968 1.2870747957891093 2.9549037520621484 -1 -5 1
5525 1 12.711949898151868 1.2776936597587631 0.3970909284864004 -1 2 0
2196 1 12.629254045700758 1.6117437999584014 2.897718381800232 1 -1 1
551 1 4.483208885123873 22.495359076645702 17.076426009836208 2 0 1
5429 1 17.21634387409752 1.4537238568639452 0.10797874455913692 3 -1 1
3058 1 17.27420075280301 1.3453859490443831 2.9902781649000323 -2 -1 1
2032 1 24.190031820946402 2.0286250353015847 -0.570717010936704 -2 0 0
1615 1 21.963955806523895 1.2035589291798696 0.3540239891258674 1 -2 1
3018 1 21.9396220144802 1.161126621650943 3.0436100934409196 -1 -1 1
6740 1 24.204036895166478 15.71330557961382 11.630961676655645 1 0 1
1330 1 1.734345192045054 5.517233715934038 0.23476505558418714 -1 2 1
4737 1 1.8653667533537315 5.349546712439862 2.9918850677819684 1 -2 1
5537 1 6.516238469152439 5.162419831428447 -0.1722453306608609 2 -1 1
5622 1 6.142699365987793 5.430740556806394 2.677986589274199 0 0 1
3610 1 10.512046396506415 5.4287120378417395 2.872403327321095 1 -1 0
151 1 10.824550679206965 5.015251778627415 0.35403731855093223 -1 0 0
1840 1 10.866964125895315 0.4350592422842871 14.430724177292328 0 2 1
423 1 15.305250702107664 4.921953250603822 2.8863796807382394 -1 -1 0
3208 1 15.107891270581526 4.710683324904077 0.3483862583000137 4 -2 1
384 1 19.822645192159126 4.734836258099403 2.664408814842249 1 0 1
1966 1 19.522717685749406 5.16242127578972 -0.0026604566912914462 -1 -2 0
5263 1 19.42537697726009 7.309655924770209 3.46815056629765 1 0 0
3264 1 24.05473455281679 4.510753393432018 0.4641516865701356 -2 2 1
312 1 24.261299962895716 4.77664294725603 3.0571456167665865 0 2 0
5035 1 4.2062300484024036 9.138765835226728 3.0035958305966783 1 1 1
144 1 4.19323438960561 9.301843772233289 0.21166020987187806 0 1 0
2143 1 4.406577981486918 11.870825183935155 3.16843141736179 0 2 0
3026 1 0.2906382001958576 14.770020760976298 17.026834504197772 0 1 1
1378 1 8.497319023477166 9.067248074608274 -0.24803021166032935 3 0 1
5493 1 10.573707702345102 2.3819570619707204 -0.4982568800646135 0 0 0
3905 1 8.368995257068082 9.270477741505367 2.4764934073142966 2 2 0
3356 1 23.987357923969107 11.042620640720244 17.45485385481593 1 1 1
3496 1 12.77425368469857 8.917126151453932 0.24099710429419452 0 -1 0
5200 1 12.93972774862013 9.468083972790179 3.0254615563981084 2 -1 0
74 1 14.528083046365037 12.723355556882318 -0.20980564143302638 -1 1 1
6653 1 17.235327343403334 8.993786459728708 2.6960911281856923 0 0 0
6491 1 17.44627730264222 8.698694860187086 -0.048531113449909236 2 -3 1
5617 1 19.162377455974703 12.054837301422397 3.0853951879870842 1 3 0
5695 1 18.892191912801664 12.408972427501778 0.2281286984887656 0 3 1
4865 1 16.426108333328926 11.500613175261053 3.5465120677091866 2 -1 1
5680 1 21.41563282136871 8.530668238849882 2.828458410828352 1 1 1
6445 1 21.48661168776672 8.647389767321892 0.4327641060683536 1 -2 1
416 1 1.6806966394513052 0.45825803966944173 16.99239429655458 2 -2 0
3749 1 1.898686597687863 13.074100447644055 2.1145237590731205 2 5 0
5414 1 1.7425759286090967 13.03741502875904 -0.31928826559698253 1 3 0
4814 1 2.028120031724404 15.571924802628129 2.9987570344963768 1 -2 1
1530 1 6.498241162684682 13.246216312058564 2.1683435071379984 -2 1 1
5083 1 6.94273722975591 15.741811516518744 2.664577630167845 2 -2 0
4952 1 6.1588203736374 13.100785824865794 -0.476183385047245 -2 -2 1
3115 1 10.194584479597406 13.67845790312554 2.5084465208343754 0 0 1
5249 1 9.621127278723403 16.55898436120357 2.483477274624517 2 4 0
3016 1 10.589204775023179 13.037676792554592 0.1609296620767272 -1 0 1
1393 1 22.436165882874807 24.457078106266973 7.9175038123664585 -1 1 1
3271 1 14.960707683378008 13.43302331880592 2.5549293288257706 1 2 1
3053 1 16.412833584954313 16.217464491539072 0.047144212420582865 -1 2 1
1886 1 16.280658755615296 15.899293263229787 3.0037027166706545 1 0 0
3962 1 20.894133888091165 16.053093987975487 2.9561891441601174 1 -3 1
588 1 23.25507438380348 12.44430098398513 -0.06495022378958004 -4 1 1
4987 1 21.188710867508494 16.364848627302404 0.3783643616426704 0 -2 1
1880 1 23.539818965428196 12.619772885037218 2.475643950757438 0 0 0
18 1 22.3626310285764 21.99806327382112 17.583554296418864 -2 -1 0
3823 1 4.353457665338719 16.94150920284652 2.149172315603561 -1 2 0
1520 1 4.525285961817972 19.51524208253604 2.5064516987460865 2 1 1
5480 1 9.1550227392015 18.90636984336318 0.5500372991959444 1 3 0
60 1 13.728641159908271 19.61022294803319 0.4468998956109784 -1 3 0
3365 1 13.30803673895902 19.26144985152551 3.0603962033878482 -1 1 0
3380 1 18.352733533802663 19.871249451974613 0.002123872727149534 0 2 1
3818 1 17.75976802366277 19.278371138831854 2.956587892432506 -1 2 0
1867 1 6.571798081040752 0.4510753589425781 17.18063460407791 -1 1 0
6764 1 4.03841195897316 6.752346930357765 -0.6236157977772274 0 1 1
6566 1 22.73570195138757 19.94055227193712 0.45102197412553324 2 2 1
5439 1 22.618109396947844 20.00832305493197 3.115857808652369 -2 4 0
506 1 24.000682313603104 8.308300109524454 16.730809444041906 -1 0 0
3949 1 2.034319721005277 21.421485544871494 2.5780851703595498 -1 3 1
1478 1 2.2863326009590415 23.984362566489036 3.1024515648713633 3 -1 1
1825 1 7.346893011969026 20.460071767204166 1.8228752870814575 2 -1 0
1614 1 6.6464983776162505 23.016257067758666 0.6331561724239723 -2 0 0
43 1 2.302428636785711 20.788395491329133 -0.29967896424469376 0 2 0
1913 1 11.206919375962343 22.942696918422993 0.2943570677109655 0 2 1
3056 1 10.926116908174734 23.14104605337372 2.989982018290967 -1 -2 1
6479 1 24.488742818218697 20.828825789465004 10.37765674978777 0 3 1
5618 1 15.509830322820134 23.202926970800274 0.2530335639063457 0 3 0
2059 1 15.755289288220112 22.961929907806116 3.0786165581859097 -1 2 0
1647 1 6.50069636137116 0.46935155699661735 14.506364114391962 1 0 0
3679 1 23.998545569125874 13.468641347253529 13.631991708869192 -2 -2 0
458 1 20.38273764714148 23.653017677160197 0.5937317058200566 0 2 0
3129 1 20.27670826032867 23.202884306009143 3.4613270680506227 1 -1 1
1707 1 1.7370939499222617 0.30678894039997573 4.025721290052071 2 2 1
168 1 24.149945076079362 5.52984489902467 13.103651036981391 0 1 0
2027 1 4.18482983350339 3.837859494652022 3.762913227260767 0 1 0
3311 1 3.6287026779285916 3.9246277303721633 6.306365327314441 -1 -1 0
3470 1 14.859663313093966 0.479240148286069 17.266173178126 2 -1 0
505 1 6.205342539240353 2.7826955727623 6.918969124319648 0 -2 1
3702 1 8.335955016121392 4.026310256218552 3.3067495651617316 5 -1 0
3658 1 8.672301963531122 4.075356977518018 6.038620942879067 1 0 0
6527 1 12.813049571856556 4.089905160171776 3.4503630933112657 -1 0 1
3112 1 12.980826616223068 3.8392005476473514 6.233652277374159 -2 -2 1
521 1 17.62001606627762 3.891674673826184 3.6865046043132343 2 -1 0
1620 1 17.29992493723814 3.8447085274182817 6.509195763524651 0 0 1
188 1 22.032742488563052 3.6388605936800866 3.6700978526519448 0 -2 0
44 1 22.10401520327677 3.277216747241018 6.453360289573542 -4 0 0
1782 1 24.34652455165837 2.101797233401203 7.475657158691281 0 0 1
3247 1 1.8540518640961705 7.694086446958207 3.762817943788006 0 -1 1
6533 1 1.8806483710345472 7.858208284600824 6.604058690689404 0 -1 1
4851 1 4.357084372528215 6.569678171504843 6.886440606366417 -1 1 1
3961 1 6.470260052307361 7.997280484066672 3.586368908154114 -1 -1 1
5574 1 6.58384380724804 8.128084755990542 6.072456955928225 -2 2 0
2006 1 10.621411800445909 7.976544229915425 3.6032243332839693 -3 2 0
568 1 10.820616981868255 7.8883844142065325 6.162522962337811 0 -1 1
6392 1 8.76576817754506 6.58767444051187 6.883761272145171 0 -1 1
4871 1 14.895091154304822 7.61003830723525 3.6005845182309493 2 1 1
5302 1 15.134947181062792 7.86644225500201 6.091038701890586 -1 -1 0
1551 1 12.672568960966945 6.427328698938526 6.871349905595541 1 -1 0
3173 1 19.620109873104127 7.400185852572577 6.091493558875278 3 0 1
3412 1 17.19945446573874 6.418345707300116 7.182570911885565 1 3 0
1891 1 23.83143269759246 7.313956651602666 3.462085129493304 -2 2 1
525 1 23.938187190836036 7.385094478370633 5.9780268835443975 2 1 0
264 1 21.756907984785403 5.970135561538496 6.906628331520953 -1 1 0
3291 1 2.0291215331344223 10.520951056440028 6.68978256895343 -2 0 1
1971 1 4.2549127222655265 12.00143979190773 5.741888236405934 1 0 0
1587 1 6.340077030113869 10.51560939908654 7.003348908638632 0 0 1
1408 1 8.166808402151842 11.919942158908164 3.294772267656856 2 -1 0
3806 1 10.725841748253819 10.454932877321516 7.116795760224378 3 -1 0
2137 1 8.787034276772783 11.874583496593011 6.166382701703399 3 -2 1
5688 1 12.663283483770748 11.387243899642694 5.353511534999899 -1 -1 1
3301 1 16.97378800893538 12.056865878313891 6.057128711842086 -1 -1 0
3668 1 18.21031240157135 10.024151514599916 6.986154608967314 1 -2 0
3745 1 20.915571387908855 10.51801273471651 6.289544489413085 -1 1 0
1766 1 21.476284994149317 10.920913633642305 3.7994487498084952 1 1 1
3143 1 22.799794685098938 9.349934206368397 7.569932505708508 1 -2 0
7 1 2.1293950520603078 15.888447026403187 5.786497104877267 0 1 1
3956 1 4.6485612385870905 14.700169111224007 6.492574526981437 -1 -2 1
5346 1 7.140820571202655 15.576224454967093 5.460174518289127 2 0 0
5358 1 9.238058813851694 14.485330490831256 6.245656353830166 0 0 0
5646 1 11.700040465126888 15.712734721295844 5.645595679150162 -1 2 0
6686 1 12.570223624298059 13.730375991361676 4.001131493239945 2 0 0
4883 1 18.63071881030773 14.64083378764971 3.757338607195196 0 -2 1
3752 1 18.468401739663484 14.274754036069487 6.329299979254029 -1 -3 1
3396 1 22.723167203819163 14.66971357172205 4.15125252085069 0 -1 1
6714 1 22.50687615224601 14.43329296490689 7.057076742242522 2 1 1
5443 1 2.5393216949800923 18.2771575716974 6.7187910547888885 3 1 0
1688 1 4.788642054536703 19.841664120111552 5.347226055821272 -1 -1 1
5242 1 7.172279446341894 18.551610082660954 6.298506789066495 0 -2 0
1503 1 11.10537206610063 17.925284138561207 4.3442328298965 -1 -3 1
1780 1 9.474547137391214 19.826369954839002 5.4110790317810125 0 -1 0
3472 1 15.620407708771712 18.198952077677713 3.953576442604044 -3 0 1
4755 1 15.910171478137102 18.41610393907745 6.6476556243474665 1 0 1
3598 1 20.418412429805315 18.594005572834284 3.828726157478613 -1 0 0
5212 1 20.342235766741133 18.335847481477934 6.459678446951026 0 0 0
4714 1 2.413018001876803 23.55969723914746 5.766820487840878 0 2 1
3767 1 2.429957880038663 23.60620744117517 13.696662189908169 1 0 0
4874 1 4.5316862483825915 22.16200437475559 6.654379267713696 0 -1 1
5585 1 6.700732759027494 23.599118641641958 5.809663773048602 0 -3 1
3562 1 8.436473442692515 21.98431883713908 3.8961204341614613 1 0 1
3062 1 10.69404037087468 20.829381240445265 7.518889713997794 2 -1 1
6416 1 13.254105774069613 21.93775171041519 3.8666092168088078 -2 2 1
6380 1 12.991623575895492 21.609326343858523 6.485231631221509 1 -2 1
330 1 15.565827083364052 21.083504039034803 7.980247782793683 -1 -1 0
3993 1 17.821690764704297 21.74944868386712 3.8852595255528737 -1 -1 1
5099 1 17.972967225954257 21.819908911210554 6.722215791756436 -2 1 1
4990 1 22.651257621264502 22.40693935499441 4.382426174322241 -1 0 1
446 1 22.289270943383578 21.868424274153817 7.058855624198934 2 -2 0
1658 1 13.093757911812597 6.330225870780961 -0.6432020071067333 1 -1 1
3435 1 1.6090803701419234 3.0697838188496536 7.23230014478516 -1 -2 0
6404 1 1.7100746690709954 2.8864395909365568 9.830474102583144 -1 -1 1
341 1 4.225188224740379 1.7901627215276346 10.839871246158431 -2 4 0
3544 1 6.343233439901439 3.277566942414688 9.845669547602073 1 3 0
1477 1 10.61737386262892 2.63995387203816 7.205910043550814 0 1 1
1669 1 8.371285319583862 1.566812231941136 10.883644037728454 1 1 1
201 1 10.604324755669003 2.620014902846397 9.843010813494143 -2 1 0
3204 1 15.05444191597678 2.5857660499580555 7.219947351706114 1 1 1
3455 1 15.119783145770672 2.173730421741977 9.957862949567604 -1 1 0
5115 1 12.946079173185893 1.3694210477592086 10.870512416021626 1 1 1
407 1 19.611140118258028 2.620299150749457 7.1985954785861095 -2 0 0
2044 1 19.5238625865917 3.0319563732042716 9.899617589254914 1 0 0
121 1 17.431555341700246 1.3354409104394098 10.929683538814814 2 0 0
5421 1 19.71099640812619 0.3107590657552137 17.48395955843649 0 -1 0
1351 1 21.787542418710153 1.8033857627013905 10.932289776071329 -1 1 1
3687 1 1.878305922044389 5.5829953896915905 10.56315521818944 0 -3 0
5509 1 4.20851472741554 7.165161386055736 9.629613918736178 0 0 0
1772 1 6.441410929741247 5.748669967373897 10.603123573518301 1 -1 1
3614 1 8.94699806179855 6.3630288503712045 9.703688534989595 -1 1 0
5673 1 10.969198378998021 5.164950120163245 10.615285800321029 0 1 1
4844 1 13.080005216771168 6.284446764321874 9.3990080045051 2 -2 0
1314 1 15.178962457794356 4.711542413478207 10.428980939909406 3 0 1
6476 1 16.928446198273768 6.616269195633286 9.820608555775099 1 -2 1
4892 1 19.570830090279195 5.7624379960373675 10.587776499169294 1 0 1
3582 1 24.132079907920243 5.493777960158241 10.560440975437936 0 1 0
1732 1 21.88568246447181 7.263003037569699 9.818615328025855 1 1 0
4803 1 2.254334083493703 10.605128295620826 9.384996785447012 2 1 1
3983 1 4.357988855648668 9.616985156343878 10.619786898243202 3 -1 1
3974 1 6.585809680156337 10.728940997914247 9.624762652639422 1 1 1
3890 1 8.878243182955448 9.082545380136562 10.179105730285078 1 3 0
84 1 10.950118332024607 11.039416203907248 9.630125002485755 0 -1 0
4779 1 14.478047307145992 12.324445702168955 7.5156904056971605 0 1 1
4849 1 12.824641875594704 9.027467885477733 10.56814358628811 1 0 1
6757 1 14.665664424457855 9.733406980687258 8.571640464821723 2 1 1
6741 1 17.127777192596238 9.72697171564903 9.638833175097107 0 2 1
3372 1 20.511398209590435 8.817606858270457 11.41608717619076 -3 -1 1
95 1 18.27326211958169 11.30275825463746 11.428562521973586 -2 2 1
1631 1 22.673330523988902 11.497489445679392 11.51141463516518 2 1 1
3213 1 2.198243918720478 13.244087192876599 9.893578253443904 -1 -1 0
1864 1 17.72508285386654 21.74720193321238 17.509991175501312 2 1 0
3183 1 4.512606886905763 14.464257079841582 9.088955759050275 0 0 1
1634 1 6.830920166607749 13.448658381341055 10.048220768720846 3 0 0
1369 1 8.737068659088356 14.665664803069857 8.863278437364214 1 1 0
4789 1 11.2421108117724 13.406680054120615 10.092223517913661 0 0 1
1494 1 13.647320276111396 14.305891613586027 9.113895382195498 1 1 1
528 1 15.4964159106922 15.034045371325961 10.909753779628227 0 -1 0
6468 1 20.28705331257031 12.945320373598319 10.437747864695275 1 -2 1
51 1 19.767751250578574 15.358558749347766 11.438435907113941 3 0 0
447 1 20.385022429587412 13.206687240367293 7.600999173788942 1 -1 0
3087 1 2.146221290419642 18.526082320774456 9.58415992566173 1 1 1
6580 1 4.781783864626889 17.203291352752125 10.211947336864707 3 0 1
1633 1 6.707939595442288 18.539449101541116 9.107836179281627 2 -1 0
3106 1 9.151493577184379 17.367075021718108 9.787116277822513 1 0 1
1420 1 11.45068180488763 18.66726636415376 8.894033081409532 1 2 1
208 1 13.685819739561936 16.724162163542378 7.774545162768723 0 -1 0
2193 1 13.152374294976275 19.18088499482165 11.272113776097987 4 2 0
3423 1 18.054736956493027 16.765557980601542 7.676885858497309 -1 0 0
6667 1 17.597220380046167 16.61770448746286 10.4404674671919 0 1 0
3465 1 17.407653575145872 19.261029130223307 11.00523248759649 2 0 0
5436 1 21.95139137639178 17.140520321290126 10.732428118612756 1 2 0
1681 1 22.487966777654187 17.000368902640112 7.898933936492158 3 0 1
3897 1 22.395072240579818 19.53613053222535 11.59178911714543 -1 -1 1
5149 1 1.993408677156203 21.3065455452915 10.148233585669015 2 0 0
4731 1 4.55815582202657 22.381115472496806 9.33235741861122 2 -1 1
1439 1 6.8913590496103465 21.05202336368192 10.534772185844686 2 -1 1
4781 1 9.089140511072266 22.364811133878835 9.261661698079726 3 3 0
6544 1 10.722650032134524 23.23437842722874 11.375591169669203 -2 -2 1
1865 1 24.462585374254008 18.339049512765527 6.886712054636853 1 0 0
3951 1 15.35836413007572 20.74758500607029 10.595480662103881 -2 -1 1
6724 1 15.14554354497265 23.358828761026388 11.240306162201001 -1 -1 1
4935 1 19.950493878253145 20.619411932545226 7.676398806410038 -2 -2 1
4938 1 19.939162046218225 20.455381505883384 10.43890228856907 1 0 1
5336 1 20.114193733155407 23.300694648626106 11.110972339098435 1 -1 0
1441 1 19.93606526916618 20.81766867174477 18.243097391149462 0 -2 1
3583 1 4.056274843588509 1.2737395505594757 13.477317894112478 0 -1 0
313 1 2.2770274926574388 23.879297491854086 16.277268924756584 1 2 0
3757 1 10.652666055625307 0.28835973755396227 17.296579974698933 3 1 0
5268 1 8.635204568299422 1.6109094124491459 13.622223758213975 3 1 0
5458 1 8.777075285749188 4.505332009806262 14.164622258787777 1 2 0
3551 1 8.803901381907735 24.286306458597224 -0.4051697763844886 -2 2 0
3726 1 13.059516290920985 1.2654119135036035 13.476390108855043 0 1 0
1320 1 13.00589595467459 4.036564053571476 13.780767752542669 3 0 1
3349 1 24.032974106464366 2.8981314095668633 17.816714485392243 -1 0 0
3315 1 11.773295682159093 23.567819045019878 16.60781942139176 1 -2 1
620 1 17.499731822817683 1.5656146316435477 13.551786000718502 0 -2 0
543 1 17.385221777108764 4.288089162050962 14.265319061680698 -1 1 1
5175 1 21.82618040463976 1.6756536840599479 13.743736831478769 2 0 0
387 1 21.866441978404954 4.200799600772198 14.039389453245255 3 1 0
6481 1 4.217409495468627 4.08210379563589 14.117604690917867 2 2 1
5174 1 1.9121487742440393 5.217224392246692 13.152959436075054 -1 0 1
3220 1 6.4353245174586515 5.439914792410588 13.50182164101962 3 0 0
5 1 6.358540472870497 8.049257763389242 14.115349960845874 3 1 1
3854 1 10.851563711001292 5.621644975205164 13.190831836203266 2 -1 0
6632 1 10.759182467474696 8.191470815118198 13.915582739180444 0 -1 1
1322 1 15.333708793945073 5.356315422155905 12.995946576268743 4 -1 1
1566 1 15.387420327800525 8.045743619220055 13.476411168633991 1 3 1
3180 1 19.432615103910003 5.558831074731457 13.25245581363555 -1 -1 0
612 1 19.584733769217763 7.975765280398547 14.265487811087374 0 3 1
3021 1 11.471962266435108 18.77170437713886 17.534237823642773 1 1 1
1894 1 24.328107450961486 20.632383382589914 18.6273054039632 1 1 0
2117 1 2.1506917780675323 7.775123220054754 13.846848311325259 0 2 1
4775 1 13.786276582470363 19.729590141096878 16.227045936566906 0 1 0
5654 1 4.137024990595509 9.567425703375719 13.193521407017059 0 1 1
2276 1 8.829192589125624 9.382713816362775 13.070879930981711 0 2 1
3119 1 8.880000469371353 11.960654094222539 13.592907751690772 3 4 1
3419 1 13.07674419222217 9.409050248159323 13.198321750007215 -2 3 0
2101 1 13.443727693405185 12.056614971464588 13.595199516619232 -2 5 0
2308 1 17.76311146932614 9.624491750480072 13.656462892660802 0 0 1
3796 1 21.925896443323825 9.804248742030516 13.865167986199248 -1 0 0
6433 1 21.54755166511687 11.787166351384544 15.759155055450872 2 1 0
443 1 1.7447638471047904 13.295889347235432 12.556550299947943 2 0 0
45 1 2.3405418799090616 15.654460730205875 13.620736214554427 -2 0 0
5232 1 4.218486904318132 12.306849757978918 13.737256266486726 2 -1 1
4947 1 7.0135566598905825 13.457851219935653 12.822396390621774 -1 1 1
4939 1 6.885426461451489 16.07676715079817 13.867635273781058 1 3 1
5250 1 11.253525660274454 13.277264303727348 12.776621263502358 1 -1 0
3259 1 11.146031709831266 15.929233230617411 13.737530371056884 -2 4 1
5433 1 16.153396680774915 12.961590662886687 12.514227925586477 -1 0 0
5374 1 17.474561975259256 14.157448075065457 14.905325763051634 -1 2 0
1468 1 19.796277527490297 15.558863546178682 14.149070052315802 -1 -1 1
2268 1 24.460956379600557 10.527938072770844 9.63876998197238 1 1 0
4805 1 21.904430042244197 14.355226727042291 15.10191833557249 0 0 1
5410 1 15.182802048758266 20.595161935807276 18.212707938687576 0 -1 1
5073 1 4.519419269214376 17.480314330556777 12.97634653957221 1 -1 1
6658 1 4.479959031309145 19.912734540481683 13.697267924076574 -1 0 0
1370 1 9.052040745394667 17.321560737200755 12.426291789682297 0 -2 1
3194 1 9.021667540855693 19.67429587806939 13.853547045955962 -1 -2 1
5546 1 13.756909219063548 16.85509525529205 12.68517258534225 2 -1 1
6614 1 15.27766325709846 17.956436753529477 14.859352673948347 2 -2 1
3321 1 17.530342442899528 19.382569312923486 13.738780303768012 2 -1 1
2126 1 20.088569311621203 18.028845418400667 14.7659384901113 2 -2 0
4746 1 22.282511752498934 19.48860329753711 14.295960565991143 1 0 1
3836 1 2.077174167332223 20.920561066853466 13.002717289803078 1 -1 0
2310 1 8.654840239363821 6.286327601973269 -0.7031097409127959 0 0 1
62 1 6.79801397372619 23.614682047626797 13.852056107834951 -2 -2 0
3877 1 6.80257845397735 21.07122308067423 13.068800165547902 5 2 0
2293 1 11.442691196413392 20.867241495324567 12.745249782163892 -1 -3 1
2115 1 12.886243688406676 21.991404781657256 14.611867295941886 0 1 0
2064 1 15.19450508976727 23.09916719832199 13.877436308402118 -1 2 0
502 1 17.499175589188738 21.911582597094696 14.555814602458645 -1 0 1
5049 1 20.03526265067342 23.24958670419632 13.852950398747213 1 2 1
4738 1 23.97824736683102 2.6872094930868626 10.210659939039445 -1 2 0
1807 1 6.7954405595254 23.68256898068567 16.510462981415554 -2 1 0
6439 1 22.47215036856986 22.31396966465534 14.806223948803224 1 2 1
6570 1 17.499378356970503 24.508513312647334 10.667216918785007 0 2 1
5262 1 1.7640926969802078 3.095129772124891 18.28223445942464 1 -1 0
130 1 9.267720907579584 19.999785128227987 16.341207504523332 1 -2 0
4950 1 6.5664124421706145 3.221584876466397 17.46275219545754 1 1 1
4845 1 22.335625345646935 16.731651545178103 18.8762383551994 0 -2 1
3071 1 10.979293460162742 3.059920797400088 17.811370581223652 2 1 1
5152 1 24.426929694844887 0.3416454884205979 17.525477366356025 1 2 0
5137 1 15.162170456994652 3.124310850545788 17.603046083853265 -2 1 1
1493 1 12.984636186900904 4.462058429405755 16.469511758121893 -4 0 1
325 1 19.560642464790075 2.7692376750685863 17.71692717825119 3 1 0
3232 1 17.413665354756407 4.275290143928661 16.790651311465307 -1 -1 1
4750 1 20.01822323920309 18.175600020577967 17.622825645088835 -2 0 1
6459 1 17.747272464563817 16.738758945102777 18.15159680673879 0 2 1
1596 1 19.682442121507766 2.3980391938700722 -0.6558534276399546 -1 2 1
5102 1 4.058738069234738 4.361814057654737 16.874132371105183 0 1 1
6470 1 4.381894410559661 6.882265113840475 17.72334892303947 1 -2 1
378 1 6.475351406199607 8.109005713887356 16.83356209425385 -2 -2 0
3717 1 8.870421344958967 4.471986243730001 16.746930503936905 2 0 0
4905 1 8.661438544334308 6.953796832320666 17.566470269833534 2 2 1
3463 1 10.695693088636968 8.475806245883438 16.636071194045986 0 1 1
2023 1 13.04661800464997 7.395880737070978 17.330518543997833 1 1 0
5303 1 15.410198392922863 8.352963297469994 16.1808915502799 -3 -2 0
2152 1 17.36198306764154 7.016603246027 17.603771111711087 1 -2 1
3523 1 19.413509609553213 8.73495194418721 16.98640885775182 3 1 0
6584 1 9.450573088947104 22.457693134147267 17.103631201409748 2 1 1
1555 1 21.769379307090443 4.188136823738251 16.9674102071397 2 -1 1
1710 1 21.80760931664965 6.89299908090052 17.447009610907436 -3 0 0
5325 1 2.234439597941326 7.850277364034252 16.255818349922695 2 0 0
5576 1 2.341152805512581 10.327239353013207 17.170620683278052 0 3 1
5333 1 6.539768526559941 10.823805582183901 17.439624524588034 1 2 0
5334 1 4.548465622077141 12.10886702917463 16.48942363565751 -1 2 0
3471 1 10.884671877525447 10.94988035818129 17.164432830524362 0 3 0
5121 1 8.632948515582205 11.97856769685253 16.345904249516103 2 0 0
25 1 15.320749097273861 11.03527689976798 17.108641811167956 1 2 1
3629 1 17.5400165700541 11.664481309542033 15.5505556925537 2 0 0
3812 1 19.542057159537592 11.224492044156815 17.324358888466797 1 -2 0
2307 1 24.201432040457988 8.040004007705765 13.957025424401856 0 3 1
6730 1 2.6492158938816313 15.981853682016249 16.186178729747837 1 0 0
4767 1 4.673915866126162 14.926784273360235 17.47264524078806 -1 1 1
6735 1 6.934293831275542 16.118845317207537 16.61185174386416 -1 0 0
6645 1 11.066792462969037 16.237430600121268 16.657383569794078 3 -1 1
3132 1 8.987533203618433 14.508718428309036 17.260651923962843 -2 1 0
3118 1 13.292339464796608 12.34566848823364 16.262564675341235 1 3 1
1316 1 13.353490874841516 14.88229604225127 17.48154877834183 -2 3 0
5282 1 16.219246264972163 15.71061665882676 16.249578849744704 -1 0 0
5507 1 23.88896637566099 15.769296344768556 16.876902057702942 -2 -1 0
2218 1 2.3422983045254897 18.543001811991857 17.202774953896597 -1 -1 1
595 1 4.594554824603732 19.923064522566214 16.68827843715283 -1 0 1
1779 1 7.096264645561125 18.680145799589095 17.44444631680678 1 2 0
3170 1 1.9741378995632504 2.9620335632174726 -0.6365353388033792 -2 1 1
1794 1 11.53798711790253 20.67248392256451 -0.7591325262994117 -1 0 1
529 1 6.10691370166643 0.20677467670623884 6.748980219175503 -1 0 0
3052 1 13.00873442082913 24.072115191410177 7.6799638006487925 2 1 1
1646 1 10.492994657490884 0.40279239879221596 3.8183212778977698 1 0 1
3187 1 18.056890392113722 24.40732229557486 -0.6301075885321703 0 0 1
6670 1 1.8051699934602 0.32747588153239726 6.893885189422335 1 1 1
3042 1 4.414346393122175 16.75935575032144 -0.6357586757192664 2 -2 1
3072 1 1.8349528567053646 10.34416004349313 -0.7520957621722886 1 -1 1
1497 1 21.056276948904234 13.822388964274115 -0.6111904855858299 -2 -2 1
5058 1 21.795810920643714 6.092789880536846 -0.6376227444053839 2 1 1
615 1 23.21055688444542 17.6280308045173 -0.6799662932773956 -1 0 1
1498 1 6.321094955571039 2.5900207707253173 -0.7739008736152755 2 0 1
5384 1 15.970518070425898 20.739150677824533 -0.6416847234227845 0 2 1
337 1 14.837981447989542 2.25124191086618 -0.6619365245724538 -2 0 0
2264 1 0.9575537432226535 3.6012619398895134 20.696757838681034 2 -1 1
1679 1 3.8858781385090873 2.51719590118803 20.907624339323007 3 -1 1
96 1 4.207378194520083 3.8066615003877367 23.444206684682072 0 -1 0
3477 1 6.175772171255505 3.406954126702827 20.163516792821653 1 1 0
6656 1 8.236369224429945 2.4631671330322003 21.360643327491175 1 1 1
2159 1 10.685578323336395 3.3312895708741266 20.425801964759067 -2 -1 0
1563 1 8.342866782370157 3.7904908942954814 23.57867825519449 1 -1 0
3704 1 12.7645665517383 2.2092623836696452 21.53778795074385 -1 -1 0
6474 1 15.088407247836344 3.2868792901474175 20.52633529310436 1 1 0
5390 1 17.28555845771098 2.449178428838611 21.484022956531348 -1 2 0
5702 1 20.02923175473986 3.3434997865654914 20.337281940974506 1 2 1
3620 1 17.265616185439555 4.1823876190313936 23.709363612979068 2 3 0
418 1 22.14050959787004 2.179237212596326 22.027008423490415 1 2 0
3791 1 23.994357770924875 6.14291180592072 21.458758716237774 0 1 0
4838 1 2.5855187284242995 5.733436375920906 22.07339436999579 0 0 1
2056 1 4.353752604420934 22.33693771533624 19.87135662337264 1 -1 0
2011 1 6.365075324007121 6.01262819286985 21.27540242146519 -1 -1 0
4 1 6.26063471019069 5.398554211899745 24.06766443965246 1 1 0
4709 1 10.724108368675717 5.8944071002137095 20.99645912707022 3 1 0
3333 1 24.520596919046625 13.227365307310079 23.627872150864743 -2 -1 0
6681 1 10.410277788774078 5.495852155247112 23.50337975270351 1 -1 1
1603 1 15.172819653329498 5.887623429564216 21.36491800208375 0 1 1
1416 1 5.098691529516671 24.121007712140493 36.33548433279617 -1 -2 0
6744 1 14.801377981799567 5.593298879102574 23.967820579838705 0 0 1
3592 1 19.73545581539932 5.922535341520909 21.07442436806653 0 3 0
4916 1 19.864094506497924 5.57454340858635 23.642564136661132 1 1 1
5508 1 17.306924186613248 7.2637410740694515 20.158601251204256 1 -1 0
88 1 24.288297875082737 5.268925669734824 24.05133278108465 2 -1 1
1944 1 4.550142360394526 15.016415900684622 20.17516856766292 3 3 0
5348 1 24.2038139600736 3.5370013764159247 20.514395101912914 1 -1 0
292 1 24.51305274185751 23.392951521550344 22.07433405586412 0 0 0
3708 1 19.977925062174368 13.769629036747942 20.83910765742673 1 -1 0
6488 1 10.337565553694215 5.029463533487824 39.83769983961277 0 0 0
4724 1 6.710499614995211 7.991150291339275 24.180113238301384 0 5 1
3200 1 4.4048145224798985 9.46264664275101 21.18540421865716 3 -1 0
2243 1 4.378358516658615 9.195626121948616 24.172562658772836 -3 0 1
5683 1 13.14839564601941 7.127592531134243 20.199614936666038 2 -1 1
1921 1 8.88175901474004 9.814747300954213 20.71107541230524 -1 1 0
6456 1 8.86145622411215 9.375318920409434 23.356041503081535 0 2 1
1938 1 4.061683981383649 6.989133623565553 20.5045099232209 -2 -1 0
5081 1 10.442182546219422 12.801475200357888 40.06259161233209 0 0 0
369 1 13.07248016377496 9.65118261111289 20.67935556481402 -1 1 0
3445 1 12.964466999971695 9.726463046429739 23.56391768956725 3 1 1
1699 1 17.655880624324876 9.778883763123966 20.747716928124735 3 3 1
6372 1 17.543850295115654 9.554727393621949 23.593191099951124 5 2 1
2282 1 0.22474377646520338 22.567514850882933 20.02001442311833 0 1 1
5124 1 22.220846936296628 9.779061771134243 21.095551034958838 0 1 1
5651 1 22.057648780671972 9.447088788418721 23.71116507561287 0 0 0
6531 1 2.3163954254504153 13.561602023642124 20.766308203336706 5 -1 1
3522 1 11.061547128616256 23.847405622017572 24.11043116255952 1 -2 1
1593 1 6.574627408637981 13.481812972795284 21.148383831858634 -4 0 0
1583 1 7.315202313262113 13.240788603938768 23.720360792992324 -1 1 1
1398 1 10.95639089126235 13.845042514157534 20.511533027367598 -2 -1 1
5094 1 10.994520095475153 13.866610034705063 23.121157106110974 0 -1 0