LAMMPS data file via write_data, version 16 Mar 2018, timestep = 100000

6736 atoms
2 atom types

0.0000000000000000e+00 4.9219999999999999e+01 xlo xhi
0.0000000000000000e+00 4.9019635930410494e+01 ylo yhi
7.9569031128501422e-01 5.9266309688714813e+01 zlo zhi

Masses

1 18.015
2 12.01

Atoms # atomic

1243 1 2.8507432347277573e+00 2.7829615675271517e+00 2.6119664963326614e+00 1 -1 1
3669 1 1.2012136477621778e+01 5.4295849849428350e+00 4.1080280347838762e+00 2 0 0
2666 1 1.1484337389643242e+01 4.0728712439810675e+00 6.7307307504838318e+00 -1 1 1
1955 1 6.0411490368947920e+00 1.7842075224951000e+00 5.3075191567101418e+00 0 0 0
2015 1 8.2201071315159489e+00 2.8424967462165682e+00 4.1407332931774627e+00 0 1 0
442 1 9.3516403384070710e+00 8.6027954855141537e+00 1.1362703554982115e+01 0 0 0
5818 1 1.3699844757588747e-01 6.8730938764577063e+00 4.2803748749244752e+00 0 0 1
358 1 1.0637733672225718e+01 1.8143468057548089e+00 5.5297405839691418e+00 1 1 0
851 1 7.8464157597062254e+00 1.0392324250012146e+01 1.2732659654858358e+01 1 1 1
3377 1 1.1667495885454122e+00 5.3787131977710718e+00 2.2077197166914981e+00 -1 0 0
1919 1 5.6735528535743018e-01 9.5105424710632314e-01 4.4828399737576685e+00 3 1 0
434 1 1.1697391755323242e+01 1.0411377294864508e+01 1.1513840024054341e+01 -1 0 0
398 1 5.8337753422134222e+00 5.6329724689673029e+00 3.4853845124569669e+00 -1 0 0
5361 1 8.5813474124934750e+00 5.8528542850218050e+00 4.4065279693344372e+00 1 0 0
3630 1 1.5144176512104326e+00 1.4154644983328089e+00 1.0741394812595004e+01 0 0 0
3840 1 8.8732672168901328e-01 1.1303321769286431e+01 1.4684900498362119e+01 1 -2 0
6208 1 2.7908586446810606e+00 9.8946324013336753e+00 1.2112709900382961e+00 2 1 1
5457 1 1.6328350938260474e+00 1.0725259726920958e+01 3.5722206949841744e+00 0 0 0
4173 1 5.3385918284729383e+00 8.2120137799984132e+00 2.4803924310298635e+00 3 0 0
2463 1 8.7538878597050775e+00 3.9606287104329524e-01 1.4485845974474570e+01 0 1 1
890 1 4.8399972075273654e+00 4.0133489713714345e+00 1.3098365267687309e+00 1 0 1
937 1 8.0058051577197844e+00 1.0542366094879823e+01 4.4053133046729931e+00 1 0 1
5949 1 9.8051279754997029e+00 8.5436353783349350e+00 3.5303756685247984e+00 0 0 1
1187 1 1.9711175076243657e+00 3.6341595843722883e+00 5.2973047437090122e+00 1 0 1
248 1 1.0167782574175886e+01 1.0184788178111820e+01 8.4717229809779659e-01 1 0 0
4301 1 3.5315220719044249e+00 1.7853085948078056e+00 7.0833557185486233e+00 1 1 1
62 1 4.0196153171912661e+00 2.5034683063766061e+00 9.7550990236938269e+00 0 1 0
2458 1 8.1300812605243280e+00 3.7194079839255783e+00 1.0481870386648360e+01 0 -1 1
4423 1 1.0228449154245686e+01 1.6732443453340911e+00 9.7713183765605169e+00 1 1 1
2076 1 2.1228949514809741e+00 8.7264209921161218e+00 5.2817178713994304e+00 0 0 0
5938 1 1.4598219190519548e+00 6.8865462013819911e+00 8.3089773229493797e+00 0 1 1
4176 1 4.1347159939105191e+00 7.9535336748684262e+00 6.9606246961926361e+00 0 0 1
5935 1 1.0266955730826222e-01 5.1946456747212810e+00 6.7010664542020377e+00 0 1 1
3502 1 3.2945529776748178e-01 8.5508690691101847e+00 1.0860431570221543e+01 2 -1 0
1058 1 6.2695688005636976e+00 4.4386902334251674e+00 7.8813744937731904e+00 0 1 1
3475 1 4.8374208650640895e+00 5.1005982353395929e+00 5.7051341209970454e+00 0 0 1
2091 1 5.8688277710879175e+00 6.0608519555542371e+00 1.0713248333426083e+01 1 1 0
2081 1 8.4313819104184891e+00 6.0953165225170896e+00 7.0705717791201694e+00 1 1 0
5552 1 1.8616683937052203e+00 5.4450212526771846e+00 1.4232827706397567e+01 1 1 0
5102 1 1.0328595396729071e+01 4.9988538530968025e+00 8.9317770058458272e+00 2 1 1
5848 1 1.1580663512590283e+01 8.0015683821812207e+00 1.4329821409702712e+01 1 1 1
6143 1 8.6272498066381491e+00 7.8384464024335099e-01 1.7353074809137563e+00 -1 1 1
435 1 4.4644504710435939e-01 9.3834334404488189e+00 7.7130540126150962e+00 1 1 0
325 1 4.4045607298660920e+00 1.1062704603661834e+01 9.5262220735223444e+00 1 0 0
3501 1 8.4630303665657767e+00 8.6660926965663503e+00 8.4950672980699569e+00 0 1 1
5124 1 5.7640670104583789e+00 8.5524299707376734e+00 9.6439789386029702e+00 0 1 1
767 1 8.3365764069519610e+00 1.1058439643623741e+01 7.2632681134400876e+00 2 0 0
4258 1 1.1817787968027092e+01 7.3327328768910345e+00 9.5921732492116565e+00 0 -1 1
1128 1 7.1431970304678396e+00 3.1273400069439488e+00 8.2926484425444102e-01 0 -1 1
5190 1 4.9600887380586467e-01 3.9333555113178202e+00 1.1542743892084872e+01 1 1 1
3527 1 4.1644137253547493e+00 5.8348354434157257e-01 3.3996797884322416e+00 0 1 0
3693 1 2.7184809100394918e+00 5.4200872538447040e+00 1.0129712281531775e+01 0 1 0
4409 1 4.2320342139084390e+00 1.3667726753847955e+00 1.4533385622844984e+01 0 0 1
2921 1 6.0581739585132972e+00 4.1021304245715999e+00 1.3900377423441450e+01 1 0 0
2855 1 5.2452220155897216e+00 1.1295515042785954e+01 1.2120598999042798e+01 0 0 1
915 1 1.1696059398281083e+01 6.5572074103906941e-01 3.4293420044446843e+00 0 1 1
431 1 1.6249160825095452e+00 1.1775628360310835e+01 8.8794725509239036e+00 -1 0 0
1911 1 5.8865936262611429e+00 2.4324681509975736e+00 1.1638839110528616e+01 0 0 0
4362 1 1.0655760035528338e+01 2.6170115787276904e+00 1.2582480665599370e+01 -1 -1 1
5139 1 1.4371829704368382e+00 2.2337444883930351e+00 1.3676616569834122e+01 1 -1 1
768 1 2.3345840979657910e+00 7.3425747728808224e+00 1.2302095266802795e+01 0 0 1
127 1 4.5883684274455803e+00 8.6556628087119893e+00 1.2505332546956861e+01 0 1 0
481 1 8.9888728727421974e+00 5.9835570463327077e+00 1.1935976376323943e+01 0 1 0
4282 1 5.8122284365212336e+00 7.6689631825124414e+00 1.4860122673168817e+01 1 2 1
1188 1 7.8925286222688831e+00 6.0231291548748223e+00 1.4742043925382450e+01 0 0 1
1988 1 1.1246582686951800e+01 5.3404953635807120e+00 1.3371562366277473e+01 1 0 1
903 1 9.4507185889785958e+00 8.8238456575829002e-02 7.3524725796464470e+00 -1 0 1
5078 1 8.2197452678833685e+00 8.0615809373430558e+00 1.3487560898754702e+00 1 1 0
938 1 5.8577338228855584e+00 1.1078668450209815e+01 2.8429394397166821e+00 1 1 1
1199 1 1.1520996366023457e+01 5.6182388133854655e+00 1.4053725113256426e+00 1 0 0
3431 1 7.4953693390285272e+00 9.9718840466962391e+00 1.5246001875296331e+01 1 1 1
4544 1 8.8569401989739340e+00 5.3190826352610499e+00 9.7289726490695205e-01 2 1 1
1209 1 1.1832977706794370e+00 1.8546290079570016e+00 8.8211960006765366e-01 -1 1 1
3672 1 3.1160348766188659e+00 2.6310049945566756e+00 1.7071561567020794e+01 2 0 0
5372 1 3.5476355758932585e+00 1.3410066387152933e-01 1.7776712192738028e+01 1 0 0
5437 1 6.3593260914793492e-01 3.1551469206144827e+00 1.7003292585688357e+01 1 1 0
138 1 1.7082528006695203e+00 5.7808124777329861e-01 2.0158553057205342e+01 0 0 1
444 1 4.4355638908698776e+00 3.4494205471628661e+00 1.9429396290346897e+01 0 0 1
4570 1 1.1254854329054569e+00 1.2052915396292422e+01 2.4399107788387326e+01 1 0 1
875 1 8.7879627634356190e+00 3.3422777732241129e+00 1.9509480187978728e+01 -1 1 1
4142 1 1.9816907816465328e+00 7.0590154419337168e+00 1.8294950379146378e+01 -1 0 1
5838 1 4.4915334273299319e+00 7.2513369135884700e+00 1.7334211128994575e+01 1 0 1
799 1 1.1926398247175879e-01 9.2918768242322969e+00 1.8431883253076901e+01 0 1 0
603 2 9.8440000000000012e+00 8.5251540748539956e+00 2.6808613534497603e+01 0 0 0
133 1 6.5866224147409982e+00 7.1955888181040724e+00 1.9213974230002659e+01 0 2 1
601 2 8.6134999999999984e+00 1.0656442593567498e+01 2.6808613534497603e+01 0 0 0
1227 1 9.5058247247787868e+00 3.0113034714581697e+00 1.6791007324665372e+01 0 -1 0
3481 1 6.7002424432780563e+00 1.6510972325555593e+00 1.8313991960212292e+01 1 -1 0
506 1 4.1877868064645467e+00 1.0227032463694679e+01 1.8240350415352086e+01 1 1 0
1890 1 1.0232904833014878e+00 9.7586327019503010e+00 2.1340705183180042e+01 0 -1 0
1063 1 1.1767811188024597e+01 1.0410066996242751e+00 1.7553041517154732e+01 -1 0 0
2080 1 5.3570697783548349e+00 1.1548460292285586e+01 1.6230852228545210e+01 1 0 0
491 1 1.6361017955199904e+00 1.1195825634111662e+01 1.7422424173654754e+01 0 0 1
330 1 5.3832581665968187e+00 1.2147189793565193e+01 2.1469880425369748e+01 -1 0 0
604 2 1.1074500000000002e+01 9.2355835810918343e+00 2.6808613534497603e+01 0 0 0
5100 1 1.1744081887579840e+01 9.7956942815220476e+00 2.3963414345512525e+01 -1 0 1
282 1 8.9303759798535634e+00 9.8333516811701855e+00 2.0737382646271282e+01 1 -1 0
602 2 9.8440000000000012e+00 1.1366872099805333e+01 2.6808613534497603e+01 0 0 0
455 1 4.0502513368464319e+00 1.5935270507296930e+00 2.3578473320074128e+01 1 1 0
3430 1 2.2477005571609432e+00 4.9227657481863645e+00 2.0220710910922158e+01 0 -1 1
2131 1 4.2481207835149926e+00 1.2520356787214195e+00 2.0847346019665462e+01 1 -1 0
2588 1 1.0099909412337215e+01 9.4978080748197673e+00 1.6269235816783052e+01 1 1 1
2614 1 8.3862801152989057e+00 1.6578434471649282e+00 2.3054831506878152e+01 1 2 1
973 1 4.4919616312510691e+00 4.1371384870499899e+00 2.3971951122963663e+01 0 0 1
2688 1 8.4659539349152748e+00 7.3608091975462153e-01 2.0606790990280359e+01 0 0 1
970 1 1.0678424001227473e+01 1.6542165355023977e+00 2.4405356828601260e+01 -1 0 1
3603 1 2.6790003632125892e+00 5.8434131467516295e+00 2.2793810227712203e+01 0 0 0
6022 1 3.3347255119294421e+00 8.6616584698097867e+00 2.2283606296724631e+01 1 2 1
4609 1 6.3729118167510643e+00 4.9527278477200332e+00 2.0247157084490144e+01 0 0 1
5158 1 7.0469753010287848e+00 4.0874217301645297e+00 2.2881631254667642e+01 0 0 1
3660 1 8.0374460949284909e+00 6.5906928662398006e+00 2.3933463313800686e+01 1 0 0
3695 1 1.1400186967707830e+01 3.9681890694379267e+00 2.0746550450731785e+01 1 0 0
5164 1 1.0874030064667734e+01 6.6314311250562108e+00 2.1027994874917983e+01 1 0 0
2022 1 1.0880945963624709e+01 7.1622698281361918e+00 2.3725625878636631e+01 1 -1 0
6144 1 7.0463897811778926e+00 2.0782598586071335e+00 1.5723337880431208e+01 0 1 1
503 1 5.4390137545093200e+00 9.4305715931934273e+00 2.0879836984399482e+01 -1 0 0
5379 1 1.1529522798905136e+01 1.1269923416967515e+01 2.1530248357235784e+01 0 -1 0
1231 1 3.0705494326360561e+00 1.0312145237512576e+01 2.4626558719628768e+01 0 1 0
1797 1 1.2943309741618341e+00 6.8471082806495531e-01 2.4290634569696344e+01 0 1 1
6264 1 9.0873823956736608e+00 5.7229827949715926e+00 1.7018739097131881e+01 0 2 1
3702 1 7.5096713064730380e+00 9.0846018612220991e+00 2.2952207239965212e+01 0 1 0
2202 1 5.6162785276166312e-02 3.2969201936569692e+00 1.9624594820409619e+01 0 0 0
3574 1 9.0551537602200405e+00 1.1161115189525294e+01 2.4077869550930636e+01 -1 -1 0
2157 1 9.6294255518375653e+00 8.0657478403496672e+00 1.8881235770417113e+01 0 1 1
511 2 0.0000000000000000e+00 2.8417180249513345e+00 2.6808613534497603e+01 0 0 0
512 2 0.0000000000000000e+00 0.0000000000000000e+00 2.6808613534497603e+01 0 0 0
513 2 1.2305000000000001e+00 7.1042950623783474e-01 2.6808613534497603e+01 0 0 0
517 2 1.2305000000000001e+00 2.1312885187134998e+00 2.6808613534497603e+01 0 0 0
518 2 2.4610000000000003e+00 2.8417180249513345e+00 2.6808613534497603e+01 0 0 0
519 2 2.4610000000000003e+00 0.0000000000000000e+00 2.6808613534497603e+01 0 0 0
520 2 3.6915000000000004e+00 7.1042950623783474e-01 2.6808613534497603e+01 0 0 0
528 2 3.6914999999999996e+00 2.1312885187134998e+00 2.6808613534497603e+01 0 0 0
529 2 4.9220000000000006e+00 2.8417180249513332e+00 2.6808613534497603e+01 0 0 0
530 2 4.9220000000000006e+00 0.0000000000000000e+00 2.6808613534497603e+01 0 0 0
531 2 6.1524999999999999e+00 7.1042950623783407e-01 2.6808613534497603e+01 0 0 0
543 2 6.1524999999999999e+00 2.1312885187134989e+00 2.6808613534497603e+01 0 0 0
544 2 7.3829999999999991e+00 2.8417180249513345e+00 2.6808613534497603e+01 0 0 0
545 2 7.3829999999999991e+00 0.0000000000000000e+00 2.6808613534497603e+01 0 0 0
546 2 8.6134999999999984e+00 7.1042950623783407e-01 2.6808613534497603e+01 0 0 0
562 2 8.6134999999999984e+00 2.1312885187135002e+00 2.6808613534497603e+01 0 0 0
563 2 9.8440000000000012e+00 2.8417180249513332e+00 2.6808613534497603e+01 0 0 0
564 2 9.8440000000000012e+00 0.0000000000000000e+00 2.6808613534497603e+01 0 0 0
565 2 1.1074500000000002e+01 7.1042950623783330e-01 2.6808613534497603e+01 0 0 0
585 2 1.1074500000000002e+01 2.1312885187135002e+00 2.6808613534497603e+01 0 0 0
514 2 0.0000000000000000e+00 7.1042950623783341e+00 2.6808613534497603e+01 0 0 0
515 2 0.0000000000000000e+00 4.2625770374269996e+00 2.6808613534497603e+01 0 0 0
516 2 1.2305000000000001e+00 4.9730065436648339e+00 2.6808613534497603e+01 0 0 0
524 2 1.2305000000000001e+00 6.3938655561404980e+00 2.6808613534497603e+01 0 0 0
525 2 2.4610000000000003e+00 7.1042950623783341e+00 2.6808613534497603e+01 0 0 0
526 2 2.4610000000000003e+00 4.2625770374269996e+00 2.6808613534497603e+01 0 0 0
527 2 3.6914999999999996e+00 4.9730065436648339e+00 2.6808613534497603e+01 0 0 0
539 2 3.6914999999999996e+00 6.3938655561404980e+00 2.6808613534497603e+01 0 0 0
540 2 4.9220000000000006e+00 7.1042950623783341e+00 2.6808613534497603e+01 0 0 0
541 2 4.9220000000000006e+00 4.2625770374269978e+00 2.6808613534497603e+01 0 0 0
542 2 6.1524999999999999e+00 4.9730065436648339e+00 2.6808613534497603e+01 0 0 0
558 2 6.1524999999999999e+00 6.3938655561404980e+00 2.6808613534497603e+01 0 0 0
559 2 7.3830000000000009e+00 7.1042950623783341e+00 2.6808613534497603e+01 0 0 0
560 2 7.3829999999999991e+00 4.2625770374269996e+00 2.6808613534497603e+01 0 0 0
561 2 8.6135000000000002e+00 4.9730065436648339e+00 2.6808613534497603e+01 0 0 0
581 2 8.6135000000000002e+00 6.3938655561404980e+00 2.6808613534497603e+01 0 0 0
582 2 9.8440000000000012e+00 7.1042950623783341e+00 2.6808613534497603e+01 0 0 0
583 2 9.8440000000000012e+00 4.2625770374270004e+00 2.6808613534497603e+01 0 0 0
584 2 1.1074500000000002e+01 4.9730065436648339e+00 2.6808613534497603e+01 0 0 0
605 2 1.1074500000000002e+01 6.3938655561404980e+00 2.6808613534497603e+01 0 0 0
521 2 0.0000000000000000e+00 1.1366872099805333e+01 2.6808613534497603e+01 0 0 0
522 2 0.0000000000000000e+00 8.5251540748539991e+00 2.6808613534497603e+01 0 0 0
523 2 1.2305000000000001e+00 9.2355835810918343e+00 2.6808613534497603e+01 0 0 0
535 2 1.2305000000000001e+00 1.0656442593567498e+01 2.6808613534497603e+01 0 0 0
536 2 2.4610000000000003e+00 1.1366872099805333e+01 2.6808613534497603e+01 0 0 0
537 2 2.4610000000000003e+00 8.5251540748539991e+00 2.6808613534497603e+01 0 0 0
538 2 3.6915000000000004e+00 9.2355835810918343e+00 2.6808613534497603e+01 0 0 0
554 2 3.6914999999999996e+00 1.0656442593567499e+01 2.6808613534497603e+01 0 0 0
556 2 4.9220000000000006e+00 8.5251540748539991e+00 2.6808613534497603e+01 0 0 0
557 2 6.1524999999999999e+00 9.2355835810918343e+00 2.6808613534497603e+01 0 0 0
579 2 7.3830000000000009e+00 8.5251540748539991e+00 2.6808613534497603e+01 0 0 0
555 2 4.9220000000000006e+00 1.1366872099805333e+01 2.6808613534497603e+01 0 0 0
577 2 6.1524999999999999e+00 1.0656442593567499e+01 2.6808613534497603e+01 0 0 0
578 2 7.3829999999999991e+00 1.1366872099805333e+01 2.6808613534497603e+01 0 0 0
625 2 1.1074500000000002e+01 1.0656442593567498e+01 2.6808613534497603e+01 0 0 0
580 2 8.6134999999999984e+00 9.2355835810918343e+00 2.6808613534497603e+01 0 0 0
626 2 1.2304999999999998e+01 1.1366872099805333e+01 2.6808613534497603e+01 0 0 0
5249 1 4.0127482954220426e+00 4.8432655956214603e+00 1.5864272899808883e+01 1 1 1
5496 1 5.7400180271173733e+00 1.1380654030268904e+01 2.4212387511244327e+01 1 0 0
800 1 6.5798650617749477e+00 3.4394858246679816e-01 2.4489194466528076e+01 0 0 1
5858 1 1.1887423382921835e+01 4.1448751585041004e+00 1.5668069489620608e+01 1 1 1
1250 2 0.0000000000000000e+00 1.4208590124756650e+00 3.0031000000000088e+01 0 0 0
1251 2 0.0000000000000000e+00 0.0000000000000000e+00 3.0031000000000088e+01 0 0 0
1254 2 1.2305000000000001e+00 3.5521475311891644e+00 3.0031000000000088e+01 0 0 0
1255 2 1.2305000000000001e+00 2.1312885187134998e+00 3.0031000000000088e+01 0 0 0
1256 2 2.4610000000000003e+00 1.4208590124756650e+00 3.0031000000000088e+01 0 0 0
1257 2 2.4610000000000003e+00 0.0000000000000000e+00 3.0031000000000088e+01 0 0 0
1264 2 3.6914999999999996e+00 3.5521475311891644e+00 3.0031000000000088e+01 0 0 0
1265 2 3.6914999999999996e+00 2.1312885187134998e+00 3.0031000000000088e+01 0 0 0
1411 2 0.0000000000000000e+00 2.8417180249513345e+00 3.3253386465505372e+01 0 0 0
1412 2 0.0000000000000000e+00 0.0000000000000000e+00 3.3253386465505372e+01 0 0 0
1413 2 1.2305000000000001e+00 7.1042950623783474e-01 3.3253386465505372e+01 0 0 0
1417 2 1.2305000000000001e+00 2.1312885187134998e+00 3.3253386465505372e+01 0 0 0
1418 2 2.4610000000000003e+00 2.8417180249513345e+00 3.3253386465505372e+01 0 0 0
1419 2 2.4610000000000003e+00 0.0000000000000000e+00 3.3253386465505372e+01 0 0 0
1420 2 3.6915000000000004e+00 7.1042950623783474e-01 3.3253386465505372e+01 0 0 0
1428 2 3.6914999999999996e+00 2.1312885187134998e+00 3.3253386465505372e+01 0 0 0
1266 2 4.9220000000000006e+00 1.4208590124756650e+00 3.0031000000000088e+01 0 0 0
1267 2 4.9220000000000006e+00 0.0000000000000000e+00 3.0031000000000088e+01 0 0 0
1278 2 6.1524999999999999e+00 3.5521475311891644e+00 3.0031000000000088e+01 0 0 0
1279 2 6.1524999999999999e+00 2.1312885187134989e+00 3.0031000000000088e+01 0 0 0
1280 2 7.3829999999999991e+00 1.4208590124756659e+00 3.0031000000000088e+01 0 0 0
1281 2 7.3829999999999991e+00 0.0000000000000000e+00 3.0031000000000088e+01 0 0 0
1429 2 4.9220000000000006e+00 2.8417180249513332e+00 3.3253386465505372e+01 0 0 0
1430 2 4.9220000000000006e+00 0.0000000000000000e+00 3.3253386465505372e+01 0 0 0
1431 2 6.1524999999999999e+00 7.1042950623783407e-01 3.3253386465505372e+01 0 0 0
1443 2 6.1524999999999999e+00 2.1312885187134989e+00 3.3253386465505372e+01 0 0 0
1444 2 7.3829999999999991e+00 2.8417180249513345e+00 3.3253386465505372e+01 0 0 0
1445 2 7.3829999999999991e+00 0.0000000000000000e+00 3.3253386465505372e+01 0 0 0
1296 2 8.6134999999999984e+00 3.5521475311891657e+00 3.0031000000000088e+01 0 0 0
1297 2 8.6134999999999984e+00 2.1312885187135002e+00 3.0031000000000088e+01 0 0 0
1298 2 9.8440000000000012e+00 1.4208590124756659e+00 3.0031000000000088e+01 0 0 0
1299 2 9.8440000000000012e+00 0.0000000000000000e+00 3.0031000000000088e+01 0 0 0
1318 2 1.1074500000000002e+01 3.5521475311891644e+00 3.0031000000000088e+01 0 0 0
1319 2 1.1074500000000002e+01 2.1312885187135002e+00 3.0031000000000088e+01 0 0 0
1446 2 8.6134999999999984e+00 7.1042950623783407e-01 3.3253386465505372e+01 0 0 0
1462 2 8.6134999999999984e+00 2.1312885187135002e+00 3.3253386465505372e+01 0 0 0
1463 2 9.8440000000000012e+00 2.8417180249513332e+00 3.3253386465505372e+01 0 0 0
1464 2 9.8440000000000012e+00 0.0000000000000000e+00 3.3253386465505372e+01 0 0 0
1465 2 1.1074500000000002e+01 7.1042950623783330e-01 3.3253386465505372e+01 0 0 0
1485 2 1.1074500000000002e+01 2.1312885187135002e+00 3.3253386465505372e+01 0 0 0
1252 2 0.0000000000000000e+00 5.6834360499026637e+00 3.0031000000000088e+01 0 0 0
1253 2 0.0000000000000000e+00 4.2625770374269996e+00 3.0031000000000088e+01 0 0 0
1260 2 1.2305000000000001e+00 7.8147245686161639e+00 3.0031000000000088e+01 0 0 0
1261 2 1.2305000000000001e+00 6.3938655561404980e+00 3.0031000000000088e+01 0 0 0
1262 2 2.4610000000000003e+00 5.6834360499026637e+00 3.0031000000000088e+01 0 0 0
1263 2 2.4610000000000003e+00 4.2625770374269996e+00 3.0031000000000088e+01 0 0 0
1274 2 3.6914999999999996e+00 7.8147245686161639e+00 3.0031000000000088e+01 0 0 0
1275 2 3.6914999999999996e+00 6.3938655561404980e+00 3.0031000000000088e+01 0 0 0
1414 2 0.0000000000000000e+00 7.1042950623783341e+00 3.3253386465505372e+01 0 0 0
1415 2 0.0000000000000000e+00 4.2625770374269996e+00 3.3253386465505372e+01 0 0 0
1416 2 1.2305000000000001e+00 4.9730065436648339e+00 3.3253386465505372e+01 0 0 0
1424 2 1.2305000000000001e+00 6.3938655561404980e+00 3.3253386465505372e+01 0 0 0
1425 2 2.4610000000000003e+00 7.1042950623783341e+00 3.3253386465505372e+01 0 0 0
1426 2 2.4610000000000003e+00 4.2625770374269996e+00 3.3253386465505372e+01 0 0 0
1427 2 3.6914999999999996e+00 4.9730065436648339e+00 3.3253386465505372e+01 0 0 0
1439 2 3.6914999999999996e+00 6.3938655561404980e+00 3.3253386465505372e+01 0 0 0
1276 2 4.9220000000000006e+00 5.6834360499026637e+00 3.0031000000000088e+01 0 0 0
1277 2 4.9220000000000006e+00 4.2625770374269978e+00 3.0031000000000088e+01 0 0 0
1292 2 6.1524999999999999e+00 7.8147245686161639e+00 3.0031000000000088e+01 0 0 0
1293 2 6.1524999999999999e+00 6.3938655561404980e+00 3.0031000000000088e+01 0 0 0
1294 2 7.3829999999999991e+00 5.6834360499026637e+00 3.0031000000000088e+01 0 0 0
1295 2 7.3829999999999991e+00 4.2625770374269996e+00 3.0031000000000088e+01 0 0 0
1440 2 4.9220000000000006e+00 7.1042950623783341e+00 3.3253386465505372e+01 0 0 0
1441 2 4.9220000000000006e+00 4.2625770374269978e+00 3.3253386465505372e+01 0 0 0
1442 2 6.1524999999999999e+00 4.9730065436648339e+00 3.3253386465505372e+01 0 0 0
1458 2 6.1524999999999999e+00 6.3938655561404980e+00 3.3253386465505372e+01 0 0 0
1459 2 7.3830000000000009e+00 7.1042950623783341e+00 3.3253386465505372e+01 0 0 0
1460 2 7.3829999999999991e+00 4.2625770374269996e+00 3.3253386465505372e+01 0 0 0
1314 2 8.6135000000000002e+00 7.8147245686161639e+00 3.0031000000000088e+01 0 0 0
1315 2 8.6135000000000002e+00 6.3938655561404980e+00 3.0031000000000088e+01 0 0 0
1316 2 9.8440000000000012e+00 5.6834360499026637e+00 3.0031000000000088e+01 0 0 0
1317 2 9.8440000000000012e+00 4.2625770374270004e+00 3.0031000000000088e+01 0 0 0
1337 2 1.1074500000000002e+01 7.8147245686161639e+00 3.0031000000000088e+01 0 0 0
1338 2 1.1074500000000002e+01 6.3938655561404980e+00 3.0031000000000088e+01 0 0 0
1461 2 8.6135000000000002e+00 4.9730065436648339e+00 3.3253386465505372e+01 0 0 0
1481 2 8.6135000000000002e+00 6.3938655561404980e+00 3.3253386465505372e+01 0 0 0
1482 2 9.8440000000000012e+00 7.1042950623783341e+00 3.3253386465505372e+01 0 0 0
1483 2 9.8440000000000012e+00 4.2625770374270004e+00 3.3253386465505372e+01 0 0 0
1484 2 1.1074500000000002e+01 4.9730065436648339e+00 3.3253386465505372e+01 0 0 0
1505 2 1.1074500000000002e+01 6.3938655561404980e+00 3.3253386465505372e+01 0 0 0
1258 2 0.0000000000000000e+00 9.9460130873296642e+00 3.0031000000000088e+01 0 0 0
1259 2 0.0000000000000000e+00 8.5251540748539991e+00 3.0031000000000088e+01 0 0 0
1270 2 1.2305000000000001e+00 1.2077301606043163e+01 3.0031000000000088e+01 0 0 0
1271 2 1.2305000000000001e+00 1.0656442593567498e+01 3.0031000000000088e+01 0 0 0
1272 2 2.4610000000000003e+00 9.9460130873296642e+00 3.0031000000000088e+01 0 0 0
1273 2 2.4610000000000003e+00 8.5251540748539991e+00 3.0031000000000088e+01 0 0 0
1288 2 3.6914999999999996e+00 1.2077301606043163e+01 3.0031000000000088e+01 0 0 0
1289 2 3.6914999999999996e+00 1.0656442593567499e+01 3.0031000000000088e+01 0 0 0
1421 2 0.0000000000000000e+00 1.1366872099805333e+01 3.3253386465505372e+01 0 0 0
1422 2 0.0000000000000000e+00 8.5251540748539991e+00 3.3253386465505372e+01 0 0 0
1423 2 1.2305000000000001e+00 9.2355835810918343e+00 3.3253386465505372e+01 0 0 0
1435 2 1.2305000000000001e+00 1.0656442593567498e+01 3.3253386465505372e+01 0 0 0
1436 2 2.4610000000000003e+00 1.1366872099805333e+01 3.3253386465505372e+01 0 0 0
1437 2 2.4610000000000003e+00 8.5251540748539991e+00 3.3253386465505372e+01 0 0 0
1438 2 3.6915000000000004e+00 9.2355835810918343e+00 3.3253386465505372e+01 0 0 0
1454 2 3.6914999999999996e+00 1.0656442593567499e+01 3.3253386465505372e+01 0 0 0
1290 2 4.9220000000000006e+00 9.9460130873296642e+00 3.0031000000000088e+01 0 0 0
1291 2 4.9220000000000006e+00 8.5251540748539991e+00 3.0031000000000088e+01 0 0 0
1310 2 6.1524999999999999e+00 1.2077301606043163e+01 3.0031000000000088e+01 0 0 0
1311 2 6.1524999999999999e+00 1.0656442593567499e+01 3.0031000000000088e+01 0 0 0
1312 2 7.3830000000000009e+00 9.9460130873296642e+00 3.0031000000000088e+01 0 0 0
1313 2 7.3830000000000009e+00 8.5251540748539991e+00 3.0031000000000088e+01 0 0 0
1455 2 4.9220000000000006e+00 1.1366872099805333e+01 3.3253386465505372e+01 0 0 0
1456 2 4.9220000000000006e+00 8.5251540748539991e+00 3.3253386465505372e+01 0 0 0
1457 2 6.1524999999999999e+00 9.2355835810918343e+00 3.3253386465505372e+01 0 0 0
1477 2 6.1524999999999999e+00 1.0656442593567499e+01 3.3253386465505372e+01 0 0 0
1478 2 7.3829999999999991e+00 1.1366872099805333e+01 3.3253386465505372e+01 0 0 0
1479 2 7.3830000000000009e+00 8.5251540748539991e+00 3.3253386465505372e+01 0 0 0
1333 2 8.6135000000000002e+00 1.2077301606043163e+01 3.0031000000000088e+01 0 0 0
1334 2 8.6134999999999984e+00 1.0656442593567498e+01 3.0031000000000088e+01 0 0 0
1335 2 9.8440000000000012e+00 9.9460130873296642e+00 3.0031000000000088e+01 0 0 0
1336 2 9.8440000000000012e+00 8.5251540748539956e+00 3.0031000000000088e+01 0 0 0
1356 2 1.1074500000000002e+01 1.2077301606043163e+01 3.0031000000000088e+01 0 0 0
1357 2 1.1074500000000002e+01 1.0656442593567498e+01 3.0031000000000088e+01 0 0 0
1480 2 8.6134999999999984e+00 9.2355835810918343e+00 3.3253386465505372e+01 0 0 0
1501 2 8.6134999999999984e+00 1.0656442593567498e+01 3.3253386465505372e+01 0 0 0
1502 2 9.8440000000000012e+00 1.1366872099805333e+01 3.3253386465505372e+01 0 0 0
1503 2 9.8440000000000012e+00 8.5251540748539956e+00 3.3253386465505372e+01 0 0 0
1504 2 1.1074500000000002e+01 9.2355835810918343e+00 3.3253386465505372e+01 0 0 0
1525 2 1.1074500000000002e+01 1.0656442593567498e+01 3.3253386465505372e+01 0 0 0
1526 2 1.2304999999999998e+01 1.1366872099805333e+01 3.3253386465505372e+01 0 0 0
5195 1 2.7231887488155042e+00 1.0020412932865876e+00 3.5852747627262893e+01 0 0 -1
2547 1 6.9083584504175843e-01 9.4581482420279368e+00 4.0273893120859697e+01 1 1 0
5895 1 3.1359843105371028e+00 3.8575920103750510e+00 3.6693142641021090e+01 1 3 0
5309 1 9.1154962334120171e+00 1.8340858355948813e+00 3.5853404333857632e+01 0 0 -1
4562 1 7.8008967445025075e+00 1.4906419924782450e+00 3.9519730945092945e+01 1 1 -1
4444 1 3.1780376695013408e+00 4.1789151180034416e+00 3.9338768315904943e+01 2 1 0
1766 1 7.2593831730382465e+00 1.1977526648578177e+01 4.3270394746976550e+01 1 0 -1
2114 1 1.1553285404621068e+01 1.4643312025715618e+00 3.6774879979593116e+01 0 1 -1
3554 1 2.8644554272873388e+00 8.5514563778180523e+00 3.6166154284682207e+01 1 1 -1
5430 1 5.5378608071857638e+00 6.1791016881050256e+00 3.9703875024270104e+01 1 1 -1
5110 1 4.7689478837037731e+00 6.1877992147899858e+00 3.6246811889811575e+01 2 1 -1
1075 1 3.3188793128408385e+00 8.5681081974922080e+00 3.8928841394123722e+01 0 0 -1
4474 1 1.9092872534549825e+00 6.1799203341641880e+00 3.9738890947503798e+01 0 1 -1
4172 1 7.4379373653581125e+00 6.4603856961554182e+00 3.6095908685923462e+01 1 -1 0
5951 1 7.6162784590326584e+00 4.2431920016214271e+00 3.9668414631057480e+01 2 1 0
4191 1 9.0916470481050951e+00 4.2641145434971959e+00 3.7004219239623822e+01 1 1 -1
6114 1 8.6621699902617646e+00 1.0387133805624146e+01 4.1656398301960159e+01 0 1 0
4164 1 1.0600435787825216e+01 1.2998341628965178e+00 3.9726610739638723e+01 0 0 -1
3666 1 1.1372020618143464e+01 5.8118723664408511e+00 3.7295931150571946e+01 1 1 -1
3784 1 1.1369822025671708e+01 3.6976243468995103e+00 4.3538144693996855e+01 0 2 -1
4275 1 3.8066323387586785e+00 1.0956100033972286e+01 3.5684342330316184e+01 1 0 0
3743 1 8.0285170622835320e+00 9.2122959495981291e+00 3.6588154386463849e+01 2 1 -1
6124 1 6.5098401500729617e+00 1.1413726082437607e+01 3.6575742773907159e+01 1 0 0
5116 1 1.1441792383536930e+01 4.0624483848551440e+00 3.9707280591069399e+01 0 1 -1
4160 1 1.0736867219378700e+01 1.0301288529139077e+01 3.5838549497596176e+01 1 2 -1
336 1 1.1870325776097355e+01 9.2184939570145374e+00 3.9791390157686401e+01 -1 1 -1
6229 1 7.6056969217334078e+00 3.6581305006124469e+00 4.3699094316960000e+01 -1 0 -1
6123 1 1.2134850775106727e-01 4.3943203297116886e+00 3.6361880960334609e+01 1 0 0
1727 1 1.1976974988239689e+01 8.2475398117753773e+00 3.6907363137234633e+01 0 0 -1
1868 1 5.0965879703610044e+00 1.0958662289711022e+01 4.2771252417742915e+01 0 -2 -1
1079 1 4.8844312873815561e+00 2.0721805738378225e+00 4.0389073493232296e+01 1 1 0
4320 1 4.8900160513041611e+00 3.6166329183848118e+00 4.2740069822738391e+01 2 1 -1
1772 1 1.0640944199303490e+01 1.0620484918120008e+00 4.2651748091734596e+01 2 1 -1
5501 1 9.2185375625319104e+00 5.0694215942598806e+00 4.1654302287777107e+01 1 1 -1
5170 1 4.2106552324128561e+00 6.4235983344552343e+00 4.2587678702009612e+01 1 -1 -1
6061 1 1.5360038490430103e+00 6.3280331472278721e+00 4.2204370232656409e+01 1 -1 0
5833 1 5.9095712015588147e+00 8.1924772253887905e+00 4.3709951238134501e+01 1 1 -1
3764 1 6.7858533368104732e+00 8.8580734339447229e+00 3.9346133208575537e+01 1 -1 -1
3792 1 8.2337169040604401e+00 7.8277381168003917e+00 4.2717484309249301e+01 1 0 -1
1029 1 5.6409629085119051e-01 1.1999527487431070e+00 3.8530701625345671e+01 0 1 0
2799 1 9.3979116833447947e+00 7.5388613684285364e+00 3.9571225961450878e+01 -1 -1 0
3681 1 1.3019348353861260e+00 2.0366987579300182e+00 4.4347197965947117e+01 1 0 -1
396 1 9.2548934451977818e+00 1.1871479846588906e+01 3.9320268883799315e+01 0 0 -1
1194 1 1.1121637795357682e+01 1.0858567237451567e+01 4.2657504633253978e+01 1 -1 0
6268 1 4.6487941661571668e+00 1.1066001132036689e+01 3.9929076784498598e+01 0 0 0
1238 1 8.2012417306005325e+00 1.0586866732282454e+00 4.3913088242429552e+01 1 0 -1
4401 1 3.8170396712139638e+00 1.8267912165791145e+00 4.4557783487935822e+01 0 0 0
4300 1 3.8113521537564021e-01 7.2068816142944625e+00 3.5510587062331915e+01 0 1 0
4564 1 7.2221531264060248e+00 1.8825070141960829e-01 3.7300628755182458e+01 0 0 0
6283 1 2.3990952215730441e-01 4.1726044900559991e+00 4.2886721265682041e+01 1 0 0
2691 1 9.5938251834501731e-01 1.1966025777949794e+01 4.1377224935734397e+01 1 -1 0
5253 1 2.6358802658000364e+00 1.9831569648873766e+00 4.8178963754787894e+01 1 0 -1
2672 1 4.8593875570850447e+00 2.7172597997873491e+00 4.6935328546477862e+01 -1 -1 0
2123 1 5.6016809758395816e+00 5.1243128690228286e+00 4.5543769922052270e+01 2 1 -1
2923 1 1.2022914941079719e+01 7.2581064225733334e+00 5.6330004798936507e+01 0 2 0
965 1 2.5430270864201826e-01 2.4741441852743558e+00 4.6836863076893437e+01 -1 1 0