LAMMPS data file via write_data, version 16 Mar 2018, timestep = 6000000

6768 atoms
2 atom types

0.0000000000000000e+00 4.9219999999999999e+01 xlo xhi
0.0000000000000000e+00 4.9019635930410494e+01 ylo yhi
2.7163202948968035e-01 5.9790367970507447e+01 zlo zhi

Masses

1 18.015
2 12.01

Atoms # atomic

5668 1 3.4025258725696923e+00 2.6784361066074607e+00 2.5893960069113122e+00 -1 3 1
3208 1 5.1112079049527051e+00 6.2622720906253693e-01 8.7051132089561882e+00 2 -3 1
435 1 6.0864448162396307e+00 2.6841114324366022e+00 2.2658512074581556e+00 0 2 0
6408 1 1.1147062025723997e+01 2.0565829320665676e+00 2.9947228134263559e+00 -2 1 1
5019 1 2.2520257705695998e+00 4.9460302039439865e+00 1.8889696701373706e+00 2 -3 1
3551 1 3.3373833214220450e+00 7.0548191116013923e+00 3.0169731361690895e+00 0 0 0
489 1 7.1098901524600517e+00 4.9546344083494045e+00 3.2351013486050384e+00 1 0 1
143 1 6.0883688065993393e+00 7.0882333957361769e+00 1.9414851362562826e+00 2 1 0
3800 1 9.8560962726073669e+00 4.3068086334083775e+00 2.1295682418909054e+00 1 1 0
5081 1 1.1203185087898470e+01 6.6485685913248078e+00 2.7126767073985385e+00 -1 1 1
5210 1 2.1674213286339779e+00 9.1052929648681591e+00 1.9499623548057707e+00 0 0 1
5319 1 3.9225589169890109e+00 1.1362883795513230e+01 2.5249086977627906e+00 0 5 0
5242 1 7.4057837837207900e+00 9.0334864753777318e+00 2.7917565264872977e+00 0 0 0
3219 1 6.4953556483171822e+00 1.1451771827043432e+01 1.4636458654695601e+00 0 2 0
1387 1 1.0145368085040731e+01 9.3289233704870469e+00 1.8671937097983626e+00 -1 -1 1
2070 1 1.1634131848795287e+01 1.1584471315233044e+01 2.7580790166676108e+00 1 -2 0
52 1 2.5927987011777227e+00 1.3828148029292912e+01 1.8961743809648490e+00 1 0 0
4836 1 3.7775601360309556e+00 1.6421601137744275e+01 2.9330311423717759e+00 3 1 1
3894 1 7.5176068871231125e+00 1.3753869023604979e+01 2.4788495721643153e+00 0 -1 1
5100 1 6.1587085963411417e+00 1.6264307791498432e+01 1.9065721705001712e+00 -1 -2 1
4747 1 1.0260968715265728e+01 1.3706645987317321e+01 1.9545075829783713e+00 1 -1 1
1424 1 1.1585161093812937e+01 1.5815677056326271e+01 2.8765808418304473e+00 -2 1 1
3413 1 2.5636462725075919e+00 1.8447568556566559e+01 1.9228173021294419e+00 1 -2 0
6356 1 7.5639091136886183e+00 1.8191298163930636e+01 2.8291710521865925e+00 1 -1 1
1541 1 1.0220091886844813e+01 1.8107764130833377e+01 2.1055657606707050e+00 -4 0 1
5451 1 1.1525951141305010e+01 2.0199845291881729e+01 2.7618627796308766e+00 2 2 0
6482 1 3.5867179611676145e+00 2.0770039679276341e+01 2.7912965846950102e+00 -3 0 1
3710 1 2.2599079497811903e+00 2.2849807584575984e+01 2.0253922300628808e+00 -1 1 0
3376 1 6.3800359603377208e+00 2.0875480931662334e+01 2.2606293820629801e+00 0 -2 1
6490 1 7.4429698554642334e+00 2.3167118970330456e+01 3.0400357722635150e+00 1 0 1
3266 1 9.9785549277943684e+00 2.2297605744606486e+01 2.0998528312825231e+00 3 1 1
504 1 1.2974557520948493e+00 2.7982937598103343e+00 6.7294733597232268e+00 0 0 0
3401 1 3.6586650508204728e+00 3.1471022439924856e+00 5.3732867781753901e+00 3 0 1
3101 1 4.8142914137217687e+00 2.2834228593796787e+01 9.0658248554524832e+00 -2 1 1
6654 1 2.2995494325305613e-01 1.8733349663749323e+01 5.3545583452134160e+00 3 0 1
2271 1 9.7323324728321605e+00 2.2483646113346317e+01 1.0104592084284556e+01 1 -1 0
67 1 8.6525090951974040e+00 2.4010788139996913e+00 6.6400850994782035e+00 0 1 1
2130 1 1.1239930116472367e+01 2.1024607143171963e+00 5.7015371331044866e+00 1 -1 1
614 1 1.2900907295262773e+00 7.4806173137029681e+00 6.4349232118424391e+00 3 2 0
3875 1 3.4876619518549781e+00 7.0967453002869334e+00 5.5184265009999267e+00 3 1 0
2062 1 4.8747570291257780e+00 5.0120939107130580e+00 6.7672644886846065e+00 2 2 0
1775 1 7.4640583999136396e+00 4.9500328735462995e+00 6.0763019952933961e+00 1 1 0
5118 1 8.8773452498569903e+00 7.1142778067144743e+00 6.4184940583060861e+00 -2 1 0
136 1 1.1272070094038586e+01 6.8629095336303845e+00 5.4976062692775320e+00 -2 2 0
576 1 1.2444259527167569e+00 1.1965349842868809e+01 6.0351273950503401e+00 0 -1 1
157 1 3.8450955455454539e+00 1.1622892926089957e+01 5.2066331753253383e+00 3 -2 0
5554 1 4.8320963089208773e+00 9.2511386397510709e+00 6.4796304787324592e+00 0 2 0
19 1 7.5034231646913181e+00 9.2558620249544035e+00 5.5336706687974422e+00 1 0 0
3972 1 8.6879136176785856e+00 1.1576402335424826e+01 6.0168519610293254e+00 -1 -1 1
3325 1 1.1315277694426857e+01 1.1540108532600955e+01 5.4406200904842317e+00 0 0 1
228 1 6.1964625005229479e+00 2.0712896990299420e+01 9.8774934243459374e+00 0 1 0
3108 1 3.8063530367210467e+00 1.6237089907407469e+01 5.4540250680464597e+00 -1 0 1
5367 1 1.2206799285086825e+00 1.6339358935521176e+01 6.3269225777097455e+00 0 1 0
3504 1 5.0471680310438369e+00 1.3822066457531164e+01 6.1297401223611940e+00 0 2 0
3052 1 7.3166195540370786e+00 1.4097355928989394e+01 5.1176727380767053e+00 2 1 1
5416 1 8.5322108126420968e+00 1.6120168173952013e+01 6.2731248095532290e+00 3 -1 0
3288 1 1.1145827331921414e+01 1.5796739223997688e+01 5.3517243161362273e+00 0 0 0
3023 1 4.7404173482031737e+00 1.8638986595041622e+01 6.5004848915541569e+00 0 1 1
1748 1 7.2985941521515763e+00 1.8364729373895315e+01 5.3901445243916939e+00 4 1 0
171 1 1.1250445998039361e+01 2.0367798152381280e+01 5.2847802165272126e+00 -3 1 0
4976 1 8.9649889060600803e+00 2.0515136967378890e+01 6.3759204578715289e+00 -1 0 1
5095 1 3.4224487302354571e+00 2.0803327468078837e+01 5.4398809010829829e+00 0 0 1
5607 1 1.0904202529814320e+00 2.0845063412205374e+01 6.4804076852572123e+00 3 2 1
2016 1 4.8951919215376085e+00 2.2549803232982736e+01 6.3865940261951941e+00 0 2 0
6713 1 7.3883847520341854e+00 2.2647641145625631e+01 5.5082359894850006e+00 0 2 0
5161 1 9.8403463169408312e+00 2.2769716129071124e-02 1.9911832731073593e+00 0 1 0
3022 1 2.3646830682900135e+00 7.0040402044884809e-01 9.9403938957230960e+00 1 1 0
5685 1 9.1242892637767758e-01 3.0388356349762518e+00 9.3115688954298808e+00 -1 2 1
2287 1 4.6880703752261992e+00 6.3825310715731709e-01 6.1548266730577268e+00 2 -1 1
2294 1 6.0287963780413651e+00 2.8929005865971784e+00 1.0207879812028576e+01 -1 0 1
1938 1 8.6695460762030407e+00 2.9365962426548085e+00 9.2061515484691192e+00 1 -1 0
436 1 7.4093500096651805e+00 1.8954116684974084e-01 3.0771315840986531e+00 1 1 0
6454 1 2.4024667081883178e+00 5.1203186860100605e+00 1.0491910109279157e+01 -1 1 1
3506 1 1.1001941914195905e+00 7.3484671481672956e+00 9.1901927548923652e+00 2 1 0
210 1 4.8226329863144217e+00 4.9964124157412471e+00 9.5884463469396888e+00 1 0 0
603 1 6.0585110757335183e+00 7.3645875412561956e+00 1.0078704745377879e+01 0 0 1
2217 1 8.5954250696867387e+00 7.1130880159205496e+00 9.2051111635011189e+00 2 -1 0
5026 1 9.7608711969616540e+00 4.8617678007249410e+00 1.0220215649488450e+01 1 -2 1
1726 1 2.1633613951620236e+00 9.6825000218250761e+00 1.0066179350651957e+01 -1 0 1
3332 1 1.1626605312695786e+00 1.1807758365472242e+01 8.8985307997250143e+00 0 -4 0
3090 1 4.6380709360364811e+00 9.7098621917800347e+00 9.3335205743772125e+00 2 1 1
233 1 6.1186055368500609e+00 1.1779106856647397e+01 9.8685793565074942e+00 -2 -1 0
1599 1 9.8054445027296016e+00 9.5053290603818450e+00 1.0097296641828947e+01 0 0 1
3684 1 8.6960355745640321e+00 1.1595308608123474e+01 8.9125456225121180e+00 2 1 0
5410 1 2.4036095694839172e+00 1.4011141259606440e+01 1.0067795914175290e+01 1 -1 1
4888 1 1.0567483196597411e+00 1.6124724028006728e+01 9.2159357434006299e+00 3 -1 1
1806 1 6.1413883304724601e+00 1.6276588127702254e+01 1.0025115651914502e+01 1 -2 0
6438 1 4.9047257816571568e+00 1.3993105624053067e+01 8.8450265940974528e+00 -2 1 1
3042 1 9.9725908725848171e+00 1.3768079986645644e+01 9.9389267714450362e+00 1 -3 1
6377 1 8.7095537378725325e+00 1.6015688839615855e+01 8.9385091479929333e+00 1 1 1
3287 1 2.2188757430326218e+00 1.8324900352104713e+01 9.8992941969780208e+00 0 2 0
2289 1 4.7472575360054359e+00 1.8474970424488156e+01 8.9716053924003720e+00 -1 3 1
4743 1 8.5883665116704222e+00 2.0217650533491067e+01 8.9286252811565703e+00 1 -2 1
3302 1 1.0123458814256701e+01 1.8062279692244040e+01 9.8822077927851097e+00 1 2 0
3860 1 2.3033989569233193e+00 2.2599823080679219e+01 9.8984648334082568e+00 0 0 0
3913 1 8.4086897665700577e-01 2.0593718377146882e+01 8.8625768431253338e+00 1 0 0
6427 1 9.5348707800140424e+00 4.8454610008626819e-01 9.9177474026573105e+00 0 -1 0
3610 1 7.4889649074365652e+00 2.0283278585257347e-01 5.6656147223690372e+00 3 -2 0
1532 1 1.1079627599865974e+01 2.4457038161094687e+01 5.6952628303170707e+00 -1 0 1
5694 1 1.2084072971075788e+01 1.6527249542086095e-01 9.1246324464303168e+00 0 2 0
356 1 3.5663097386801162e-01 6.4310242338562917e-01 5.3393040317948088e+00 0 1 0
1954 1 4.1359832344575409e-02 3.2475805666749302e-01 2.6396033910962413e+00 0 2 0
2090 1 2.2943898456546430e+00 4.1448368900709909e-02 1.5724838431171573e+00 0 3 1
1992 1 1.3602262186282217e+00 3.0962362808436477e+00 1.4086578968471553e+01 1 -1 0
5615 1 1.1081152438701569e+01 6.6400838500509245e+00 2.3849050517631230e+01 -2 1 0
1826 1 6.1673810946426757e+00 2.8221799863596755e+00 1.3022529392263065e+01 1 1 0
5352 1 8.5982548725760211e+00 2.7279947529327822e+00 1.3904132985631712e+01 1 0 0
5653 1 3.4393465569319259e+00 1.6175821768398279e+01 2.3794704120392975e+01 1 -1 1
5569 1 1.3945953877028801e+00 7.6658317416691872e+00 1.4041924692318538e+01 2 -1 0
3184 1 2.5968391755625326e+00 5.4934256171439566e+00 1.3157908684848303e+01 0 -3 1
3488 1 4.9760383087762303e+00 5.1075600940626327e+00 1.4215554986530819e+01 1 0 0
1795 1 5.9630779473615219e+00 7.7041987308690949e+00 1.2878363242490030e+01 0 2 0
558 1 8.5813972294214285e+00 7.0175932049035978e+00 1.3810102031265421e+01 2 -1 1
5003 1 9.7234804687806573e+00 4.9574280552726808e+00 1.3027372071704651e+01 -1 0 1
3073 1 2.4264425375526031e+00 9.8370976852076470e+00 1.2709793560788659e+01 -3 0 1
3371 1 1.2006884701809102e+00 1.1895580170830277e+01 1.3832139355812462e+01 0 -1 1
6440 1 4.8875312888375460e+00 9.8028279438951653e+00 1.3887984929464636e+01 0 -1 1
1682 1 6.2885262487979690e+00 1.2052543816615680e+01 1.2885002410965821e+01 0 0 1
3629 1 8.7157130270049734e+00 1.1740800314632214e+01 1.3800314415555698e+01 0 1 0
5485 1 9.7709288339056375e+00 9.4719462131444754e+00 1.2831319486190520e+01 0 0 1
1875 1 2.1324537966066397e+00 1.3950649138843795e+01 1.2628382925764130e+01 2 0 0
2149 1 4.9384370068982850e+00 1.4083479102329868e+01 1.3617719089092525e+01 1 2 0
3956 1 6.8029512122679829e+00 9.6133178099973071e-02 2.3676812925753048e+01 -1 2 1
5458 1 8.6408302447336336e+00 1.5829301798543714e+01 1.3683750278917271e+01 0 0 0
3767 1 9.8326429950574372e+00 1.3820358643690740e+01 1.2634698746432695e+01 4 1 0
1991 1 9.5250469066744858e-01 1.5949565444796709e+01 1.3594879227230491e+01 -1 1 0
214 1 2.2768579491431118e+00 1.8384441060655906e+01 1.2854195532067077e+01 2 0 0
5427 1 4.6240110732009931e+00 1.8434306140249184e+01 1.3873626798472781e+01 2 0 0
1993 1 6.3280932935387879e+00 2.0668849725306295e+01 1.2811317875084688e+01 1 -1 0
4966 1 1.0001223949848784e+01 1.8106808355205974e+01 1.2786034924861003e+01 0 2 1
4725 1 8.5631720928291610e+00 2.0524573599541476e+01 1.3729283587301797e+01 -1 1 1
5369 1 1.0439536788602686e+00 2.0510422422244549e+01 1.4043792348083130e+01 3 3 0
6570 1 1.8837702190713494e+00 2.2993667394254356e+01 1.2678950167624821e+01 0 0 1
4965 1 4.6730531303042850e+00 2.2846887453582546e+01 1.3515108643294797e+01 1 2 1
5280 1 4.9078022833615984e+00 2.2896747678276441e+01 1.6470907790809264e+01 -2 2 1
3198 1 1.0193219123867721e+01 1.3873443841262873e+01 2.3802383599705522e+01 1 -1 1
408 1 9.6698079597427877e-01 2.9128519006209617e+00 1.6599547146991402e+01 -1 -1 1
5105 1 1.1004133379150458e+01 1.1338094356666751e+01 2.3726920411917945e+01 0 -2 0
2044 1 2.1866768714461182e+00 6.7902275539332857e-01 1.2777358558201321e+01 -1 0 0
5670 1 6.2156861142170490e+00 2.6579404444650079e+00 1.7559296236918854e+01 1 1 1
2059 1 6.0535175561261445e+00 2.3352986097597350e+00 2.0298947074729035e+01 0 2 0
3724 1 8.5609464205412191e+00 2.6693143753118314e+00 1.6531877102060843e+01 2 3 0
5388 1 3.8929936225957031e+00 2.1212976312486955e+01 2.1122279920407955e+01 1 2 0
5386 1 8.3476132693412386e-01 7.2263025996464538e+00 1.6727129152026798e+01 1 1 0
1928 1 2.2598894990326235e+00 5.0698285272604551e+00 1.7839107805076054e+01 0 1 0
4890 1 2.3752169038397786e+00 5.1380019987709504e+00 2.0501056420161557e+01 1 0 1
3847 1 5.0160728259877194e+00 5.0060904137244071e+00 1.6830790608118885e+01 -1 2 0
5390 1 5.9504715096741885e+00 7.2822650520554379e+00 1.7723471961259563e+01 1 2 0
4926 1 5.8995883090520032e+00 6.7847654180361525e+00 2.0379647654971240e+01 0 0 1
3761 1 8.4132282037352493e+00 6.9908503598667480e+00 1.6627390850092258e+01 1 -2 0
3737 1 9.5205720142661026e+00 4.8657275882619802e+00 1.7618015217099497e+01 1 0 0
3029 1 9.7142141104387711e+00 5.0461695364479597e+00 2.0153160476038096e+01 -1 -2 1
2265 1 1.0635557914239755e+00 1.1792155692790981e+01 1.6406084888554837e+01 0 2 0
3047 1 1.9306129445636750e+00 9.4725823220958372e+00 1.7384922925946519e+01 -1 1 1
3723 1 4.5244313457115313e+00 9.3401931443246404e+00 1.6668887838507239e+01 2 -1 0
5069 1 6.0644153948012613e+00 1.1537189080602641e+01 1.6913048181537015e+01 1 2 1
4859 1 8.9070515874153191e+00 1.1569322028655371e+01 1.6296260799839423e+01 1 0 1
6719 1 9.9561992659024927e+00 9.2560407007585894e+00 1.7301914512234958e+01 4 -1 1
3736 1 1.0060713284468255e+01 9.2976116867076861e+00 2.0055746216620719e+01 1 0 0
2140 1 1.3061009324376969e+00 1.6251621228372976e+01 1.6608623768815541e+01 -1 -1 1
5481 1 2.5536630461306156e+00 1.4013500653892672e+01 1.7438010243718878e+01 0 -2 0
3731 1 2.3018780455487864e+00 1.4189489454709747e+01 2.0115705319755875e+01 2 2 0
2000 1 5.0322008225849020e+00 1.3969096533512474e+01 1.6309166494723819e+01 2 -1 0
3474 1 6.2914370233519206e+00 1.6239280886870969e+01 1.7129571775024029e+01 -1 0 0
5120 1 9.0163827530368437e+00 1.6052341827470645e+01 1.6446012132335618e+01 -1 1 0
3599 1 1.0234222429736482e+01 1.3757080141129771e+01 1.7281987147011311e+01 0 0 0
371 1 2.4210172350659493e+00 1.8505866020364969e+01 1.7431642146134028e+01 2 1 0
216 1 2.3984876146489600e+00 1.8930054427193422e+01 2.0200729643615965e+01 0 -1 0
3843 1 4.9075029595802269e+00 1.8831340979181235e+01 1.6576372922074459e+01 3 -1 0
3844 1 8.7542970665577897e+00 2.0024668586526214e+01 1.6293736332654682e+01 0 -1 0
3274 1 1.0090524411564509e+01 1.8177418563596717e+01 1.7709617341071027e+01 0 -1 0
5154 1 1.1619465512669485e+00 2.0975595498069595e+01 1.6584793280470080e+01 2 -1 0
3524 1 2.4963932017672832e+00 2.2848696690583591e+01 1.7328965731268671e+01 0 0 0
3507 1 2.3785773490820148e+00 2.3047087214687917e+01 1.9888405643197832e+01 1 0 1
2159 1 6.3501846523902401e+00 2.0704525387291167e+01 1.7249085287511662e+01 1 0 0
50 1 6.4300511819113630e+00 2.0733901691246938e+01 2.0007759788227823e+01 0 -3 0
5429 1 1.0123216619300420e+01 2.2356623936464114e+01 1.7189280656885849e+01 2 -2 1
1468 1 1.0308860691853251e+01 2.2993214043067031e+01 2.0041601785324620e+01 -1 -1 1
1636 1 3.8521879324259776e+00 2.8480710985108013e+00 2.1580028549724702e+01 2 1 1
4925 1 1.8290206027856695e-01 5.8993162808914712e-01 2.1176182614750246e+01 0 0 1
1336 1 4.9305275346812705e+00 6.1632719807435055e-01 1.3885808362969817e+01 2 1 1
606 1 2.3734870654266635e+00 5.4398378718305729e-01 1.7210970948278749e+01 -1 0 1
2179 1 7.2633307722951841e+00 1.6490597550550413e-02 2.1136494105042690e+01 1 1 0
6435 1 7.4116519998609194e+00 2.3369554701921029e+01 2.3822063810242391e+01 0 0 1
5422 1 3.5058379293399149e+00 1.1611153290497670e+01 2.3801027359388829e+01 1 1 0
5479 1 1.0847008151432734e+01 2.6823821471618290e+00 2.0851756768295012e+01 1 0 0
5507 1 7.8681863322999579e+00 2.3061940960037301e+01 2.1053440888767923e+01 -1 -2 0
6672 1 1.1545997770575031e+01 2.0871375503109459e+01 2.0973757455772663e+01 -3 -2 0
5324 1 3.4403782810544179e+00 7.7053830354912769e+00 2.1100496475442039e+01 0 0 0
5462 1 1.1906767429137023e+01 2.1123812925313647e+01 2.3641707360573992e+01 1 1 0
4840 1 1.0034229967861382e+01 2.2492263556481721e+01 1.2712042215889321e+01 0 -2 1
3035 1 7.2044127169427057e+00 4.7675098367139261e+00 2.1005403934454073e+01 2 -1 1
5464 1 9.5351685360458589e+00 2.0250939687876574e-01 1.7392318949668425e+01 -1 -1 0
1362 1 1.1139178596775805e+01 6.9952835331497054e+00 2.1128549672523832e+01 5 0 1
5565 1 1.2191276139777623e+01 3.5021584316980353e-01 1.6618835902361695e+01 2 0 1
5533 1 9.7021690468909920e+00 5.4893079204767270e-01 1.2827310170177356e+01 -3 3 0
5395 1 1.8155889333919530e+00 9.9453854320577335e+00 2.0057117233803439e+01 2 -1 0
3457 1 3.3700702849762121e+00 1.1899610612992007e+01 2.1040568293171525e+01 0 -1 0
5192 1 6.0105716420182294e+00 1.1667805716623148e+01 2.0117316124046980e+01 0 -1 0
1635 1 9.8776619194304800e+00 1.9924918541005265e-01 2.0108844296784817e+01 -3 -1 0
5309 1 7.2648564818892352e+00 9.2355600578333839e+00 2.0854914982330236e+01 -3 2 0
304 1 1.1310535871889620e+01 1.1843669725836966e+01 2.1131242318567740e+01 -2 -1 0
1963 1 6.8318973702754340e+00 4.6506452554942852e+00 2.3783515451655894e+01 -2 1 0
3762 1 6.0104843798082630e+00 1.6170388082502409e+01 1.2870320995580771e+01 -2 1 0
6483 1 7.5553922350668596e+00 1.4362845554299444e+01 2.3591259323030208e+01 0 2 1
454 1 3.4648155687231701e+00 1.6441131049518770e+01 2.1046838811013220e+01 0 2 0
6366 1 6.7195633407215671e-01 5.0002274551466508e-01 2.3883231411943488e+01 2 0 1
148 1 6.0815838696530591e+00 1.6104246463238702e+01 1.9664525040769078e+01 1 -3 1
1958 1 7.6425427412917655e+00 1.8865021273794341e+01 2.3534442731401406e+01 0 0 0
6635 1 7.1002115289164545e+00 1.3903869717171395e+01 2.1030484292204793e+01 -1 -1 1
2124 1 3.0407654008356979e+00 2.1156279494264485e+01 2.3703994969033808e+01 3 4 0
1662 1 9.9302252342271178e+00 1.3985821769838051e+01 1.9969939098400950e+01 1 -1 0
3297 1 1.1162090380473598e+01 1.6048111121566606e+01 2.0787590435471827e+01 2 0 0
1949 1 4.8934453433280529e+00 2.0201960348441172e-01 1.6723259607366462e+01 0 0 0
3667 1 7.5342806573259837e+00 1.8408454755724897e+01 2.0766705395533567e+01 -1 1 0
6742 1 1.0292855457830679e+01 1.8510058436366943e+01 2.0626672755011612e+01 1 3 0
3688 1 1.1251353580438488e+01 1.6163367080404907e+01 2.3345118303129595e+01 0 -2 0
3635 1 7.3487448812460192e+00 9.4130437307528538e+00 2.3584484316565845e+01 3 0 0
4904 1 2.8068154451053351e+00 7.7170159270967820e-01 1.9979630488279319e+01 1 1 1
179 1 3.1411735918448844e+00 6.9446350359541462e+00 2.3878495059174004e+01 1 3 0
6636 1 1.0769276353610840e+01 2.1237352574119659e+00 2.3589742528749387e+01 0 -1 1
1942 1 1.2146055556090158e+01 3.9488064383413612e-01 1.3984635540741898e+01 1 2 0
1772 1 1.0332365584653196e+01 1.8740211742887183e+01 2.3829720421847878e+01 -1 0 1
6531 1 1.7406671745476701e+00 9.6493856784348928e+00 2.3559045058082720e+01 2 1 1
1346 1 1.2254963845975064e+01 4.7068114073909761e+00 1.3852851722441375e+01 0 1 1
379 1 1.2237687256998008e+01 4.6352600433438349e+00 1.6353012713498376e+01 -1 1 0
5660 1 1.0406790543593608e+01 2.3522883807082600e+01 2.3771895234953046e+01 0 1 1
3863 1 2.2266444595704971e+00 1.8569496558799145e+01 2.4053178378687001e+01 0 2 0
4845 1 1.2298232186335336e+00 4.9265429062513153e+00 2.4078442360369934e+01 0 -1 1
3867 1 6.0493144439147120e+00 2.1026267086428437e+01 2.4016132009955861e+01 2 0 0
623 2 0.0000000000000000e+00 2.8417180249513345e+00 2.6851857357875467e+01 0 0 0
625 2 0.0000000000000000e+00 0.0000000000000000e+00 2.6851857357875467e+01 0 0 0
627 2 1.2305000000000001e+00 7.1042950623783474e-01 2.6851857357875467e+01 0 0 0
634 2 1.2305000000000001e+00 2.1312885187134998e+00 2.6851857357875467e+01 0 0 0
636 2 2.4610000000000003e+00 2.8417180249513345e+00 2.6851857357875467e+01 0 0 0
638 2 2.4610000000000003e+00 0.0000000000000000e+00 2.6851857357875467e+01 0 0 0
640 2 3.6915000000000004e+00 7.1042950623783474e-01 2.6851857357875467e+01 0 0 0
655 2 3.6914999999999996e+00 2.1312885187134998e+00 2.6851857357875467e+01 0 0 0
657 2 4.9220000000000006e+00 2.8417180249513332e+00 2.6851857357875467e+01 0 0 0
659 2 4.9220000000000006e+00 0.0000000000000000e+00 2.6851857357875467e+01 0 0 0
661 2 6.1524999999999999e+00 7.1042950623783407e-01 2.6851857357875467e+01 0 0 0
684 2 6.1524999999999999e+00 2.1312885187134989e+00 2.6851857357875467e+01 0 0 0
686 2 7.3829999999999991e+00 2.8417180249513345e+00 2.6851857357875467e+01 0 0 0
688 2 7.3829999999999991e+00 0.0000000000000000e+00 2.6851857357875467e+01 0 0 0
690 2 8.6134999999999984e+00 7.1042950623783407e-01 2.6851857357875467e+01 0 0 0
721 2 8.6134999999999984e+00 2.1312885187135002e+00 2.6851857357875467e+01 0 0 0
723 2 9.8440000000000012e+00 2.8417180249513332e+00 2.6851857357875467e+01 0 0 0
725 2 9.8440000000000012e+00 0.0000000000000000e+00 2.6851857357875467e+01 0 0 0
727 2 1.1074500000000002e+01 7.1042950623783330e-01 2.6851857357875467e+01 0 0 0
766 2 1.1074500000000002e+01 2.1312885187135002e+00 2.6851857357875467e+01 0 0 0
628 2 0.0000000000000000e+00 7.1042950623783341e+00 2.6851857357875467e+01 0 0 0
630 2 0.0000000000000000e+00 4.2625770374269996e+00 2.6851857357875467e+01 0 0 0
632 2 1.2305000000000001e+00 4.9730065436648339e+00 2.6851857357875467e+01 0 0 0
647 2 1.2305000000000001e+00 6.3938655561404980e+00 2.6851857357875467e+01 0 0 0
649 2 2.4610000000000003e+00 7.1042950623783341e+00 2.6851857357875467e+01 0 0 0
651 2 2.4610000000000003e+00 4.2625770374269996e+00 2.6851857357875467e+01 0 0 0
653 2 3.6914999999999996e+00 4.9730065436648339e+00 2.6851857357875467e+01 0 0 0
676 2 3.6914999999999996e+00 6.3938655561404980e+00 2.6851857357875467e+01 0 0 0
1969 1 9.9123602353324376e+00 9.0137333754572353e+00 2.4116637727484218e+01 -1 1 0
678 2 4.9220000000000006e+00 7.1042950623783341e+00 2.6851857357875467e+01 0 0 0
680 2 4.9220000000000006e+00 4.2625770374269978e+00 2.6851857357875467e+01 0 0 0
682 2 6.1524999999999999e+00 4.9730065436648339e+00 2.6851857357875467e+01 0 0 0
713 2 6.1524999999999999e+00 6.3938655561404980e+00 2.6851857357875467e+01 0 0 0
715 2 7.3830000000000009e+00 7.1042950623783341e+00 2.6851857357875467e+01 0 0 0
717 2 7.3829999999999991e+00 4.2625770374269996e+00 2.6851857357875467e+01 0 0 0
719 2 8.6135000000000002e+00 4.9730065436648339e+00 2.6851857357875467e+01 0 0 0
758 2 8.6135000000000002e+00 6.3938655561404980e+00 2.6851857357875467e+01 0 0 0
760 2 9.8440000000000012e+00 7.1042950623783341e+00 2.6851857357875467e+01 0 0 0
762 2 9.8440000000000012e+00 4.2625770374270004e+00 2.6851857357875467e+01 0 0 0
764 2 1.1074500000000002e+01 4.9730065436648339e+00 2.6851857357875467e+01 0 0 0
805 2 1.1074500000000002e+01 6.3938655561404980e+00 2.6851857357875467e+01 0 0 0
3842 1 2.5449575136121245e+00 2.5469304664807502e+00 2.4148161795369944e+01 2 -3 0
641 2 0.0000000000000000e+00 1.1366872099805333e+01 2.6851857357875467e+01 0 0 0
643 2 0.0000000000000000e+00 8.5251540748539991e+00 2.6851857357875467e+01 0 0 0
645 2 1.2305000000000001e+00 9.2355835810918343e+00 2.6851857357875467e+01 0 0 0
668 2 1.2305000000000001e+00 1.0656442593567498e+01 2.6851857357875467e+01 0 0 0
670 2 2.4610000000000003e+00 1.1366872099805333e+01 2.6851857357875467e+01 0 0 0
672 2 2.4610000000000003e+00 8.5251540748539991e+00 2.6851857357875467e+01 0 0 0
674 2 3.6915000000000004e+00 9.2355835810918343e+00 2.6851857357875467e+01 0 0 0
705 2 3.6914999999999996e+00 1.0656442593567499e+01 2.6851857357875467e+01 0 0 0
10 1 5.6557957283170346e+00 2.3623603302548131e+00 2.4369994607756773e+01 -1 2 1
707 2 4.9220000000000006e+00 1.1366872099805333e+01 2.6851857357875467e+01 0 0 0
709 2 4.9220000000000006e+00 8.5251540748539991e+00 2.6851857357875467e+01 0 0 0
711 2 6.1524999999999999e+00 9.2355835810918343e+00 2.6851857357875467e+01 0 0 0
750 2 6.1524999999999999e+00 1.0656442593567499e+01 2.6851857357875467e+01 0 0 0
752 2 7.3829999999999991e+00 1.1366872099805333e+01 2.6851857357875467e+01 0 0 0
754 2 7.3830000000000009e+00 8.5251540748539991e+00 2.6851857357875467e+01 0 0 0
3131 1 5.9954461044302887e+00 1.5943320745462929e+01 3.5428989842281197e+01 0 2 0
756 2 8.6134999999999984e+00 9.2355835810918343e+00 2.6851857357875467e+01 0 0 0
797 2 8.6134999999999984e+00 1.0656442593567498e+01 2.6851857357875467e+01 0 0 0
799 2 9.8440000000000012e+00 1.1366872099805333e+01 2.6851857357875467e+01 0 0 0
801 2 9.8440000000000012e+00 8.5251540748539956e+00 2.6851857357875467e+01 0 0 0
803 2 1.1074500000000002e+01 9.2355835810918343e+00 2.6851857357875467e+01 0 0 0
844 2 1.1074500000000002e+01 1.0656442593567498e+01 2.6851857357875467e+01 0 0 0
846 2 1.2304999999999998e+01 1.1366872099805333e+01 2.6851857357875467e+01 0 0 0
394 1 6.2327585337291236e+00 1.6692943448782742e+01 2.4371516845587404e+01 0 3 0
662 2 0.0000000000000000e+00 1.5629449137232333e+01 2.6851857357875467e+01 0 0 0
664 2 0.0000000000000000e+00 1.2787731112280996e+01 2.6851857357875467e+01 0 0 0
666 2 1.2305000000000001e+00 1.3498160618518829e+01 2.6851857357875467e+01 0 0 0
697 2 1.2305000000000001e+00 1.4919019630994494e+01 2.6851857357875467e+01 0 0 0
699 2 2.4610000000000003e+00 1.5629449137232328e+01 2.6851857357875467e+01 0 0 0
701 2 2.4610000000000003e+00 1.2787731112280996e+01 2.6851857357875467e+01 0 0 0
703 2 3.6915000000000004e+00 1.3498160618518829e+01 2.6851857357875467e+01 0 0 0
742 2 3.6915000000000004e+00 1.4919019630994494e+01 2.6851857357875467e+01 0 0 0
744 2 4.9220000000000006e+00 1.5629449137232333e+01 2.6851857357875467e+01 0 0 0
746 2 4.9220000000000006e+00 1.2787731112280996e+01 2.6851857357875467e+01 0 0 0
748 2 6.1524999999999990e+00 1.3498160618518829e+01 2.6851857357875467e+01 0 0 0
789 2 6.1524999999999990e+00 1.4919019630994494e+01 2.6851857357875467e+01 0 0 0
791 2 7.3829999999999991e+00 1.5629449137232333e+01 2.6851857357875467e+01 0 0 0
793 2 7.3829999999999991e+00 1.2787731112280996e+01 2.6851857357875467e+01 0 0 0
3624 1 9.4526500971511922e+00 4.5730477458567780e+00 2.4271331762819038e+01 1 0 0
795 2 8.6135000000000002e+00 1.3498160618518835e+01 2.6851857357875467e+01 0 0 0
836 2 8.6135000000000002e+00 1.4919019630994494e+01 2.6851857357875467e+01 0 0 0
838 2 9.8440000000000012e+00 1.5629449137232328e+01 2.6851857357875467e+01 0 0 0
840 2 9.8440000000000012e+00 1.2787731112280996e+01 2.6851857357875467e+01 0 0 0
842 2 1.1074500000000002e+01 1.3498160618518829e+01 2.6851857357875467e+01 0 0 0
878 2 1.1074500000000002e+01 1.4919019630994494e+01 2.6851857357875467e+01 0 0 0
1334 1 9.4041827603227777e+00 9.3140198232747675e+00 3.5584133424146131e+01 -2 -1 0
691 2 0.0000000000000000e+00 1.9892026174659328e+01 2.6851857357875467e+01 0 0 0
693 2 0.0000000000000000e+00 1.7050308149707998e+01 2.6851857357875467e+01 0 0 0
695 2 1.2305000000000001e+00 1.7760737655945832e+01 2.6851857357875467e+01 0 0 0
734 2 1.2305000000000001e+00 1.9181596668421495e+01 2.6851857357875467e+01 0 0 0
736 2 2.4610000000000003e+00 1.9892026174659328e+01 2.6851857357875467e+01 0 0 0
738 2 2.4610000000000003e+00 1.7050308149707998e+01 2.6851857357875467e+01 0 0 0
740 2 3.6914999999999996e+00 1.7760737655945832e+01 2.6851857357875467e+01 0 0 0
781 2 3.6914999999999996e+00 1.9181596668421495e+01 2.6851857357875467e+01 0 0 0
1556 1 2.2913457308372536e+00 1.7934251573652794e+01 3.5453666618567063e+01 4 3 0
783 2 4.9220000000000006e+00 1.9892026174659328e+01 2.6851857357875467e+01 0 0 0
785 2 4.9220000000000006e+00 1.7050308149707998e+01 2.6851857357875467e+01 0 0 0
787 2 6.1524999999999999e+00 1.7760737655945832e+01 2.6851857357875467e+01 0 0 0
828 2 6.1524999999999999e+00 1.9181596668421495e+01 2.6851857357875467e+01 0 0 0
830 2 7.3829999999999991e+00 1.9892026174659328e+01 2.6851857357875467e+01 0 0 0
832 2 7.3830000000000009e+00 1.7050308149707998e+01 2.6851857357875467e+01 0 0 0
834 2 8.6134999999999984e+00 1.7760737655945832e+01 2.6851857357875467e+01 0 0 0
870 2 8.6135000000000002e+00 1.9181596668421495e+01 2.6851857357875467e+01 0 0 0
872 2 9.8440000000000012e+00 1.9892026174659335e+01 2.6851857357875467e+01 0 0 0
874 2 9.8440000000000012e+00 1.7050308149707998e+01 2.6851857357875467e+01 0 0 0
876 2 1.1074500000000002e+01 1.7760737655945835e+01 2.6851857357875467e+01 0 0 0
904 2 1.1074500000000002e+01 1.9181596668421495e+01 2.6851857357875467e+01 0 0 0
908 2 1.2304999999999998e+01 1.7050308149707998e+01 2.6851857357875467e+01 0 0 0
73 1 2.5499949802219968e+00 2.3417585340903141e+01 2.4296068490335923e+01 -1 1 0
1094 2 9.8440000000000012e+00 2.1312885187134999e+01 3.3210142642103065e+01 0 0 0
728 2 0.0000000000000000e+00 2.4154603212086325e+01 2.6851857357875467e+01 0 0 0
730 2 0.0000000000000000e+00 2.1312885187134999e+01 2.6851857357875467e+01 0 0 0
732 2 1.2304999999999993e+00 2.2023314693372832e+01 2.6851857357875467e+01 0 0 0
773 2 1.2304999999999993e+00 2.3444173705848499e+01 2.6851857357875467e+01 0 0 0
775 2 2.4610000000000003e+00 2.4154603212086325e+01 2.6851857357875467e+01 0 0 0
777 2 2.4610000000000003e+00 2.1312885187134995e+01 2.6851857357875467e+01 0 0 0
779 2 3.6914999999999996e+00 2.2023314693372832e+01 2.6851857357875467e+01 0 0 0
820 2 3.6915000000000004e+00 2.3444173705848499e+01 2.6851857357875467e+01 0 0 0
1057 2 6.1524999999999990e+00 2.2023314693372832e+01 3.3210142642103065e+01 0 0 0
822 2 4.9220000000000006e+00 2.4154603212086325e+01 2.6851857357875467e+01 0 0 0
824 2 4.9220000000000006e+00 2.1312885187134995e+01 2.6851857357875467e+01 0 0 0
826 2 6.1524999999999990e+00 2.2023314693372832e+01 2.6851857357875467e+01 0 0 0
862 2 6.1524999999999999e+00 2.3444173705848499e+01 2.6851857357875467e+01 0 0 0
864 2 7.3830000000000009e+00 2.4154603212086336e+01 2.6851857357875467e+01 0 0 0
866 2 7.3829999999999991e+00 2.1312885187134999e+01 2.6851857357875467e+01 0 0 0
868 2 8.6135000000000002e+00 2.2023314693372832e+01 2.6851857357875467e+01 0 0 0
896 2 8.6134999999999984e+00 2.3444173705848499e+01 2.6851857357875467e+01 0 0 0
898 2 9.8440000000000012e+00 2.4154603212086336e+01 2.6851857357875467e+01 0 0 0
900 2 9.8440000000000012e+00 2.1312885187134999e+01 2.6851857357875467e+01 0 0 0
902 2 1.1074500000000002e+01 2.2023314693372832e+01 2.6851857357875467e+01 0 0 0