
# Create simulation box and atoms

read_data data.graphite_substrate_1000
  orthogonal box = (0 0 -1.03859) to (49.22 49.0196 61.1006)
  3 by 2 by 5 MPI processor grid
  reading atoms ...
  6768 atoms
  reading velocities ...
  6768 velocities
group water type 1
4008 atoms in group water
group graphite type 2
2760 atoms in group graphite

# Define potential

pair_style sw
pair_coeff * * mWC.sw mW C
Reading potential file mWC.sw with DATE: 2019-02-27


# Fix graphite atoms in place

fix 5 graphite setforce 0.0 0.0 0.0
velocity graphite set 0.0 0.0 0.0


# Equilibration of molecular water

# Add velocity/set timestep

velocity	    water create ${TEMP} ${SEED} rot yes dist gaussian
velocity	    water create 225 ${SEED} rot yes dist gaussian
velocity	    water create 225 26751 rot yes dist gaussian
timestep	    5.0

# Define output

compute			1 water msd
compute			3 water temp
thermo	    	50
thermo_style	custom step temp press vol etotal ke pe c_1[4] c_3

# Neighbor lists

neigh_modify    delay 0 every 1 check yes

# Set fixes

fix             1 water momentum 10 linear 1 1 1 rescale
fix             2 water nve
fix             3 water temp/csvr ${TEMP} ${TEMP} 500.0 ${SEED}
fix             3 water temp/csvr 225 ${TEMP} 500.0 ${SEED}
fix             3 water temp/csvr 225 225 500.0 ${SEED}
fix             3 water temp/csvr 225 225 500.0 26751
fix             4 water press/berendsen iso ${PRES} ${PRES} 1000.0 modulus 20000
fix             4 water press/berendsen iso -1000 ${PRES} 1000.0 modulus 20000
fix             4 water press/berendsen iso -1000 -1000 1000.0 modulus 20000

# Run 0.5 ns equilibration

dump		    1 all atom 2000 ${DIR}/eq.${NAME}-${TEMP}.dump
dump		    1 all atom 2000 run_9/eq.${NAME}-${TEMP}.dump
dump		    1 all atom 2000 run_9/eq.het_freeze_9-${TEMP}.dump
dump		    1 all atom 2000 run_9/eq.het_freeze_9-225.dump

reset_timestep  0

run	            100000
Neighbor list info ...
  update every 1 steps, delay 0 steps, check yes
  max neighbors/atom: 2000, page size: 100000
  master list distance cutoff = 7.76
  ghost atom cutoff = 7.76
  binsize = 3.88, bins = 13 13 17
  1 neighbor lists, perpetual/occasional/extra = 1 0 0
  (1) pair sw, perpetual
      attributes: full, newton on
      pair build: full/bin/atomonly
      stencil: full/bin/3d
      bin: standard
Per MPI rank memory allocation (min/avg/max) = 4.121 | 4.236 | 4.566 Mbytes
Step Temp Press Volume TotEng KinEng PotEng c_1[4] c_3 
       0    133.23112   -1309.3276    149926.08   -35971.017    2687.4238   -38658.441            0          225 
      50    175.08719   -1577.4531    148874.53    -36380.37    3531.7086   -39912.078    0.8591315    295.68631 
     100    167.32955   -1334.7773    147903.72   -36825.137    3375.2281   -40200.366     1.977466    282.58524 
     150    161.50811   -1454.0546    147225.92   -37181.248     3257.803   -40439.051    2.8821153    272.75403 
     200    163.68544    -1646.548    146305.71   -37452.685    3301.7221   -40754.407    3.7225253    276.43108 
     250     154.2224    -1020.336    145862.74   -37734.052    3110.8419   -40844.893    4.4590084    260.44996 
     300    151.05078   -1376.8575    145518.16     -37902.4    3046.8668   -40949.267    5.0692878    255.09375 
     350    149.81275   -1062.2912    145068.41   -38121.436    3021.8942    -41143.33    5.6335689    253.00297 
     400     148.2776   -1066.7263    144975.15     -38275.5    2990.9284   -41266.429    6.1662735     250.4104 
     450    146.37055   -1010.3429    144721.99    -38442.92     2952.461   -41395.381    6.7478805    247.18979 
     500    145.71789   -1149.8434    144545.63   -38559.448    2939.2962   -41498.744    7.3663386    246.08759 
     550    140.97624   -1053.8641    144309.27   -38652.196    2843.6517   -41495.848    7.9116892    238.07991 
     600    142.40418   -1040.2043    144120.44   -38686.649    2872.4549   -41559.104    8.3916341    240.49142 
     650    140.81334   -1127.9682    144102.06   -38792.326    2840.3658   -41632.692    8.7546691    237.80481 
     700    141.45613   -1104.9275    143987.56   -38824.913    2853.3316   -41678.244    9.2121087    238.89035 
     750    139.91575   -1102.2921     143718.4    -38949.25    2822.2604    -41771.51    9.7270606    236.28896 
     800    136.45037    -1137.566    143620.94   -39018.905    2752.3598   -41771.264    10.147568    230.43666 
     850     137.7314   -1187.4432    143324.45   -39097.603    2778.1995   -41875.802    10.532766    232.60004 
     900    138.24166    -931.9449    143182.06   -39138.598    2788.4921    -41927.09    10.896836    233.46177 
     950    139.70327   -1015.6068    143268.99   -39141.188    2817.9744   -41959.163    11.168225    235.93013 
    1000    138.47298    -1154.471    143221.48   -39169.115    2793.1581   -41962.274    11.457854    233.85243 
    1050    141.29599   -784.93554    143353.45   -39164.888    2850.1014   -42014.989    11.669077     238.6199 
    1100    136.58341   -813.38402    143503.18   -39267.065    2755.0434   -42022.108    11.923214    230.66133 
    1150    135.62201   -921.84443    143690.23   -39328.643    2735.6508   -42064.294    12.222547    229.03772 
    1200     135.2341   -1194.8132    143561.29   -39351.831    2727.8262   -42079.657    12.515755    228.38262 
    1250    135.83549   -907.85859     143510.1   -39364.716    2739.9569   -42104.673    12.772515    229.39824 
    1300    137.55161   -1052.0286    143552.99   -39390.554    2774.5729   -42165.127    13.002235    232.29641 
    1350    135.63414   -1165.2395    143540.36   -39407.579    2735.8954   -42143.474    13.202746     229.0582 
    1400    133.79279   -1055.0842    143479.27   -39431.207    2698.7533   -42129.961    13.673561    225.94854 
    1450    133.49045   -981.24369    143636.74   -39455.223    2692.6548   -42147.878    13.867319    225.43796 
    1500    137.85955   -920.76498    143604.95   -39435.957    2780.7845   -42216.742    14.165684    232.81646 
    1550    134.54465   -959.71331    143673.22   -39403.509    2713.9191   -42117.428    14.420579    227.21827 
    1600    136.58556   -945.57572    143799.43   -39488.665    2755.0867   -42243.752    14.665622    230.66496 
    1650    135.40803   -1006.4329    143793.65   -39487.069    2731.3345   -42218.403    14.887116    228.67634 
    1700    134.31484   -962.93408    143786.54   -39510.413    2709.2836   -42219.697    15.110978    226.83017 
    1750    136.63595   -902.04869    143757.67   -39494.544    2756.1032   -42250.647    15.316327    230.75006 
    1800    134.92573   -955.96797    143834.83   -39532.826    2721.6061   -42254.432    15.491998    227.86185 
    1850    135.18606   -1171.7156    143772.07   -39522.616    2726.8571   -42249.474      15.6358    228.30148 
    1900    133.98085   -879.51209    143734.12   -39501.684    2702.5467   -42204.231    15.901096    226.26614 
    1950    133.40255   -971.36904    143763.56   -39558.672    2690.8818   -42249.553    16.237883    225.28951 
    2000    137.24337   -944.18412    143810.43    -39537.16    2768.3554   -42305.515    16.408703    231.77586 
    2050    134.40829   -1016.7559    143897.89   -39539.095    2711.1687   -42250.263    16.502899      226.988 
    2100    134.28236   -931.96375       143901   -39552.919    2708.6285   -42261.548     16.71294    226.77532 
    2150    134.10812   -916.14265    143926.92   -39599.317    2705.1139   -42304.431    16.959505    226.48107 
    2200    133.66534   -948.34905    144215.15     -39587.6    2696.1826   -42283.783    17.053869    225.73331 
    2250    132.93828   -912.29681    144223.67   -39539.644    2681.5168   -42221.161    17.380826    224.50545 
    2300    136.44765   -1157.4762     144200.7   -39540.717    2752.3048   -42293.022    17.540418    230.43205 
    2350    135.47818    -1156.144    144145.14   -39555.424    2732.7496   -42288.174    17.797331    228.79482 
    2400    134.82835   -979.29803     144126.5   -39534.637    2719.6417   -42254.279    18.007879    227.69739 
    2450     134.0081   -898.53565    144109.77     -39523.8    2703.0963   -42226.896    18.174905    226.31215 
    2500    134.08781   -960.17687    144166.49   -39517.805    2704.7042   -42222.509    18.255583    226.44677 
    2550     134.2913    -908.6808    144251.23   -39573.999    2708.8089   -42282.808    18.494719    226.79043 
    2600    135.12615   -1038.0558     144341.9   -39606.373    2725.6488   -42332.022    18.658322    228.20032 
    2650    136.80166   -893.40506    144297.76   -39577.023    2759.4457   -42336.469    18.881464    231.02991 
    2700    133.66328   -955.45459     144391.6   -39583.925    2696.1409   -42280.066    19.000697    225.72983 
    2750    133.20784   -1130.7303    144249.75   -39641.807    2686.9543   -42328.762    19.305871    224.96069 
    2800    133.55355   -1020.3957    144177.75   -39681.939    2693.9275   -42375.866    19.512784    225.54451 
    2850    129.86199   -1070.6989     144099.1   -39733.724    2619.4647   -42353.189    19.880645    219.31024 
    2900    131.16475   -1011.8776    143951.14   -39742.785    2645.7427   -42388.528    20.016799    221.51032 
    2950     133.2798   -986.05912    143958.82   -39789.161    2688.4057   -42477.566    20.126751    225.08221 
    3000    133.63801   -1009.9418    144093.98   -39783.169    2695.6312     -42478.8    20.323421    225.68715 
    3050    131.38724   -1033.4348    144115.91    -39782.91    2650.2306    -42433.14    20.619658    221.88606 
    3100    134.48704   -951.81612    144135.64   -39779.705    2712.7571   -42492.462    20.673752    227.12098 
    3150    134.99839   -1034.2083    144252.78    -39778.79    2723.0716   -42501.861    20.868794    227.98455 
    3200    135.25007    -952.3026    144259.05   -39794.202    2728.1484   -42522.351    21.049354     228.4096 
    3250    133.68686   -1003.6938    144260.05   -39760.817    2696.6166   -42457.434     21.10894    225.76965 
    3300    133.29035   -1012.8484    144131.17    -39762.76    2688.6186   -42451.379    21.430581    225.10003 
    3350    135.70184   -1014.2815    144159.04   -39761.824    2737.2611   -42499.085    21.617954    229.17254 
    3400    134.29851   -892.34239    144267.14   -39779.474    2708.9543   -42488.428    21.756854     226.8026 
    3450    136.90474   -1087.4389    144460.13   -39783.469     2761.525   -42544.994    21.906023    231.20399 
    3500    135.93028    -950.2504    144557.71   -39809.923    2741.8689   -42551.791    21.977496    229.55832 
    3550    135.33556   -1053.6703    144366.35   -39791.206    2729.8727   -42521.079     22.08306    228.55396 
    3600    132.85738   -904.43048    144521.83   -39806.185    2679.8851    -42486.07    22.191626    224.36883 
    3650    133.44816    -1005.337    144725.27   -39844.957    2691.8018   -42536.759    22.387521    225.36654 
    3700    132.80363   -911.10188     144798.2    -39847.09    2678.8008   -42525.891    22.658008    224.27805 
    3750    130.87419   -1044.5581    144838.65   -39885.175    2639.8819   -42525.057    22.896749    221.01963 
    3800     130.9134   -932.42955     144855.2   -39855.695    2640.6727   -42496.367    22.987662    221.08584 
    3850    132.09074   -949.10095    144824.35   -39884.057     2664.421   -42548.478    23.104868    223.07413 
    3900    132.36857   -1055.8411    144834.87    -39907.17    2670.0251   -42577.195    23.103638    223.54332 
    3950    131.80036   -1077.5472    144658.25   -39917.977    2658.5638    -42576.54    23.323194    222.58374 
    4000    132.56621   -1032.8751    144634.52   -39877.583    2674.0118   -42551.595    23.497714     223.8771 
    4050    133.13504   -768.97559    144679.37   -39838.958    2685.4856   -42524.444    23.573627    224.83773 
    4100    133.71893   -906.14486    144828.28   -39834.993    2697.2634   -42532.256    23.751326     225.8238 
    4150    134.44397   -968.16591    144836.68   -39777.172    2711.8884    -42489.06    23.843171    227.04826 
    4200    132.43773    -1015.871    144896.35   -39844.262    2671.4202   -42515.682    23.982822    223.66013 
    4250    132.30999    -961.9228     144778.5   -39846.874    2668.8435   -42515.717    24.192364     223.4444 
    4300    131.60858   -1077.1916    144771.74    -39816.32    2654.6953   -42471.016    24.458005    222.25986 
    4350    132.87749   -1244.5371    144580.85   -39834.749    2680.2906   -42515.039    24.686183    224.40278 
    4400    133.13101   -1080.0437    144501.33   -39808.424    2685.4045   -42493.828    24.953782    224.83093 
    4450    133.61413   -897.39132     144328.9    -39779.03    2695.1495   -42474.179    25.011657    225.64682 
    4500    133.28924   -1021.5144    144280.81   -39784.254     2688.596    -42472.85    25.235283    225.09814 
    4550    134.32296   -888.48569    144269.45     -39756.9    2709.4474   -42466.347    25.536778    226.84389 
    4600    131.78285   -995.25398     144368.9   -39750.883    2658.2105   -42409.093    25.729479    222.55417 
    4650    134.97507    -888.3485    144282.72   -39719.354    2722.6013   -42441.956    25.828771    227.94518 
    4700    134.35407   -1050.3886    144377.38    -39735.09     2710.075   -42445.165     25.97423    226.89643 
    4750     133.9412   -735.64798    144486.55   -39708.172    2701.7469   -42409.919    26.215536    226.19917 
    4800    135.69824    -1121.221    144542.14   -39674.644    2737.1883   -42411.833    26.413246    229.16645 
    4850    136.46058   -997.46625    144460.52    -39713.23    2752.5658   -42465.796    26.621423     230.4539 
    4900      132.979   -1027.2064    144397.67   -39718.589    2682.3383   -42400.928    26.900972    224.57423 
    4950    130.80618   -876.68063    144385.84   -39811.954      2638.51   -42450.464    26.948848    220.90478 
    5000    133.87253   -915.29012     144389.2    -39780.86    2700.3618   -42481.222    27.046864    226.08321 
    5050     135.6851   -1063.5153    144416.21    -39748.86    2736.9234   -42485.783    27.200638    229.14427 
    5100    135.56889   -1086.5148    144445.43   -39757.265    2734.5792   -42491.844    27.495382    228.94801 
    5150    133.17968   -1055.2569    144326.29   -39814.567    2686.3861   -42500.953    27.646383    224.91312 
    5200    134.28539   -963.51339    144408.15   -39771.958    2708.6896   -42480.647    27.815228    226.78044 
    5250    134.25472   -1017.6079    144380.64   -39764.542    2708.0709   -42472.613    27.826055    226.72864 
    5300    134.78897   -935.17568    144364.59   -39764.831    2718.8475   -42483.678     27.98431    227.63089 
    5350    135.25206   -843.44958    144476.23    -39757.59    2728.1885   -42485.779    28.120228    228.41295 
    5400    131.10261   -1058.5437     144388.7   -39786.852    2644.4893   -42431.341    28.345119    221.40538 
    5450    132.73438   -1093.0935    144413.27   -39757.094     2677.404   -42434.498    28.409973    224.16111 
    5500     133.8612   -925.97194     144446.5   -39736.732    2700.1332   -42436.865    28.573243    226.06407 
    5550    136.98002   -1039.6448    144509.88   -39785.457    2763.0433     -42548.5    28.754431    231.33112 
    5600    137.36546   -998.15815    144414.21   -39800.553    2770.8181   -42571.371     28.84774    231.98204 
    5650     134.4432   -1040.3756     144385.3   -39802.611    2711.8728   -42514.484    29.004542    227.04695 
    5700     134.4821   -1144.1049     144399.3   -39827.953    2712.6576   -42540.611    29.167774    227.11265 
    5750    131.08259   -827.52915     144517.3   -39845.791    2644.0854   -42489.876    29.393388    221.37157 
    5800    131.55561   -1034.0515    144509.02   -39901.016    2653.6268   -42554.643    29.498075     222.1704 
    5850    130.84337   -899.36986    144693.84   -39924.241    2639.2602   -42563.501    29.521751    220.96758 
    5900    130.52507   -1047.0413    144684.13   -39948.878    2632.8397   -42581.718    29.792837    220.43004 
    5950    131.81607   -1032.7088    144752.67    -39975.81    2658.8805   -42634.691    29.953502    222.61026 
    6000    131.52918   -1046.3203    144612.68    -39955.89    2653.0937   -42608.983    30.121354    222.12577 
    6050     130.7206   -1193.3341       144503   -39944.181    2636.7838   -42580.964    30.379373    220.76025 
    6100    132.07911   -1185.1708    144443.84   -39960.884    2664.1864    -42625.07    30.545084    223.05449 
    6150    131.19684   -1127.2393    144359.08   -39920.305      2646.39   -42566.695    30.774842    221.56452 
    6200    134.97567   -898.12537    144694.28   -39873.888    2722.6133   -42596.502    30.851735    227.94618 
    6250    130.32763   -940.05351    144724.74   -39888.169    2628.8571   -42517.026    30.900385     220.0966 
    6300    132.53411    -827.0346    144817.29   -39874.355    2673.3642    -42547.72    31.037601    223.82288 
    6350    131.80423   -859.79388    144963.66   -39856.546    2658.6418   -42515.187    31.063162    222.59028 
    6400    133.51793   -1078.8316    145112.24   -39815.549    2693.2091   -42508.758    31.299997    225.48436 
    6450    135.50535   -1078.7848    144947.53    -39820.08    2733.2977   -42553.378    31.442937    228.84071 
    6500    133.72801    -1063.181    144833.35   -39892.386    2697.4466   -42589.833    31.535114    225.83914 
    6550    132.56547   -886.39589    144839.49   -39921.137    2673.9968   -42595.134    31.721194    223.87584 
    6600    131.99004   -801.58107    144930.72   -39920.743    2662.3897   -42583.133    31.850113    222.90406 
    6650    132.88239   -1072.5295    144853.48   -39930.369    2680.3895   -42610.759    31.948945    224.41107 
    6700    130.85499   -1053.3921    144801.88    -39914.65    2639.4945   -42554.145    32.029782     220.9872 
    6750    132.10763   -902.73208    144839.82     -39887.9    2664.7617   -42552.662    32.186926    223.10265 
    6800    133.12435   -916.13886    144819.76    -39800.88    2685.2702   -42486.151    32.387679    224.81969 
    6850    131.83375    -821.5053    144756.85   -39828.942    2659.2373   -42488.179    32.540032    222.64013 
    6900    133.55162   -915.97896    144906.82   -39861.423    2693.8886   -42555.311    32.700713    225.54125 
    6950    133.08607     -936.839    145088.55   -39824.718    2684.4979   -42509.216    32.851762    224.75503 
    7000    130.30296   -899.80369    145111.19   -39864.308    2628.3594   -42492.668    33.041135    220.05493 
    7050    128.87755   -1160.4615    145059.38   -39861.348    2599.6074   -42460.956    33.037426    217.64772 
    7100    134.68798    -1077.425    144924.16   -39785.731    2716.8102   -42502.541     33.07682    227.46033 
    7150    128.79028   -1022.0238    144844.48    -39885.15    2597.8471   -42482.997    33.129311    217.50034 
    7200    133.46019   -1107.1743    144755.67   -39882.761    2692.0444   -42574.806    33.118584    225.38685 
    7250    134.72658    -1016.976    144716.73   -39906.207     2717.589   -42623.796    33.142085    227.52553 
    7300     131.3439   -1016.3974    144586.98    -39926.15    2649.3565   -42575.507    33.308245    221.81288 
    7350    130.80188    -862.9476    144752.63   -39929.614    2638.4233   -42568.037    33.431239    220.89751 
    7400    128.90795   -1116.3595    144774.73   -39949.687    2600.2206   -42549.907     33.77011    217.69906 
    7450    133.57738   -1081.2094    144712.47   -39926.377    2694.4082   -42620.785     33.95823    225.58476 
    7500    131.89118   -1039.9292    144766.19   -39923.034    2660.3957    -42583.43    34.160991    222.73712 
    7550    133.74519   -903.61167    144743.63   -39848.987    2697.7931    -42546.78    34.432802    225.86815 
    7600    135.87936   -942.31241     144722.8   -39781.597    2740.8418   -42522.439    34.743385    229.47233 
    7650    134.52559    -1047.642    144814.64   -39843.319    2713.5347   -42556.854    34.803062    227.18609 
    7700    132.87378   -993.05341    144747.04   -39879.965    2680.2159   -42560.181    34.900445    224.39653 
    7750    130.24698   -994.75855    144771.87   -39932.663    2627.2303   -42559.893    34.937141     219.9604 
    7800    132.01025    -1123.458    144647.92    -39951.56    2662.7974   -42614.357    35.005438    222.93819 
    7850    134.65168   -1085.6684    144753.74   -39914.657    2716.0782   -42630.735    35.149625    227.39904 
    7900    133.21935    -932.4875       144765   -39971.952    2687.1863   -42659.139    35.428762    224.98011 
    7950    132.35342   -1061.6825    144783.36   -40027.312    2669.7196   -42697.031    35.546293    223.51775 
    8000    131.07432    -1017.113    144732.18     -40027.6    2643.9187   -42671.519    35.679059    221.35761 
    8050    131.11039   -834.12055     144668.4   -39973.526    2644.6461   -42618.172    35.781724    221.41851 
    8100    134.03654   -757.64795    144805.96   -39974.954      2703.67   -42678.624    35.884936    226.36019 
    8150    133.34595   -1091.4984     144743.2   -39977.918    2689.7399   -42667.658    36.068479    225.19391 
    8200    133.33573   -1120.5627    144544.25   -39947.453     2689.534   -42636.987    36.322313    225.17667 
    8250    130.85745   -1069.2621    144542.75   -39984.944    2639.5442   -42624.488     36.57573    220.99136 
    8300    132.84432   -970.09021    144548.51   -40017.682    2679.6217   -42697.304    36.639093    224.34678 
    8350    133.19742   -1084.1015    144692.34   -40009.621    2686.7441   -42696.365    36.782126    224.94309 
    8400    130.82822   -1093.6354    144642.12   -40016.714    2638.9545   -42655.668     37.08145    220.94199 
    8450    133.05469   -1157.7895    144501.74   -40006.681     2683.865   -42690.546    37.291013    224.70204 
    8500    132.63088   -1020.7898    144579.34   -39983.905    2675.3163   -42659.222    37.439048    223.98632 
    8550    131.67049     -999.647    144543.27   -39982.546    2655.9441   -42638.491    37.688787    222.36442 
    8600     131.3535    -990.6163    144542.38   -39982.363      2649.55   -42631.913    37.747543    221.82908 
    8650    131.81466   -991.24052    144631.47   -39986.114    2658.8521   -42644.966    37.789226    222.60788 
    8700    130.00847    -1016.588    144583.16   -40025.766    2622.4193   -42648.186    37.953549    219.55761 
    8750    129.18801   -897.55646    144723.08   -40022.855    2605.8695   -42628.724    38.043805    218.17201 
    8800     128.6996   -1102.3871    144647.87   -40057.733    2596.0179    -42653.75    38.287091    217.34719 
    8850    127.69397   -883.45457    144683.74   -40058.347    2575.7331    -42634.08     38.33017    215.64889 
    8900    129.71767   -915.04465    144794.91   -39942.108    2616.5535   -42558.662     38.54358     219.0665 
    8950    130.85966   -951.84962    144785.68    -39911.24    2639.5888   -42550.829    38.671063    220.99509 
    9000    131.19812    -958.2375    144718.95   -39889.478    2646.4158   -42535.894    38.730608    221.56667 
    9050    131.79946   -1048.3507    144836.59   -39838.535    2658.5455    -42497.08    38.660609    222.58221 
    9100    136.50519   -854.92242    144961.04   -39761.029    2753.4655   -42514.495    38.888659    230.52922 
    9150    135.43489   -998.24238    145038.99   -39759.281    2731.8764   -42491.158    39.040295    228.72172 
    9200    135.77301   -1069.6257     144963.1   -39789.966    2738.6965   -42528.662     39.14758    229.29272 
    9250    135.30026   -1166.7096    144820.92   -39777.063    2729.1607   -42506.223     39.31225    228.49435 
    9300    136.93137   -1054.8395    144814.37   -39852.821    2762.0621   -42614.883    39.487389    231.24896 
    9350    131.87512   -930.24781     144763.5   -39830.891    2660.0717   -42490.963    39.561268    222.70999 
    9400    131.38537   -1125.9117    144758.85   -39825.308    2650.1928     -42475.5    39.848503     221.8829 
    9450    133.80164   -1172.4829    144546.47   -39816.689    2698.9319   -42515.621    40.070978    225.96349 
    9500    131.94365   -1016.6725    144515.63   -39816.018     2661.454   -42477.472    40.272396    222.82572 
    9550    135.98358   -953.26844    144514.71   -39804.329    2742.9441   -42547.273    40.415754    229.64834 
    9600    133.82052   -863.89074     144713.9   -39838.912    2699.3126   -42538.225      40.5726    225.99537 
    9650    135.90111   -1027.2974    144697.29    -39815.97    2741.2805   -42557.251    40.602543    229.50906 
    9700    131.18911   -1037.7119    144719.34   -39821.398    2646.2341   -42467.632    40.980991    221.55146 
    9750    134.52513   -783.09372     144807.8   -39789.859    2713.5254   -42503.384    41.074926    227.18531 
    9800    137.31173   -1105.8989     144804.2   -39783.606    2769.7344    -42553.34    41.289835    231.89131 
    9850    134.95144   -968.95448    144708.78   -39787.005    2722.1246    -42509.13    41.509966    227.90526 
    9900    133.22535   -1065.2742    144709.93   -39873.745    2687.3075   -42561.052    41.553557    224.99026 
    9950    137.26672   -1051.6245    144795.51   -39876.627    2768.8265   -42645.453     41.61194     231.8153 
   10000    131.92026   -1009.1953    144778.93   -39869.709    2660.9823   -42530.691    41.790494    222.78623 
   10050    130.91143    -985.6204    144722.26   -39892.669     2640.633   -42533.302    41.956619    221.08252 
   10100    133.31135   -985.47518    144655.05   -39853.506    2689.0422   -42542.548    42.104494     225.1355 
   10150    132.83316   -947.92808    144713.02   -39854.388    2679.3965   -42533.785    42.235076    224.32793 
   10200    134.87257   -1067.6675     144850.9   -39809.867    2720.5336   -42530.401    42.340768    227.77206 
   10250    133.14994   -1054.0438    144818.53   -39818.751    2685.7862   -42504.538    42.340495     224.8629 
   10300    134.24488   -1020.9427    144910.91   -39861.624    2707.8725   -42569.497     42.57069    226.71203 
   10350    134.64766   -915.82202    144841.82   -39861.369     2715.997   -42577.366     42.84274    227.39224 
   10400    134.66128   -992.87896    144876.78   -39879.066    2716.2718   -42595.338    43.053921    227.41525 
   10450     131.2259   -1122.9431    144718.41   -39926.333    2646.9762   -42573.309    43.360708    221.61359 
   10500    132.96535   -1003.7102    144665.39   -39959.161     2682.063   -42641.224    43.390691    224.55117 
   10550    133.37116   -893.06488     144751.5   -39908.313    2690.2486   -42598.562    43.357248     225.2365 
   10600    133.36161   -1127.6335    144643.07   -39882.686     2690.056   -42572.742     43.41549    225.22037 
   10650    130.08591    -1115.936    144717.57    -39900.86    2623.9813   -42524.842    43.690344    219.68838 
   10700    131.37929   -1088.0499    144565.26   -39892.052    2650.0702   -42542.123    43.919242    221.87264 
   10750    131.99414   -951.39853    144613.73   -39915.206    2662.4725   -42577.678    44.003184    222.91099 
   10800    132.12879   -1029.6242    144598.06   -39908.819    2665.1885   -42574.008    44.136341    223.13839 
   10850    128.40741   -1234.0376     144405.4   -39929.816    2590.1241    -42519.94    44.242877    216.85375 
   10900    131.82298   -950.11171    144279.78   -39926.235      2659.02   -42585.255    44.604559    222.62194 
   10950    132.95855   -920.79664    144336.23   -39879.576    2681.9256   -42561.501    44.834057    224.53967 
   11000    134.04598   -1128.5315    144389.62   -39867.961    2703.8605   -42571.822    45.011007    226.37613 
   11050    133.69759   -1001.0224    144304.57   -39885.577    2696.8331    -42582.41    45.179689    225.78777 
   11100     131.2089   -997.80808    144248.11   -39866.473    2646.6334   -42513.106    45.451833    221.58489 
   11150    135.81512   -1045.2623    144441.75   -39812.034    2739.5461    -42551.58     45.81077    229.36385 
   11200    133.77291   -916.27405    144451.64    -39833.31    2698.3523   -42531.663    45.968121    225.91497 
   11250    134.12183   -925.74881    144495.58   -39822.772    2705.3905   -42528.163    46.012029    226.50423 
   11300    133.98995   -981.91378     144549.5   -39813.272    2702.7302   -42516.003     46.22267     226.2815 
   11350    135.07823   -1014.1371    144446.14   -39794.901    2724.6821   -42519.583    46.360921    228.11939 
   11400    138.09876   -941.28078    144586.78   -39827.472    2785.6096   -42613.082    46.499522    233.22044 
   11450    133.69038    -1014.157    144740.47   -39818.282    2696.6875    -42514.97    46.620221    225.77559 
   11500    132.53505   -875.34103    144779.74   -39839.495    2673.3832   -42512.878    46.834722    223.82447 
   11550    133.74236    -1060.075    144738.44   -39847.043     2697.736   -42544.779    47.136753    225.86337 
   11600     134.7931   -990.30077    144728.39   -39871.129    2718.9308    -42590.06    47.229711    227.63787 
   11650    134.94821    -1088.438    144619.06   -39887.949    2722.0595   -42610.008    47.219845    227.89981 
   11700    131.65442   -1105.2525    144545.01   -39889.095      2655.62   -42544.715    47.224651    222.33728 
   11750    132.92826   -1072.4838    144463.18   -39900.559    2681.3147   -42581.873    47.518872    224.48852 
   11800    134.97052   -912.25115    144473.08   -39852.463    2722.5094   -42574.973    47.689166    227.93748 
   11850    135.11453   -907.82018    144612.72   -39854.976    2725.4144    -42580.39    47.873973    228.18069 
   11900    131.23804   -1088.7874    144582.17   -39887.535     2647.221   -42534.757    48.132479    221.63409 
   11950    135.52009   -1041.6329    144594.68   -39877.668    2733.5949   -42611.262    48.325711     228.8656 
   12000    133.20606   -1009.2918    144515.25   -39866.054    2686.9183   -42552.973    48.286494    224.95768 
   12050    135.28658   -1005.3138    144403.66   -39906.276    2728.8848   -42635.161    48.432296    228.47125 
   12100    135.22507   -1021.1173    144351.73   -39849.465    2727.6441   -42577.109    48.525206    228.36737 
   12150    135.46658   -1038.5199    144316.01   -39812.436    2732.5155   -42544.951    48.773676    228.77523 
   12200    134.80095   -788.53707    144493.89    -39839.64    2719.0891   -42558.729    48.895859    227.65112 
   12250    131.67835    -1091.313    144474.85   -39902.063    2656.1026   -42558.166    48.932277    222.37769 
   12300    130.93261   -1016.0091    144234.76   -39937.171    2641.0601   -42578.231    49.319021    221.11828 
   12350    134.90075   -924.49214    144294.93   -39886.983    2721.1022   -42608.085    49.476977    227.81966 
   12400    131.44611   -960.33774    144372.54    -39897.75    2651.4182   -42549.168    49.742696    221.98549 
   12450    132.21018   -974.76823    144379.43   -39930.503    2666.8303   -42597.333    49.924561    223.27584 
   12500     133.8818    -1060.227    144396.16   -39882.438    2700.5488   -42582.986     50.18004    226.09887 
   12550    134.00121   -944.00795     144553.3   -39878.556    2702.9573   -42581.514    50.402534    226.30051 
   12600    134.59755   -1051.6855    144530.69   -39899.594    2714.9862    -42614.58    50.722226    227.30762 
   12650    135.02062   -966.30588    144480.93   -39838.606      2723.52   -42562.126    50.871038    228.02209 
   12700    132.43239   -1047.7894    144380.66   -39865.557    2671.3126    -42536.87    51.127103    223.65111 
   12750    134.09144   -1061.4779    144353.07   -39831.805    2704.7775   -42536.583    51.375141     226.4529 
   12800    135.71255   -1038.6015    144398.68   -39830.948     2737.477   -42568.425    51.658554    229.19062 
   12850    133.74423   -822.81374    144280.67   -39868.336    2697.7739   -42566.109    51.711016    225.86654 
   12900    133.79371   -950.24647    144409.26   -39799.742    2698.7719   -42498.514    51.684955     225.9501 
   12950    135.61464   -983.55044    144549.96   -39767.499     2735.502   -42503.001     51.93532    229.02527 
   13000     134.0206   -987.16361    144522.14   -39790.957    2703.3486   -42494.305     52.12977    226.33327 
   13050    134.30255   -1041.3802    144558.85   -39849.274    2709.0357    -42558.31    52.415788    226.80942 
   13100    131.58604   -930.77197    144555.74   -39885.748    2654.2407   -42539.988    52.595552     222.2218 
   13150    131.77731   -1114.4141     144572.3    -39930.24    2658.0988   -42588.339    52.672021    222.54481 
   13200    131.74364    -1083.755    144438.37    -39934.26    2657.4197    -42591.68    52.795417    222.48795 
   13250     132.2416   -861.97201    144458.98   -39937.002    2667.4641   -42604.466    52.932372    223.32891 
   13300     132.9944   -789.64693    144570.17   -39942.496    2682.6489   -42625.145    53.043637    224.60023 
   13350    132.66301   -938.64061    144641.95   -39872.251    2675.9643   -42548.215    53.347193    224.04057 
   13400    132.00781   -859.95491    144771.91   -39881.099    2662.7483   -42543.847    53.531215    222.93408 
   13450     132.8242   -1076.9315    144825.49   -39872.062    2679.2158   -42551.277    53.741498     224.3128 
   13500    136.14906   -973.87638    144880.87   -39842.488    2746.2821   -42588.771    53.888886    229.92781 
   13550    134.93113    -990.8168    144985.08   -39852.189    2721.7149   -42573.904    54.005753    227.87097 
   13600    133.79471   -893.95972    145032.08   -39819.986    2698.7921   -42518.778    54.212736    225.95179 
   13650     134.1836    -937.8241    144988.08   -39859.948    2706.6364   -42566.584    54.538473    226.60854 
   13700    131.70733   -1068.1286    144952.87   -39893.141    2656.6872   -42549.828    54.827506    222.42663 
   13750    131.77965   -971.53481    144987.19   -39896.931    2658.1459   -42555.076    54.802755    222.54876 
   13800    132.20451   -905.76863    145016.59   -39866.192    2666.7158   -42532.907    54.699337    223.26626 
   13850    132.34942   -1067.2953     144924.2    -39840.99    2669.6389   -42510.629    54.988851    223.51099 
   13900    133.34701   -715.96146    145001.98   -39845.823    2689.7614   -42535.584      55.1498    225.19571 
   13950    135.39314   -937.30723    145033.82   -39834.634    2731.0342   -42565.668    55.212886     228.6512 
   14000    133.89895   -904.87978    145052.96   -39886.598    2700.8947   -42587.493    55.402429    226.12782 
   14050    135.27219   -885.33126    145229.55   -39839.766    2728.5944   -42568.361    55.459904    228.44694 
   14100     133.8541   -905.46126     145260.3   -39824.795    2699.9899   -42524.785    55.610002    226.05207 
   14150      132.978   -1080.5159    145246.13   -39881.712    2682.3181    -42564.03    55.756107    224.57253 
   14200    136.34275    -892.6081    145267.62   -39803.483     2750.189   -42553.672    56.105182    230.25491 
   14250    134.52573   -850.49359    145477.34   -39779.784    2713.5376   -42493.322    56.317979    227.18633 
   14300    134.10313   -985.94141    145619.06   -39818.711    2705.0132   -42523.725    56.572582    226.47264 
   14350    135.14833   -995.89288    145519.59   -39853.815    2726.0962   -42579.911     56.63354    228.23778 
   14400    131.93736    -1130.171    145521.59   -39887.831    2661.3272   -42549.158    56.812916     222.8151 
   14450    130.95322   -1112.4289    145453.04   -39907.109     2641.476   -42548.585    56.870803     221.1531 
   14500    132.92351    -1023.599    145359.94   -39898.328     2681.219   -42579.547    56.990941    224.48051 
   14550    132.30154   -1019.6312    145255.49   -39937.126    2668.6731   -42605.799    57.022112    223.43013 
   14600    130.79249   -976.98305    145157.16   -39972.816    2638.2338   -42611.049    57.080498    220.88165 
   14650    131.93718    -986.0804    145161.38   -39958.968    2661.3235   -42620.291    57.290134     222.8148 
   14700     131.1541   -1052.1959    145095.64   -39923.453    2645.5279   -42568.981    57.310823    221.49234 
   14750    131.02491   -917.04043    145143.92   -39959.312     2642.922   -42602.234    57.535535    221.27416 
   14800    130.31406   -1017.5388    145244.24   -39962.012    2628.5834   -42590.595    57.663966    220.07368 
   14850    133.12238   -826.86238    145249.24   -39915.032    2685.2304   -42600.262    57.783743    224.81636 
   14900    131.40244   -1017.0402    145298.73   -39890.296    2650.5372   -42540.833    57.767405    221.91173 
   14950    132.92845   -1030.8183    145204.33   -39868.638    2681.3187   -42549.956    57.794706    224.48886 
   15000    132.57625   -1035.7951    145187.56   -39915.881    2674.2144   -42590.095    57.932403    223.89406 
   15050    132.31966   -980.55055    145073.52   -39898.968    2669.0386   -42568.006    58.015241    223.46073 
   15100    131.31107   -906.99014    145206.06   -39929.887    2648.6941   -42578.581    58.117823    221.75742 
   15150    131.17342   -1105.0452    145292.04   -39925.036    2645.9176   -42570.954    58.009404    221.52496 
   15200    127.75868   -1116.5981    145150.54   -39935.003    2577.0384   -42512.041    58.042466    215.75817 
   15250     135.3034   -1076.1867    145034.65   -39894.492    2729.2241   -42623.716    58.062061    228.49966 
   15300    131.29546   -890.07788     144974.6   -39903.847    2648.3793   -42552.226    58.143671    221.73107 
   15350    129.78166   -1143.4168    144888.06   -39887.455    2617.8443   -42505.299    58.445206    219.17457 
   15400    131.17849   -962.18256    144854.46   -39896.558      2646.02   -42542.578    58.722253    221.53353 
   15450    130.21695   -863.56948    145022.01   -39907.559    2626.6246   -42534.184    58.716267    219.90969 
   15500    129.95093   -1113.8939    145048.53    -39935.71    2621.2587   -42556.969     58.83059    219.46043 
   15550    128.77238   -1025.1944    144922.58   -39952.461    2597.4859   -42549.946    59.196729     217.4701 
   15600    130.44288   -1004.6457    144900.69   -39914.517    2631.1817   -42545.698    59.246545    220.29122 
   15650    129.53608   -885.04386    144847.75   -39950.783    2612.8906   -42563.673    59.546037    218.75983 
   15700    132.72541   -1016.0734     144841.4   -39931.144     2677.223   -42608.367     59.67881    224.14596 
   15750    129.40835   -1021.0824    144852.79   -39932.723    2610.3141   -42543.037    59.928004    218.54412 
   15800    131.34313   -965.23982    144865.09   -39909.107    2649.3408   -42558.448    60.165383    221.81156 
   15850    128.52521    -1038.173    144830.43   -39918.624    2592.5003   -42511.124    60.336221    217.05269 
   15900    130.16623   -1069.7438    144824.77   -39862.774    2625.6015   -42488.376    60.557944    219.82403 
   15950    134.46631   -1123.0294    144743.98   -39851.207    2712.3389   -42563.546    60.532591    227.08597 
   16000    133.97723   -1138.0536    144753.19   -39836.566    2702.4736   -42539.039    60.587963    226.26002 
   16050    131.42174   -1198.0202    144584.49   -39781.657    2650.9266   -42432.584    60.670007    221.94433 
   16100    131.80859   -1030.6914    144482.41   -39782.314    2658.7297   -42441.044    60.737184    222.59764 
   16150    135.72924    -859.3226    144515.73   -39799.795    2737.8138   -42537.609    61.023488    229.21881 
   16200    136.54578   -970.18767    144689.71   -39754.908    2754.2843   -42509.193    61.081151    230.59778 
   16250    135.31751   -995.64945    144712.82   -39744.061    2729.5086   -42473.569    61.394591    228.52348 
   16300    133.48812   -1090.2704    144657.72    -39772.53    2692.6077   -42465.138    61.335451    225.43401 
   16350    133.45658   -899.96944    144634.65   -39791.495    2691.9716   -42483.466    61.429015    225.38076 
   16400    131.51814    -917.6092    144590.59   -39748.251    2652.8711   -42401.122    61.503692    222.10713 
   16450    133.03687   -848.23309    144586.98   -39752.366    2683.5055   -42435.872     61.56544    224.67194 
   16500    132.99779    -898.8697    144695.07   -39740.547    2682.7173   -42423.264    62.068262    224.60596 
   16550    133.16312   -950.10562    144756.13    -39695.21    2686.0521   -42381.262    62.288618    224.88515 
   16600    134.60582   -980.62897    144764.63   -39681.211    2715.1531   -42396.364    62.524076    227.32159 
   16650    135.17053    -1024.163    144682.93   -39694.403    2726.5438   -42420.947    62.642839    228.27526 
   16700    133.48616   -991.85589    144562.61   -39722.959    2692.5682   -42415.527    62.957393     225.4307 
   16750    133.53125    -958.2543    144432.18   -39740.762    2693.4778    -42434.24    63.147252    225.50686 
   16800     133.0072   -967.06997    144603.82   -39778.232    2682.9071   -42461.139    63.372128    224.62185 
   16850    134.88049   -1049.9322    144593.32    -39841.66    2720.6936   -42562.354    63.520329    227.78545 
   16900    131.23023   -846.49868    144703.15   -39886.875    2647.0636   -42533.938    63.734023    221.62091 
   16950    134.23013   -999.28361    144669.03   -39832.633    2707.5749   -42540.208    63.929803    226.68712 
   17000    134.65191   -934.99422    144707.71   -39843.299    2716.0828   -42559.382     64.06888    227.39943 
   17050    130.96646   -1036.8006    144700.53   -39881.882     2641.743   -42523.625    64.231159    221.17545 
   17100    131.00148   -919.03347    144735.92   -39890.055    2642.4494   -42532.504    64.284852     221.2346 
   17150     133.1013   -887.43274    144867.82   -39812.135    2684.8051    -42496.94     64.40102    224.78075 
   17200    131.64252   -1034.7111    144860.17   -39868.122      2655.38   -42523.502    64.461405    222.31718 
   17250    130.52831   -953.19484    144751.21   -39939.262     2632.905   -42572.167    64.577742     220.4355 
   17300    130.09288   -1112.8895    144579.52   -39897.809    2624.1219   -42521.931    64.892065    219.70015 
   17350    131.77901    -930.8047    144606.13   -39876.427     2658.133    -42534.56     65.07327    222.54767 
   17400    134.40742   -812.38097     144721.3   -39914.035    2711.1511   -42625.187    65.173817    226.98653 
   17450    134.94495   -1029.5937    144910.79    -39892.53    2721.9938   -42614.524    65.450562    227.89431 
   17500    131.68568   -909.48454     144733.7   -39890.509    2656.2505    -42546.76    65.845829    222.39007 
   17550    133.52501   -1238.3625    144636.35    -39857.93    2693.3519   -42551.282    66.035507    225.49632 
   17600    135.14977   -869.82804    144656.77   -39819.821    2726.1252   -42545.947    66.073975    228.24021 
   17650    134.65227   -1125.0539     144712.4   -39800.304    2716.0899   -42516.394    66.151125    227.40002 
   17700    133.66134   -928.07076    144666.93   -39840.506    2696.1018   -42536.608    66.147538    225.72655 
   17750    133.57279   -968.83964    144623.69   -39837.041    2694.3157   -42531.356    66.146376    225.57701 
   17800    131.90316   -1112.3619    144655.74   -39881.365    2660.6373   -42542.002    66.408449    222.75734 
   17850    134.64241   -1036.9518    144571.05   -39873.187    2715.8912   -42589.078    66.406832    227.38338 
   17900    132.62909   -939.71886    144688.74   -39896.463    2675.2801   -42571.743     66.63476    223.98329 
   17950    130.01735   -1038.5269    144795.03    -39898.15    2622.5984   -42520.749    66.940283     219.5726 
   18000    131.11124    -975.7284    144710.27   -39902.909    2644.6633   -42547.572    67.080544    221.41995 
   18050    132.33221   -927.91479    144819.51   -39863.429    2669.2917    -42532.72    67.383485    223.48192 
   18100    133.16441   -882.10513    145013.23   -39820.334    2686.0781   -42506.412    67.810312    224.88733 
   18150    134.83752   -1074.7598    145052.04   -39832.765    2719.8267   -42552.592    68.139701    227.71288 
   18200    134.24456   -1028.5807    144844.23    -39864.75     2707.866   -42572.616    68.140947    226.71148 
   18250      133.217   -999.72558    144826.95   -39865.821     2687.139    -42552.96    68.117386    224.97615 
   18300    132.51161   -1052.5059    144832.36   -39906.671    2672.9105   -42579.582    68.394622    223.78489 
   18350    131.62644   -969.90248    144823.74   -39902.256    2655.0555   -42557.311    68.516523    222.29002 
   18400    133.64826   -922.73984    144872.82   -39885.262    2695.8379     -42581.1    68.581569    225.70446 
   18450    133.44433   -1124.7834    144794.24   -39880.638    2691.7246   -42572.363    68.834146    225.36007 
   18500     132.6891   -1062.0387    144780.45   -39849.235    2676.4907   -42525.726     69.12583    224.08464 
   18550    133.79017   -880.72979    144937.42   -39858.507    2698.7004   -42557.207    69.098159    225.94412 
   18600    132.19617   -1037.7073    144978.51   -39894.859    2666.5477   -42561.407    69.410642    223.25218 
   18650     130.9871   -905.09294    145033.74   -39941.113    2642.1593   -42583.273    69.759492    221.21031 
   18700    131.23131   -747.77025    145181.41   -39921.773    2647.0854   -42568.859    70.234996    221.62274 
   18750    132.60522   -888.54176    145328.41    -39880.02    2674.7986   -42554.819     70.38993    223.94298 
   18800    134.59459   -1049.1628    145280.32   -39845.564    2714.9264    -42560.49    70.681844    227.30261 
   18850    133.06825   -1056.7178    145138.63    -39874.52    2684.1385   -42558.659    70.779693    224.72494 
   18900    134.44046   -1049.3926    145081.09   -39849.806    2711.8176   -42561.624    70.809209    227.04233 
   18950    133.85179   -976.58569    145089.58   -39870.286    2699.9434    -42570.23    71.036153    226.04818 
   19000    135.63621   -1030.5003    145065.55   -39822.231    2735.9372   -42558.168    71.276684     229.0617 
   19050     138.1433   -997.94932    145061.09   -39764.885     2786.508   -42551.393    71.203057    233.29566 
   19100    135.31956   -1066.2633    145090.14   -39826.957      2729.55   -42556.507    71.135328    228.52694 
   19150    133.79584   -922.31704    145158.93   -39829.247    2698.8149   -42528.062     71.49125     225.9537 
   19200    133.51273   -888.49074    145234.15   -39830.162    2693.1041   -42523.266    71.652484    225.47557 
   19250    134.32768   -1065.4948    145300.05    -39849.32    2709.5426   -42558.863     71.72237    226.85186 
   19300    133.55298   -1029.7076     145246.4   -39840.049    2693.9161   -42533.965    71.947584    225.54355 
   19350    132.48033   -1152.4698    145084.46   -39923.465    2672.2794   -42595.744    72.139787    223.73206 
   19400    129.86526   -1047.6419    144966.33   -39943.049    2619.5305    -42562.58    72.350162    219.31575 
   19450    131.61923   -910.26967     144980.1   -39939.466    2654.9101   -42594.376    72.479235    222.27784 
   19500    133.56513   -1058.7299    144989.66    -39875.98    2694.1611   -42570.141    72.760766    225.56407 
   19550    132.66818   -961.18816       144975   -39862.956    2676.0686   -42539.024    72.885279     224.0493 
   19600    134.02486   -1030.2297     145110.8    -39867.17    2703.4345   -42570.604    73.154482    226.34047 
   19650     133.6925   -881.38839    145122.76   -39831.057    2696.7305   -42527.787    73.401876    225.77918 
   19700    133.74927   -1033.2004    145193.55   -39861.965    2697.8754   -42559.841    73.525426    225.87504 
   19750    132.57281   -996.31283    145168.22   -39911.511     2674.145   -42585.656    73.554867    223.88825 
   19800    132.50113   -898.59966    145295.14   -39849.683    2672.6991   -42522.383    73.632148     223.7672 
   19850    134.46806   -1028.5175    145190.17   -39863.469    2712.3743   -42575.843    73.778444    227.08894 
   19900    138.25447   -981.99191    145239.12   -39833.674    2788.7505   -42622.425    73.849706     233.4834 
   19950    134.81144   -865.31537    145286.85   -39869.361    2719.3006   -42588.661    74.042434    227.66883 
   20000     134.3698   -994.13786    145413.19   -39896.888    2710.3923   -42607.281    74.280218    226.92299 
   20050    134.56193   -1215.3716     145399.3   -39877.994    2714.2677   -42592.261    74.230556    227.24746 
   20100    134.05592   -1010.7573    145190.63   -39917.189    2704.0609    -42621.25    74.404656    226.39291 
   20150    133.17099   -964.40693    145313.13   -39906.349    2686.2109    -42592.56    74.505628    224.89845 
   20200    132.45557   -938.68054    145423.51   -39894.594      2671.78   -42566.374    74.569153    223.69024 
   20250    133.94718   -977.30025     145433.2   -39848.325    2701.8676   -42550.193    74.755804    226.20928 
   20300    133.76684   -951.26001    145380.67   -39859.588    2698.2298   -42557.817     74.81232    225.90471 
   20350    133.34742    -793.0542    145607.04   -39851.988    2689.7696   -42541.757    75.037661     225.1964 
   20400    132.95185   -1029.0563    145823.78   -39889.135    2681.7907   -42570.925    75.272146    224.52838 
   20450    130.92353   -1125.8414    145568.36   -39888.653    2640.8771    -42529.53    75.665624    221.10295 
   20500     135.5539    -970.6071    145492.93   -39872.685    2734.2768   -42606.962    75.936332    228.92269 
   20550    132.71813   -1110.1062    145539.71   -39846.019    2677.0762   -42523.095    76.284488    224.13366 
   20600    134.50691   -1002.2002    145431.24   -39882.627     2713.158   -42595.785    76.650462    227.15455 
   20650    134.75279   -971.49548    145368.92   -39892.515    2718.1176   -42610.633     76.87108    227.56978 
   20700    133.80693   -1004.6992    145520.39    -39862.72    2699.0385   -42561.759    77.009022    225.97242 
   20750       133.43   -971.88751    145477.53   -39924.955    2691.4354   -42616.391    77.189314    225.33587 
   20800    134.33739   -910.18854    145591.21    -39932.71    2709.7386   -42642.448     77.21874    226.86826 
   20850    133.73587   -1187.5318    145382.05   -39981.481    2697.6052   -42679.086    76.951264    225.85242 
   20900     134.4937   -956.93378    145373.72   -39954.599    2712.8915   -42667.491    76.961846    227.13224 
   20950    131.71765   -1015.7167    145339.84   -39971.588    2656.8954   -42628.484    76.880476    222.44406 
   21000     133.5582   -908.07878    145406.96   -39934.173    2694.0214   -42628.195    77.366777    225.55237 
   21050    132.44535   -945.16265    145356.31   -39941.907     2671.574   -42613.481    77.417991      223.673 
   21100    133.78242   -1013.0253    145325.81   -39990.558    2698.5441   -42689.102    77.627802    225.93103 
   21150    130.94241   -943.29161    145286.58   -40006.122    2641.2578    -42647.38    77.973139    221.13483 
   21200    130.43348   -977.37296    145260.51    -40030.06    2630.9921   -42661.052    78.136716    220.27535 
   21250    132.08946   -1088.6779    145106.35    -40050.11    2664.3953   -42714.506    78.258823    223.07197 
   21300    132.01057   -1046.4177     145045.2   -40014.948     2662.804   -42677.752    78.451283    222.93874 
   21350    131.75933   -1003.1038    145028.38   -39943.443    2657.7361   -42601.179      78.5334    222.51444 
   21400    130.23022   -977.82911    145130.34   -39919.067    2626.8922   -42545.959    78.690879    219.93209 
   21450     133.3742   -979.03374     145088.5   -39971.984    2690.3099   -42662.294    78.826026    225.24163 
   21500    137.48817   -1026.2218    145099.01    -39946.67    2773.2934   -42719.964    79.119054    232.18928 
   21550    132.07159   -1176.0972    145033.09   -39971.256    2664.0348   -42635.291    79.538462    223.04179 
   21600    133.94919   -1032.3912    144955.51   -39950.322     2701.908    -42652.23       79.921    226.21266 
   21650    132.64171   -1005.3639    144932.87    -39972.44    2675.5346   -42647.974    80.178138     224.0046 
   21700    132.24883   -875.93223    144913.74   -39976.068    2667.6098   -42643.678     80.41092     223.3411 
   21750    132.21769   -985.54821    144990.44   -39992.313    2666.9818   -42659.295    80.857014    223.28852 
   21800    134.66434   -876.33862    144958.51   -39996.829    2716.3334   -42713.162     80.75207    227.42041 
   21850    130.09765   -936.24279    144948.41   -39968.086     2624.218   -42592.304    80.629672     219.7082 
   21900    131.11733   -799.27963    145018.01    -39968.76    2644.7861   -42613.546    80.803087    221.43023 
   21950    129.45018   -898.18835    145037.02   -39977.726     2611.158   -42588.884    81.006387    218.61477 
   22000     129.9356   -1024.5176    144967.83   -39974.821    2620.9494    -42595.77    81.283222    219.43454 
   22050    133.21794   -935.62444    145016.77   -39952.831     2687.158   -42639.989    81.251797    224.97774 
   22100    132.24988   -904.38131    145117.71   -39954.329     2667.631    -42621.96    81.556922    223.34288 
   22150    133.30384    -954.2134    145008.33   -39935.316    2688.8906   -42624.207    81.869609     225.1228 
   22200     134.7652   -1014.3373    145052.83   -39882.241    2718.3679   -42600.609    81.842219    227.59074 
   22250    133.82197   -1055.9087    145022.87   -39840.797     2699.342   -42540.139    81.930079    225.99783 
   22300    135.76598   -920.09122    144930.79   -39787.816    2738.5549   -42526.371    81.924791    229.28086 
   22350    134.72145   -1016.3077    144888.72   -39818.404    2717.4855   -42535.889    81.984828    227.51686 
   22400    135.14887   -1028.2537    144859.96   -39787.992     2726.107   -42514.099    82.412078    228.23868 
   22450    135.12286   -1081.3204    144654.29   -39773.718    2725.5824     -42499.3    82.649523    228.19476 
   22500    135.42219   -1064.5592    144635.32   -39727.859    2731.6202    -42459.48    82.563342    228.70027 
   22550    137.18094      -1083.8     144579.4   -39717.695    2767.0962   -42484.791     82.83309    231.67043 
   22600    134.45495   -1145.5201    144471.82   -39767.999    2712.1099   -42480.109     83.04763     227.0668 
   22650    135.50416    -970.9675    144556.74   -39765.229    2733.2736   -42498.502    83.231436    228.83869 
   22700    136.12619   -973.99252    144440.94   -39773.992    2745.8207   -42519.813    83.539732    229.88918 
   22750    133.37924   -959.28094     144458.8   -39816.671    2690.4115   -42507.082    83.570464    225.25014 
   22800    132.17532    -1176.713    144330.94    -39866.77    2666.1272   -42532.897    83.432758    223.21698 
   22850    131.54406   -990.20988    144375.94   -39824.118    2653.3939   -42477.512    83.434327     222.1509 
   22900    132.59881    -869.1041    144384.27   -39795.854    2674.6693   -42470.523    83.436734    223.93215 
   22950    131.96835   -943.04952    144442.99   -39859.246    2661.9522   -42521.199    83.521918    222.86743 
   23000    130.82391   -1184.6876    144302.65   -39876.109    2638.8677   -42514.976    83.665761    220.93472 
   23050    131.80713   -926.72327    144248.31   -39934.809    2658.7004   -42593.509    83.885779    222.59518 
   23100    130.94004   -1000.0808    144318.46   -39911.471      2641.21   -42552.682    83.870707    221.13083 
   23150    131.52067   -1010.6693    144354.51    -39916.26     2652.922   -42569.182    84.091317    222.11139 
   23200    131.20448   -950.47127    144428.81   -39886.451    2646.5442   -42532.996    84.311006    221.57742 
   23250    132.80739   -973.77283    144371.62   -39854.007    2678.8766   -42532.884    84.524397     224.2844 
   23300     133.3839     -1195.54    144396.49   -39818.994    2690.5056     -42509.5    85.069962    225.25802 
   23350    131.84365   -1028.8847    144349.56   -39823.675     2659.437   -42483.112    85.173839    222.65685 
   23400    134.55327   -948.03071    144392.16   -39821.697    2714.0931    -42535.79    85.392774    227.23284 
   23450    135.08221    -926.6283    144684.74   -39809.551    2724.7624   -42534.314     85.59237    228.12611 
   23500    134.75623   -777.50466     144925.6   -39751.147    2718.1869   -42469.334    86.051087    227.57559 
   23550     136.5038   -993.02268    144914.76   -39759.355    2753.4374   -42512.792    86.551858    230.52687 
   23600     135.4341    -1210.496     144774.9   -39770.621    2731.8603   -42502.482    86.945515    228.72037 
   23650    136.79525   -1074.0628    144682.68   -39806.687    2759.3164   -42566.003    87.208828    231.01908 
   23700    138.04948   -844.56667    144691.64   -39738.175    2784.6157   -42522.791    87.306833    233.13722 
   23750    136.48659   -941.07276    144835.89    -39709.74    2753.0903    -42462.83    87.478902    230.49782 
   23800    133.83395   -1083.3089    144675.85   -39731.303    2699.5836   -42430.886    87.716676    226.01806 
   23850    134.77732   -922.25479    144663.46   -39760.333    2718.6124   -42478.945    87.886832    227.61121 
   23900    133.99217   -1102.4482    144663.75   -39772.788     2702.775   -42475.563    88.073769    226.28525 
   23950    133.71858   -1088.6067    144605.23   -39790.999    2697.2563   -42488.255    87.980522    225.82321 
   24000     136.9517   -1067.8629    144557.16   -39755.963    2762.4721   -42518.435    88.054717    231.28329 
   24050    135.85687   -981.53399    144698.87   -39808.503    2740.3883   -42548.891    88.167893    229.43436 
   24100      135.826   -999.97448    144682.65   -39823.456    2739.7655   -42563.222    88.237617    229.38222 
   24150    132.71055   -1012.0283    144633.07   -39848.922    2676.9234   -42525.845     88.68038    224.12087 
   24200    134.16574   -847.81447     144614.9   -39796.895    2706.2762   -42503.171    88.805493    226.57839 
   24250    134.69728   -992.84814    144657.78   -39821.253    2716.9979   -42538.251     88.92908    227.47604 
   24300    134.09637   -982.82755    144833.05   -39841.851    2704.8768   -42546.728    88.996639    226.46122 
   24350    131.98988   -997.97523    144870.75   -39866.119    2662.3866   -42528.505    89.155273     222.9038 
   24400    133.78448   -1076.4988     144844.5   -39924.774    2698.5857   -42623.359    89.544856    225.93451 
   24450    130.99866   -1030.0083    144804.38   -39884.872    2642.3925   -42527.265    89.731193    221.22983 
   24500    128.56919   -945.50813    144914.32   -39882.579    2593.3874   -42475.967    89.625077    217.12696 
   24550    133.71029   -926.53032    144881.28   -39886.934    2697.0891   -42584.024    89.746416    225.80921 
   24600    134.10884   -1211.6499    144866.05   -39844.106    2705.1285   -42549.234    90.074756    226.48229 
   24650    132.88214   -852.81705    144883.13   -39865.423    2680.3844   -42545.808    90.079232    224.41064 
   24700    135.95022   -1038.1839    144994.03   -39866.215    2742.2711   -42608.486    90.287756    229.59199 
   24750    134.31985   -1037.6327     144956.4    -39805.07    2709.3847   -42514.454     90.39155    226.83864 
   24800    132.72535   -961.76267    145055.09   -39811.389    2677.2218   -42488.611    90.689736    224.14586 
   24850    134.48048   -1050.6864    145122.28   -39781.296    2712.6248   -42493.921    91.101612    227.10991 
   24900    135.32332   -948.02255    144991.74   -39765.605    2729.6259   -42495.231    90.943334     228.5333 
   24950    133.65407   -890.71455    145030.43   -39766.077    2695.9552   -42462.032    90.752716    225.71428 
   25000    134.36802   -905.02921    145106.46   -39786.348    2710.3564   -42496.704    90.686055    226.91999 
   25050      133.848   -906.46629    145089.86   -39785.982    2699.8671   -42485.849    90.776525    226.04179 
   25100    133.76964   -978.17215    145070.22   -39844.564    2698.2863    -42542.85    90.805102    225.90945 
   25150    133.08786   -959.74407    145141.22   -39861.216    2684.5342    -42545.75    91.053452    224.75807 
   25200    135.62101   -1109.2683    145183.88   -39783.828    2735.6307   -42519.459    91.046554    229.03604 
   25250    136.50928   -1117.2407    145043.67   -39831.764    2753.5481   -42585.312     90.91544    230.53614 
   25300    133.76856   -917.51275    145126.59   -39841.696    2698.2646    -42539.96    91.088425    225.90762 
   25350    135.05783   -864.48009    145369.03   -39772.335    2724.2705   -42496.606    91.459089    228.08493 
   25400    135.92008    -978.8973    145470.25   -39779.708    2741.6632   -42521.372    91.603319     229.5411 
   25450    132.44424   -1022.2718    145533.28   -39845.944    2671.5515   -42517.495        91.73    223.67112 
   25500    135.62767    -900.4859    145429.55    -39835.12     2735.765   -42570.885    91.578671    229.04729 
   25550    132.14104   -1057.0558    145339.98   -39882.762    2665.4356   -42548.198    91.869011    223.15907 
   25600    131.65566   -942.69476     145261.8   -39885.833     2655.645   -42541.478    91.950615    222.33937 
   25650     133.8387   -909.83919    145257.89   -39875.838    2699.6794   -42575.517    91.802565    226.02608 
   25700    132.97988   -918.10479    145259.85   -39844.647     2682.356   -42527.003    91.563121     224.5757 
   25750    135.91461   -1103.2864    145233.19   -39833.772    2741.5528   -42575.325    91.684041    229.53186 
   25800    133.59822   -987.72569    145306.62   -39828.598    2694.8286   -42523.427    91.941773    225.61995 
   25850     133.5352   -1074.1392    145202.77   -39867.973    2693.5575    -42561.53    92.060021    225.51353 
   25900    133.60681   -1013.7266    145219.62   -39882.703    2695.0019   -42577.705    91.940084    225.63446 
   25950    133.62386   -1082.5277    145162.74   -39859.402    2695.3458   -42554.747    91.816106    225.66325 
   26000    132.20219   -843.15023    145171.38    -39911.69    2666.6691   -42578.359    92.028115    223.26234 
   26050    132.43006    -1052.071    145195.67   -39934.041    2671.2656   -42605.307    92.002097    223.64718 
   26100    131.09391   -1032.9501    145199.08   -39887.612    2644.3139   -42531.926    91.983722    221.39069 
   26150    134.82614   -1021.2348    145174.27   -39843.953    2719.5971    -42563.55     92.05573    227.69365 
   26200    133.14091   -1013.6304    145156.33   -39819.331    2685.6041   -42504.935    92.374418    224.84765 
   26250    134.44039   -911.96771    145147.28   -39766.852    2711.8162   -42478.668    92.587544    227.04221 
   26300    134.27189   -1040.1343    145160.59   -39753.898    2708.4173   -42462.315    92.886738    226.75764 
   26350     136.1828   -1108.3821     144975.8   -39740.356    2746.9625   -42487.318    93.010407    229.98478 
   26400    138.05894   -1017.2818    144981.28    -39686.42    2784.8064   -42471.227    93.261151    233.15319 
   26450    135.77072   -985.21538    144977.55   -39718.394    2738.6504   -42457.044    93.508102    229.28886 
   26500    133.80251   -994.81885    144879.61   -39783.236    2698.9494   -42482.185    93.535285    225.96496 
   26550    136.61419   -1051.7355     144920.4   -39767.624    2755.6642   -42523.289    93.797791    230.71331 
   26600    131.94986   -1073.1579    144820.18   -39807.103    2661.5793   -42468.682    93.988936    222.83621 
   26650    133.87349   -998.84992    144845.79   -39830.039    2700.3812    -42530.42    94.120325    226.08483 
   26700    132.92474   -977.42496    144660.92   -39894.577    2681.2438    -42575.82    94.563644    224.48259 
   26750    133.56399   -805.07452    144895.45   -39859.521    2694.1381   -42553.659     94.85671    225.56214 
   26800    133.43826   -1074.1897    144943.67   -39869.543     2691.602   -42561.145    95.014212    225.34981 
   26850    132.99441    -1043.699    144841.44   -39870.016    2682.6491   -42552.665     95.08446    224.60024 
   26900    132.80026   -982.50408    144870.19   -39838.093    2678.7329   -42516.826    95.126034    224.27236 
   26950    136.31634   -970.76904    145020.07   -39766.853    2749.6561   -42516.509     95.44043     230.2103 
   27000    135.10689   -916.31981    145007.62   -39776.265    2725.2602   -42501.525    95.777553    228.16778 
   27050    131.37211   -1058.5901    144912.17   -39803.435    2649.9255   -42453.361    95.986591    221.86051 
   27100    135.94404   -1035.5568       144904   -39774.086    2742.1466   -42516.232    96.176657    229.58157 
   27150    135.56251   -1010.3142    144848.28   -39716.131    2734.4505   -42450.582    96.152069    228.93723 
   27200    136.07089   -1063.7464    144839.83   -39735.344    2744.7052    -42480.05    96.413058    229.79579 
   27250     136.0052    -1001.466    144841.91   -39731.822    2743.3801   -42475.202    96.476351    229.68484 
   27300    134.90874    -936.1687    144797.75   -39784.148    2721.2633   -42505.411    96.631433    227.83316 
   27350     134.5504   -971.08969    144898.29   -39829.379    2714.0352   -42543.415    96.710599    227.22799 
   27400    134.65297   -990.87458    145010.43   -39852.386    2716.1042    -42568.49    96.773933    227.40122 
   27450    132.55606   -982.32454    144987.39   -39878.075     2673.807   -42551.882    96.688459    223.85996 
   27500    131.75445   -913.10865    145138.54   -39826.142    2657.6376   -42483.779     96.94672     222.5062 
   27550    135.51266   -1085.6411    145118.35     -39837.6     2733.445   -42571.045    97.148261    228.85304 
   27600    134.52932   -1049.6471    145187.04   -39825.316      2713.61   -42538.926    97.619427    227.19239 
   27650     132.6068   -1044.4233    145167.19   -39823.432    2674.8306   -42498.263     97.68921    223.94565 
   27700    130.66147   -1122.2826    144987.78   -39851.622     2635.591   -42487.213    97.834698    220.66039 
   27750    133.50627   -1078.9487    144925.82   -39833.233    2692.9738   -42526.207    97.921368    225.46466 
   27800    131.08061   -970.84274    144975.85   -39848.058    2644.0456   -42492.104    98.201211    221.36823 
   27850    133.85418   -941.91156    144926.65   -39829.906    2699.9915   -42529.897    98.435686    226.05221 
   27900    135.40883   -916.94467    144915.46   -39793.565    2731.3507   -42524.916    98.692802     228.6777 
   27950    136.05936   -1090.6785     144870.5   -39828.844    2744.4725   -42573.316     98.91942    229.77631 
   28000     134.6311    -1068.193    144776.11   -39850.819    2715.6629   -42566.482    98.945671    227.36427 
   28050     132.4438   -836.99992    144708.57   -39838.108    2671.5427   -42509.651    99.092832    223.67038 
   28100    134.28962    -990.7081    144735.33   -39813.272    2708.7749   -42522.047    99.402588    226.78758 
   28150    133.67485   -860.34346    144830.54   -39765.759    2696.3744   -42462.134    99.294981    225.74937 
   28200    135.62101   -1080.2018    145031.51   -39802.121    2735.6306   -42537.752    99.297976    229.03603 
   28250    132.62934   -895.90679    144989.32   -39798.948    2675.2852   -42474.234    99.282257    223.98371 
   28300    133.10574   -1092.5984    144990.14   -39817.019    2684.8948   -42501.914    99.542057    224.78826 
   28350     137.3694   -1082.5918    145035.32   -39783.891    2770.8975   -42554.789    99.727141    231.98869 
   28400    137.29041   -1020.9562    145005.77   -39803.885    2769.3043   -42573.189    100.07463     231.8553 
   28450    134.27118   -888.33104    144949.22   -39811.494    2708.4031   -42519.897    100.39539    226.75645 
   28500    135.67527   -969.02013    145104.33   -39817.781    2736.7251   -42554.506    100.45546    229.12766 
   28550    132.80963   -950.75743    145152.31   -39827.363    2678.9218   -42506.285    100.33318    224.28819 
   28600    132.48394   -951.66756    145125.59   -39854.565    2672.3524   -42526.918    100.44195    223.73817 
   28650    131.86278   -1140.9981    145192.27   -39839.854    2659.8228   -42499.677    100.70011    222.68915 
   28700    132.52399   -1031.9462    145017.73   -39821.238    2673.1601   -42494.398    100.70681     223.8058 
   28750    134.02967   -911.70181    144938.53   -39804.778    2703.5315    -42508.31    100.71496    226.34859 
   28800    134.03499   -1136.5775    144925.21   -39827.518    2703.6388   -42531.157    100.86634    226.35757 
   28850    136.46626   -990.71941    144882.82   -39819.001    2752.6803   -42571.682    100.93319    230.46349 
   28900    134.07173   -902.61175    144929.96   -39846.771    2704.3798    -42551.15    100.96179    226.41961 
   28950    131.05222   -1059.4881    144986.58   -39874.454    2643.4729   -42517.926    101.02517    221.32028 
   29000    132.24851   -1162.1713    144841.68   -39885.008    2667.6035   -42552.612    101.08043    223.34057 
   29050    133.77204   -927.72663    144847.02   -39884.221    2698.3347   -42582.556    101.29252    225.91349 
   29100    136.17655   -893.53271    144907.74   -39835.974    2746.8364    -42582.81    101.23156    229.97422 
   29150    133.36531   -1003.9764    144987.99    -39773.72    2690.1305   -42463.851    101.32279    225.22662 
   29200     134.2186   -1097.9626    145065.65   -39724.912    2707.3424   -42432.254    101.52914    226.66765 
   29250    135.26759   -1103.2302    144967.94   -39744.108    2728.5016   -42472.609    101.59313    228.43917 
   29300    134.15007   -1024.8067    144906.45   -39734.109    2705.9601   -42440.069    101.86802    226.55192 
   29350    134.32017   -1040.6514     145051.7   -39730.149    2709.3912    -42439.54    102.08012    226.83918 
   29400     133.8169   -1168.8891    144985.05   -39701.914    2699.2397   -42401.154     102.4884    225.98926 
   29450    139.15842   -1109.6588    144964.92   -39676.656    2806.9843    -42483.64    102.67418    235.00999 
   29500    134.34342   -969.40077    144926.75   -39720.964    2709.8602   -42430.824    102.81699    226.87845 
   29550    135.18251   -842.26476    144858.21   -39719.751    2726.7856   -42446.537    103.06535     228.2955 
   29600    135.18672   -1086.7676    144832.13   -39757.578    2726.8704   -42484.448    103.03539     228.3026 
   29650    134.61377   -1106.5012    144888.93   -39740.944    2715.3133   -42456.258      103.154      227.335 
   29700    131.63983   -949.02978    144821.25   -39754.485    2655.3256    -42409.81    103.39623    222.31263 
   29750    132.38495   -1052.0987    144774.11   -39771.467    2670.3556   -42441.822    103.28813    223.57099 
   29800    133.72866   -1071.2122    144751.93   -39800.101    2697.4598   -42497.561    103.20675    225.84025 
   29850    134.23211    -1105.431    144673.54   -39744.111     2707.615   -42451.726    103.26993    226.69047 
   29900     135.3099   -1107.6994    144600.95   -39768.874    2729.3551   -42498.229     103.5504    228.51062 
   29950      134.169   -1061.1523     144533.4   -39733.762     2706.342   -42440.104    103.68529    226.58389 
   30000    134.50363   -1019.0186    144504.12   -39753.305    2713.0917   -42466.396    103.94151      227.149 
   30050    133.02336   -991.00858    144523.85   -39741.672     2683.233   -42424.905    104.20066    224.64913 
   30100    133.10292   -851.68831    144687.35   -39737.896    2684.8379   -42422.734    104.31478     224.7835 
   30150    135.48009   -893.01728    144817.92    -39670.61    2732.7882   -42403.398    104.48149    228.79805 
   30200     136.3929   -907.85944    144828.06   -39633.819    2751.2005   -42385.019    104.85918    230.33959 
   30250    136.77788   -976.25047    144966.42   -39581.261     2758.966   -42340.227    105.07608    230.98975 
   30300    133.15491   -1102.1332    144899.39   -39636.179    2685.8865   -42322.066    105.59701    224.87129 
   30350    136.55655   -1066.2626    144848.63   -39652.243    2754.5014   -42406.745    105.62676    230.61596 
   30400    134.64543   -1047.6186    144580.38   -39698.287     2715.952   -42414.239    105.49516    227.38847 
   30450    131.74963   -1132.0559    144604.31   -39685.368    2657.5405   -42342.909    105.57738    222.49807 
   30500    133.07348   -1150.0595    144477.26   -39711.755     2684.244   -42395.999    105.80441    224.73377 
   30550    130.77211   -914.61955    144325.97   -39764.721    2637.8228   -42402.544    105.90714    220.84724 
   30600    135.03165   -1031.1769    144374.25   -39736.284    2723.7425   -42460.026    106.22968    228.04072 
   30650    133.90745   -1127.3504    144482.14   -39734.673    2701.0661   -42435.739    106.20698    226.14218 
   30700    134.73077   -1142.4026    144504.21   -39702.424    2717.6734   -42420.097    106.18452    227.53259 
   30750    134.24664   -861.74899    144593.19   -39665.285     2707.908   -42373.193    106.29033      226.715 
   30800    133.40179   -1023.2238    144657.12   -39652.627    2690.8664   -42343.493    106.32587    225.28822 
   30850    134.66198    -1039.469     144739.5    -39656.35    2716.2858   -42372.636     106.6439    227.41642 
   30900    135.72427    -1061.133    144707.18   -39639.007    2737.7136    -42376.72    106.74508    229.21042 
   30950    135.77503    -995.7373    144666.41   -39643.688    2738.7373   -42382.425    106.77128    229.29613 
   31000    134.79867   -1008.7872    144628.31   -39667.624     2719.043   -42386.667    106.89617    227.64726 
   31050    132.47711   -900.61445    144550.09   -39747.425    2672.2146   -42419.639    106.93715    223.72663 
   31100    131.85206    -979.7552     144559.2   -39767.445    2659.6065   -42427.051    106.97688    222.67104 
   31150     131.6188   -879.81193    144597.34   -39776.485    2654.9015   -42431.386    107.18247    222.27712 
   31200    131.83285   -997.48868    144699.84   -39739.219    2659.2191   -42398.438    107.42324    222.63861 
   31250     131.2999   -938.61787    144822.61   -39756.084     2648.469   -42404.553    107.43825    221.73857 
   31300    131.62886   -1121.5376    144785.49   -39852.317    2655.1043   -42507.422    107.77534    222.29411 
   31350    132.56032   -907.01848    144577.02   -39871.058     2673.893   -42544.951    108.05371    223.86716 
   31400    134.53041   -969.84933    144566.94   -39824.056     2713.632   -42537.688    108.21741    227.19424 
   31450    131.14658   -885.27779    144567.08   -39788.957    2645.3761   -42434.333    108.11322    221.47963 
   31500    131.04409   -1055.6957    144663.57   -39836.501    2643.3089    -42479.81    108.38734    221.30656 
   31550    131.54164   -943.53178     144793.6     -39821.8     2653.345   -42475.145    108.65054    222.14681 
   31600    132.22084   -1084.6618     144735.4   -39756.916    2667.0454   -42423.961    108.83334    223.29385 
   31650    132.87632   -1062.1362    144648.85   -39772.968    2680.2671   -42453.235    108.85681    224.40081 
   31700    134.88769    -1125.355    144561.01   -39769.923    2720.8387   -42490.762    108.77754    227.79761 
   31750    133.98856   -1015.7631    144515.44    -39779.45    2702.7023   -42482.152    109.05818    226.27916 
   31800    133.68256   -1069.0986    144429.27   -39795.203    2696.5298   -42491.732    109.37731    225.76238 
   31850    133.57809   -957.68992     144537.6   -39787.846    2694.4227   -42482.269    109.36469    225.58597 
   31900    129.67448   -1005.5089    144641.62   -39811.085    2615.6823   -42426.768    109.90258    218.99356 
   31950    130.45798   -776.84927    144772.11   -39766.774    2631.4864   -42398.261    110.11558    220.31674 
   32000     133.8675   -1021.9441    144762.75   -39774.434    2700.2602   -42474.694    110.09911     226.0747 
   32050    132.00134   -1038.3774    144617.09   -39772.175    2662.6177   -42434.792    110.19916    222.92315 
   32100    132.59538   -1138.8979     144491.6   -39756.186    2674.6002   -42430.786    110.25643    223.92636 
   32150    134.18165   -1271.3742    144475.25   -39738.986    2706.5971   -42445.584    110.72986    226.60525 
   32200    132.26197   -851.09417       144369   -39754.048    2667.8749   -42421.923    110.78897     223.3633 
   32250    133.45942    -946.1042    144687.74   -39809.254     2692.029   -42501.283    110.75047    225.38556 
   32300    133.24838   -1123.6586    144598.88   -39809.945    2687.7719   -42497.717    110.52222    225.02914 
   32350    133.71686    -1115.743    144445.37   -39794.442    2697.2216   -42491.663    110.85741     225.8203 
   32400    132.42193   -1000.7791    144326.93   -39835.548    2671.1015    -42506.65    111.34969    223.63344 
   32450    132.83822   -847.11634    144252.58    -39790.94    2679.4986   -42470.439    111.50743    224.33647 
   32500    133.03497   -786.82654     144372.1   -39797.036    2683.4672   -42480.503    111.56559    224.66874 
   32550    135.60957   -1040.8252    144519.35   -39823.609    2735.3998   -42559.009    111.70822    229.01671 
   32600    136.49391   -865.09924    144591.59   -39804.082    2753.2379   -42557.319    112.00981    230.51017 
   32650    136.00809   -1070.1407    144685.24   -39786.048    2743.4384   -42529.487    112.20585    229.68973 
   32700    136.01002   -1121.8463    144634.12   -39774.348    2743.4774   -42517.826    112.52231    229.69299 
   32750    134.38148   -1030.5289    144685.15   -39771.602    2710.6279    -42482.23    112.77701    226.94272 
   32800    137.47793   -952.81588    144617.31   -39763.952    2773.0869   -42537.039    112.85394      232.172 
   32850    136.98788   -1017.8711     144585.5   -39732.654     2763.202   -42495.856    113.10953     231.3444 
   32900    135.98249   -1019.3391    144707.28   -39733.576    2742.9221   -42476.498    113.11205     229.6465 
   32950    132.31386   -1008.3375    144620.56   -39750.262    2668.9216   -42419.184    113.26001    223.45093 
   33000    137.01071   -1040.4672    144577.13   -39767.297    2763.6624    -42530.96    113.49249    231.38295 
   33050    135.72296   -950.23586    144570.51   -39774.417    2737.6871   -42512.104    113.57603     229.2082 
   33100    132.82924   -1000.5386    144619.64   -39856.238    2679.3174   -42535.556    113.84006     224.3213 
   33150    132.83578   -953.81158    144524.22   -39823.977    2679.4493   -42503.427    113.82661    224.33234 
   33200     135.5407   -1125.4621     144515.7   -39819.205    2734.0107   -42553.215    114.12507     228.9004 
   33250    133.37105   -954.92805    144570.25   -39853.797    2690.2463   -42544.043    114.20691    225.23631 
   33300      133.147   -986.91455    144688.07   -39834.234    2685.7269   -42519.961    114.54121    224.85793 
   33350    132.08604   -912.04924    144685.04   -39827.725    2664.3263   -42492.051    114.71448     223.0662 
   33400    135.60804    -1074.741    144618.94   -39792.559     2735.369   -42527.928    114.87352    229.01413 
   33450    133.21638   -947.85275    144516.11   -39806.537    2687.1264   -42493.663    114.95839     224.9751 
   33500    132.72335   -959.83618    144628.35   -39802.556    2677.1816   -42479.737    115.10071    224.14248 
   33550     132.0283   -874.99766    144711.25   -39856.751    2663.1615   -42519.913     115.2576    222.96868 
   33600    133.71017   -985.14134    144832.52   -39845.882    2697.0869   -42542.969    115.53649    225.80902 
   33650    134.07785    -970.6608    144842.53   -39865.843    2704.5034   -42570.346    115.80195    226.42996 
   33700    132.80211   -1047.2196    144918.07    -39882.27    2678.7703    -42561.04    115.87649     224.2755 
   33750    132.46619   -823.73209    144972.78   -39884.958    2671.9942   -42556.952    115.85963    223.70818 
   33800    133.97677   -1114.2729    145102.11   -39855.442    2702.4644   -42557.907    116.26691    226.25924 
   33850    134.37773   -1050.4414    144986.27   -39845.812    2710.5522   -42556.364    116.26935    226.93639 
   33900    131.33783   -1009.9641    145030.37   -39878.917    2649.2339   -42528.151    116.54037    221.80261 
   33950    132.14954   -1013.7026    145048.88   -39909.451    2665.6071   -42575.059    116.78173    223.17344 
[...]
   92000    132.97262   -1006.9095    145429.16   -40064.586    2682.2095   -42746.796    284.73522    224.56344 
   92050    131.61072   -1067.4887    145445.67   -40096.375    2654.7385   -42751.114    285.12877    222.26347 
   92100    132.05479   -1084.5403    145326.54   -40087.078     2663.696   -42750.773    284.99696    223.01342 
   92150    133.16228   -1033.5348    145227.01    -40037.35    2686.0352   -42723.385    285.09169    224.88374 
   92200    130.92658   -962.21046    145168.93   -40100.921    2640.9386   -42741.859    284.97819     221.1081 
   92250    130.63631   -952.90401    145334.89   -40099.191    2635.0835   -42734.275    285.55594    220.61789 
   92300    131.10075   -975.54603    145255.27    -40109.95    2644.4518   -42754.402    285.79819    221.40224 
   92350    130.94763   -1091.8232    145183.83   -40133.188    2641.3632   -42774.551    285.71597    221.14365 
   92400    132.63192   -904.48351    145335.24   -40085.751    2675.3373   -42761.088    285.97555    223.98808 
   92450    133.54207   -918.44326    145461.03   -40041.648    2693.6959   -42735.343    286.17642    225.52512 
   92500    132.61246   -1055.6651    145371.08   -40076.756    2674.9447     -42751.7    286.13931    223.95521 
   92550    132.70741   -1010.6319    145294.38   -40093.391    2676.8599   -42770.251    286.14637    224.11555 
   92600    130.21721   -1028.6374    145235.23   -40145.103    2626.6297   -42771.733    286.24479    219.91012 
   92650    132.41137   -1036.0251    145382.07   -40133.155    2670.8886   -42804.043    286.58107    223.61562 
   92700    129.76194   -1017.4557    145455.72   -40122.796    2617.4464   -42740.243    286.89767    219.14126 
   92750    129.59821   -1055.5354    145366.73   -40208.855    2614.1438   -42822.999    286.97132    218.86475 
   92800    131.50617   -914.22261    145401.88   -40153.064    2652.6296   -42805.693    287.15346    222.08691 
   92850    130.35256   -972.29422    145343.96   -40158.608    2629.3599   -42787.968    287.29369    220.13869 
   92900    133.81362   -882.43993    145542.62   -40129.084    2699.1735   -42828.258    287.72212    225.98372 
   92950    135.19146   -949.90781    145654.85   -40108.288    2726.9661   -42835.254    287.81894    228.31061 
   93000    133.69725   -1042.4257    145713.52   -40097.907    2696.8262   -42794.733    288.00578    225.78719 
   93050    131.37477   -1068.6659    145575.42   -40105.839     2649.979   -42755.818    287.82952      221.865 
   93100    131.64662   -1020.5321    145593.28   -40060.157    2655.4626   -42715.619    287.86677     222.3241 
   93150    130.24189    -1102.599     145534.5   -40058.474    2627.1277   -42685.601    287.77081    219.95181 
   93200    136.26732   -967.12285    145566.74   -39985.608    2748.6674   -42734.275    287.69177    230.12751 
   93250    133.21769   -932.13536    145727.79   -40062.503    2687.1529   -42749.656    287.99444    224.97732 
   93300    131.83789   -966.96806     145572.1    -40108.42    2659.3208    -42767.74    288.20577    222.64712 
   93350    130.78768    -944.6703    145615.58   -40120.161    2638.1369   -42758.298    287.99046    220.87354 
   93400    129.87429   -1037.1812    145570.39   -40143.226    2619.7126   -42762.938    288.47368      219.331 
   93450    131.45344   -1002.2838    145562.72   -40110.752     2651.566   -42762.318    288.72957    221.99786 
   93500     131.1044   -964.46219    145542.62   -40107.129    2644.5253   -42751.654    288.84388     221.4084 
   93550    134.41189   -975.22896    145532.72   -40064.637    2711.2412   -42775.879    288.72438    226.99407 
   93600    130.10463   -977.84495    145523.73   -40071.457     2624.359   -42695.816    288.74783    219.72001 
   93650     133.6529    -933.2397    145498.96     -40044.8    2695.9316   -42740.731    288.76872     225.7123 
   93700    130.50343   -1110.4653    145475.98   -40068.725    2632.4032   -42701.128    288.62554    220.39349 
   93750    131.87147   -1089.5676    145421.65   -40058.127     2659.998   -42718.125     288.3563    222.70382 
   93800    131.31725   -945.83069    145491.71   -40050.346    2648.8189   -42699.165    288.13493    221.76787 
   93850    133.40286   -979.94384    145466.31   -40071.891    2690.8879   -42762.779    288.57103    225.29003 
   93900    135.55924   -1222.1292    145352.85   -40098.055    2734.3847    -42832.44    288.70134    228.93172 
   93950    131.75788   -1028.1871    145159.85   -40047.161    2657.7068   -42704.868    288.80426    222.51199 
   94000     131.6943   -1044.2959    145065.05   -40065.944    2656.4245   -42722.368    288.78539    222.40463 
   94050    131.07934   -1088.5788    145001.56   -40132.552    2644.0199   -42776.572     288.8587    221.36608 
   94100     130.2673   -848.27122    144965.54   -40107.154    2627.6402   -42734.794    288.69494    219.99472 
   94150    131.25654   -955.46577    145046.85   -40077.949    2647.5943   -42725.543    288.73953    221.66534 
   94200    132.40418   -912.25693    145134.82   -40027.119    2670.7436   -42697.862    288.72161    223.60347 
   94250    133.56044    -848.7698    145279.28   -40014.767    2694.0665   -42708.833    289.26726    225.55615 
   94300    132.52639   -1019.1147    145343.71   -40031.947    2673.2087   -42705.155    289.46795    223.80986 
   94350    131.22848   -1144.6962    145246.59   -40085.393    2647.0283   -42732.421    289.35043    221.61796 
   94400     132.1274    -1021.811    145072.27     -40064.7    2665.1606    -42729.86    289.07677    223.13605 
   94450    132.77981   -1053.5051    145009.91   -40052.847    2678.3204   -42731.167    288.97786    224.23783 
   94500    132.84015   -1062.6716    145024.01   -40049.187    2679.5374   -42728.725    288.77574    224.33972 
   94550    134.75309   -970.94617     145019.8   -39998.323    2718.1237   -42716.447    288.99678    227.57029 
   94600    132.70861   -879.87086    145208.47   -40010.462    2676.8841   -42687.346    289.19149    224.11758 
   94650    134.48011   -1058.0799    145215.55   -40037.633    2712.6174   -42750.251    289.45214    227.10929 
   94700    133.16363   -1129.4505    145164.09   -40082.722    2686.0624   -42768.785    289.56224    224.88602 
   94750    132.64143   -883.36886    145280.87   -40073.611    2675.5291    -42749.14    289.88704    224.00413 
   94800    131.73838   -964.01449     145326.9   -40044.606    2657.3135    -42701.92    289.83009    222.47906 
   94850    133.37877   -1015.5536     145408.9   -40015.533    2690.4021   -42705.935    289.87468    225.24935 
   94900    130.93967    -971.2944     145400.5    -40013.25    2641.2026   -42654.453    290.14499     221.1302 
   94950    130.98219   -1094.6534    145492.21   -40013.749    2642.0603   -42655.809    290.21572    221.20202 
   95000    130.00329   -1076.4518    145460.88   -40013.897    2622.3149   -42636.212    290.03264    219.54886 
   95050    132.12498   -1060.8808    145325.66   -39998.783    2665.1116   -42663.894    289.93119    223.13195 
   95100    132.39424   -1019.3691    145420.33   -39983.159     2670.543   -42653.702    290.04875    223.58668 
   95150    137.64193   -1036.3028    145494.28   -39947.686    2776.3949   -42724.081    290.13245    232.44896 
   95200     134.7316   -1099.5735    145520.29   -39972.504    2717.6903   -42690.194    290.05467    227.53401 
   95250    134.61418   -883.71359    145540.66   -39958.369    2715.3217   -42673.691    290.43157     227.3357 
   95300    133.53805    -1036.398    145589.14   -39970.974    2693.6149   -42664.589    290.25112    225.51834 
   95350    132.72882   -1033.0696    145551.01   -40029.315    2677.2918   -42706.606    290.37685    224.15171 
   95400    131.20623   -1139.0111    145375.56    -40046.77    2646.5795    -42693.35    290.23839    221.58038 
   95450    133.08489   -924.97031    145419.38   -40028.848    2684.4741   -42713.322    290.10675    224.75304 
   95500    135.01331   -1191.7609    145272.08   -40028.721    2723.3726   -42752.093    289.87351    228.00975 
   95550    135.19604      -962.84    145225.76   -39993.109    2727.0585   -42720.168    289.70575    228.31835 
   95600    134.30913   -921.83733    145468.34   -40037.462    2709.1684    -42746.63    290.18526    226.82053 
   95650    138.22705   -868.88598    145623.14   -39976.755    2788.1974   -42764.953    290.32469     233.4371 
   95700    135.65373   -992.07155    145674.19   -39960.769    2736.2905    -42697.06    290.39457    229.09128 
   95750    135.71443    -1006.185    145621.54   -39909.274    2737.5151   -42646.789    290.38388     229.1938 
   95800    134.68557   -1026.6548    145710.04   -39891.321    2716.7618   -42608.083    290.27255    227.45627 
   95850    134.03519   -999.44959    145641.51   -39887.663    2703.6429   -42591.306    290.36477    226.35791 
   95900    134.11244   -903.65826    145535.07   -39906.104     2705.201   -42611.305    290.51866    226.48836 
   95950    134.30316    -852.0678    145543.56   -39915.275     2709.048   -42624.323    290.44186    226.81045 
   96000    133.57657   -1048.7138    145601.68   -39954.658     2694.392    -42649.05    290.36355     225.5834 
   96050    134.65496   -966.38126    145519.85    -39962.53    2716.1443   -42678.674    290.51346    227.40457 
   96100     133.6957   -964.63782    145545.52   -39964.982    2696.7949   -42661.777     291.0357    225.78458 
   96150    130.88117   -992.25554    145421.73   -39962.426    2640.0227   -42602.448    291.00248    221.03142 
   96200    132.53766   -1111.8113    145312.57   -40005.935    2673.4358    -42679.37    291.20139    223.82888 
   96250    131.54199   -1091.7317    145267.46   -39999.317    2653.3521   -42652.669    291.57228     222.1474 
   96300    134.10126   -949.59317    145307.75   -39969.265    2704.9756   -42674.241    291.62447    226.46949 
   96350    135.74332   -1093.2683    145227.49    -39943.26    2738.0976   -42681.358    291.21276    229.24258 
   96400    133.00683    -988.6187    145266.36    -39959.46    2682.8995    -42642.36    291.40038    224.62121 
   96450    132.25708   -1066.0343    145379.92   -39988.945    2667.7762   -42656.722    291.59495    223.35504 
   96500    132.81047   -1014.8702    145189.54   -39974.781    2678.9387    -42653.72    291.58618     224.2896 
   96550    132.14945   -930.53671    145294.11     -40011.4    2665.6053   -42677.005     291.4662    223.17329 
   96600    134.21573    -952.8873    145484.13   -39962.259    2707.2844   -42669.543    291.61262    226.66279 
   96650    133.74142   -981.29042     145536.4   -39955.853    2697.7171    -42653.57      291.681    225.86179 
   96700    132.81326   -1106.2352    145518.88   -39962.531     2678.995   -42641.526    292.09208    224.29431 
   96750    133.69611    -901.2179    145422.16   -39947.944    2696.8032   -42644.747       291.55    225.78528 
   96800    135.49675   -883.06468     145480.4   -39918.344    2733.1241   -42651.468    291.67373    228.82618 
   96850    132.56842   -948.54904    145555.05   -39955.452    2674.0563   -42629.509    291.99176    223.88083 
   96900    132.15488    -919.4063    145686.18   -39949.612    2665.7148   -42615.327    292.01555    223.18245 
   96950    132.49807   -1058.5412    145682.79   -40012.411    2672.6373   -42685.048    291.98953    223.76202 
   97000    132.43832   -977.18763    145561.07   -40053.748    2671.4322    -42725.18    292.15166    223.66113 
   97050    132.79065   -1085.8382    145427.03    -40016.46     2678.539   -42694.999    292.00934    224.25613 
   97100    135.88176   -1037.8295     145458.1    -39939.21    2740.8903     -42680.1    291.79196    229.47639 
   97150    133.69929   -994.70203    145485.96   -39965.903    2696.8673    -42662.77    292.46718    225.79064 
   97200    133.01594   -939.05215    145488.89   -40001.177    2683.0834   -42684.261    292.69713     224.6366 
   97250    133.63989   -1047.2334    145486.55   -40000.408    2695.6692   -42696.077    292.65741    225.69033 
   97300    134.53953   -1000.7493    145550.96   -39962.136    2713.8158   -42675.952    292.81444    227.20963 
   97350    135.55373   -1184.9782    145366.14    -39980.38    2734.2735   -42714.654    293.05764    228.92241 
   97400    135.40189   -1083.7114    145295.87   -39979.451    2731.2107   -42710.662    292.98663    228.66598 
   97450    132.01022   -1145.1978     145107.7   -39977.302    2662.7968   -42640.099    292.79158    222.93814 
   97500    133.22592   -889.11063    145154.65   -39968.359    2687.3189   -42655.678    293.20644    224.99122 
   97550    132.62224   -1027.4811    145136.34   -39959.292     2675.142   -42634.434    293.65665    223.97173 
   97600    132.77181   -1032.0609    145246.25   -39969.433     2678.159   -42647.592     293.5625    224.22432 
   97650    135.79213   -917.61993    145338.24   -39969.846    2739.0823   -42708.928     294.3359    229.32502 
   97700    131.89947   -837.27461    145319.72   -40015.794    2660.5628   -42676.357    294.22497    222.75111 
   97750     132.3176   -994.17836    145147.84   -39991.425     2668.997   -42660.422    294.20367    223.45724 
   97800    135.12316   -1081.7686    145214.45   -39928.405    2725.5884   -42653.993    294.51268    228.19527 
   97850    134.76948   -948.85348    145359.32   -39906.743    2718.4542   -42625.197    294.53699    227.59797 
   97900    134.07637    -963.6335    145395.16   -39924.521    2704.4734   -42628.995    294.67769    226.42745 
   97950    134.21864    -986.1612     145468.1   -39912.743    2707.3432   -42620.086    294.68992    226.66771 
   98000    134.15962   -1000.3344    145562.21    -39949.39    2706.1527   -42655.543    294.90631    226.56805 
   98050    132.47228   -1109.7158    145411.62   -39998.655    2672.1171   -42670.772    295.02868    223.71847 
   98100    133.97059   -997.36372     145333.9   -40017.361    2702.3398     -42719.7    294.94675    226.24881 
   98150    132.24012   -955.82831    145363.96   -40042.539    2667.4342   -42709.973    295.02184     223.3264 
   98200    134.08503    -1012.931    145407.03    -40047.31    2704.6482   -42751.958    294.84534    226.44208 
   98250    132.46792   -1009.7765    145400.81   -40073.795    2672.0292   -42745.825    294.94072    223.71111 
   98300    131.87518   -971.06506    145334.63   -40032.697     2660.073    -42692.77    294.99025    222.71009 
   98350    133.57987    -1141.802    145260.36   -40025.159    2694.4584   -42719.617    295.24917    225.58896 
   98400    129.38821    -960.5132    145243.49   -40036.122    2609.9079    -42646.03    295.70112    218.51011 
   98450    132.61197   -982.98816    145284.12   -40034.411    2674.9348   -42709.345    295.79179    223.95438 
   98500    134.31694    -946.7231    145364.15    -39986.59    2709.3261   -42695.916    296.66338    226.83373 
   98550    132.83772   -1105.6736    145255.96   -39999.913    2679.4884   -42679.401    297.26097    224.33562 
   98600    132.51363   -1133.9641    145049.68   -40009.757    2672.9513   -42682.708    297.23895    223.78831 
   98650    134.26279   -923.88774    144964.53   -39957.176    2708.2338    -42665.41    297.16741    226.74228 
   98700    134.62166   -982.04897    145170.38   -39909.144    2715.4725   -42624.617    297.41789    227.34833 
   98750    135.54262   -1098.6485     145240.1   -39943.191    2734.0494    -42677.24    297.66392    228.90365 
   98800      133.997   -1040.9212    145249.11   -39935.311    2702.8725   -42638.184    297.82592    226.29342 
   98850    131.99089   -1089.0905    145109.35   -39950.401    2662.4068   -42612.808    297.53906     222.9055 
   98900    133.65751   -1135.9209    145029.36   -39988.246    2696.0246    -42684.27    297.99451    225.72008 
   98950     134.2863   -1095.0118    144905.71   -39956.434     2708.708   -42665.142    298.10397    226.78199 
   99000    135.15569   -937.04069    144888.38   -39949.939    2726.2446   -42676.183    298.26714    228.25021 
   99050    130.43107   -914.64952    144795.83   -39955.698    2630.9436   -42586.641    298.53364    220.27129 
   99100    137.76285   -946.53628    144834.39   -39892.702     2778.834   -42671.536    298.39889    232.65316 
   99150    133.02098   -970.90634     144894.7   -39930.861    2683.1849   -42614.046    299.04987    224.64511 
   99200    132.53299   -896.40383    144932.56   -39957.102    2673.3417   -42630.444    299.33882      223.821 
   99250    133.57219   -1074.7494    144948.58   -39957.018    2694.3035   -42651.321    299.54176    225.57599 
   99300    132.62263   -998.62492    144949.34   -39958.551    2675.1499   -42633.701    299.77626    223.97238 
   99350    133.98321   -1191.1296    144804.75    -39958.28    2702.5943   -42660.874    300.05602    226.27013 
   99400    134.89203   -1027.7463    144531.94   -39917.639    2720.9262   -42638.565    299.97455    227.80493 
   99450    132.82771   -868.34374    144748.32   -39979.055    2679.2865   -42658.341    300.45692    224.31871 
   99500    132.78529   -931.15732    144800.96   -40020.813    2678.4308   -42699.244    300.88087    224.24708 
   99550    130.80953   -1062.6281    144711.39   -40012.729    2638.5776   -42651.306    301.23166    220.91043 
   99600    130.22974   -1022.3038    144721.02   -40025.288    2626.8825    -42652.17    301.70513    219.93128 
   99650    129.27753   -1155.0653    144661.88   -40063.587    2607.6754   -42671.262    301.47129     218.3232 
   99700    131.89692   -984.50143     144587.6   -40110.265    2660.5115   -42770.777    301.58383    222.74681 
   99750    129.18924   -928.46686    144669.72    -40101.29    2605.8944   -42707.184     301.8798    218.17409 
   99800     133.8497   -899.58096    144831.54   -40048.476    2699.9013   -42748.377    302.25831    226.04465 
   99850    131.42284   -979.48118    144874.16   -40010.365    2650.9487   -42661.314    302.66014    221.94618 
   99900    132.02814   -955.30868    144855.85   -39988.564    2663.1584   -42651.722     302.7118    222.96842 
   99950    132.81414    -1044.385    144779.73   -39971.724    2679.0128   -42650.737     302.7004     224.2958 
  100000    133.99921   -894.96806    144943.49   -39943.984     2702.917   -42646.901    303.02501    226.29714 
Loop time of 436.042 on 30 procs for 100000 steps with 6768 atoms

Performance: 99.073 ns/day, 0.242 hours/ns, 229.336 timesteps/s
99.6% CPU use with 30 MPI tasks x no OpenMP threads

MPI task timing breakdown:
Section |  min time  |  avg time  |  max time  |%varavg| %total
---------------------------------------------------------------
Pair    | 71.993     | 185.43     | 371.67     | 787.4 | 42.52
Neigh   | 2.737      | 5.4641     | 15.582     | 192.5 |  1.25
Comm    | 41.282     | 163.55     | 215.79     | 460.9 | 37.51
Output  | 0.17258    | 0.18077    | 0.27789    |   4.3 |  0.04
Modify  | 5.7647     | 79.945     | 190.61     |1002.9 | 18.33
Other   |            | 1.471      |            |       |  0.34

Nlocal:    225.6 ave 533 max 149 min
Histogram: 24 0 0 0 0 0 0 0 4 2
Nghost:    1437.83 ave 1836 max 956 min
Histogram: 12 0 0 0 0 0 0 0 11 7
Neighs:    0 ave 0 max 0 min
Histogram: 30 0 0 0 0 0 0 0 0 0
FullNghs:  26849.9 ave 96939 max 9167 min
Histogram: 24 0 0 0 0 0 0 0 2 4

Total # of neighbors = 805496
Ave neighs/atom = 119.015
Neighbor list builds = 6129
Dangerous builds = 0

write_data		${DIR}/data.eq-${NAME}-${TEMP}
write_data		run_9/data.eq-${NAME}-${TEMP}
write_data		run_9/data.eq-het_freeze_9-${TEMP}
write_data		run_9/data.eq-het_freeze_9-225
undump          1

reset_timestep  0

unfix           2
unfix           3
unfix           4


################################################
#######         Run Simulation         #########
################################################

log				${DIR}/log.run_${NAME}
log				run_9/log.run_${NAME}
log				run_9/log.run_het_freeze_9
