LAMMPS data file via write_data, version 16 Mar 2018, timestep = 100000

6736 atoms
2 atom types

3.0440243334120254e-01 4.8915597566659471e+01 xlo xhi
3.0316327628414541e-01 4.8716472654126392e+01 ylo yhi
3.3208145453687976e-01 5.9729918545463960e+01 zlo zhi

Masses

1 18.015
2 12.01

Atoms # atomic

3703 1 2.6147135930050696e+00 3.0315524759444412e+00 2.1850486743761701e+00 2 1 0
5329 1 5.7415113054410085e+00 2.2441725293282893e+01 8.9330531712468861e+00 0 1 0
2544 1 1.2024826875751438e+01 3.9712726185944778e+00 1.1092873804867107e+01 1 1 1
2616 1 9.9973426318244893e+00 4.6513112820821432e+00 2.1873379258541616e+00 0 0 1
2011 1 1.1598010995062603e+01 2.2604866823600691e+01 8.7368942246298396e+00 0 0 0
3773 1 6.0620268483374540e-01 1.9129988899437205e+01 8.0903789440439517e+00 1 -2 0
4514 1 8.1847518945347475e-01 1.1927829947379852e+01 5.8498220560995646e+00 1 -2 0
6247 1 9.5608539532031394e+00 3.2035065533712563e+00 6.2646690678692698e+00 -1 1 1
2458 1 1.2082529956959599e+01 1.4110687933321518e+01 1.4961590045431141e+00 0 -1 1
1087 1 1.1616592188520055e+01 1.6253052642778691e+01 8.6377859246321904e+00 0 0 1
67 1 5.6133105401541403e+00 7.7952801298577477e+00 3.9465411376376194e+00 1 1 1
1142 1 6.9401502882920685e+00 5.5134241851215560e+00 5.4593104038372049e+00 -1 0 1
5936 1 1.6247487619352834e+00 2.4493329992331223e+01 1.1979667276072046e+01 2 1 1
1843 1 9.6834344641712669e+00 2.4495287007819062e+01 9.5115977278238155e+00 1 -1 0
287 1 1.8797712156521293e+00 7.5171053039222597e+00 6.0739682776633961e+00 1 0 0
3588 1 1.1061138877913974e+01 2.0419207217624074e+01 1.0656515595011467e+01 0 0 0
991 1 7.9706602668925397e+00 9.5333947115325959e+00 3.7808462412083759e+00 0 0 1
5297 1 4.4128502296484173e+00 1.0025658069072454e+01 1.5037060432691913e+00 1 1 0
248 1 1.0069616766914262e+01 9.4444000045489407e+00 6.6660917944531795e+00 1 0 0
2853 1 1.0872936514051126e+01 1.0674401858271558e+01 4.1404970629599607e+00 0 1 1
5266 1 3.8225926910471526e+00 1.5553488487824760e+01 1.5122129468461547e+00 -1 -1 0
854 1 3.9308365179552731e+00 1.4287973254019827e+01 3.7841389911246002e+00 1 -1 0
3490 1 6.9954990153298873e+00 1.4348753682557295e+01 1.1445672276854695e+00 1 0 0
2790 1 6.4937848855804434e+00 1.3891494592670709e+01 3.7325282740255163e+00 1 1 1
2681 1 4.8706225515833390e+00 1.0843071812781417e+01 1.1054313754340518e+01 -1 1 1
5351 1 1.0134215614390035e+01 1.2269374454311228e+01 1.8151055285726305e+00 0 1 0
3470 1 7.3155724310124066e+00 1.4638533964835812e+01 1.0422793252111362e+01 2 0 1
3663 1 2.9931480236399493e+00 2.0544624826914703e+01 3.4606956764184145e+00 0 1 1
119 1 6.5118884823259018e+00 1.9304115355613089e+01 3.6710489260419008e+00 0 -1 1
6178 1 2.6341418471549209e+00 2.0885035164818639e+01 8.9998729237202522e+00 0 1 1
3368 1 8.5266810103894386e+00 1.7619324313082355e+01 3.4559637209245033e+00 1 0 0
3556 1 1.0926983883359235e+01 1.8441303747393366e+01 2.4648383326465453e+00 1 0 0
1134 1 7.2701503023694727e+00 4.0451774651465122e+00 3.3319987113556477e+00 1 1 1
5515 1 5.4241959892168552e+00 5.9760633297520940e+00 2.0543642379516900e+00 -1 -1 0
1055 1 5.1007140559799566e+00 3.2183817678790820e+00 1.5865250253987708e+00 0 1 1
6038 1 7.7569411341711438e+00 2.1262734857368606e+01 2.1478511721739322e+00 0 0 1
211 1 6.0320778179055354e+00 2.3154120141884064e+01 1.5464452480890445e+00 2 0 0
5389 1 2.5777574920069561e+00 6.4061451379948817e+00 2.1978177426032106e+00 1 1 0
890 1 1.0491731489201621e+00 1.6002619564356226e+00 9.9794349926962447e+00 1 0 1
4172 1 1.2005683253677672e+01 8.9194802109572091e+00 2.1044176396389824e+00 0 -1 1
1739 1 8.4001669708033244e+00 2.1537706840392381e+01 1.0075727650453576e+01 -1 0 0
995 1 4.6860608496750977e+00 2.1083563714896858e+00 7.3070610178667783e+00 1 0 1
2644 1 2.6621129051149595e+00 8.8257562902461462e-01 3.6407417831222837e+00 0 0 1
2050 1 1.0911412837420681e+01 2.0919830329941654e+01 1.5942615644723228e+00 1 -1 0
5465 1 1.0878719137284877e+01 2.5628988722853321e+00 3.9946113648091437e+00 2 -1 0
503 1 1.2102416217773328e+01 1.1479605885076904e+00 7.2423862894836182e+00 -1 0 0
310 1 7.2163363129681790e-01 9.3518835309877186e+00 7.8113779034997677e+00 0 1 1
994 1 4.2590618936961668e+00 6.3269238655456403e+00 6.5036084582211302e+00 3 0 0
45 1 9.1591531254437140e+00 7.2698237937545196e+00 4.9354451510905690e+00 1 1 1
5219 1 5.5612026172763356e+00 7.6494787382411831e+00 8.5131904313006004e+00 1 -1 0
1946 1 1.1262518014956889e+01 6.4351509060071459e+00 3.2492214634058638e+00 -1 1 0
5112 1 8.8194433356874278e+00 8.0237053005116596e+00 9.2584846832592067e+00 1 0 1
1760 1 4.0413776064438363e+00 9.8008698454894354e+00 5.0791149355896605e+00 0 2 0
862 1 3.0105374295091019e+00 1.1079548180998637e+01 7.5277412093439535e+00 1 -1 1
1041 1 6.4252585061734813e+00 1.1357662650078268e+01 4.8439044197759085e+00 0 0 1
2425 1 7.7976622140638607e+00 1.1382513561721446e+01 7.1200340625091307e+00 0 -1 1
3784 1 8.6892643671095087e+00 1.1174216201549827e+01 1.0399970357016493e+01 0 1 0
3761 1 1.0004175039302551e+01 1.3323909135129078e+01 9.5637602021124497e+00 0 0 0
23 1 2.9723593432997926e+00 1.1783457405380322e+01 3.4313371976384981e+00 0 0 1
4420 1 4.1786541174156593e+00 1.3627271174127328e+01 7.1815673592033908e+00 1 0 1
2920 1 1.5513397403072140e+00 1.3592095904975306e+01 8.9961320578305877e+00 1 0 1
2118 1 5.7298990880861222e-01 2.1914449331004473e+01 1.0654170637791877e+01 1 0 0
2595 1 4.3545372838865265e-01 2.4646606579148278e+00 3.8274135746103233e-01 0 2 1
2807 1 8.3143864877339873e+00 1.5379874219801033e+01 4.8414229268857429e+00 0 0 0
3542 1 7.5188443260595674e+00 1.6920844984456117e+01 7.1009901899058603e+00 -1 0 0
1175 1 1.1853059716453767e+00 2.3388290749225281e+01 8.4038625903285169e-01 0 -1 1
5292 1 9.9401837515531852e+00 1.3261104372264320e+01 4.8328991327781292e+00 2 0 1
2055 1 1.1887100347917542e+01 1.3734326632705933e+01 7.0875895926485297e+00 0 -1 0
1247 1 2.9643271667255870e+00 1.5773199993976649e+01 5.7786854336449700e+00 1 0 1
4450 1 3.6114169963373830e+00 1.8130867166782789e+01 9.6986872353008664e+00 0 0 1
2113 1 5.3645608439689667e+00 2.0071923236914149e+01 5.8281397744828558e+00 0 2 0
5301 1 4.7250987443079060e+00 1.7666477722365276e+01 7.1843566076246272e+00 2 -1 0
88 1 8.9647354669544512e+00 1.9111095830128061e+01 6.0987989428679885e+00 1 -1 0
439 1 7.9432379424952622e+00 1.2211237766447159e+01 3.8842033136726684e-01 0 0 0
967 1 2.9399423191485621e+00 2.3473253275751887e+01 7.5028952524443655e+00 1 0 1
2526 1 4.0737180312626080e+00 2.2660437737342281e+01 5.0147372393663501e+00 0 0 1
6133 1 7.4767235509652554e+00 2.1278217052590204e+01 6.9586074437900267e+00 2 0 1
5480 1 8.5764164450424829e+00 2.2519053225281755e+01 4.8615438988106252e+00 1 1 0
1922 1 1.1372742672617482e+01 2.2643606532972598e+01 5.6949870304767014e+00 -1 0 1
2502 1 8.0670151561517329e+00 1.8762798982965336e+01 9.2002645467084996e+00 0 -1 0
5448 1 8.1653902631143822e+00 1.6636201384778506e+01 5.1016864441626431e-01 1 0 0
2797 1 6.4157347012363122e+00 1.0795685444070666e+00 3.0913378178784807e+00 -1 0 1
5113 1 1.0788831880339879e+01 5.4057745039539427e+00 6.7852027953807594e+00 0 0 1
1221 1 3.5301066404210926e+00 7.1938770045505755e+00 1.0462069749579866e+01 0 0 1
404 1 8.5771783667435830e+00 7.1374683716391001e+00 1.1645803883342408e+01 1 -1 0
6263 1 1.1716524022445231e+01 1.8285844206821103e+01 6.5948302594221690e+00 1 1 1
5970 1 7.0049000406073603e+00 9.6280924275911435e+00 1.0593242748908103e+00 0 1 1
5573 1 8.9505460577751605e-01 2.2718762768894290e+01 3.6573953907745076e+00 0 1 0
327 1 8.1639584479311433e-01 7.7330689683766192e+00 1.0267962698727993e+01 1 0 0
5102 1 2.9747107123769543e+00 4.4183433142095678e+00 8.0400660511343656e+00 2 1 1
4456 1 3.7037048865120448e+00 5.7573623272367858e-01 9.1859370339720776e+00 1 0 1
3502 1 7.5811998260191951e+00 5.5554333311390893e+00 8.0573453951521135e+00 2 -1 0
376 1 7.4962753965512912e+00 1.8729596769416521e+00 1.0316686787203833e+01 1 -1 0
431 1 7.2195641419835068e+00 2.6329017406009214e+00 7.8980884007636281e+00 -1 0 0
5355 1 1.2100920178322478e+00 1.4960608117412532e+01 1.2970446060194405e+00 0 0 0
3612 1 2.4493847120259193e+00 1.2061277307767927e+01 1.1224783258448660e+01 2 1 0
6225 1 5.5780804375801454e+00 1.0268936109187548e+01 8.4804139125511124e+00 1 1 1
2816 1 4.6411832784113409e+00 2.1143952523639168e+01 1.1441920357193899e+01 0 1 1
5344 1 4.0877688188951566e-01 1.4750021296398128e+01 6.6949447272064067e+00 1 0 0
269 1 4.4258469907943032e-01 1.9518308228273145e+01 1.1913406253642931e+01 1 -1 0
2164 1 4.4842156688662858e+00 1.8185356024744141e+01 1.7963518206507860e+00 1 0 1
5964 1 1.1427128705889595e+01 1.0208227624011890e+01 1.1174052117668641e+01 0 0 1
206 1 3.0761306410738318e+00 4.5006820014212261e+00 1.0971545020531606e+01 1 0 0
128 1 1.8889884632748091e+00 1.8716221845122277e+01 5.6925617543207814e+00 2 0 1
2198 1 6.6353949386082096e+00 1.4191254696824778e+01 7.8907619424833397e+00 1 1 0
1999 1 7.7572557154997632e+00 4.6614986512713470e+00 1.1431479121955855e+01 1 0 0
2911 1 9.1737752602509630e+00 1.6423108349756404e+01 1.0199201652587481e+01 0 0 0
3695 1 2.2296980804905711e+00 1.5936660115570843e+01 1.0509848355128476e+01 1 0 0
2424 1 6.1404219458257172e+00 1.8760023527277387e+01 1.1039543448993728e+01 0 0 1
6158 1 8.1452775775416775e-01 1.0627312155211738e+01 1.0594839463569621e+00 2 0 1
5461 1 5.4656692420184882e-01 6.0851740310822260e+00 4.3960669073708560e+00 1 1 0
824 1 4.8197442968428934e+00 5.0680461473787619e-01 5.2148741007270623e+00 -1 2 1
3716 1 7.7530745198314122e-01 5.1610606929278120e+00 1.2204550501555874e+01 0 0 0
494 1 1.1479508401468454e+01 6.2234560505306780e+00 9.5412479232647733e+00 -2 0 1
3661 1 9.1657761475138528e+00 3.7792500277101271e-01 3.5132786578777000e+00 0 1 0
791 1 1.2054803350342530e+01 2.9255915403065864e+00 1.0422591915782498e+00 1 0 1
1729 1 1.2162081723339854e+01 1.4154838001225514e+00 9.9799936236423328e+00 0 0 0
5416 1 6.7700489479549697e-01 1.2888976372200416e+00 5.2520275751158412e+00 1 1 0
322 1 6.5431261262127438e-01 6.9666465040206838e-01 1.6504718240347398e+01 0 0 0
2486 1 3.9109202733789226e+00 2.3302406101397821e+00 1.2584303288196251e+01 1 1 1
2443 1 1.9478664714985274e+00 2.9972023466776356e+00 1.7908171244417868e+01 0 2 1
5078 1 5.2742642951496208e+00 1.7348273674523695e+00 1.5288200061850556e+01 1 1 0
2585 1 2.3965516648898464e+00 1.7891478113689654e+01 2.0443888638253192e+01 1 0 1
288 1 1.1232163277610837e+01 1.7755573645503492e+01 2.1129245820654155e+01 -1 1 0
438 1 7.3981106924172435e+00 1.3219291082924659e+01 2.3065111592794132e+01 -1 0 0
6107 1 3.6372595673026846e+00 4.9600130875807968e+00 1.6258958591551988e+01 0 1 0
770 1 8.2791132818617061e+00 6.4633506189622478e+00 2.3721835187985267e+01 1 0 1
3599 1 4.2913995339588440e-01 1.2824425893218436e+01 2.1314987543590984e+01 1 0 1
1800 1 7.8758132607885418e+00 8.6882669491676567e-01 1.7738272288069229e+01 1 2 0
1146 1 1.2109175740882886e+01 1.4411254391904960e+01 1.7227988853881595e+01 1 1 1
801 1 1.2027499840851503e+01 2.8065554933888799e+00 1.6462632534029055e+01 0 -1 1
2470 1 9.8654423606007118e+00 3.8281003772462321e+00 1.2726232148247671e+01 0 1 1
5262 1 1.0838519115406003e+01 5.6534544357443632e+00 2.3097732021890796e+01 1 -1 1
5277 1 5.5815616118537585e+00 5.2004807563138575e+00 1.2820456221294725e+01 0 0 1
2913 1 2.5114784001651151e+00 9.2777980955309971e+00 1.4304115975911126e+01 0 0 1
4364 1 2.5951257155121845e+00 9.4755838923034350e+00 1.6998060647915299e+01 1 1 1
4369 1 4.5279327924913462e+00 2.4277390588111665e+01 1.4589448431505684e+01 0 2 1
858 1 1.0399646650883783e+01 2.4345256829186688e+01 1.5766579069007031e+01 1 -1 1
347 1 8.1010517621779030e+00 1.0510428461161352e+01 1.4354927558826342e+01 0 0 0
4257 1 6.4714069951830200e-01 1.1651480671328073e+01 1.3723417784570913e+01 0 1 1
3607 1 2.0812108237812259e+00 1.3544288784814070e+01 1.5096382420962664e+01 -1 -2 1
406 1 7.9913279846695895e+00 1.4467827999986381e+01 1.4637976522212085e+01 0 0 0
333 1 5.1566344153630128e+00 1.4308788782682161e+01 1.7302568165611163e+01 0 0 0
4138 1 9.9671243905076459e+00 1.2581176769638429e+01 1.4797392062530708e+01 1 0 1
1025 1 4.8640091079607162e+00 1.7723093232869481e+01 1.2978828475787282e+01 1 0 1
4321 1 1.0129211869974535e+01 1.4286376171640747e+00 1.4114636633335849e+01 1 0 1
3372 1 7.5667989828880726e+00 2.2926386827212642e+01 2.3879942066929619e+01 0 0 1
3817 1 1.1316741810686178e+01 7.6257647432491753e+00 1.2701732246715469e+01 0 0 0
3827 1 2.4873603717039403e+00 1.6861763646355197e+01 1.4366675740597163e+01 -1 0 0
5452 1 7.0456108771491497e+00 1.7879935118931670e+01 1.4841570202840344e+01 1 1 0
2479 1 1.8456949233408384e+00 1.1454902911133140e+00 1.3870505690366453e+01 -1 1 0
5464 1 1.0718717940926377e+01 1.9547177116423050e+01 1.6192406733159423e+01 0 0 0
2017 1 4.1235900434221033e+00 7.4589326168050540e+00 1.7455030396697413e+01 0 -1 0
2101 1 3.4181675691712496e+00 2.4319324446169169e+01 2.2637947294636188e+01 1 1 0
36 1 5.1800733257888476e-01 1.4589134856771205e+01 1.7951033917389665e+01 2 1 0
6210 1 2.0500122494072883e+00 2.2696073000411555e+01 1.4267277802371586e+01 0 0 1
3451 1 2.7443978202603660e+00 2.0133687212496849e+01 1.3345311642266623e+01 1 1 0
225 1 3.9585845020967603e+00 6.0297400419719904e-01 1.7298488611683482e+01 0 1 0
2165 1 6.5550706718181928e+00 2.2541393671167977e+01 1.2828608472538891e+01 1 1 0
3753 1 2.9687162808099425e+00 1.7926742834019880e+00 2.3953289173780846e+01 2 0 0
5121 1 8.0939689453015902e+00 2.0778370495302180e+01 1.4298618806817501e+01 0 1 1
3643 1 4.8747527024420573e-01 8.3506683803834267e+00 1.8143741943964667e+01 2 0 0
3715 1 1.0732788474060904e+00 1.6609631563058283e+01 2.3813082076642761e+01 0 3 0
40 1 1.9307981390500319e+00 4.3934533534792086e+00 2.3866041956824795e+01 2 0 1
1918 1 1.7937954083033243e+00 6.2950363958392588e+00 1.4390957608645820e+01 0 1 0
4176 1 9.0290444646446169e+00 1.1333277357450260e+01 2.3058973044357163e+01 0 0 1
3709 1 8.7424131357979942e+00 1.5383784682075648e+01 2.3028725119229644e+01 1 0 0
1891 1 7.4119758333180910e+00 3.3818223257034914e+00 1.7843528318172019e+01 1 0 1
5415 1 9.8630015686863057e+00 4.2283578350196898e+00 1.7062291320726516e+01 1 1 0
800 1 1.0650252890141612e+01 1.0799802848572155e+00 1.8486177681037525e+01 0 0 1
5588 1 6.3387039401762024e+00 4.3424623932462030e+00 1.5571356829253011e+01 1 0 0
6104 1 3.9334537446474407e+00 6.9159456844845755e+00 2.0144000966486431e+01 1 0 1
3816 1 5.6641122182514820e+00 2.3488391003568467e+00 2.0822504829395392e+01 1 0 0
1158 1 6.5105208810706321e+00 7.9132325470733704e+00 1.3705267710982268e+01 1 0 1
4179 1 8.5109046978036620e+00 6.4726937562082920e+00 2.0986899205717457e+01 0 -1 1
5108 1 9.0888737271805766e+00 5.5350883305926049e+00 1.4722313798222437e+01 0 1 1
5514 1 1.0413308434096647e+01 6.0599928682952315e+00 1.8856339027201368e+01 1 0 0
1052 1 1.6306718023716740e+00 8.2212185106087698e+00 2.1370623194788191e+01 0 -1 1
3741 1 6.5221771719833654e+00 7.5748226386235142e+00 1.6475822960449531e+01 -1 1 0
2568 1 7.5925691724607454e+00 8.1393041661960481e+00 1.9014495440968417e+01 -1 0 1
158 1 9.5394246709711901e+00 8.6175070155857068e+00 1.4979068958932503e+01 0 0 0
3639 1 5.5799462248849725e+00 5.4026036628272145e+00 2.3270919301061905e+01 1 0 0
3638 1 1.6099569903751858e+00 1.1746605378029203e+01 1.8961345923000188e+01 1 2 1
740 1 3.9745129626767524e+00 1.2171517158016666e+01 1.6507511248394067e+01 0 0 1
6278 1 6.3239787658121083e+00 1.0571692374992617e+01 1.6509346119577952e+01 0 -1 0
3394 1 7.2024191181011386e+00 1.2023983633390232e+01 1.8515971921507500e+01 1 -2 0
189 1 9.4999318115912654e+00 1.3773943411447782e+01 1.8004796931697644e+01 1 1 0
5081 1 3.7510396072226966e+00 1.7787538557329555e+01 1.6558155077178000e+01 1 1 0
232 1 5.1753565852580987e+00 1.5584525479798938e+01 2.0679836161152114e+01 0 -1 1
5158 1 7.8438425756187264e+00 1.5903923239470313e+01 1.7265760883248809e+01 0 0 1
5457 1 1.0243810213788997e+01 1.7043475007375985e+01 1.5298805388139273e+01 0 0 0
5320 1 1.0032428528752986e+00 2.2655003339106372e+01 1.6760755909532850e+01 2 1 0
1721 1 6.2531571947748716e+00 1.9673209590976295e+01 1.6783587462703085e+01 -1 0 0
3650 1 5.9395124990803980e+00 2.2534909963863566e+01 1.7044144024698792e+01 1 -1 0
479 1 8.7693214750443502e+00 2.0047092436847585e+01 1.8034158009815695e+01 1 -1 0
1756 1 8.5939586186071821e+00 2.3132398302454309e+01 1.7428100601782294e+01 -1 1 0
6200 1 4.2212673895239075e+00 2.0321572761574938e+01 2.3691150342708223e+01 1 -1 1
5468 1 1.1061904823811846e+01 1.6320169712016472e+01 1.2681268574933281e+01 0 -1 0
5867 1 9.2000931879441215e+00 1.8842570679329345e+01 1.2517412835104095e+01 0 0 1
2000 1 6.4248162394014052e+00 4.9358379414344542e+00 2.0131178988470975e+01 1 0 1
3378 1 3.3949591607405254e+00 6.8919963790057936e+00 2.3762346389290180e+01 2 0 1
281 1 1.0556725743190146e+01 3.0657004616463972e+00 2.3897492455261379e+01 2 1 0
56 1 5.2874512855230851e+00 2.2183128985013340e+01 2.2115016634898673e+01 0 0 0
3640 1 1.0237653148354880e+01 2.2445029046775094e+01 2.3675402597484428e+01 1 0 0
1021 1 5.9033631556103163e+00 8.9539481793213476e+00 2.0979456308008238e+01 0 0 1
2527 1 5.4002401492216254e+00 1.8764702566738713e+01 1.9376172411885126e+01 -1 0 1
5146 1 4.3933158398300876e+00 2.2946983957642971e+01 1.9416226151830791e+01 1 0 0
4355 1 7.4390890352151766e+00 1.9688906135952010e+01 2.3448264997647883e+01 1 0 1
5820 1 1.1175066854912822e+01 1.8709484173528861e+00 2.1098854712595607e+01 0 1 1
3708 1 1.2170199772999464e+01 1.3453900894706841e+01 2.3238730109900953e+01 1 2 0
4533 1 1.2338770717252478e+01 5.1512225375460270e+00 2.0825506910544252e+01 2 0 1
360 1 9.3684032903322798e+00 1.0810474034606562e+01 1.9867979222267909e+01 0 -1 0
54 1 3.9578544622849892e+00 1.0850871007547740e+01 2.0407009417305261e+01 -1 0 1
2667 1 7.5783982934378251e+00 8.9847290411211880e+00 2.3392810956617794e+01 -1 0 1
2561 1 5.7688315907188414e+00 1.5013204117588907e+01 1.2801653201234451e+01 1 1 1
5400 1 1.1821639492299292e+01 1.8068215401235069e+01 2.3830301380289388e+01 1 1 0
3375 1 1.2109971230780532e+01 1.1673006333776629e+01 1.6526808520889833e+01 1 0 0
4358 1 2.9628198774726213e+00 1.5968564633532258e+01 1.8436605837619581e+01 -1 1 1
4277 1 5.9131494996944403e+00 1.2878551239678004e+01 2.0615624898095763e+01 -1 -1 1
1210 1 7.7409574443340965e+00 4.4144568520967364e-01 1.4578398580810591e+01 1 -1 1
5998 1 3.0177498651426329e+00 1.4347619358236058e+01 1.2551904841103156e+01 1 0 1
5193 1 8.0224049419549157e+00 1.1932039127385439e+00 2.1179489500212554e+01 0 1 0
5473 1 1.6500141398968482e+00 2.0843607027625005e+01 2.3949509986075842e+01 0 0 0
970 1 1.9299796157584819e+00 1.9775601535769976e+01 1.6883207153782443e+01 -1 0 1
5479 1 3.3192944936063888e+00 1.7896127023209864e+01 2.2942746448637163e+01 1 -1 0
2738 1 2.7633109637387205e+00 3.9852756562242599e+00 2.0845515427368145e+01 1 0 0
5381 1 7.8853870992003987e+00 1.6967883670309387e+01 1.9687498830474350e+01 2 -1 1
2820 1 6.3189410126920342e-01 1.7337592210538761e+00 2.1888307531250884e+01 0 1 1
6177 1 1.1304903581140803e+01 2.0110959671010484e+01 1.9539806481036091e+01 0 -1 1
1995 1 7.1635457856972833e+00 2.0023775527517525e+01 2.0945342107855570e+01 0 1 0
795 1 9.6986879086294291e+00 2.2040346928021233e+01 2.1275610668364259e+01 0 -1 0
3464 1 9.8754775778485868e+00 1.5606225443690981e+01 2.0526749229466422e+01 0 1 0
4154 1 2.7795383161175802e+00 2.0527138074387501e+01 1.9645343388787563e+01 1 -1 0
945 1 1.0730765766596958e+01 8.8401785712637686e+00 1.7785243600292908e+01 0 1 1
345 1 2.4521512113811652e+00 1.1521986761406101e+01 2.2832155389478579e+01 0 0 0
3694 1 8.4445414995552710e+00 2.4067289115276719e+01 1.9881872616038788e+01 2 -2 0
2423 1 1.0474133003402381e+01 2.1862205116234986e+01 1.4705131946062734e+01 0 1 1
5918 1 6.9775925081813384e-01 2.1048085443639753e+01 2.1561021598679556e+01 1 0 0
1047 1 1.1925730503083050e+01 1.1206263773691953e+01 1.9293859327965805e+01 0 1 1
2022 1 4.4514672669201607e+00 8.7883406868076772e+00 1.2442621589834401e+01 1 -1 0
3841 1 7.5501773851825460e-01 9.7268817133813048e+00 2.3610695395439858e+01 0 1 0
425 1 5.4678421295873925e+00 2.6597784140365692e+00 2.3441639490416993e+01 1 0 0
5865 1 2.3144890040351891e+00 2.4378998946501916e+01 1.8578610870333794e+01 0 -1 1
3591 1 4.7703839756332709e+00 9.6234040599117829e+00 2.3891147487209846e+01 1 0 0
5339 1 5.1606254161334864e+00 1.5860920924922974e+01 2.3650071248763211e+01 1 0 0
3497 1 1.1447699238155815e+01 1.1183629611328215e+01 2.4053613908787341e+01 1 0 0
5531 1 6.7881871537883915e+00 1.2176189751804847e+01 1.2260632202515319e+01 1 1 0
2148 1 1.1040797316897867e+01 1.2922671886944405e+01 1.2489720616758859e+01 -1 1 0
511 2 3.0440243334120254e-01 3.1097319358692146e+00 2.6757513446241088e+01 0 0 0
512 2 3.0440243334120254e-01 3.0316327628414541e-01 2.6757513446241088e+01 0 0 0
513 2 1.5196823116741669e+00 1.0048054411804213e+00 2.6757513446241088e+01 0 0 0
517 2 1.5196823116741669e+00 2.4080897709730231e+00 2.6757513446241088e+01 0 0 0
518 2 2.7349621900071313e+00 3.1097319358692146e+00 2.6757513446241088e+01 0 0 0
519 2 2.7349621900071313e+00 3.0316327628414541e-01 2.6757513446241088e+01 0 0 0
520 2 3.9502420683401325e+00 1.0048054411804213e+00 2.6757513446241088e+01 0 0 0
528 2 3.9502420683401325e+00 2.4080897709730231e+00 2.6757513446241088e+01 0 0 0
529 2 5.1655219466730600e+00 3.1097319358692146e+00 2.6757513446241088e+01 0 0 0
530 2 5.1655219466730600e+00 3.0316327628414541e-01 2.6757513446241088e+01 0 0 0
531 2 6.3808018250059844e+00 1.0048054411804213e+00 2.6757513446241088e+01 0 0 0
543 2 6.3808018250059844e+00 2.4080897709730231e+00 2.6757513446241088e+01 0 0 0
544 2 7.5960817033390624e+00 3.1097319358692146e+00 2.6757513446241088e+01 0 0 0
545 2 7.5960817033390624e+00 3.0316327628414541e-01 2.6757513446241088e+01 0 0 0
546 2 8.8113615816723101e+00 1.0048054411804213e+00 2.6757513446241088e+01 0 0 0
562 2 8.8113615816723101e+00 2.4080897709730231e+00 2.6757513446241088e+01 0 0 0
563 2 1.0026641460004917e+01 3.1097319358692146e+00 2.6757513446241088e+01 0 0 0
564 2 1.0026641460004917e+01 3.0316327628414541e-01 2.6757513446241088e+01 0 0 0
565 2 1.1241921338338026e+01 1.0048054411804213e+00 2.6757513446241088e+01 0 0 0
585 2 1.1241921338338026e+01 2.4080897709730231e+00 2.6757513446241088e+01 0 0 0
586 2 1.2457201216670766e+01 3.1097319358692146e+00 2.6757513446241088e+01 0 0 0
587 2 1.2457201216670766e+01 3.0316327628414541e-01 2.6757513446241088e+01 0 0 0
6064 1 1.0051803741844147e+01 1.9922425905237326e+01 2.4296621904386619e+01 2 0 1
514 2 3.0440243334120254e-01 7.3195849252467928e+00 2.6757513446241088e+01 0 0 0
515 2 3.0440243334120254e-01 4.5130162656619008e+00 2.6757513446241088e+01 0 0 0
516 2 1.5196823116741669e+00 5.2146584305580550e+00 2.6757513446241088e+01 0 0 0
524 2 1.5196823116741669e+00 6.6179427603504832e+00 2.6757513446241088e+01 0 0 0
525 2 2.7349621900071313e+00 7.3195849252467928e+00 2.6757513446241088e+01 0 0 0
526 2 2.7349621900071313e+00 4.5130162656619008e+00 2.6757513446241088e+01 0 0 0
527 2 3.9502420683401325e+00 5.2146584305580550e+00 2.6757513446241088e+01 0 0 0
539 2 3.9502420683401325e+00 6.6179427603504832e+00 2.6757513446241088e+01 0 0 0
540 2 5.1655219466730600e+00 7.3195849252467928e+00 2.6757513446241088e+01 0 0 0
541 2 5.1655219466730600e+00 4.5130162656619008e+00 2.6757513446241088e+01 0 0 0
542 2 6.3808018250059844e+00 5.2146584305580550e+00 2.6757513446241088e+01 0 0 0
558 2 6.3808018250059844e+00 6.6179427603504832e+00 2.6757513446241088e+01 0 0 0
559 2 7.5960817033390624e+00 7.3195849252467928e+00 2.6757513446241088e+01 0 0 0
560 2 7.5960817033390624e+00 4.5130162656619008e+00 2.6757513446241088e+01 0 0 0
1564 2 1.1241921338338026e+01 2.3457354717861836e+01 3.3304486553760867e+01 0 0 0
561 2 8.8113615816723101e+00 5.2146584305580550e+00 2.6757513446241088e+01 0 0 0
581 2 8.8113615816723101e+00 6.6179427603504832e+00 2.6757513446241088e+01 0 0 0
582 2 1.0026641460004917e+01 7.3195849252467928e+00 2.6757513446241088e+01 0 0 0
583 2 1.0026641460004917e+01 4.5130162656619008e+00 2.6757513446241088e+01 0 0 0
584 2 1.1241921338338026e+01 5.2146584305580550e+00 2.6757513446241088e+01 0 0 0
605 2 1.1241921338338026e+01 6.6179427603504832e+00 2.6757513446241088e+01 0 0 0
606 2 1.2457201216670766e+01 7.3195849252467928e+00 2.6757513446241088e+01 0 0 0
607 2 1.2457201216670766e+01 4.5130162656619008e+00 2.6757513446241088e+01 0 0 0
2459 1 1.3239521407247898e+00 2.3713359120716234e+01 2.4470832327886708e+01 1 0 0
521 2 3.0440243334120254e-01 1.1529437914624422e+01 2.6757513446241088e+01 0 0 0
522 2 3.0440243334120254e-01 8.7228692550396563e+00 2.6757513446241088e+01 0 0 0
523 2 1.5196823116741669e+00 9.4245114199353992e+00 2.6757513446241088e+01 0 0 0
535 2 1.5196823116741669e+00 1.0827795749728191e+01 2.6757513446241088e+01 0 0 0
536 2 2.7349621900071313e+00 1.1529437914624422e+01 2.6757513446241088e+01 0 0 0
537 2 2.7349621900071313e+00 8.7228692550396563e+00 2.6757513446241088e+01 0 0 0
538 2 3.9502420683401325e+00 9.4245114199353992e+00 2.6757513446241088e+01 0 0 0
554 2 3.9502420683401325e+00 1.0827795749728191e+01 2.6757513446241088e+01 0 0 0
555 2 5.1655219466730600e+00 1.1529437914624422e+01 2.6757513446241088e+01 0 0 0
556 2 5.1655219466730600e+00 8.7228692550396563e+00 2.6757513446241088e+01 0 0 0
557 2 6.3808018250059844e+00 9.4245114199353992e+00 2.6757513446241088e+01 0 0 0
577 2 6.3808018250059844e+00 1.0827795749728191e+01 2.6757513446241088e+01 0 0 0
578 2 7.5960817033390624e+00 1.1529437914624422e+01 2.6757513446241088e+01 0 0 0
579 2 7.5960817033390624e+00 8.7228692550396563e+00 2.6757513446241088e+01 0 0 0
1553 2 1.0026641460004917e+01 2.1352428223172236e+01 3.3304486553760867e+01 0 0 0
1551 2 8.8113615816723101e+00 2.3457354717861836e+01 3.3304486553760867e+01 0 0 0
580 2 8.8113615816723101e+00 9.4245114199353992e+00 2.6757513446241088e+01 0 0 0
601 2 8.8113615816723101e+00 1.0827795749728191e+01 2.6757513446241088e+01 0 0 0
602 2 1.0026641460004917e+01 1.1529437914624422e+01 2.6757513446241088e+01 0 0 0
603 2 1.0026641460004917e+01 8.7228692550396563e+00 2.6757513446241088e+01 0 0 0
604 2 1.1241921338338026e+01 9.4245114199353992e+00 2.6757513446241088e+01 0 0 0
625 2 1.1241921338338026e+01 1.0827795749728191e+01 2.6757513446241088e+01 0 0 0
626 2 1.2457201216670766e+01 1.1529437914624422e+01 2.6757513446241088e+01 0 0 0
627 2 1.2457201216670766e+01 8.7228692550396563e+00 2.6757513446241088e+01 0 0 0
532 2 3.0440243334120254e-01 1.5739290904002051e+01 2.6757513446241088e+01 0 0 0
533 2 3.0440243334120254e-01 1.2932722244416821e+01 2.6757513446241088e+01 0 0 0
534 2 1.5196823116741669e+00 1.3634364409313406e+01 2.6757513446241088e+01 0 0 0
550 2 1.5196823116741669e+00 1.5037648739105359e+01 2.6757513446241088e+01 0 0 0
551 2 2.7349621900071313e+00 1.5739290904002051e+01 2.6757513446241088e+01 0 0 0
552 2 2.7349621900071313e+00 1.2932722244416821e+01 2.6757513446241088e+01 0 0 0
553 2 3.9502420683401325e+00 1.3634364409313406e+01 2.6757513446241088e+01 0 0 0
573 2 3.9502420683401325e+00 1.5037648739105359e+01 2.6757513446241088e+01 0 0 0
2499 1 1.2456152682809940e+01 1.2790733590573131e+00 2.4151481755782541e+01 0 0 1
574 2 5.1655219466730600e+00 1.5739290904002051e+01 2.6757513446241088e+01 0 0 0
575 2 5.1655219466730600e+00 1.2932722244416821e+01 2.6757513446241088e+01 0 0 0
576 2 6.3808018250059844e+00 1.3634364409313406e+01 2.6757513446241088e+01 0 0 0
597 2 6.3808018250059844e+00 1.5037648739105359e+01 2.6757513446241088e+01 0 0 0
598 2 7.5960817033390624e+00 1.5739290904002051e+01 2.6757513446241088e+01 0 0 0
599 2 7.5960817033390624e+00 1.2932722244416821e+01 2.6757513446241088e+01 0 0 0
600 2 8.8113615816723101e+00 1.3634364409313406e+01 2.6757513446241088e+01 0 0 0
621 2 8.8113615816723101e+00 1.5037648739105359e+01 2.6757513446241088e+01 0 0 0
622 2 1.0026641460004917e+01 1.5739290904002051e+01 2.6757513446241088e+01 0 0 0
623 2 1.0026641460004917e+01 1.2932722244416821e+01 2.6757513446241088e+01 0 0 0
624 2 1.1241921338338026e+01 1.3634364409313406e+01 2.6757513446241088e+01 0 0 0
642 2 1.1241921338338026e+01 1.5037648739105359e+01 2.6757513446241088e+01 0 0 0
643 2 1.2457201216670766e+01 1.5739290904002051e+01 2.6757513446241088e+01 0 0 0
644 2 1.2457201216670766e+01 1.2932722244416821e+01 2.6757513446241088e+01 0 0 0
3630 1 7.5279262166142740e+00 1.7141377039288464e+01 2.4448838472234737e+01 0 0 0
547 2 3.0440243334120254e-01 1.9949143893379784e+01 2.6757513446241088e+01 0 0 0
548 2 3.0440243334120254e-01 1.7142575233795167e+01 2.6757513446241088e+01 0 0 0
549 2 1.5196823116741669e+00 1.7844217398690706e+01 2.6757513446241088e+01 0 0 0
569 2 1.5196823116741669e+00 1.9247501728482991e+01 2.6757513446241088e+01 0 0 0
570 2 2.7349621900071313e+00 1.9949143893379784e+01 2.6757513446241088e+01 0 0 0
571 2 2.7349621900071313e+00 1.7142575233795167e+01 2.6757513446241088e+01 0 0 0
572 2 3.9502420683401325e+00 1.7844217398690706e+01 2.6757513446241088e+01 0 0 0
593 2 3.9502420683401325e+00 1.9247501728482991e+01 2.6757513446241088e+01 0 0 0
594 2 5.1655219466730600e+00 1.9949143893379784e+01 2.6757513446241088e+01 0 0 0
595 2 5.1655219466730600e+00 1.7142575233795167e+01 2.6757513446241088e+01 0 0 0
596 2 6.3808018250059844e+00 1.7844217398690706e+01 2.6757513446241088e+01 0 0 0
617 2 6.3808018250059844e+00 1.9247501728482991e+01 2.6757513446241088e+01 0 0 0
618 2 7.5960817033390624e+00 1.9949143893379784e+01 2.6757513446241088e+01 0 0 0
619 2 7.5960817033390624e+00 1.7142575233795167e+01 2.6757513446241088e+01 0 0 0
620 2 8.8113615816723101e+00 1.7844217398690706e+01 2.6757513446241088e+01 0 0 0
638 2 8.8113615816723101e+00 1.9247501728482991e+01 2.6757513446241088e+01 0 0 0
639 2 1.0026641460004917e+01 1.9949143893379784e+01 2.6757513446241088e+01 0 0 0
640 2 1.0026641460004917e+01 1.7142575233795167e+01 2.6757513446241088e+01 0 0 0
641 2 1.1241921338338026e+01 1.7844217398690706e+01 2.6757513446241088e+01 0 0 0
655 2 1.1241921338338026e+01 1.9247501728482991e+01 2.6757513446241088e+01 0 0 0