
# read in water data
read_data data.liquid_ML_1000 group water extra/atom/types 1
Reading data file ...
  orthogonal box = (0.0000000 0.0000000 0.37431495) to (49.220000 49.019636 59.687685)
  2 by 2 by 3 MPI processor grid
  reading atoms ...
  4466 atoms
  reading velocities ...
  4466 velocities
  read_data CPU = 0.013 seconds

# remove area for graphite
region substrate block 0 ${XDIM} 0 ${YDIM} ${Z_LO} ${Z_HI}
region substrate block 0 49.22 0 ${YDIM} ${Z_LO} ${Z_HI}
region substrate block 0 49.22 0 49.019635930410494 ${Z_LO} ${Z_HI}
region substrate block 0 49.22 0 49.019635930410494 25 ${Z_HI}
region substrate block 0 49.22 0 49.019635930410494 25 35.062
delete_atoms region substrate
Deleted 741 atoms, new total = 3725

# Insert substrate
read_data data.graphite add append shift 0.0 0.0 ${Z_LO} group graphite offset 1 0 0 0 0
read_data data.graphite add append shift 0.0 0.0 25 group graphite offset 1 0 0 0 0
Reading data file ...
  orthogonal box = (0.0000000 0.0000000 0.37431495) to (49.220000 49.019636 59.687685)
  2 by 2 by 3 MPI processor grid
  reading atoms ...
  2760 atoms
  reading velocities ...
  2760 velocities
  read_data CPU = 0.004 seconds


# Define potential
# CHECK ON THIS %%%%%%%%%%%%
#
pair_style sw
pair_coeff * * MLC_e.sw mW C


# Delete water and ice atoms that are overlapping
#
delete_atoms overlap 2.5 water graphite
System init for delete_atoms ...
Neighbor list info ...
  update every 1 steps, delay 10 steps, check yes
  max neighbors/atom: 2000, page size: 100000
  master list distance cutoff = 7.76
  ghost atom cutoff = 7.76
  binsize = 3.88, bins = 13 13 16
  2 neighbor lists, perpetual/occasional/extra = 1 1 0
  (1) command delete_atoms, occasional, copy from (2)
      attributes: full, newton on
      pair build: copy
      stencil: none
      bin: none
  (2) pair sw, perpetual
      attributes: full, newton on
      pair build: full/bin/atomonly
      stencil: full/bin/3d
      bin: standard
Deleted 117 atoms, new total = 6368

# set timestep
#
timestep 10.0

# Define output
#
compute 1 all msd
thermo 50
thermo_style custom step temp press vol etotal ke pe c_1[4]

# Neighbor lists
#
neigh_modify delay 0 every 1 check yes


# Fix graphite atoms in place
# CHECK ON THIS %%%%%%%%%%%%%%%%%%%%
#
fix 1 graphite setforce 0.0 0.0 0.0
velocity graphite set 0.0 0.0 0.0

# Set fixes
#
fix 2 water momentum 10 linear 1 1 1 rescale
fix 3 all nph z ${PRES} ${PRES} ${PCOUPL}
fix 3 all nph z -1000 ${PRES} ${PCOUPL}
fix 3 all nph z -1000 -1000 ${PCOUPL}
fix 3 all nph z -1000 -1000 10000.0
fix 4 all temp/csvr ${TEMP} ${TEMP} ${TCOUPL} 837492
fix 4 all temp/csvr 235 ${TEMP} ${TCOUPL} 837492
fix 4 all temp/csvr 235 235 ${TCOUPL} 837492
fix 4 all temp/csvr 235 235 5000.0 837492


# Run 1.0 ns equilibration of water
#
dump 1 all atom 1000 eq.all.${NAME}.dump
dump 1 all atom 1000 eq.all.graphite_ML_1000atm_e.dump
run 100000
Neighbor list info ...
  update every 1 steps, delay 0 steps, check yes
  max neighbors/atom: 2000, page size: 100000
  master list distance cutoff = 7.76
  ghost atom cutoff = 7.76
  binsize = 3.88, bins = 13 13 16
  1 neighbor lists, perpetual/occasional/extra = 1 0 0
  (1) pair sw, perpetual
      attributes: full, newton on
      pair build: full/bin/atomonly
      stencil: full/bin/3d
      bin: standard
Per MPI rank memory allocation (min/avg/max) = 4.557 | 4.688 | 4.952 Mbytes
Step Temp Press Volume TotEng KinEng PotEng c_1[4] 
       0    135.20178   -963.35678    143108.12   -33956.488    2565.9699   -36522.458            0 
      50    141.57145   -1102.1713    143090.23   -33753.304    2686.8588   -36440.163   0.41584804 
     100    142.15081   -1469.8249    142946.15   -33594.197    2697.8542   -36292.051   0.61549078 
     150    147.97648    -1108.752     142660.4   -33418.664    2808.4187   -36227.082   0.78132528 
     200    151.20715   -973.30907    142350.64   -33259.319    2869.7329   -36129.052   0.93846603 
     250    153.73424   -729.74977    142058.23   -33106.244    2917.6941   -36023.938    1.1625211 
     300    155.83439   -1221.3917    141832.59   -32941.955    2957.5525   -35899.507    1.3827862 
     350    157.88879   -1462.4495    141636.02   -32755.008    2996.5425   -35751.551    1.6444265 
     400    163.31244   -859.81003    141370.66   -32652.125    3099.4769   -35751.602    1.9396515 
     450    159.80282   -1006.2838     141190.5   -32519.844    3032.8686   -35552.713    2.2186751 
     500    159.48954   -1118.1679    141174.84   -32385.235     3026.923   -35412.158    2.5894983 
     550    163.81193   -1179.0922    141149.87   -32263.152    3108.9568   -35372.108    2.9243125 
     600    167.48587     -908.136    141016.02   -32130.583    3178.6838   -35309.267    3.2701008 
     650    164.35237   -995.89885    140837.84   -32021.009    3119.2136   -35140.222     3.677373 
     700    165.16197   -1045.6488    140712.53   -31868.602    3134.5789   -35003.181    4.1762113 
     750    164.10562   -1157.0385    140522.73   -31754.685    3114.5305   -34869.216    4.7644756 
     800    170.12861   -1076.8407    140279.31   -31631.054    3228.8398   -34859.893    5.2512548 
     850    169.32482   -608.39527     140090.8   -31529.296    3213.5849   -34742.881    5.7911762 
     900    171.95001     -1237.72    140002.12   -31417.258    3263.4078   -34680.666    6.4703986 
     950    172.66963   -673.05343    139922.41   -31315.312    3277.0654   -34592.378    7.1659879 
    1000    176.49268   -957.74855    139900.12   -31176.067    3349.6223   -34525.689    7.7549453 
    1050     177.3233   -1172.6777    139944.13    -31080.48    3365.3865   -34445.867    8.5976375 
    1100     179.6556   -1003.8171    140017.51    -30957.44    3409.6509   -34367.091    9.4760684 
    1150    178.22135   -946.92778    140109.54   -30855.099    3382.4305    -34237.53    10.290637 
    1200    178.24399   -1192.6978    140220.92   -30766.818    3382.8602   -34149.679    11.069715 
    1250    183.43971   -660.98095    140275.69   -30675.805    3481.4688   -34157.274     11.98888 
    1300    182.56221   -1010.5803    140416.06   -30601.343     3464.815   -34066.158    12.876077 
    1350      188.112   -1025.6392     140570.1   -30476.167    3570.1434    -34046.31    13.725184 
    1400    189.98004   -708.49584     140708.1   -30373.537    3605.5966   -33979.134    14.786299 
    1450    186.83482   -1192.0724    140885.25   -30268.645     3545.904   -33814.549    15.966797 
    1500     191.8882   -640.82994    141043.26   -30231.751    3641.8112   -33873.562    17.109777 
    1550    194.15385   -714.82022    141305.69   -30116.584    3684.8105   -33801.394    18.184483 
    1600    193.95353   -1185.2776     141694.3   -30043.351    3681.0087   -33724.359    19.576621 
    1650    194.37286   -738.50412     142090.9   -29983.329     3688.967   -33672.296     20.89543 
    1700    194.86373   -1041.2964    142520.46   -29902.175    3698.2832   -33600.459    22.218821 
    1750    196.54118   -512.43263    142947.28   -29794.683    3730.1192   -33524.802    23.567647 
    1800    203.17994   -1159.0402    143419.86   -29754.794     3856.115   -33610.909    24.951744 
    1850    197.14046   -978.10711    143792.97   -29661.776    3741.4928   -33403.269    26.627131 
    1900     204.2211   -1026.0997    144207.32   -29604.508     3875.875   -33480.383     28.11195 
    1950    200.57454   -425.55094    144635.16   -29533.961    3806.6677   -33340.629    29.532989 
    2000    207.04673   -343.25487    145102.83   -29440.965    3929.5021   -33370.467    31.044694 
    2050    207.70799   -1006.3815    145610.73   -29385.363    3942.0521   -33327.415    32.487573 
    2100     205.9437   -468.78329    146104.08   -29330.869    3908.5678   -33239.437    33.830632 
    2150    210.50735   -561.69568    146670.19   -29249.006    3995.1806   -33244.187     35.46917 
    2200    206.94142   -515.24878    147250.95   -29173.253    3927.5035   -33100.757    37.113459 
    2250    210.79622   -387.32638    147862.96   -29133.443     4000.663   -33134.106    38.975889 
    2300    214.82638   -480.83011    148490.08   -29098.323    4077.1506   -33175.474    40.696234 
    2350     215.2418    -685.1015    149144.03   -29035.365    4085.0349     -33120.4    42.650054 
    2400    212.51849   -579.28751    149811.36    -29007.99    4033.3497    -33041.34    44.600443 
    2450    217.00645   -907.30588    150436.39   -29007.759    4118.5258   -33126.285    46.297133 
    2500    210.99917   -610.88317    151006.78    -29000.93    4004.5147   -33005.444    48.137529 
    2550    216.15863   -370.60778     151615.5   -28920.115    4102.4353   -33022.551    49.871383 
    2600    217.28952   -654.00924     152277.2   -28910.471    4123.8982   -33034.369    51.725547 
    2650    215.36696   -446.07971    152880.25   -28889.225    4087.4102   -32976.636    53.626494 
    2700    216.43655   -457.50686    153454.97   -28836.354    4107.7098   -32944.064    55.672137 
    2750    219.65189   -405.46472    154091.49   -28790.072    4168.7332   -32958.805    57.946116 
    2800    217.75246   -336.67586     154800.6   -28783.926    4132.6842    -32916.61    60.041458 
    2850    213.11552   -599.69526    155528.77   -28736.606    4044.6805   -32781.286      62.2861 
    2900    221.00119   -638.62468    156229.79   -28707.449    4194.3414   -32901.791    64.687897 
    2950    218.88736   -289.60564    156935.26   -28679.891    4154.2233   -32834.114    67.043112 
    3000    218.99152   -586.98576    157602.48   -28662.232    4156.2002   -32818.432    69.203411 
    3050    219.09594    -641.9223    158243.12   -28616.453    4158.1818   -32774.635    71.444408 
    3100    225.48397   -303.68913    158875.99   -28554.018    4279.4191   -32833.437    73.784904 
    3150    221.33239   -54.421148    159575.86    -28511.47     4200.627   -32712.097    76.660784 
    3200    224.88573   -502.13774    160315.23   -28487.174    4268.0652   -32755.239    79.348403 
    3250    220.76446   -930.01835    161055.76   -28455.562    4189.8485   -32645.411    81.603672 
    3300    221.33773   -360.51597     161767.6   -28437.293    4200.7283   -32638.021    83.589701 
    3350    224.07079   -556.72329    162436.55   -28440.719    4252.5987   -32693.318    85.749961 
    3400    223.06064   -467.14822    163047.79   -28436.635    4233.4272   -32670.062    88.027185 
    3450    222.14413   -332.92915    163647.09   -28449.467     4216.033     -32665.5     90.55261 
    3500    220.40791   -322.68816    164271.93    -28426.75    4183.0815   -32609.831    93.123446 
    3550    222.35129   -388.00304    164982.36   -28411.815    4219.9645    -32631.78    95.487446 
    3600    228.17698   -116.33379    165696.32   -28382.319    4330.5293   -32712.849    98.462414 
    3650    222.02586   -238.47037    166444.62    -28354.24    4213.7882   -32568.028    101.12855 
    3700    225.05931   -413.06073     167167.1   -28306.563    4271.3597   -32577.923    103.71077 
    3750    227.33477   -633.95357    167858.34   -28223.721    4314.5451   -32538.266    106.32144 
    3800     229.3978   -494.56039    168473.05   -28211.447    4353.6991   -32565.146    109.07579 
    3850    229.36883   -401.51397    169130.01   -28159.256    4353.1491   -32512.405    111.83712 
    3900    228.68394   -516.09436    169851.16   -28128.434    4340.1509   -32468.585    114.54883 
    3950    226.77229   -365.92605    170511.78   -28126.399    4303.8699   -32430.268    118.03434 
    4000    231.11133   -404.69628    171207.64   -28145.582    4386.2198   -32531.802    121.78886 
    4050    227.29107   -29.943795    171937.69   -28127.245    4313.7158    -32440.96    124.41684 
    4100    231.86869   -213.15246    172774.83   -28118.544    4400.5936   -32519.137    127.81258 
    4150     226.0414   -416.70944    173667.76   -28129.555    4289.9986   -32419.553    131.18553 
    4200    226.80523   -379.97978    174490.88   -28113.147     4304.495   -32417.642    134.59427 
    4250    231.60854   -678.47485    175199.98   -28078.224    4395.6562   -32473.881    137.53001 
    4300    227.14879   -414.80872    175870.32   -28062.396    4311.0154   -32373.411    140.33668 
    4350    228.86047   -228.21202    176571.86   -28052.002    4343.5011   -32395.503    143.52884 
    4400    228.96424   -207.33448     177363.7   -28035.546    4345.4705   -32381.017    146.62085 
    4450    230.18309     16.29735    178182.44    -28011.96    4368.6028   -32380.562    150.13922 
    4500    231.03361   -429.10461    179006.38   -28006.749    4384.7448   -32391.494    153.27064 
    4550    224.57536    -314.1955    179809.24   -27982.843    4262.1748   -32245.018    156.66785 
    4600    233.83264   -95.131746    180634.56   -27965.486     4437.867   -32403.353    160.87562 
    4650     234.3445   -323.18744    181554.27   -27946.536    4447.5815   -32394.117    165.15751 
    4700    235.22093   -331.36754    182449.14   -27942.373    4464.2152   -32406.588    168.85862 
    4750     229.0834   -285.91629    183330.49   -27958.239     4347.732   -32305.971    172.59078 
    4800    228.92534   -425.45158    184156.91   -27922.172    4344.7323   -32266.905    176.09842 
    4850    236.18461     87.69259    184924.77   -27901.985    4482.5047   -32384.489    180.87463 
    4900    231.59463   -355.86267     185866.8   -27907.339    4395.3922   -32302.731    185.56518 
    4950    234.28491    173.83734    186855.67   -27908.861    4446.4506   -32355.311    190.49197 
    5000    229.52823    -174.1675    187900.78   -27886.667    4356.1744   -32242.842    195.74598 
    5050    238.07896   -404.65835    188849.76   -27901.732    4518.4571   -32420.189    200.62043 
    5100    236.63621    188.26489    189785.02   -27898.598    4491.0755   -32389.673    205.75659 
    5150    230.92138   -170.71403    190738.08   -27896.735    4382.6147    -32279.35    210.51471 
    5200    228.76726   -208.95879    191699.97   -27871.941    4341.7322   -32213.673    215.77799 
    5250    236.34702    13.117751    192620.78   -27842.865     4485.587   -32328.452    220.71703 
    5300    236.29577    -271.9965    193543.63   -27808.569    4484.6144   -32293.183    225.63056 
    5350    234.36827   -356.36337    194498.05   -27801.602    4448.0326   -32249.635    231.54715 
    5400    235.27533   -367.56169    195473.94   -27809.812    4465.2475    -32275.06    236.65691 
    5450     234.9305   -118.22792    196436.56   -27786.122    4458.7031   -32244.825    241.76651 
    5500    234.83375   -166.88787    197444.34   -27794.188    4456.8669   -32251.055    246.76421 
    5550     236.5046   -249.65539    198434.75   -27795.357    4488.5778   -32283.935    252.02776 
    5600    238.77216   -231.08438    199446.83   -27787.755    4531.6134   -32319.368     257.3308 
    5650    234.02198   -333.29883    200465.35   -27781.973    4441.4604   -32223.434    263.24184 
    5700    239.68558   -352.99909    201455.37   -27757.126    4548.9489   -32306.075    268.92062 
    5750    231.39011   -168.97685    202531.49   -27773.129    4391.5107   -32164.639     275.3772 
    5800    239.39795   -147.01414    203662.74   -27789.314      4543.49   -32332.804    282.14505 
    5850    236.56762   -169.69696    204810.11   -27795.992    4489.7738   -32285.766    287.79961 
    5900    234.76011   -551.31264    205876.65   -27758.685    4455.4694   -32214.154    293.21027 
    5950    235.14828    8.2520801     206866.1   -27753.152    4462.8363   -32215.988    299.03946 
    6000    232.95997   -310.94334     207886.3   -27758.125    4421.3047    -32179.43    305.06807 
    6050    234.47959   -179.34393    208863.12   -27791.059    4450.1453   -32241.205    311.75526 
    6100    241.16891   -113.06382    209900.53   -27803.969    4577.1007   -32381.069    318.67819 
    6150    240.51919   -234.73779    211075.06   -27776.366    4564.7699   -32341.136     326.1018 
    6200    238.04296    99.997018    212283.78   -27770.726    4517.7739     -32288.5    333.58711 
    6250    240.26785    190.00061    213536.19   -27751.549    4559.9998   -32311.549    341.00094 
    6300    233.53136   -146.05366     214717.7   -27769.724    4432.1491   -32201.873    348.56269 
    6350    239.45637   -205.48107    215877.64   -27792.692    4544.5987   -32337.291    354.91692 
    6400    236.97067   -9.1143621    216982.62   -27745.164    4497.4231   -32242.587    360.94499 
    6450    233.16963   -273.50487    218026.19   -27745.975    4425.2838   -32171.259    368.00966 
    6500     238.8786   -379.07436    219088.04   -27729.266    4533.6334     -32262.9    375.54716 
    6550    236.96165    84.424487    220203.14   -27733.842     4497.252   -32231.094    383.56334 
    6600    240.85769   -5.8496115    221367.91   -27796.998    4571.1942   -32368.192    391.65154 
    6650      236.571    257.83481    222576.69   -27828.268    4489.8379   -32318.106     399.3172 
    6700    239.26947   -203.91014    223802.84   -27840.665    4541.0517   -32381.716    407.46031 
    6750    231.30077    160.17635    225011.34   -27854.396    4389.8151   -32244.211    416.05613 
    6800    238.29021   -131.87996    226253.49   -27859.729    4522.4665   -32382.196    423.65133 
    6850    233.20071   -291.75678    227468.86   -27885.487    4425.8736    -32311.36    432.45709 
    6900    233.83494   -336.62965    228642.24   -27895.936    4437.9106   -32333.847    440.51645 
    6950    232.66086   -260.99184    229845.88   -27875.035    4415.6281   -32290.663    450.00975 
    7000    236.96603   -259.79379    231111.24   -27867.176    4497.3351   -32364.511    458.59862 
    7050    233.65839    29.671831    232424.07   -27849.814    4434.5599   -32284.374    467.83845 
    7100    236.12088   -89.421908    233705.84   -27823.891    4481.2952   -32305.186    476.21075 
    7150     238.1765   -38.173553    234959.65   -27826.211    4520.3083    -32346.52    484.41854 
    7200    234.01521    6.7280804    236202.28   -27814.704    4441.3319   -32256.036     492.2971 
    7250    237.95775    97.889813    237374.34   -27779.151    4516.1568   -32295.307    500.59364 
    7300    235.21032   -17.493488    238595.92   -27799.856    4464.0138    -32263.87    510.43018 
    7350    237.88318   -80.023143    239900.99     -27797.9    4514.7415   -32312.642    520.45764 
    7400    241.06808    91.137774    241231.46    -27807.35    4575.1872   -32382.537    528.94599 
    7450    235.38808   -77.824426    242644.92   -27808.191    4467.3875   -32275.579    537.99405 
    7500    233.83289   -206.14737    243998.79    -27822.32    4437.8717   -32260.192    549.47858 
    7550    231.71085   -45.841824    245274.33    -27856.35    4397.5979   -32253.948    559.72539 
    7600    234.75242    -178.5776    246632.83   -27848.466    4455.3234    -32303.79    569.48777 
    7650    240.71663   -215.78363    247945.18    -27840.54    4568.5171   -32409.057    579.59338 
    7700     242.6601   -217.16024    249294.46   -27833.643    4605.4018   -32439.045    590.02367 
    7750    236.84027    206.83072    250640.45   -27846.656    4494.9483   -32341.604    601.33391 
    7800     234.0849   -146.05796    252068.58   -27881.878    4442.6546   -32324.532    613.21648 
    7850    235.02657    137.41479    253479.22   -27846.451    4460.5265   -32306.978    625.75017 
    7900    239.06168   -140.10582    254920.36   -27850.275    4537.1081   -32387.384    635.88615 
    7950    232.88427   -152.43065    256404.67   -27851.993     4419.868   -32271.861    646.45497 
    8000    233.04041   -100.31761    257791.75   -27842.368    4422.8314   -32265.199      657.822 
    8050    235.06326   -1.8959991    259133.85   -27867.647    4461.2227    -32328.87    668.14058 
    8100    232.45081   -257.87682    260540.28   -27886.774    4411.6414   -32298.416    679.36267 
    8150    231.82238    18.701254    261948.36   -27910.135    4399.7146    -32309.85     692.1603 
    8200    240.32036    31.463136    263434.13   -27882.458    4560.9962   -32443.454    704.39459 
    8250    233.17359    -9.886736    264997.16   -27886.825    4425.3591   -32312.184    717.58654 
    8300    232.26454   -321.84369    266518.79   -27878.681    4408.1063   -32286.787    728.99265 
    8350    233.94504  -0.53978083    267951.61    -27910.82    4440.0002   -32350.821     740.6999 
    8400    231.95918   -81.824029    269487.91   -27912.626    4402.3109   -32314.937    752.62645 
    8450     237.3197   -89.000206    271012.37   -27897.133    4504.0473    -32401.18     764.4257 
    8500    237.34495   -479.40037    272554.08   -27882.674    4504.5266     -32387.2    778.76529 
    8550    238.17591    32.114734    274047.29   -27865.717    4520.2971   -32386.014    793.86184 
    8600    234.08881   -197.78024    275648.69   -27853.667    4442.7288   -32296.396    807.21231 
    8650    238.37149   -46.561084    277203.94   -27831.395    4524.0091   -32355.404    821.84728 
    8700    236.11438    35.177818    278866.17   -27824.774    4481.1717   -32305.946     836.4984 
    8750    235.83889   -237.20562    280528.97   -27789.236    4475.9432    -32265.18     850.3395 
    8800    240.62134   -141.31099    282005.15   -27771.893    4566.7085   -32338.602    863.57903 
    8850    239.92873   -125.52158    283588.94   -27759.572    4553.5637   -32313.136    878.62478 
    8900    234.76042   -139.06791    285187.01   -27748.714    4455.4752   -32204.189    894.56943 
    8950     237.2344    83.199867    286826.32   -27750.084    4502.4284   -32252.513    910.93862 
    9000     237.2532    164.97836    288539.08   -27743.956    4502.7853   -32246.742      928.903 
    9050    238.61064   -72.264542    290347.88   -27768.744    4528.5478   -32297.291    945.22761 
    9100    235.90731    -194.7679    292000.19   -27754.829    4477.2418   -32232.071    961.98823 
    9150    236.55871   -32.159093    293624.06   -27759.617    4489.6046   -32249.221    978.85429 
    9200    234.91389   -191.12856    295263.84   -27735.004    4458.3878   -32193.392    996.77309 
    9250    241.14541    -138.7192    296942.85    -27742.66    4576.6547   -32319.315    1014.5317 
    9300    238.50922    44.116421    298648.23   -27789.425    4526.6229   -32316.048    1033.2804 
    9350    240.99538    31.874001    300509.05   -27801.668    4573.8073   -32375.475    1050.8147 
    9400    234.17611   -50.026158    302389.65   -27815.585    4444.3857    -32259.97    1068.6153 
    9450    237.93913   -88.350238    304126.36   -27810.567    4515.8033    -32326.37    1086.5411 
    9500    238.10134    102.50382     305860.3   -27818.253     4518.882   -32337.135    1105.2878 
    9550    235.72815   -95.710147    307759.73   -27836.162    4473.8416   -32310.004     1124.779 
    9600    235.22214   -62.813676     309618.2    -27822.66    4464.2382   -32286.898    1142.9093 
    9650    235.09598    18.155186    311372.43   -27785.868    4461.8437   -32247.711    1162.0156 
    9700    237.39982    2.5335443    313215.18    -27816.33    4505.5679   -32321.898    1181.4181 
    9750    237.93531   -103.22096    315131.71   -27848.786    4515.7308   -32364.517     1202.729 
    9800    233.15524   -86.459438    317052.78   -27850.702    4425.0109   -32275.713    1224.0841 
    9850    236.57983   -65.621357     318966.9   -27826.552    4490.0054   -32316.557      1245.11 
    9900    235.66927   -135.72558    320890.56   -27811.516     4472.724    -32284.24    1267.0339 
    9950    237.32747    2.4871098    322787.68   -27813.745    4504.1947    -32317.94    1288.9976 
   10000    235.18262   -93.635666    324754.45   -27828.922    4463.4881   -32292.411    1310.6339 
   10050    234.68115    21.386191    326775.56   -27815.676    4453.9707   -32269.647    1333.6976 
   10100    232.26503   -60.824032    328807.38   -27834.056    4408.1156   -32242.171    1354.9774 
   10150    233.94001   -310.82992    330770.47   -27806.024    4439.9048   -32245.929    1377.6309 
   10200     236.2866   -57.603781    332652.27   -27825.649    4484.4403   -32310.089    1400.4219 
   10250    239.12867    26.079854    334595.27    -27779.71    4538.3795    -32318.09    1424.8532 
   10300    239.91158   -57.338119    336686.11   -27763.536    4553.2382   -32316.774    1450.0474 
   10350    238.49519   -55.453817    338875.31    -27798.24    4526.3568   -32324.597    1476.8356 
   10400    235.06164    28.107813    341055.04   -27796.895     4461.192   -32258.087    1501.3212 
   10450    235.19855    76.508948    343204.75   -27768.658    4463.7905   -32232.448    1526.1915 
   10500    235.19527   -214.09209    345349.83   -27760.181    4463.7281   -32223.909    1552.1167 
   10550    234.62416   -149.61058    347451.87   -27763.057    4452.8892   -32215.946    1576.7102 
   10600     236.3392   -178.58838    349518.96   -27766.718    4485.4387   -32252.156    1601.8725 
   10650    233.54945     6.630885    351665.53   -27793.046    4432.4924   -32225.539    1629.0775 
   10700    239.25861   -198.51288    353949.21   -27806.916    4540.8454   -32347.761    1658.2619 
   10750     236.9973  -0.24868223    356177.81   -27795.653    4497.9285   -32293.582    1687.2282 
   10800    239.38368   -101.55574    358347.78   -27796.075    4543.2192   -32339.294    1714.8861 
   10850    236.37693    65.362727    360599.85   -27818.014    4486.1546   -32304.168    1743.3503 
   10900    239.28008     90.76466    362912.95   -27815.997     4541.253    -32357.25    1773.4489 
   10950    236.32192   -13.770887    365214.17   -27838.223    4485.1106   -32323.333    1804.6482 
   11000     233.2426    -82.49332    367623.17   -27855.099    4426.6687   -32281.767    1836.2657 
   11050    237.18382     127.0713    369988.35    -27870.77    4501.4684   -32372.239     1868.378 
   11100    234.53416    69.583384    372419.33   -27905.344     4451.181   -32356.525    1898.9801 
   11150    236.48582   -37.612875    374855.53   -27889.686    4488.2212   -32377.907    1931.6107 
   11200     236.5049    49.245425    377281.07   -27883.055    4488.5833   -32371.638    1965.8452 
   11250    231.45065   -77.498423    379742.72   -27874.017    4392.6597   -32266.677    1998.9069 
   11300    232.65281   -92.311538     382032.9   -27892.253    4415.4753   -32307.728    2031.5334 
   11350    235.78943   -11.612497    384387.91   -27898.222    4475.0047   -32373.227    2064.9668 
   11400    238.63996    36.957962    386973.37   -27907.411    4529.1043   -32436.515    2102.6303 
   11450    237.26756    -67.77521    389643.19   -27886.854    4503.0578   -32389.911    2141.1694 
   11500     234.3375   -80.647656     392184.9   -27838.025    4447.4486   -32285.474    2176.7913 
   11550    236.34393   -47.326894    394751.66   -27841.297    4485.5284   -32326.825    2212.8403 
   11600    237.12284   -264.89018    397398.51   -27884.669    4500.3111    -32384.98    2251.3084 
   11650    232.95193    39.664777    399934.12   -27913.952    4421.1521   -32335.104    2289.3343 
   11700    237.85476   -72.290395    402673.01   -27904.315    4514.2021   -32418.517    2332.3451 
   11750    235.07668   -95.801794    405370.17   -27934.867    4461.4774   -32396.345    2373.0076 
   11800    230.82712   -51.571415    407994.54   -27958.847    4380.8259   -32339.673    2410.1967 
   11850    238.60872    1.9356908    410649.78   -27968.724    4528.5113   -32497.235    2453.2893 
   11900    232.81752   -40.313294     413549.4   -27951.792    4418.6012   -32370.394    2495.5536 
   11950    236.00498   -59.072138    416331.57   -27964.527    4479.0954   -32443.622    2536.6393 
   12000    230.51649   -177.50217    419157.28   -27966.641    4374.9304   -32341.571    2580.1993 
   12050    230.33402   -42.784149    421985.38   -27985.158    4371.4674   -32356.625    2623.8746 
   12100    231.37251   -117.27914    424717.66   -27940.679    4391.1766   -32331.856    2667.2066 
   12150    237.87823   -119.42323    427493.41   -27930.715    4514.6475   -32445.363    2711.1251 
   12200    234.60702   -53.136805    430429.31    -27912.05    4452.5639   -32364.614    2758.3608 
   12250    237.10792   -64.146332    433586.48   -27929.611     4500.028   -32429.639    2805.2615 
   12300     235.7667    -118.3937    436631.59   -27888.175    4474.5733   -32362.748    2853.2018 
   12350    233.43611     -35.7956    439678.62    -27904.82    4430.3413   -32335.162    2900.8832 
   12400    236.44343   -157.53671    442755.83   -27879.561    4487.4168   -32366.978    2951.6598 
   12450    239.37473   -126.75377     445837.3   -27879.663    4543.0494   -32422.713    3001.8508 
   12500    233.68949    -163.1015    448911.91   -27871.774    4435.1502   -32306.924    3054.1579 
   12550    238.84852   -130.17457    451935.14   -27874.023    4533.0625   -32407.086    3102.9402 
   12600    236.38248   -82.937285    454875.57    -27878.26      4486.26    -32364.52    3153.1234 
   12650    238.11685   -40.911614     458053.1   -27888.262    4519.1763   -32407.438    3210.3447 
   12700      235.939    42.832362    461287.58   -27891.203    4477.8432   -32369.046    3269.2252 
   12750     235.8047    4.0409021     464711.7   -27892.838    4475.2944   -32368.133    3329.2326 
   12800    231.21413   -121.62281    468192.33    -27900.38    4388.1707   -32288.551    3388.7709 
   12850     236.5424   -132.72039    471637.98   -27912.307    4489.2951   -32401.602    3446.2945 
   12900    235.71277   -64.752262    474918.03   -27913.513    4473.5496   -32387.063    3500.7313 
   12950    238.32477   -11.277298    478167.09   -27911.453    4523.1224   -32434.575    3559.9484 
   13000    236.84342   -58.296939    481493.88   -27858.797    4495.0081   -32353.805    3623.7086 
   13050    233.94648   -28.658616    484907.65   -27856.239    4440.0275   -32296.266    3686.2643 
   13100    235.84042    38.670946    488503.37   -27851.831    4475.9724   -32327.803    3754.5848 
   13150     237.4835    -48.05223    492121.06    -27883.51     4507.156   -32390.666    3824.5408 
   13200    238.70411    -128.2966    495742.23   -27839.664    4530.3218   -32369.986    3893.1457 
   13250    236.48906   -49.721873    499338.61    -27844.49    4488.2826   -32332.772    3959.2779 
   13300    236.05438    -11.55649    502962.01   -27861.215     4480.033   -32341.248    4029.8942 
   13350    237.56058   -86.416096       506682   -27869.128     4508.619   -32377.747    4103.0283 
   13400    237.11495   -60.840357    510431.04   -27852.265    4500.1614   -32352.427    4175.4935 
   13450    237.91351   -13.390899    514234.78   -27849.322    4515.3171   -32364.639    4250.4857 
   13500    237.20432    76.638557    518024.62   -27860.085    4501.8575   -32361.942    4325.6719 
   13550    236.18261   -84.532892    521899.92   -27849.126    4482.4668   -32331.593    4401.5935 
   13600    237.13635   -23.565666    525786.36     -27856.6    4500.5675   -32357.167    4482.1776 
   13650    232.65668    34.106595    529651.47   -27879.412    4415.5487   -32294.961    4560.6244 
   13700    234.22127   -3.5050254    533565.92   -27900.208    4445.2428    -32345.45    4643.7321 
   13750    239.13041   -49.584847    537707.05   -27876.556    4538.4125   -32414.969    4734.0666 
   13800    229.45307   -77.481976    541873.98   -27879.909     4354.748   -32234.657     4824.914 
   13850    237.55091    75.020935    545996.25   -27874.115    4508.4354   -32382.551    4911.8814 
   13900    237.22116   -65.514149    550271.57   -27883.525    4502.1771   -32385.702    5003.6877 
   13950    233.21886   -86.727965    554475.65   -27887.238    4426.2182   -32313.456    5097.0881 
   14000    234.23581   -76.287164    558640.12   -27899.571    4445.5188   -32345.089     5188.237 
   14050    230.24974   -28.408422    562926.84   -27897.254    4369.8679   -32267.122    5284.2022 
   14100     231.3958      -52.107    567305.64   -27873.792    4391.6186   -32265.411    5382.1413 
   14150    233.75307    57.865844    571586.85    -27883.77    4436.3568   -32320.127    5481.6219 
   14200    233.05172    14.147924    576050.67   -27907.918    4423.0461   -32330.965    5585.9055 
   14250    230.89741   -43.089988    580671.01   -27918.648    4382.1599   -32300.808    5691.7211 
   14300    229.65459   -17.992855    585237.49   -27917.144    4358.5725   -32275.716    5799.2732 
   14350     232.0285   -54.914121    589790.03   -27927.988    4403.6266   -32331.615    5909.0374 
   14400    231.93258   -9.0669626     594464.6   -27938.168    4401.8062   -32339.975    6020.7077 
   14450    234.76711    -41.58462    599117.87   -27924.877    4455.6022   -32380.479    6132.6805 
   14500    235.58875   -9.5619098    603879.46   -27901.516    4471.1958   -32372.712    6247.6689 
   14550    235.51714    30.406844     608810.8   -27923.809    4469.8369   -32393.646    6367.3741 
   14600    239.71546   -16.782327    613911.12   -27922.855    4549.5161   -32472.371    6491.0605 
   14650    236.09592    -78.85257    618908.03    -27887.11    4480.8213   -32367.931    6612.8858 
   14700    238.04226   -144.71844    623801.35   -27898.112    4517.7606   -32415.873    6736.0976 
   14750    237.74022    10.794238    628620.75   -27922.132    4512.0283    -32434.16    6861.4477 
   14800    234.07752   -22.318123    633811.81   -27893.083    4442.5146   -32335.598    6996.2452 
   14850    236.85727   -12.357299     639116.2   -27910.718    4495.2709   -32405.989    7132.8057 
   14900     238.3335   -27.240448    644375.26   -27922.779     4523.288   -32446.067    7269.0294 
   14950    232.46085   -37.970233     649569.8   -27939.914     4411.832   -32351.746    7411.6263 
   15000    236.31528   -19.324722    654908.13   -27959.621    4484.9846   -32444.605    7558.9357 
   15050    235.80706   -39.005226    660326.56   -27970.084    4475.3391   -32445.423    7709.5963 
   15100    228.27215   -36.594706    665918.15   -27983.725    4332.3355    -32316.06    7860.9915 
   15150     234.2958   -0.1967118    671537.72   -27998.465    4446.6573   -32445.122    8015.6029 
   15200    226.51296   -95.445539    677156.82   -28015.676    4298.9481   -32314.624    8170.7242 
   15250    234.47968   -90.151321    682760.35   -28004.003     4450.147    -32454.15    8330.4664 
   15300    234.11333   -1.0903453    688651.24   -27988.063    4443.1942   -32431.257    8501.8103 
   15350    232.60581   -18.604929    694563.58   -28024.818    4414.5833   -32439.401    8671.2413 
   15400    234.48425    12.376494    700532.16   -28062.336    4450.2337    -32512.57    8842.7485 
   15450    229.91061   -82.531886    706498.57   -28115.317    4363.4316   -32478.749    9013.4401 
   15500    231.67751   -32.439614    712436.61    -28121.75    4396.9652   -32518.715    9192.1404 
   15550    231.07264    39.537189    718560.38   -28110.121    4385.4854   -32495.606     9377.147 
   15600    227.53097   -25.201225    725010.56   -28073.994    4318.2687   -32392.263    9570.2131 
   15650    236.49642   -22.221454    731420.07   -28045.306    4488.4223   -32533.729    9768.6703 
   15700    235.25057   -67.538323    737801.58   -28026.986    4464.7777   -32491.763    9963.2798 
   15750    237.77049   -44.091578    744268.51   -28015.805    4512.6028   -32528.408    10162.353 
   15800    231.48408   -72.227639    750842.76   -28040.561    4393.2942   -32433.856    10369.881 
   15850    232.92385   -31.941161    757450.18   -28020.176    4420.6193   -32440.796    10581.092 
   15900    235.40024   -47.521676    764024.56   -28011.808    4467.6182   -32479.427     10795.96 
   15950    234.04454    11.955419    770868.74   -28005.121    4441.8887    -32447.01    11021.242 
   16000    234.61022   -15.900426    777843.92   -28005.855    4452.6245    -32458.48    11251.137 
   16050    229.52335    94.716462    784912.86    -27992.74    4356.0818   -32348.822    11488.666 
   16100    232.35624    17.029777    792216.84   -28022.696    4409.8466   -32432.543    11732.072 
   16150    228.81654   -113.30404    799526.21   -27975.413    4342.6674    -32318.08    11973.774 
   16200    235.52647   -118.62205    806770.05   -27930.404     4470.014   -32400.418    12220.106 
   16250    230.94066   -71.604296    813920.97   -27934.508    4382.9807   -32317.488    12464.874 
   16300    233.50294   -32.473646    821228.81   -27911.204    4431.6096   -32342.813      12723.6 
   16350    239.94537   -8.1912142    828870.01   -27906.175    4553.8795   -32460.055    12996.874 
   16400    234.01074    2.5783654    836682.72    -27925.18    4441.2472   -32366.427    13278.314 
   16450    235.16709   -55.723705    844487.84   -27901.912    4463.1933   -32365.105    13560.178 
   16500    237.70803   -61.746432     852475.8    -27927.97    4511.4173   -32439.388    13850.415 
   16550    235.60975   -1.4693569    860545.75   -27952.751    4471.5945   -32424.345     14145.66 
   16600    237.32943    23.031056    868735.81   -27963.103     4504.232   -32467.335    14448.165 
   16650     232.5456   -4.9278449    876902.54   -27971.472    4413.4406   -32384.913    14756.289 
   16700     234.9406    -50.17589    885269.26   -27923.132    4458.8948   -32382.026    15077.496 
   16750    237.59814   -80.240857    893762.28   -27927.653    4509.3317   -32436.984    15402.432 
   16800    232.83787    24.160113    902290.65   -27895.918    4418.9875   -32314.905    15735.126 
   16850    235.97017    36.571906    911023.69   -27890.807    4478.4348   -32369.241    16078.529 
   16900    240.06207   -50.959768    920104.43    -27898.07    4556.0943   -32454.164    16438.035 
   16950    234.05538    9.6356658    928799.56   -27903.718    4442.0944   -32345.812    16787.063 
   17000    234.54678    40.210063    937874.25   -27908.754    4451.4206   -32360.174    17152.328 
   17050    233.00207   -7.4672902    947282.17   -27904.173    4422.1038   -32326.276     17541.79 
   17100    235.29379   -20.434159    956867.18     -27904.6    4465.5979   -32370.198    17939.552 
   17150    235.31071   -37.187605     966491.9   -27905.785    4465.9191   -32371.704    18340.943 
   17200    237.42873   -47.431221    976007.52   -27909.898    4506.1166   -32416.015    18742.895 
   17250    231.92184   -32.705811    985607.47   -27929.892    4401.6023   -32331.495    19158.214 
   17300    233.84031   -39.338474    995451.52   -27958.823    4438.0126   -32396.835     19592.18 
   17350    232.67026   -84.733866    1005695.4   -27957.816    4415.8065   -32373.623    20049.191 
   17400    231.48531   -67.653177    1016082.3   -27956.106    4393.3176   -32349.424    20514.968 
   17450    234.18699    8.6485638    1026429.8   -27986.857    4444.5921   -32431.449    20981.547 
   17500    233.87105   -29.372236    1036996.5   -28003.339    4438.5961   -32441.935    21455.727 
   17550    231.98535    -40.43038    1047680.7   -27995.896    4402.8077   -32398.703    21950.235 
   17600    232.86125    2.8735859      1058486   -27990.929    4419.4311    -32410.36    22459.247 
   17650    234.34844    17.480285    1069817.9   -28009.065    4447.6563   -32456.721    22997.138 
   17700    238.15303   -46.367039    1081212.4   -28027.669    4519.8629   -32547.532    23540.644 
   17750    229.48957     2.568909    1092544.8   -28056.624    4355.4408   -32412.065    24075.797 
   17800    230.92913    -29.73893    1104110.1   -28056.789    4382.7619   -32439.551    24632.519 
   17850    230.74702   -28.112996    1115877.4   -28057.059    4379.3055   -32436.365    25207.913 
   17900    230.77744   -23.719326    1127759.5   -28059.549    4379.8829   -32439.432    25798.255 
   17950    232.02594   -7.3058934    1139725.3   -28039.703     4403.578   -32443.281    26402.205 
   18000    230.99444    5.3569658    1152105.8   -28059.176    4384.0014   -32443.177    27039.657 
   18050    234.25857   -25.596689    1164485.4   -28071.169    4445.9506    -32517.12    27682.305 
   18100    232.55833    9.8611498    1177320.8   -28069.378    4413.6821    -32483.06    28359.104 
   18150    231.22676    17.015187    1190493.8   -28089.793    4388.4105   -32478.203    29054.182 
   18200    230.81662   -25.740002      1203813   -28100.129    4380.6266   -32480.756    29765.616 
   18250    228.87613    23.117318    1217118.6   -28112.771    4343.7984   -32456.569    30484.286 
   18300    227.31925   -58.331534      1230874   -28122.181    4314.2505   -32436.431    31236.308 
   18350    230.37493   -21.288329    1244495.8   -28091.087    4372.2438    -32463.33    31989.366 
   18400    228.87699   -37.841432    1258786.1   -28127.177    4343.8146   -32470.992    32795.572 
   18450    231.81592     29.20841    1272924.7   -28096.263    4399.5921   -32495.855    33595.582 
   18500     228.0636    -27.58394    1287610.9   -28060.644    4328.3774   -32389.021    34434.764 
   18550    233.08818   -34.057099    1302402.1   -28067.462     4423.738     -32491.2    35296.293 
   18600    229.29073    20.240897    1317374.9   -28051.476     4351.667   -32403.143    36180.476 
   18650    228.13462   -17.639886    1332869.8    -28029.02    4329.7253   -32358.745    37102.749 
   18700     234.2602   -19.686152    1348129.2   -28008.797    4445.9817   -32454.779    38018.636 
   18750    234.05578    27.328891    1363974.5   -27963.376    4442.1019   -32405.478    38987.877 
   18800    235.09544   -4.9419301    1380281.5    -27955.69    4461.8335   -32417.524    40000.296 
   18850    232.80109   -12.583822    1396643.8   -27976.909    4418.2894   -32395.199    41023.164 
   18900    227.87446   -12.712453    1413430.3   -28008.952    4324.7879    -32333.74    42089.408 
   18950     236.4358   -26.352098    1430669.6    -28025.45    4487.2719   -32512.721    43196.053 
   19000     234.3748   -43.615025    1447956.3   -28005.706    4448.1565   -32453.862    44319.215 
   19050    234.74037   -26.224625    1465403.8   -28034.227    4455.0947   -32489.321    45477.192 
   19100    231.42741    1.6250725    1483302.3   -28004.257    4392.2186   -32396.476    46686.008 
   19150      229.904    17.117435    1501429.6   -28001.881    4363.3061   -32365.187    47925.742 
   19200      236.118    26.200749    1520286.2   -27978.067    4481.2405   -32459.308    49232.357 
   19250    231.88515   -23.535233    1539178.3   -27991.927    4400.9059   -32392.833    50557.679 
   19300    236.13461   -17.030125    1558534.5   -27966.991    4481.5558   -32448.547    51927.044 
   19350     235.6838   -7.5170352    1578184.2   -27949.083    4472.9999   -32422.083    53334.314 
   19400    241.43069     2.380118    1598397.6   -27940.862     4582.069   -32522.931    54804.405 
   19450    235.03479   -39.902624    1618915.7   -27930.658    4460.6824    -32391.34    56299.772 
   19500       231.87    -36.91927    1639576.7   -27941.234    4400.6184   -32341.852    57849.753 
   19550    233.08932   -6.9572179    1660634.4   -27949.665    4423.7596   -32373.425    59442.426 
   19600    234.16398    -13.59179    1682366.4   -27955.455    4444.1554    -32399.61    61108.838 
   19650    235.81217    -15.05879    1704420.4   -27944.239    4475.4362   -32419.676    62838.261 
   19700    237.90784    9.1011007    1726928.5   -27966.805    4515.2095   -32482.014    64618.836 
   19750    236.71042    1.9716082    1749896.8   -27947.395    4492.4839   -32439.879    66454.289 
   19800    232.00646   -12.963372    1773475.3   -27971.166    4403.2083   -32374.374    68351.222 
   19850    235.28011   -41.743629    1797316.7   -27956.898    4465.3384   -32422.236    70307.934 
   19900    236.74014   -22.718062    1821493.3   -27935.057    4493.0479   -32428.105    72321.907 
   19950    230.86729   -50.571767    1846272.8   -27933.171    4381.5881   -32314.759     74422.04 
   20000    236.90937   -29.675408    1871596.5   -27965.332    4496.2597   -32461.592    76593.185 
   20050    231.64415   -2.9794368      1897550   -27982.116    4396.3321   -32378.448     78860.04 
   20100    234.19355   -24.758126    1924127.8   -28024.868    4444.7167   -32469.585    81208.382 
   20150     236.5564   -17.284029    1950949.8   -27995.308    4489.5607   -32484.868    83620.321 
   20200    235.07897   -15.262087    1978312.5   -28014.987    4461.5209   -32476.507    86113.233 
   20250    234.36873   -20.436949    2006589.5   -28029.847    4448.0415   -32477.889     88721.29 
   20300    232.06299   -31.703182    2035271.9   -27992.699    4404.2812    -32396.98    91410.413 
   20350    232.31674   -4.4706911    2064344.1   -27973.014    4409.0971   -32382.111    94186.941 
   20400    232.57301    17.054619    2094217.7   -27994.751    4413.9608   -32408.712    97084.904 
   20450    235.12801    29.951422    2125294.3   -28012.327    4462.4517   -32474.779    100130.11 
   20500     242.0983    7.5491722    2156706.2   -28010.916    4594.7394   -32605.655    103250.43 
   20550    235.40272   -4.3514608    2188568.2   -27998.935    4467.6653     -32466.6    106478.48 
   20600    231.54854    5.7648251    2221211.6   -27997.379    4394.5176   -32391.896    109849.11 
   20650    235.92403   -31.276225    2254739.4   -28008.876     4477.559   -32486.435    113336.08 
   20700    235.78896   -14.376562    2289026.3   -27996.757    4474.9956   -32471.753    116955.83 
   20750    231.09607    -16.06047    2323988.1   -27981.851    4385.9302   -32367.782    120704.63 
   20800     233.7013   -8.3298774    2359307.1    -27969.74    4435.3743   -32405.115     124568.5 
   20850    236.36562   -6.6758963    2395715.6   -27935.973    4485.9399   -32421.913    128632.71 
   20900    235.88065    -30.25291    2433086.5   -27941.464    4476.7358     -32418.2    132863.46 
   20950    237.38144   -6.5540961    2471258.2    -27969.86    4505.2191   -32475.079    137254.03 
   21000    235.01811     32.91619      2510749   -27972.899    4460.3658   -32433.265    141862.37 
   21050    234.85756    1.0955555    2551156.6    -27977.53    4457.3187   -32434.849    146654.84 
   21100    233.14225   -5.2811345    2592424.2   -27982.699    4424.7643   -32407.463    151631.56 
   21150    232.96245   -15.474592    2634724.6   -27970.747    4421.3519   -32392.098    156804.02 
   21200    234.14659   -15.671466    2677469.8   -27970.694    4443.8255   -32414.519    162137.23 
   21250      234.563   -18.372854    2721573.1   -27960.769    4451.7283   -32412.497    167753.49 
   21300    230.54953    5.5671034    2766826.6   -27955.162    4375.5574    -32330.72    173607.95 
   21350    233.40519   -20.655525    2813462.7   -27954.819    4429.7546   -32384.573    179755.42 
   21400    237.36988   -2.3327214    2860983.7   -27944.743    4504.9996   -32449.743     186125.9 
   21450    239.25101    1.8157528    2909717.7   -27920.959    4540.7014    -32461.66       192748 
   21500    234.95457  -0.57666501    2959813.9   -27921.692    4459.1599   -32380.852    199689.67 
   21550    233.46363    14.715966    3011265.3   -27911.287    4430.8637   -32342.151    206948.47 
   21600    234.28898   -7.2560419      3064157   -27892.287    4446.5277   -32338.815    214548.77 
   21650    238.25951 -0.045091363    3117898.6   -27862.007    4521.8837    -32383.89    222409.27 
   21700    236.19851   -12.063021    3173563.2   -27873.406    4482.7684   -32356.174    230699.15 
   21750    236.05567   -1.4309392      3230407   -27848.874    4480.0575   -32328.932    239330.65 
   21800     237.5222    4.2002735    3289255.6    -27831.51    4507.8905   -32339.401    248426.58 
   21850    234.15216    7.2568773    3349271.4   -27850.254    4443.9312   -32294.185     257866.4 
   21900    237.44759   -19.247678      3411144   -27845.956    4506.4745    -32352.43    267787.99 
   21950    237.95574    4.8134493      3474657   -27875.144    4516.1186   -32391.263    278169.37 
   22000    236.55222    13.285626    3540403.8   -27866.305    4489.4814   -32355.786    289151.42 
   22050    235.00456   -9.6727883    3607676.6   -27854.585    4460.1087   -32314.693    300552.14 
   22100    236.23041   0.16116614    3676522.9   -27850.821    4483.3739   -32334.195    312467.42 
   22150    236.86928   -0.8347524    3747690.3    -27838.01    4495.4988   -32333.509    325016.51 
   22200    239.67211   -8.1403149    3820222.2   -27820.906    4548.6933     -32369.6    338089.86 
   22250    239.44643    14.382968    3895809.3   -27790.089    4544.4101   -32334.499     352005.5 
   22300    238.06412    4.1311201    3973561.7   -27761.682    4518.1755   -32279.858    366607.72 
   22350    233.22319   -2.6885521    4054120.7   -27810.601    4426.3004   -32236.902    382013.88 
   22400    237.46814   -14.029676    4135850.6   -27801.213    4506.8646   -32308.077    397977.39 
   22450    241.89193    1.4361832    4220639.5   -27795.682    4590.8229   -32386.505    414890.53 
   22500    235.84331   -6.9967739    4308373.5    -27793.83    4476.0272   -32269.857    432763.86 
   22550    235.95624   -3.7159774    4398965.3   -27814.081    4478.1704   -32292.251     451613.2 
   22600    229.83826   -3.1793498    4492078.4    -27811.74    4362.0585   -32173.798    471419.35 
   22650     235.6295   -30.041003    4587850.2   -27808.439    4471.9694   -32280.408    492221.32 
   22700    235.78673   -5.0221944    4686468.7   -27814.295    4474.9534   -32289.248    514117.02 
   22750    234.63291    -3.904474    4789262.4    -27842.93    4453.0553   -32295.985    537449.09 
   22800    236.49054   -1.3733223    4894931.4   -27854.113    4488.3108   -32342.423    561981.17 
   22850    237.31003    1.3678311    5004493.5    -27844.86    4503.8638   -32348.724    587962.37 
   22900    237.80835   0.92974669    5117602.5   -27873.441    4513.3213   -32386.762    615411.11 
   22950    232.81671   -6.6938279    5234348.5   -27874.847     4418.586   -32293.433    644418.08 
   23000    236.16086   -9.5000814    5355177.1   -27855.096    4482.0539    -32337.15    675115.96 
   23050    238.09076    1.7232598    5480177.6   -27841.548     4518.681   -32360.229    707648.86 
   23100    235.52268   -2.4861185    5610259.8   -27836.706    4469.9421   -32306.648    742324.12 
   23150    237.31888    7.4323923    5744399.2   -27839.512    4504.0318   -32343.544    778942.23 
   23200    237.74546    5.4379749    5883793.3   -27851.283    4512.1276   -32363.411    817918.81 
   23250    240.00406   -7.1350144    6027972.6   -27867.037    4554.9933   -32422.031    859246.96 
   23300    238.45969   -5.9872506    6177477.4   -27856.601     4525.683   -32382.284    903145.78 
   23350    234.14371   -8.3486172      6332436   -27868.638    4443.7707   -32312.409    949840.09 
   23400    234.98601   -7.3557173    6493208.8   -27852.549    4459.7567   -32312.305    999525.62 
   23450    236.07768   -9.5224108    6660497.2    -27890.69    4480.4752   -32371.165    1052579.7 
   23500    237.07825  -0.16222664    6834396.9   -27899.211    4499.4649   -32398.676    1109217.5 
   23550    238.45313  -0.77344138    7015082.7   -27888.172    4525.5585   -32413.731      1169630 
   23600      234.427  -0.10803129    7203644.9    -27877.01    4449.1473   -32326.158    1234332.3 
   23650     232.8954   -6.4916807    7399168.3   -27835.709    4420.0793   -32255.788    1303233.9 
   23700    234.51268   -6.9481221      7602639   -27825.774    4450.7733   -32276.548    1376950.6 
   23750    231.67136   -11.777594    7815130.9   -27823.882    4396.8485    -32220.73    1456058.8 
   23800    240.59775   -5.6348851    8035505.7   -27793.089    4566.2609    -32359.35    1540474.9 
   23850    234.87016   -4.9514045    8266340.7   -27786.101    4457.5579   -32243.659    1631449.8 
   23900    238.39112    2.6463814    8507457.1    -27831.65    4524.3816   -32356.032    1729215.5 
   23950    235.34717   -5.4375956    8758622.8   -27845.059     4466.611    -32311.67    1834130.9 
   24000    234.66291     3.665193    9021226.1   -27840.923    4453.6247   -32294.548    1947083.6 
   24050     239.5855  -0.98021796    9295678.6   -27817.013    4547.0494   -32364.062    2068819.5 
   24100    241.06562   -5.2714407    9582803.9   -27789.371    4575.1404   -32364.511    2200048.6 
   24150    234.37044    4.6190227    9883776.5    -27813.64    4448.0739   -32261.713    2342014.3 
   24200    239.06201   -6.8107069     10199012   -27816.533    4537.1144   -32353.647    2495435.5 
   24250     234.4827   -1.8188882     10529869   -27827.998    4450.2044   -32278.202    2661642.4 
   24300    238.86252    1.9778276     10876136   -27836.223    4533.3282   -32369.551    2841370.8 
   24350     238.4817   -7.3600117     11240776   -27838.483    4526.1007   -32364.583    3037017.7 
   24400    238.55864   -3.8225098     11623519   -27857.898    4527.5608   -32385.459    3249436.8 
   24450     235.5518   -1.1943215     12026359    -27870.95    4470.4946   -32341.444      3480660 
   24500    237.36227   0.66217727     12450327   -27858.366    4504.8552   -32363.221    3732611.5 
   24550    234.53122   -1.7249959     12897199   -27862.552    4451.1252   -32313.677    4007598.4 
   24600    237.92637   -6.5694538     13368318   -27835.232    4515.5611   -32350.793    4308180.3 
   24650    237.50468   -1.7831965     13865180   -27817.671     4507.558   -32325.229    4637027.5 
   24700    237.00078   -3.3299149     14390377   -27773.883    4497.9946   -32271.877    4997816.1 
   24750    239.83691  -0.91503096     14946990   -27749.524     4551.821   -32301.345    5394921.1 
   24800     238.7797   -2.2267455     15535617   -27733.401    4531.7564   -32265.158    5831299.8 
   24850    240.40365   -6.7377643     16160008   -27694.205    4562.5771   -32256.782    6312767.1 
   24900    242.07476   -1.4368458     16822449   -27716.067    4594.2927    -32310.36    6844503.9 
   24950    233.74276  -0.77951614     17527583   -27741.012    4436.1611   -32177.173    7434024.3 
   25000    236.61584  -0.89968323     18277649   -27780.175    4490.6889   -32270.864    8087812.3 
   25050    239.56363   -2.3523086     19076439   -27774.401    4546.6344   -32321.036    8814365.7 
   25100    243.58933   -1.1560405     19928510   -27766.974    4623.0375   -32390.012    9623856.2 
   25150    241.02187   -2.8244705     20838757   -27783.323    4574.3102   -32357.633     10527904 
   25200    238.24677   -1.0832263     21813059   -27828.608    4521.6419    -32350.25     11540573 
   25250    235.96153  0.059844093     22857598   -27833.648    4478.2709   -32311.919     12678041 
   25300    232.91111   -1.8472651     23979274   -27867.625    4420.3775   -32288.002     13958713 
   25350    238.41632   -2.7410177     25184449   -27902.129    4524.8598   -32426.989     15403577 
   25400     239.1666   -3.1267778     26483057   -27861.769    4539.0993   -32400.868     17039995 
   25450    237.12845   -1.5347224     27884653   -27859.929    4500.4176   -32360.346     18898827 
   25500    239.34793   0.46613968     29400323   -27816.507    4542.5407   -32359.047     21017261 
   25550    236.47556   -1.4336117     31044208   -27851.335    4488.0265   -32339.362     23442353 
   25600     240.2578  -0.61892476     32829266    -27876.42     4559.809   -32436.229     26225692 
   25650    241.02812  0.081752557     34772551   -27871.728    4574.4287   -32446.156     29433114 
   25700    243.18695   -0.8015044     36895009    -27855.17    4615.4008    -32470.57     33147656 
   25750    241.59679    -1.206761     39217914   -27855.371    4585.2213   -32440.592     37465599 
   25800    236.93592    -1.052706     41766263   -27854.453    4496.7635   -32351.216     42506581 
   25850    242.18482   0.30892072     44572011   -27836.847    4596.3815   -32433.229     48424739 
   25900    238.49298   -1.9417541     47670949   -27864.135    4526.3149    -32390.45     55409376 
   25950    238.65195   -1.3715863     51103930   -27851.259    4529.3318    -32380.59     63696087 
   26000    238.31285  -0.32484457     54920259   -27808.463    4522.8961   -32331.359     73585474 
   26050    239.09494   -1.6012711     59182462   -27874.134    4537.7393   -32411.873     85473501 
   26100    242.23911   -1.7874648     63959122    -27786.06    4597.4119   -32383.472     99854087 
   26150    246.12152   -2.2664119     69340521   -27731.787    4671.0953   -32402.882 1.1739436e+08 
   26200     248.6575   -1.6252911     75431754   -27680.998    4719.2254   -32400.223 1.3895994e+08 
   26250    245.95661   -1.0430409     82367343   -27746.977    4667.9657   -32414.942 1.6572697e+08 
   26300    245.52001  -0.66403363     90306021   -27763.301    4659.6794   -32422.981 1.9925698e+08 
   26350    253.58841  -0.58477108     99450679   -27720.617    4812.8081   -32533.425 2.417067e+08 
   26400    250.51539   -1.1421786 1.1006434e+08   -27729.844    4754.4859    -32484.33 2.9611068e+08 
   26450    255.66702   -1.1375264 1.2247346e+08    -27642.35    4852.2577   -32494.608 3.667143e+08 
   26500    253.25682  -0.90987934 1.3711616e+08   -27633.313    4806.5151   -32439.828 4.5972698e+08 
   26550    251.36796   -1.2205832 1.5455964e+08   -27564.682    4770.6667   -32335.349 5.842377e+08 
   26600    263.00912   -1.1511151 1.7557028e+08   -27420.334     4991.602   -32411.936 7.5399556e+08 
   26650    264.62273   -1.0515926 2.0120209e+08   -27303.111    5022