LAMMPS data file via write_data, version 16 Mar 2018, timestep = 100000

6750 atoms
2 atom types

0.0000000000000000e+00 4.9219999999999999e+01 xlo xhi
0.0000000000000000e+00 4.9019635930410494e+01 ylo yhi
2.9797760177436672e-01 5.9764022398226530e+01 zlo zhi

Masses

1 18.015
2 12.01

Atoms # atomic

169 1 1.1435367061841404e+01 4.0067678753061742e+00 5.5437551595495256e+00 0 -1 0
3650 1 1.4635259117306347e+00 5.3869196245383133e+00 3.6024688727724170e+00 0 0 0
3272 1 5.5696227335793536e-01 5.3288442357120864e+00 7.5226572927367119e-01 1 1 1
3798 1 4.7966568527889768e+00 1.9737253458551725e+00 2.9454599472023064e+00 0 1 0
1832 1 7.4259490560578600e-01 7.3830929359933677e+00 7.0751727931686110e+00 1 0 0
5512 1 1.0876562219169102e+01 1.5294548867741280e+00 1.4321808843236935e+01 1 1 0
3921 1 1.1264734542318537e+01 2.0274141809841479e+00 3.6415941199466375e+00 1 0 0
215 1 1.1364717505839883e+01 2.3661791749954009e+01 5.1042975739620500e-01 0 -1 0
3031 1 8.5181907281054023e+00 2.4348315784218233e+01 9.5492997852761032e+00 -1 0 1
1977 1 2.6773995092510456e+00 1.4815680676352887e+00 9.8726596016657666e+00 0 1 0
4713 1 4.4187658079578727e+00 5.9821686007950747e+00 3.1747916826811733e+00 0 -1 1
4843 1 8.1337254395227792e+00 1.0303036982653235e+00 1.0571504530693744e+01 1 1 1
5268 1 1.0432512465474183e+01 4.3066056969204887e+00 1.3101331752018810e+00 0 0 0
5201 1 3.7726845773132340e+00 1.0652543301076769e+01 3.1955049975856369e+00 0 0 0
3500 1 3.0605753226210322e+00 1.3288687948701847e+01 2.8330124458818795e+00 0 1 0
2224 1 6.8047632342054278e+00 4.4015525377518925e+00 2.2392547497331687e+00 0 2 0
3 1 1.1823691569435560e+01 1.5199821850020367e+01 1.3583753632962260e+01 1 2 1
3936 1 7.9389706539623877e+00 1.1915443751665112e+01 3.6187478123365060e+00 1 1 1
439 1 9.6372876927167201e+00 9.1427448849332933e+00 1.1616325801979994e+00 0 1 0
3576 1 9.6661964640391638e+00 7.8937649159188696e+00 3.8058082973711134e+00 1 0 1
2012 1 7.8621159680973003e+00 1.1055474675195081e+01 9.8351082114849342e-01 0 1 1
6667 1 9.5919091347338270e+00 1.1034390493424839e+01 5.7480441054786295e+00 1 -1 0
484 1 1.1564138122979678e+01 2.0579831886222561e+01 1.0768833136914489e+00 1 0 0
3096 1 1.0364473721973182e+01 9.7634706473167228e+00 1.3649166191003456e+01 0 1 1
5514 1 2.0487089060792170e+00 1.4308508998385420e+01 5.2256121521915455e-01 2 0 0
3765 1 8.1440102745455381e+00 1.4508071482228731e+01 2.7764673424119670e+00 1 -1 0
6355 1 4.7070784368265279e+00 1.7500479710942332e+00 1.5146444465274490e+01 2 0 1
4780 1 9.7298702836376751e+00 1.6272859374812843e+01 3.5523222078529302e+00 0 -1 1
5425 1 1.1890922597962115e+01 1.6315964835862257e+01 2.0721478139871676e+00 1 2 0
4720 1 3.5262524717042459e-01 6.7926781293629839e+00 1.2507408730741856e+01 0 1 1
6454 1 2.3932310865593807e+00 1.5742740509096864e+01 1.4796484696123619e+01 0 1 1
3486 1 3.3347879518235484e+00 1.7131637401510833e+01 5.2437379113161686e+00 1 0 1
3277 1 4.5318657403496641e+00 1.6764917849427292e+01 2.5586656159068975e+00 -1 1 1
6713 1 5.5821741281602382e+00 1.9146401654335747e+01 2.9047130313243916e+00 0 0 1
449 1 8.3884016225415419e+00 1.8917315581606793e+01 3.2472417048308158e+00 -1 0 0
5253 1 1.2432783380533476e+00 2.4022504063948041e+01 1.3255168528880832e+01 0 1 1
5520 1 9.5011379837173102e+00 2.2447179907845481e+01 1.2899052250753780e+01 0 0 0
3213 1 2.1026198754691570e+00 1.4608651413347298e+01 6.8914036747692018e+00 0 0 0
1412 1 2.0478801398858368e+00 1.6710176746989937e+01 1.1107673067450647e+00 1 0 1
3369 1 3.5383394802860666e+00 2.0886118424545106e+01 4.0947550331142404e+00 2 1 0
6440 1 1.9249143076518915e+00 2.2203119011292561e+01 2.5353146394563977e+00 1 -1 1
1316 1 6.2164058877514075e+00 2.1280995935483389e+01 1.3413324979314729e+00 -1 1 1
4771 1 7.8300669880369984e+00 2.3769355615378736e+01 4.5465106024180164e+00 1 -1 1
437 1 6.7698529151159041e+00 2.4003743528184174e+01 2.0495464218992598e+00 1 0 0
6638 1 9.4750079585370806e+00 2.1311255830468781e+01 4.1639205069045726e+00 1 -1 1
6350 1 1.1978239905248122e+01 2.0227053001626167e+01 5.8488262032508072e+00 2 1 0
5046 1 9.9989690754615097e+00 5.0627828780335460e-01 6.0753642129145646e+00 0 1 0
6557 1 6.9559474687701304e+00 1.4998719196230581e+00 6.3865298922027902e+00 0 1 0
6554 1 4.4426976313963413e+00 6.1281764373133534e+00 1.0095086707226189e+01 1 0 1
4850 1 3.0838885437752828e-01 1.7506706346422675e+01 5.0354307353964192e+00 -1 0 1
1683 1 9.6816213556589723e+00 3.3536727282831067e+00 7.4809607711636383e+00 1 1 1
3942 1 1.1301786808192011e+00 9.4147647163872232e+00 3.4772686759812439e+00 0 2 1
107 1 3.8821489685034218e+00 1.4613187887159897e+00 6.1399522087503149e+00 0 1 0
3065 1 1.2186745519315220e+01 4.8299060412944261e-01 8.1520477961893203e+00 -1 0 1
5203 1 6.9609291044440988e+00 2.1834806785850251e+01 6.4619644224923602e+00 0 0 0
6739 1 5.1281244801847450e+00 4.1864316712232901e+00 5.1836332039734589e+00 0 2 1
1427 1 3.5394808621393148e+00 4.8937741259615741e+00 7.2120721990982730e+00 1 -1 1
1372 1 3.2766576688838378e+00 8.0036300516897931e+00 8.4311742173277917e+00 0 0 1
3173 1 3.4096996781799467e+00 7.8616552779095183e+00 5.0620821287039401e+00 1 1 1
5229 1 7.3579703418599163e+00 7.0891893044365464e+00 7.7381235464696667e+00 1 0 0
1829 1 7.5771243074138717e+00 4.6206617326350612e+00 6.2036344671385635e+00 0 0 0
6359 1 7.0569706650760837e+00 8.1403713670830449e+00 4.7996060181319464e+00 0 0 1
1852 1 9.5921270727402899e+00 5.3888230766573502e+00 3.6115709044863640e+00 0 0 1
1730 1 1.0578618861382013e+01 4.4322511696682545e+00 9.8764627642605429e+00 0 0 0
138 1 1.0765426441407937e+01 7.3701121523497424e+00 9.5734624902479464e+00 0 0 0
5589 1 8.1074629924609132e-01 2.3124438158788617e+01 7.0021833348987821e+00 1 -1 0
3934 1 5.7637215947339167e+00 1.0701939576612418e+01 5.1065133973725443e+00 1 0 0
354 1 5.7340455255577591e+00 8.0160387855797701e+00 2.2092389042925360e+00 1 2 0
2101 1 5.8991851141432230e+00 1.2367999102115007e+01 7.8879758158222204e+00 0 1 0
4831 1 8.4884744924863007e+00 1.2764883351169473e+01 8.0525973223243170e+00 1 2 1
5102 1 5.6941505434906041e+00 9.4668459953444923e+00 7.9582629151991595e+00 1 -1 0
6611 1 1.6391665989397279e+00 2.6975827273670103e+00 7.5792827037095272e+00 2 0 1
1822 1 9.2648746327767739e+00 9.1688476152299287e+00 8.1610186056071257e+00 0 1 0
96 1 1.2273263741853713e+01 1.0207618052688289e+01 4.4218188931385172e-01 1 1 0
1696 1 4.6818851944669895e+00 1.4587796087718658e+01 6.7493597004262060e+00 0 0 0
5200 1 3.3379469581789190e+00 1.4443951511693554e+01 1.1882888894707166e+01 1 1 1
4737 1 5.4488079575263910e+00 1.4251770616969512e+01 4.2093803766107101e+00 1 0 1
3570 1 8.9119730273578543e+00 1.5116172850402664e+01 8.2194503983507641e+00 0 -1 0
2038 1 6.3132342857008918e+00 1.6113492241349689e+01 8.5257419235332144e+00 1 1 0
3787 1 6.4499257008807931e-01 3.0790594820011186e+00 4.6056345508765117e+00 -1 1 0
2271 1 1.0672920538396177e+01 1.6125505728695760e+01 6.0174992560860137e+00 0 0 1
3084 1 1.1406982458354975e+00 1.9993300134054909e+01 5.6233724510720275e+00 0 0 1
391 1 6.0103584743253824e-01 1.9104501555501930e+01 8.7150720389423704e+00 1 1 0
1414 1 5.2193011355433470e+00 1.8262076534141610e+01 7.2074914459164647e+00 1 1 1
2217 1 7.3330996409967550e+00 1.9389467367847548e+01 6.0675026479323462e+00 1 2 1
3157 1 2.0910113516960718e+00 2.1393273852000728e+01 8.9622308339029271e+00 1 1 1
3020 1 2.3658012806368460e+00 2.2105467967337585e+01 1.1634404841341730e+01 0 0 1
3572 1 9.2189282784816449e+00 2.1929149342367200e+01 8.3853925783640975e+00 1 0 0
5422 1 9.9695276302623963e+00 1.8764732042947841e+01 6.9251476387177595e+00 1 0 0
5030 1 3.6291383231924996e+00 4.8364530996862394e+00 5.9893486028200804e-01 0 1 0
3649 1 7.5983761661241722e+00 1.7941757589557731e+01 1.2840987755360137e+01 1 0 1
5526 1 1.1059813372486484e+01 2.4267118222801798e+01 3.8213583571517384e+00 0 1 0
3197 1 4.6598952639253204e+00 2.3003046159607479e+01 5.3067593896143350e+00 1 -1 1
5303 1 4.8146482850466326e+00 2.0433272756955127e+01 8.8490318668414858e+00 3 1 0
1733 1 1.0428129595765858e+01 1.7650583781756989e+01 1.4415825627104573e+01 0 1 1
380 1 3.2623828554533176e+00 4.8879988604378006e+00 1.2651889611136085e+01 1 0 0
436 1 8.1148426982398334e+00 3.7157659980739428e+00 1.1120623394841715e+01 2 0 0
2327 1 5.5075327448480342e+00 3.9631214510962183e+00 1.3798770269120586e+01 1 1 1
5269 1 4.9801899948652073e+00 2.2215110970213988e+01 1.2521885494144726e+01 1 1 0
2153 1 1.5703261971852904e+00 3.0266865961161526e+00 1.1568250876221569e+01 1 1 0
5388 1 1.0916265176580067e+00 1.3957105289224701e+01 4.6104534732803524e+00 1 1 0
1373 1 8.7152098997585519e+00 3.4505317350412317e+00 1.3880345839928209e+01 0 0 1
5588 1 5.1662057225818030e+00 7.7979101779434001e-01 8.7434727958456246e+00 0 1 0
3297 1 4.5812856563573510e+00 7.7556107760996236e+00 1.3844779994126085e+01 2 0 1
478 1 7.2099579823188789e+00 3.6444889564350386e-01 3.7511731319148844e+00 -1 1 0
415 1 5.7954936926584288e+00 1.2977850006520752e+01 1.4703374738657866e+01 1 0 0
1723 1 6.7542079569446827e+00 6.6949374559153281e+00 1.0348412809702477e+01 -1 0 0
1421 1 7.4750904278422166e+00 7.1172264763868984e+00 1.3238698425998098e+01 0 0 1
568 1 1.0569730371350355e+01 6.9700796599347887e+00 1.3612638544504605e+01 -1 1 1
336 1 2.2996220203694180e+00 8.3920365830177861e+00 1.1500065072800496e+01 1 0 0
2206 1 1.0951784253442485e+00 1.0620355804505474e+01 1.0657189006084433e+01 0 0 1
3614 1 4.5126520727631290e+00 1.0646034252666041e+01 1.2844022543254820e+01 1 -1 0
1687 1 6.6398257699431928e+00 9.6435408114482968e+00 1.0587142182759182e+01 -1 0 1
6673 1 7.4965850040517639e+00 9.7570259270967838e+00 1.3589251294824756e+01 0 1 1
39 1 1.1464667211713254e+01 1.1033832275719055e+01 1.1430560168087680e+01 -1 -1 0
5453 1 2.0683075792878149e+00 1.2375727874368445e+00 2.8773564509190286e+00 0 1 0
6522 1 1.2057743663047903e+01 3.9117857167378807e+00 1.3402401024231732e+01 -1 1 1
323 1 5.7778802508188143e+00 1.5329344139205036e+01 4.7537612143860236e-01 0 0 0
2150 1 1.1378624819946804e+01 1.3038667422725718e+01 6.0102307777591015e+00 0 -1 1
3107 1 2.0747253604202656e+00 1.2009611264155140e+01 1.2704598614314955e+01 0 0 1
3841 1 9.2503716622399850e+00 1.0813571446393055e+00 2.1252241645727246e+00 -1 0 0
1309 1 4.5444607975711744e+00 1.2500768404825909e+01 1.0091771365730972e+01 0 0 1
295 1 8.8059164980211300e+00 1.1188971645534334e+01 1.0277446994518771e+01 0 0 0
5090 1 6.8752465390338049e+00 1.2999234594809542e+01 1.1912217228126492e+01 0 0 0
2166 1 8.6251841523596937e+00 1.5547130486600832e+01 1.1100052980788240e+01 0 0 0
456 1 1.0504319155674066e+01 1.8912334755082696e+01 9.5251322008824140e+00 0 -1 0
5597 1 9.8765834039402680e+00 1.3168613597733522e+01 1.2796657022732512e+01 1 -2 0
5316 1 8.7216934523253764e-01 1.7744331946580402e+01 1.3351245894422442e+01 0 0 0
3733 1 1.7770032977626216e+00 1.7085108052515423e+01 1.0861462858809093e+01 0 0 1
6643 1 3.8436726793816915e+00 2.3575349391213987e+01 7.8388379315489907e+00 0 1 1
5478 1 1.6355343857337015e+00 2.0350828260095902e+01 1.3663571722319585e+01 1 1 0
1658 1 9.4173792517101322e+00 1.9867156901958261e+01 1.1838495310065454e+01 0 1 1
1994 1 4.6641816012696662e+00 1.9477399351532672e+01 1.3139361815434448e+01 0 0 0
3043 1 4.1051843629569582e+00 1.8266594059134835e+01 1.0720453701333637e+01 0 0 1
3187 1 7.1143904743044075e+00 2.1226269485215990e+01 1.0583582825606902e+01 1 0 1
28 1 5.5025476652479828e+00 1.6075623691436292e+01 1.1122951961984940e+01 0 0 1
2283 1 3.3879220104374341e-01 8.3517290894908314e+00 7.1267073652067214e-01 0 1 0
5129 1 1.1849127660353806e+01 1.2060479299681630e+01 8.4678271286801099e+00 0 1 1
4997 1 5.2718083222579306e+00 3.4230660840358111e+00 1.0022779499841549e+01 0 1 1
4849 1 1.8578745717769518e+00 5.5036921355673041e+00 1.4989665481244234e+01 0 1 1
1567 1 1.1658022125409968e+01 2.2244364250288687e+01 7.4419721788098512e+00 -1 0 1
6396 1 1.3252525625194667e+00 1.3068831051436856e+01 9.2924334051857560e+00 0 -1 1
4699 1 1.3394546300850954e+00 2.6710415820119064e+00 6.2820549743601850e-01 0 -1 1
6695 1 1.1593454611817446e+01 9.0724566933120077e+00 5.1180358545978555e+00 -1 1 0
6434 1 7.7865063364158127e+00 1.1406365557122367e+00 1.5103094262872675e+01 1 1 1
427 1 8.1486614286518542e+00 2.2362703096409625e+01 1.4963630765945277e+01 0 -1 1
2239 1 6.2742730622453786e+00 2.4077715738384221e+01 1.4289092528896726e+01 1 1 0
5601 1 1.1059124685553407e+01 2.8826673366956895e-01 1.1087097858713214e+01 0 1 1
6460 1 1.2279339563991098e+01 2.6075674217821714e+00 1.0864241450137346e+01 1 -1 0
1845 1 1.2298994874402787e+01 7.5516583001347817e+00 7.5308762879041904e+00 1 1 0
5231 1 3.7591404071948440e+00 2.4455442556091320e+01 2.3369256399277312e+00 0 0 0
5493 1 8.6454810340722297e+00 2.0241716688356735e+01 3.1936775914881821e-01 0 0 0
1672 1 5.2013542682817784e+00 1.0658322038902346e+01 4.2554958012593147e-01 0 0 0
5323 1 2.5962091460799579e+00 1.8246692153520558e-01 1.6740884179886645e+01 0 1 0
372 1 1.5860223333884900e+00 2.3321164747002778e+00 1.8389437525307176e+01 0 0 1
857 2 6.1524999999999999e+00 2.3444173705848499e+01 2.6798108715598268e+01 0 0 0
895 2 9.8440000000000012e+00 2.1312885187134999e+01 2.6798108715598268e+01 0 0 0
444 1 7.4811902068683800e+00 2.3607534561408809e+00 1.7964975370291203e+01 -1 0 0
6482 1 5.6068083682257983e+00 4.0410184102878297e+00 1.8820843583026374e+01 0 0 1
3948 1 9.9165602008302631e+00 4.1072149525817618e+00 1.7961556117853743e+01 0 1 1
821 2 6.1524999999999990e+00 2.2023314693372832e+01 2.6798108715598268e+01 0 0 0
3555 1 3.4247225920379276e+00 3.7353461287557219e+00 1.6919146406685762e+01 1 0 0
917 2 1.1074500000000002e+01 2.3444173705848499e+01 2.6798108715598268e+01 0 0 0
3404 1 2.7924251031004370e-02 7.7124127405484408e+00 1.9613270975812451e+01 1 0 1
727 2 1.2304999999999993e+00 2.2023314693372832e+01 2.6798108715598268e+01 0 0 0
6647 1 4.6149051145297140e+00 6.7114788172795725e+00 1.8027004068262176e+01 0 1 0
5076 1 7.0475647975541200e+00 7.7807836602031184e+00 1.7755385590018484e+01 1 2 1
5402 1 9.9200038179899899e+00 6.9078125256748235e+00 1.6768656180829836e+01 0 0 0
340 1 1.0718144544739012e+01 8.3891976956925234e+00 1.9169488196047308e+01 1 -1 0
5451 1 1.2087634121888238e+01 1.0843085422099376e+01 1.5413260442543645e+01 0 1 0
2232 1 6.5596207335801338e-01 2.1939483135180144e+01 2.0188289161669410e+01 1 1 1
3734 1 5.1035283948226917e+00 1.5569772869780234e+01 1.5714191321184643e+01 1 0 0
3485 1 1.2605958385752434e+00 1.2094170450919167e+01 1.9480079389990259e+01 2 0 0
6472 1 1.1872295985499202e+01 1.3691617755564558e+01 1.5768136114714864e+01 2 1 1
1689 1 4.4114246295968957e+00 1.0880138128036979e+01 1.6116163546670510e+01 1 0 0
3214 1 3.5250985036858666e+00 1.0385099039025834e+01 2.0427912567271814e+01 0 0 1
232 1 4.0354973169300719e+00 1.2482459350718784e+01 1.8241459318608971e+01 0 -1 0
5208 1 9.3969114170894059e+00 1.1162613643960540e+01 1.7287102770071741e+01 0 0 0
2246 1 8.4455647265645855e+00 9.0919103390553637e+00 2.0722156351072826e+01 1 -1 0
859 2 7.3830000000000009e+00 2.4154603212086336e+01 2.6798108715598268e+01 0 0 0
1627 1 9.9823000735292418e+00 1.1507111006234608e+01 1.9687942377217997e+01 -1 -1 1
3977 1 1.9413884638989609e+00 1.5597740017023421e+01 1.7793692999688606e+01 0 0 1
1935 1 1.3273963892635194e+00 1.4908874065528423e+01 2.0595456304246788e+01 -1 0 0
861 2 7.3829999999999991e+00 2.1312885187134999e+01 2.6798108715598268e+01 0 0 0
2149 1 7.6055353723961474e+00 1.7230216452272131e+01 1.5606155961329733e+01 -1 1 0
3004 1 4.6543818020461307e+00 1.5168323074282105e+01 1.8240626573304915e+01 -1 1 1
3414 1 6.5212611459802554e+00 1.1049370640252226e+01 2.0772096770659125e+01 1 1 0
5507 1 1.0066007868757358e+01 2.0529378668819138e+01 2.0597035945625855e+01 1 0 0
6479 1 6.3572046940805482e-01 2.2562951771453353e+01 1.7501068578483892e+01 0 1 1
3052 1 9.5466310190819854e+00 1.5353195710692663e+01 1.7048331894576087e+01 -1 1 1
8 1 1.8264095078446316e+00 1.8472441930563139e+01 1.8360132627668275e+01 2 1 1
5064 1 3.7169894251131335e+00 1.8596235447412511e+01 2.0100183081708948e+01 1 0 0
83 1 7.0860532355794943e+00 1.9093771815234042e+01 1.7330017887696027e+01 0 0 0
1621 1 5.9064502914632495e+00 1.7313832131907986e+01 1.8997665697702807e+01 1 -1 1
5587 1 9.4634982790606408e+00 1.7614159892410111e+01 2.1047209122861741e+01 0 0 0
1313 1 2.6649343259911942e+00 7.6818600360836333e+00 1.6449645045333224e+01 0 0 1
3684 1 9.2516925022412106e+00 2.0452244738386241e+01 1.7729074255742564e+01 0 0 0
1320 1 1.1726716104849094e+01 2.4130270622070139e+01 1.8429636916230571e+01 1 0 1
5394 1 1.9834551797311706e+00 2.0316345590963664e+01 1.6410638349067096e+01 1 1 0
3156 1 7.0255530955621976e+00 1.0004828406014838e+01 1.6254481093060363e+01 -1 2 1
5658 1 1.1450535992390508e+01 1.9454329900196999e+01 1.6251332572626669e+01 0 0 1
216 1 4.5458028390771821e+00 2.1613108389955894e+01 1.7498751470673479e+01 0 0 0
3659 1 1.5265118423339610e+00 2.3580242514551983e+01 2.3571869293577155e+01 1 -1 0
891 2 8.6134999999999984e+00 2.3444173705848499e+01 2.6798108715598268e+01 0 0 0
725 2 0.0000000000000000e+00 2.1312885187134999e+01 2.6798108715598268e+01 0 0 0
863 2 8.6135000000000002e+00 2.2023314693372832e+01 2.6798108715598268e+01 0 0 0
2077 1 9.1437857894766452e+00 2.3258997122103651e+01 1.7705306283047875e+01 1 0 1
2020 1 1.1234808818051276e+01 1.9609234344523085e+00 1.6785194418633253e+01 0 1 0
123 1 2.5913476086634768e+00 1.6905520062384004e-02 2.4301333582855325e+01 1 0 1
5028 1 4.4876006834896378e+00 2.2887605713081443e+00 2.0492992717748894e+01 0 1 0
31 1 4.6644999933235676e+00 3.6775697039789370e+00 2.2754388842577100e+01 2 -1 1
1870 1 6.2362561611159419e+00 2.3646607383776680e-01 2.0802991707394803e+01 0 0 0
1691 1 6.1981507213413707e+00 2.0540469220192435e+01 1.5515132660878450e+01 0 0 1
3639 1 6.4784253509398653e+00 2.1297911701248138e+00 2.4336162226852643e+01 1 0 0
2089 1 8.4241923014626323e+00 1.8272824919163237e+00 2.0666494454190609e+01 1 1 0
3853 1 8.7792997601700247e+00 2.8520357823153284e+00 2.3330479158974164e+01 0 0 0
105 1 2.8303005434106904e-01 4.2137972725010444e+00 2.2751729094893861e+01 1 0 1
2063 1 2.5263132179681591e+00 4.9196813808457369e+00 2.3928391873174078e+01 1 -1 0
1992 1 3.5038974718060514e+00 7.2963910888951151e+00 2.2912555779849011e+01 1 1 0
1484 1 2.8294410918682216e+00 7.7296040335050895e+00 2.0289761570030237e+01 0 1 1
3714 1 9.4988398658129309e+00 4.5265057297206663e+00 2.0652878928638437e+01 1 0 0
5226 1 7.2431346033339024e+00 6.2803890357267971e+00 2.0389031151281564e+01 0 0 0
3424 1 6.7440643004111580e+00 5.9628140342791109e+00 2.2837589535230229e+01 0 0 1
6443 1 8.9390115728910953e+00 5.6713780909999514e+00 2.4019186380856492e+01 0 1 1
1588 1 1.1465565876976223e+01 6.7231072633673810e+00 2.1270303652666012e+01 -1 0 1
4760 1 1.0711413928466831e+01 7.5262868568450267e+00 2.3604975883185809e+01 -1 0 1
897 2 1.1074500000000002e+01 2.2023314693372832e+01 2.6798108715598268e+01 0 0 0
893 2 9.8440000000000012e+00 2.4154603212086336e+01 2.6798108715598268e+01 0 0 0
1364 1 1.8614390567014609e+00 9.0241599934395591e+00 2.4208108547469674e+01 0 0 1
5218 1 3.1096342844047804e+00 1.1356108116063940e+01 2.3210033939042926e+01 1 -1 0
1920 1 5.7720225411852715e+00 1.1254604950885561e+01 2.3511357590016956e+01 0 0 1
1840 1 5.5961869570499641e+00 8.4183770881963298e+00 2.3955682729202220e+01 0 0 0
1343 1 1.0206388447141135e+01 1.1454754544982164e+01 2.4060092182353969e+01 -1 -1 1
5149 1 8.5539246461796097e+00 9.2509997300696494e+00 2.3442034057821939e+01 1 0 1
3507 1 2.7412855676511971e+00 1.3999961281546408e+01 2.3948175066408478e+01 0 0 0
3330 1 2.6807586663434750e+00 1.6789060317048307e+01 2.2204260172330898e+01 1 0 0
6721 1 6.1987732861445783e+00 1.3797761613870252e+01 2.4053332971555594e+01 1 0 1
6593 1 8.8245215393165015e+00 1.3584221801807223e+01 2.3515411374560369e+01 0 0 1
477 1 1.0404078127689409e+01 1.5766477848171066e+01 2.3977900545320505e+01 0 1 0
4995 1 8.2505902344591160e+00 1.3410349255975730e+01 2.0849161641390229e+01 1 0 0
3868 1 1.0727451134367987e+01 1.6156996867324377e+01 1.9202194340079160e+01 0 0 1
1934 1 2.0183396458870867e-01 1.6482477536533005e+00 2.3822168635854979e+01 -1 1 0
817 2 4.9220000000000006e+00 2.4154603212086325e+01 2.6798108715598268e+01 0 0 0
6573 1 5.0597044589348261e+00 1.6124696041152809e+01 2.2828483619698972e+01 0 0 1
1680 1 6.6476952765526089e+00 1.8224751784228943e+01 2.3875377470618389e+01 1 1 1
2202 1 4.5413892017586983e+00 2.1397979708013377e+01 2.0295910586825276e+01 0 1 0
6549 1 7.1260487692167356e+00 1.6104999414001298e+01 2.0895453674422253e+01 2 -1 1
3675 1 9.4511229411685864e+00 1.8447272141131748e+01 2.3926977963896931e+01 1 1 0
3039 1 2.5705672557785628e+00 2.3539006558558754e+01 2.0914143901220413e+01 1 0 1
3303 1 2.0412572889330933e+00 2.0828108397615402e+01 2.3828115947413028e+01 1 -1 1
3075 1 1.2130264899542933e+01 1.4062576049584170e+01 2.0815360040811637e+01 -1 0 1
3833 1 6.5603286838588906e+00 2.3374999226591239e+01 2.0470323935834735e+01 0 0 1
3505 1 4.7897969887370184e+00 2.0577892686452394e+01 2.3485902449075180e+01 0 1 0
1483 1 6.1236633314772053e+00 2.2891922232014920e+01 2.3645960677897715e+01 0 0 1
1659 1 9.3866008546546880e+00 2.3434065903996029e+01 2.1084917946418241e+01 1 0 1
1649 1 1.0517665532644646e+01 2.0873295722432108e+01 2.3661706595228942e+01 1 -1 1
819 2 4.9220000000000006e+00 2.1312885187134995e+01 2.6798108715598268e+01 0 0 0
1597 1 9.0967161597556512e+00 2.3236709561026313e+01 2.3926443959531206e+01 -1 0 0
618 2 0.0000000000000000e+00 2.8417180249513345e+00 2.6798108715598268e+01 0 0 0
620 2 0.0000000000000000e+00 0.0000000000000000e+00 2.6798108715598268e+01 0 0 0
622 2 1.2305000000000001e+00 7.1042950623783474e-01 2.6798108715598268e+01 0 0 0
629 2 1.2305000000000001e+00 2.1312885187134998e+00 2.6798108715598268e+01 0 0 0
631 2 2.4610000000000003e+00 2.8417180249513345e+00 2.6798108715598268e+01 0 0 0
633 2 2.4610000000000003e+00 0.0000000000000000e+00 2.6798108715598268e+01 0 0 0
635 2 3.6915000000000004e+00 7.1042950623783474e-01 2.6798108715598268e+01 0 0 0
650 2 3.6914999999999996e+00 2.1312885187134998e+00 2.6798108715598268e+01 0 0 0
652 2 4.9220000000000006e+00 2.8417180249513332e+00 2.6798108715598268e+01 0 0 0
654 2 4.9220000000000006e+00 0.0000000000000000e+00 2.6798108715598268e+01 0 0 0
656 2 6.1524999999999999e+00 7.1042950623783407e-01 2.6798108715598268e+01 0 0 0
679 2 6.1524999999999999e+00 2.1312885187134989e+00 2.6798108715598268e+01 0 0 0
681 2 7.3829999999999991e+00 2.8417180249513345e+00 2.6798108715598268e+01 0 0 0
683 2 7.3829999999999991e+00 0.0000000000000000e+00 2.6798108715598268e+01 0 0 0
685 2 8.6134999999999984e+00 7.1042950623783407e-01 2.6798108715598268e+01 0 0 0
716 2 8.6134999999999984e+00 2.1312885187135002e+00 2.6798108715598268e+01 0 0 0
718 2 9.8440000000000012e+00 2.8417180249513332e+00 2.6798108715598268e+01 0 0 0
720 2 9.8440000000000012e+00 0.0000000000000000e+00 2.6798108715598268e+01 0 0 0
722 2 1.1074500000000002e+01 7.1042950623783330e-01 2.6798108715598268e+01 0 0 0
761 2 1.1074500000000002e+01 2.1312885187135002e+00 2.6798108715598268e+01 0 0 0
623 2 0.0000000000000000e+00 7.1042950623783341e+00 2.6798108715598268e+01 0 0 0
625 2 0.0000000000000000e+00 4.2625770374269996e+00 2.6798108715598268e+01 0 0 0
627 2 1.2305000000000001e+00 4.9730065436648339e+00 2.6798108715598268e+01 0 0 0
642 2 1.2305000000000001e+00 6.3938655561404980e+00 2.6798108715598268e+01 0 0 0
644 2 2.4610000000000003e+00 7.1042950623783341e+00 2.6798108715598268e+01 0 0 0
646 2 2.4610000000000003e+00 4.2625770374269996e+00 2.6798108715598268e+01 0 0 0
648 2 3.6914999999999996e+00 4.9730065436648339e+00 2.6798108715598268e+01 0 0 0
671 2 3.6914999999999996e+00 6.3938655561404980e+00 2.6798108715598268e+01 0 0 0
673 2 4.9220000000000006e+00 7.1042950623783341e+00 2.6798108715598268e+01 0 0 0
675 2 4.9220000000000006e+00 4.2625770374269978e+00 2.6798108715598268e+01 0 0 0
677 2 6.1524999999999999e+00 4.9730065436648339e+00 2.6798108715598268e+01 0 0 0
708 2 6.1524999999999999e+00 6.3938655561404980e+00 2.6798108715598268e+01 0 0 0
710 2 7.3830000000000009e+00 7.1042950623783341e+00 2.6798108715598268e+01 0 0 0
712 2 7.3829999999999991e+00 4.2625770374269996e+00 2.6798108715598268e+01 0 0 0
714 2 8.6135000000000002e+00 4.9730065436648339e+00 2.6798108715598268e+01 0 0 0
753 2 8.6135000000000002e+00 6.3938655561404980e+00 2.6798108715598268e+01 0 0 0
755 2 9.8440000000000012e+00 7.1042950623783341e+00 2.6798108715598268e+01 0 0 0
757 2 9.8440000000000012e+00 4.2625770374270004e+00 2.6798108715598268e+01 0 0 0
759 2 1.1074500000000002e+01 4.9730065436648339e+00 2.6798108715598268e+01 0 0 0
800 2 1.1074500000000002e+01 6.3938655561404980e+00 2.6798108715598268e+01 0 0 0
636 2 0.0000000000000000e+00 1.1366872099805333e+01 2.6798108715598268e+01 0 0 0
638 2 0.0000000000000000e+00 8.5251540748539991e+00 2.6798108715598268e+01 0 0 0
640 2 1.2305000000000001e+00 9.2355835810918343e+00 2.6798108715598268e+01 0 0 0
663 2 1.2305000000000001e+00 1.0656442593567498e+01 2.6798108715598268e+01 0 0 0
665 2 2.4610000000000003e+00 1.1366872099805333e+01 2.6798108715598268e+01 0 0 0
667 2 2.4610000000000003e+00 8.5251540748539991e+00 2.6798108715598268e+01 0 0 0
669 2 3.6915000000000004e+00 9.2355835810918343e+00 2.6798108715598268e+01 0 0 0
700 2 3.6914999999999996e+00 1.0656442593567499e+01 2.6798108715598268e+01 0 0 0
702 2 4.9220000000000006e+00 1.1366872099805333e+01 2.6798108715598268e+01 0 0 0
704 2 4.9220000000000006e+00 8.5251540748539991e+00 2.6798108715598268e+01 0 0 0
706 2 6.1524999999999999e+00 9.2355835810918343e+00 2.6798108715598268e+01 0 0 0
745 2 6.1524999999999999e+00 1.0656442593567499e+01 2.6798108715598268e+01 0 0 0
747 2 7.3829999999999991e+00 1.1366872099805333e+01 2.6798108715598268e+01 0 0 0
749 2 7.3830000000000009e+00 8.5251540748539991e+00 2.6798108715598268e+01 0 0 0
751 2 8.6134999999999984e+00 9.2355835810918343e+00 2.6798108715598268e+01 0 0 0
792 2 8.6134999999999984e+00 1.0656442593567498e+01 2.6798108715598268e+01 0 0 0
794 2 9.8440000000000012e+00 1.1366872099805333e+01 2.6798108715598268e+01 0 0 0
796 2 9.8440000000000012e+00 8.5251540748539956e+00 2.6798108715598268e+01 0 0 0
798 2 1.1074500000000002e+01 9.2355835810918343e+00 2.6798108715598268e+01 0 0 0
839 2 1.1074500000000002e+01 1.0656442593567498e+01 2.6798108715598268e+01 0 0 0
841 2 1.2304999999999998e+01 1.1366872099805333e+01 2.6798108715598268e+01 0 0 0
657 2 0.0000000000000000e+00 1.5629449137232333e+01 2.6798108715598268e+01 0 0 0
659 2 0.0000000000000000e+00 1.2787731112280996e+01 2.6798108715598268e+01 0 0 0
661 2 1.2305000000000001e+00 1.3498160618518829e+01 2.6798108715598268e+01 0 0 0
692 2 1.2305000000000001e+00 1.4919019630994494e+01 2.6798108715598268e+01 0 0 0
694 2 2.4610000000000003e+00 1.5629449137232328e+01 2.6798108715598268e+01 0 0 0
696 2 2.4610000000000003e+00 1.2787731112280996e+01 2.6798108715598268e+01 0 0 0
698 2 3.6915000000000004e+00 1.3498160618518829e+01 2.6798108715598268e+01 0 0 0
737 2 3.6915000000000004e+00 1.4919019630994494e+01 2.6798108715598268e+01 0 0 0
739 2 4.9220000000000006e+00 1.5629449137232333e+01 2.6798108715598268e+01 0 0 0
741 2 4.9220000000000006e+00 1.2787731112280996e+01 2.6798108715598268e+01 0 0 0
743 2 6.1524999999999990e+00 1.3498160618518829e+01 2.6798108715598268e+01 0 0 0
784 2 6.1524999999999990e+00 1.4919019630994494e+01 2.6798108715598268e+01 0 0 0
786 2 7.3829999999999991e+00 1.5629449137232333e+01 2.6798108715598268e+01 0 0 0
788 2 7.3829999999999991e+00 1.2787731112280996e+01 2.6798108715598268e+01 0 0 0
790 2 8.6135000000000002e+00 1.3498160618518835e+01 2.6798108715598268e+01 0 0 0
831 2 8.6135000000000002e+00 1.4919019630994494e+01 2.6798108715598268e+01 0 0 0
833 2 9.8440000000000012e+00 1.5629449137232328e+01 2.6798108715598268e+01 0 0 0
835 2 9.8440000000000012e+00 1.2787731112280996e+01 2.6798108715598268e+01 0 0 0
837 2 1.1074500000000002e+01 1.3498160618518829e+01 2.6798108715598268e+01 0 0 0
873 2 1.1074500000000002e+01 1.4919019630994494e+01 2.6798108715598268e+01 0 0 0
686 2 0.0000000000000000e+00 1.9892026174659328e+01 2.6798108715598268e+01 0 0 0
688 2 0.0000000000000000e+00 1.7050308149707998e+01 2.6798108715598268e+01 0 0 0
690 2 1.2305000000000001e+00 1.7760737655945832e+01 2.6798108715598268e+01 0 0 0
729 2 1.2305000000000001e+00 1.9181596668421495e+01 2.6798108715598268e+01 0 0 0
731 2 2.4610000000000003e+00 1.9892026174659328e+01 2.6798108715598268e+01 0 0 0
733 2 2.4610000000000003e+00 1.7050308149707998e+01 2.6798108715598268e+01 0 0 0
735 2 3.6914999999999996e+00 1.7760737655945832e+01 2.6798108715598268e+01 0 0 0
776 2 3.6914999999999996e+00 1.9181596668421495e+01 2.6798108715598268e+01 0 0 0
778 2 4.9220000000000006e+00 1.9892026174659328e+01 2.6798108715598268e+01 0 0 0
780 2 4.9220000000000006e+00 1.7050308149707998e+01 2.6798108715598268e+01 0 0 0
782 2 6.1524999999999999e+00 1.7760737655945832e+01 2.6798108715598268e+01 0 0 0
823 2 6.1524999999999999e+00 1.9181596668421495e+01 2.6798108715598268e+01 0 0 0
825 2 7.3829999999999991e+00 1.9892026174659328e+01 2.6798108715598268e+01 0 0 0
827 2 7.3830000000000009e+00 1.7050308149707998e+01 2.6798108715598268e+01 0 0 0
829 2 8.6134999999999984e+00 1.7760737655945832e+01 2.6798108715598268e+01 0 0 0
865 2 8.6135000000000002e+00 1.9181596668421495e+01 2.6798108715598268e+01 0 0 0
867 2 9.8440000000000012e+00 1.9892026174659335e+01 2.6798108715598268e+01 0 0 0
869 2 9.8440000000000012e+00 1.7050308149707998e+01 2.6798108715598268e+01 0 0 0
871 2 1.1074500000000002e+01 1.7760737655945835e+01 2.6798108715598268e+01 0 0 0
899 2 1.1074500000000002e+01 1.9181596668421495e+01 2.6798108715598268e+01 0 0 0
903 2 1.2304999999999998e+01 1.7050308149707998e+01 2.6798108715598268e+01 0 0 0
770 2 2.4610000000000003e+00 2.4154603212086325e+01 2.6798108715598268e+01 0 0 0
768 2 1.2304999999999993e+00 2.3444173705848499e+01 2.6798108715598268e+01 0 0 0
772 2 2.4610000000000003e+00 2.1312885187134995e+01 2.6798108715598268e+01 0 0 0