LAMMPS data file via write_data, version 16 Mar 2018, timestep = 6000000

6750 atoms
2 atom types

2.3984649305264227e-01 4.8980153506952576e+01 xlo xhi
2.3887012938955365e-01 4.8780765801017388e+01 ylo yhi
-2.2049308575395443e-01 6.0282493085759242e+01 zlo zhi

Masses

1 18.015
2 12.01

Atoms # atomic

5019 1 9.8885632816025417e+00 2.3174201821601503e+01 1.0221715960481943e+01 1 0 1
3847 1 1.0825419278302521e+01 2.0829567833058562e+01 9.3759491924922749e+00 0 1 1
2027 1 4.6342587255573866e+00 1.3325698193276196e+00 2.4798758045428704e+00 1 0 0
5077 1 7.3076867009111171e+00 7.2892469715737951e-01 3.0637872264993500e+00 1 0 1
3887 1 1.2245164068176788e+01 2.2500246470702589e+01 3.3484154148999630e+00 -1 -1 0
5069 1 9.1157982383644516e+00 2.6428414568784722e+00 2.3824248443753939e+00 3 1 0
3633 1 1.1550908228766250e+01 1.8736409918939259e+00 3.4215792971016765e+00 -1 3 0
3524 1 2.8914041889863767e-01 2.8838944751127982e-01 1.0213063418271467e+01 -1 0 0
3803 1 3.8248430606060784e+00 4.0999035100038936e+00 3.0126351063466785e+00 1 -1 0
4703 1 1.3703640729198496e+00 4.5986929814667548e+00 2.4238149407989971e+00 3 2 1
6643 1 5.9675186074771691e-01 7.0090575983881340e+00 3.0583771851712456e+00 1 2 1
5389 1 5.9474956864154569e+00 5.8782584152521808e+00 2.6006636624917321e+00 4 1 0
5046 1 4.7340876089552308e+00 8.4805905893115323e+00 3.3891083129341948e+00 0 3 0
1685 1 8.4172588340112355e+00 4.9536420063236815e+00 3.4650584465093446e+00 2 2 1
3722 1 1.0122552194932974e+01 6.7076975096645111e+00 2.5976743947213574e+00 1 2 0
6523 1 2.1087288671556808e+00 9.0767196257553682e+00 2.0893396801024862e+00 1 -1 1
106 1 1.7414526433576116e+00 1.1431376481132876e+01 3.3615689776475564e+00 -2 -1 1
5116 1 6.6698937571201329e+00 1.0168830113947170e+01 2.7257741577244912e+00 0 -1 0
26 1 1.1200482972128983e+01 1.1450933463672179e+01 2.4811993298167510e+00 1 0 0
1373 1 9.3801988848298112e+00 9.6605253026292370e+00 3.2527325048987947e+00 1 1 1
3874 1 3.8096767983963682e+00 1.3290446572661661e+01 2.4296548233422559e+00 1 2 1
6331 1 3.0143240930774406e+00 1.5764129030923076e+01 3.1993016173792750e+00 0 0 1
1506 1 6.2988850260579285e+00 1.2669618943378463e+01 3.2580721484983619e+00 3 1 1
6569 1 8.0979392528341929e+00 1.4639620272783041e+01 2.4660479654340697e+00 0 1 1
2256 1 1.0657255680391184e+01 1.3986343715434099e+01 3.3654414343072112e+00 0 0 1
2208 1 5.7765690099656219e-01 3.6035557338968260e-01 2.4735217718762903e+00 4 1 0
6390 1 9.0023471667773673e+00 1.8865676612845228e+01 1.0014235680067838e+01 2 0 1
4796 1 3.7976111240866754e+00 2.0156643428365349e+01 3.5044780463543992e+00 -2 3 0
3076 1 4.6974686872562987e+00 2.4444449401105722e+01 3.5338081201211606e+00 4 2 0
295 1 2.0945624386583575e+00 1.8336027404372452e+01 9.6931323942201928e+00 1 1 0
4760 1 7.2447041163224704e+00 1.7260931422689854e+01 3.3157975373516853e+00 -3 1 1
5139 1 4.7483231273153290e+00 1.7754478788872490e+01 2.5195519909594539e+00 -3 -4 0
5495 1 9.3810018693360249e+00 1.9131268200102244e+01 2.4864645417054145e+00 2 1 1
3150 1 1.1795281846957089e+01 1.7969746766527781e+01 3.3746344271231519e+00 -1 0 1
5126 1 1.0139452693245365e+00 2.1177809195790392e+01 2.6668140255534456e+00 5 0 0
1514 1 3.5561526137244748e-01 2.3575165912492164e+01 3.3958627891464737e+00 2 3 1
3322 1 4.4568460785363930e+00 1.7676307174416625e+01 1.0484570260456968e+01 0 0 1
3161 1 5.3534263388992924e+00 2.2177930694656400e+01 2.3205477629310742e+00 2 -3 1
3868 1 7.7282310942616972e+00 2.1280231007608855e+01 3.6269512614500394e+00 2 1 1
6436 1 7.5654606007967640e-01 2.0833517308688304e+01 1.0146927618872894e+01 2 3 0
5164 1 9.7577338015140445e+00 2.3167101916750699e+01 2.3700514251215057e+00 -3 -1 0
5610 1 5.2769629410747596e+00 2.1861340310409119e+01 1.0504132873476115e+01 0 -1 1
5004 1 6.9625426146824605e+00 1.0091556996181739e+01 -1.0935894521538907e-01 1 -1 1
1378 1 2.5913712430586968e+00 2.2481763157323056e+00 6.5966172338099449e+00 -1 2 1
3495 1 4.1269936914396919e+00 4.1574954806197422e+00 5.6182593727612753e+00 1 1 0
2109 1 7.3863689064864975e+00 5.2176861904550043e-01 5.6920907524362576e+00 -3 3 0
4986 1 6.6308215904740848e+00 2.9404573212770511e+00 6.3014729949810375e+00 1 -1 1
6513 1 6.4535101099552685e+00 1.9621759623090306e+01 9.4711562714618385e+00 -1 3 1
5021 1 1.1553793516302974e+01 1.8137771376508787e+00 6.1888071821125186e+00 3 -2 1
4759 1 3.4848368671353591e+00 6.5196718961039197e+00 6.7045146251876773e+00 -1 0 1
3895 1 8.0372120994937102e-01 7.3034468292203174e+00 5.8499263863616919e+00 1 -1 0
3946 1 7.6302366947396933e+00 7.3922377765875451e+00 6.7676184752561515e+00 -3 -2 1
1936 1 8.2550098563477192e+00 4.9316113747661863e+00 6.1344020380845894e+00 -1 -1 0
3503 1 1.0923248399960739e+01 4.3727568640838674e+00 6.8765906548399762e+00 3 1 0
3309 1 2.3014739244871527e+00 1.1903743752135989e+01 6.1118615303322938e+00 -3 0 0
1479 1 4.4941995053944082e+00 1.1214387479955930e+01 6.8751932163908362e+00 2 1 1
191 1 5.1453984820384546e+00 8.6223203148804810e+00 6.1669368949551666e+00 1 0 0
320 1 8.6519812226627248e+00 1.2279044905191776e+01 6.7453132847453050e+00 0 4 0
2222 1 9.4305160699963331e+00 9.5610248383314413e+00 5.9256479026802458e+00 1 3 1
3139 1 1.1874123940189218e+01 8.8522529622385413e+00 6.9565780579740126e+00 2 -1 1
3378 1 1.1678635826210391e+00 1.4280600591015697e+01 6.4764251557110546e+00 3 3 1
5550 1 3.0680584584906692e+00 1.6201331313951499e+01 5.9501288198703568e+00 0 0 0
5392 1 6.0554714466207242e+00 1.2788067782486069e+01 6.0582053324597913e+00 -1 1 0
6534 1 5.3569818958399447e+00 1.5225485879137693e+01 7.1155080639509078e+00 1 -1 1
195 1 1.0540020945801668e+01 1.3940223955557610e+01 6.1251050767895885e+00 2 2 0
5319 1 9.7357782520397329e+00 1.6603094604533403e+01 7.1355397311490041e+00 1 0 0
4696 1 1.9165943519648805e+00 1.8590737371767037e+01 7.0476609293738788e+00 4 -1 1
3800 1 3.9707497085228596e+00 1.9933166394979942e+01 6.1611923172556375e+00 2 3 0
4816 1 7.0695471939598260e+00 1.7139986923705859e+01 6.0205909712346690e+00 4 -1 1
2120 1 6.2936665527549271e+00 1.9630562720136105e+01 7.0404606947491661e+00 1 -1 0
5505 1 1.1497775902230376e+01 1.8315163246158658e+01 5.9178112177347257e+00 1 -1 0
3716 1 2.9335540415804360e+00 2.2636058829300516e+01 6.7297632322688203e+00 -1 -2 1
3042 1 5.5824020639417671e-01 2.3227155082180246e+01 6.0416871321313765e+00 2 0 0
3608 1 7.3238309629801579e+00 2.4044562511633043e+01 6.8410106469955787e+00 0 1 0
2249 1 8.0146949258667526e+00 2.1675068701907374e+01 6.1780377674740361e+00 0 -1 1
79 1 1.0841340813704928e+01 2.0750731388259670e+01 6.6334165806372400e+00 5 0 0
3081 1 7.4014858847274718e+00 2.3963751320918178e+01 9.5782039722038501e+00 1 1 1
3566 1 2.1068768778523341e+00 1.9595637817056712e+00 9.1609401947313511e+00 0 -4 0
6723 1 4.6416487637549757e+00 1.6468032002458994e+00 1.0349742426287865e+01 -1 0 1
6512 1 2.7081125152433669e+00 2.2691473396682497e+01 9.5198376224726999e+00 4 2 1
567 1 6.8685138592719435e+00 3.2124128609624210e+00 9.0286963140631205e+00 0 1 1
3506 1 9.5981917934172110e+00 1.6215930536388466e+01 9.6618282749114428e+00 3 -2 0
5280 1 9.0740251730783932e+00 2.6479958619899895e+00 9.9463933226358971e+00 1 3 0
6422 1 1.4836548286751503e+00 4.7118794855216493e+00 1.0027571613751521e+01 -2 0 1
2019 1 3.4438965722358748e+00 6.3627497717348689e+00 9.3786680242814722e+00 0 0 0
1832 1 6.0244718041843353e+00 5.5935381911941944e+00 1.0210694523610323e+01 4 -2 0
3641 1 7.2318662077532254e+00 7.7767048953898454e+00 9.4401405921317316e+00 3 2 0
3022 1 1.0909558284895114e+01 4.5259636287755063e+00 9.4023073224597908e+00 0 3 1
3551 1 1.0141033561174718e+01 6.9724790798792320e+00 1.0260366798139337e+01 -2 1 1
5597 1 2.3971535902203236e+00 8.8187229037748285e+00 1.0342728639799127e+01 1 -3 0
3058 1 4.3251301734653316e+00 1.0853946401400272e+01 9.3485143071377550e+00 4 0 1
1444 1 6.7729159596579018e+00 1.0375285315891515e+01 1.0423105261471687e+01 -2 -3 1
1713 1 1.1767599546190256e+01 8.9302701361770662e+00 9.5583291156577967e+00 0 2 0
1738 1 1.1073520905116554e+01 1.1207738223197747e+01 1.0535332703662490e+01 0 0 1
3496 1 8.6773396206688336e+00 1.1997096927329615e+01 9.4974608277984487e+00 -2 -1 0
5109 1 1.1868694516922358e+00 1.4189327199236340e+01 9.2948228543043587e+00 0 -1 0
1839 1 3.5267843675923780e+00 1.3182550415262599e+01 1.0242569718234288e+01 0 2 0
6488 1 7.7492432441241554e+00 1.4391668667364893e+01 1.0504462832707468e+01 -2 3 1
4720 1 5.4644117376936556e+00 1.5016084035234977e+01 9.8734333599111963e+00 0 0 1
2091 1 2.8733055522405948e-01 1.6405392582763561e+01 1.0324979678702725e+01 -2 -2 0
424 1 6.9198171934340014e-01 1.6468964527240654e+01 2.2579391662831978e+00 0 2 0
5545 1 1.2102234230825923e+01 1.5830427222537654e+01 1.0405805705811453e+01 -2 -6 1
2265 1 5.8642256724985558e+00 5.9464129912984491e+00 -2.5426494915975678e-02 3 0 1
4833 1 1.0222929330484481e+01 7.2060572085742631e+00 1.3103401350527266e-01 0 2 1
1908 1 4.6564553714661017e+00 1.7776776888999226e+01 -7.0493809488621606e-02 0 -1 1
381 1 1.1308133119339651e+01 1.1494008711306535e+01 -1.0545432781297420e-01 0 -1 0
3292 1 9.8840938735310395e+00 2.3158047047465605e+01 -2.0603516006298120e-01 1 -2 1
8 1 1.5409664863457184e+00 2.1135841071369168e+01 1.2307103424034077e-01 4 1 1
1816 1 3.9708892298291687e-01 9.9745653929280245e+00 9.4980122042250699e+00 1 1 0
5005 1 6.4696549789805935e-01 2.8997899705044750e-01 -1.6756974955470127e-01 4 0 1
2085 1 8.1291495329157115e+00 1.4670277943927477e+01 -1.0344394473798957e-01 -1 0 0
5376 1 4.7881732192611937e+00 1.7168076478972683e+00 -3.5103716552811193e-03 -1 1 0
1581 1 3.6687511020089043e+00 4.0753680915018418e+00 1.3709131860660772e+01 1 -4 1
3330 1 4.8024579596986570e+00 1.5901600902226591e+00 1.2937798134551734e+01 -1 0 0
2159 1 7.2727946459287187e+00 8.7119880985201825e-01 1.3803705255468367e+01 2 1 0
123 1 9.0366502344585289e+00 2.6985571573298888e+00 1.2648582691140611e+01 1 -1 1
5104 1 1.1737322422817327e+01 2.0738979716755352e+00 1.3597063127663898e+01 2 0 1
5595 1 1.2975347719155352e+00 4.7875072245411401e+00 1.2846901026329764e+01 -2 -1 0
3624 1 6.7005724632813886e+00 1.0417848062649863e+01 2.3394002673637726e+01 0 1 0
498 1 5.7115504279429130e+00 5.5912335180813280e+00 1.2897099248028114e+01 1 1 0
3646 1 8.4337284650973565e+00 5.0539856526939548e+00 1.3678013253418698e+01 3 2 0
564 1 1.0026922267469558e+01 7.1647123873864098e+00 1.2982146843057158e+01 2 3 1
1632 1 2.1847060918883807e+00 8.7710202148158078e+00 1.3049640783341939e+01 2 2 1
532 1 1.4468696471982729e+00 1.1365298999693671e+01 1.3916697623172043e+01 -1 -1 0
3514 1 4.9141679135625020e+00 8.1945403456611245e+00 1.3544491665842777e+01 2 2 1
2328 1 6.6731594428475072e+00 1.0178862657336293e+01 1.3196408893140816e+01 0 -1 1
3930 1 9.1550284899616106e+00 9.5731466615139595e+00 1.3844377475941384e+01 -1 1 1
5472 1 1.1007046318828488e+01 1.1089710557955625e+01 1.3180164518040430e+01 2 3 0
1391 1 3.4607241066481653e+00 1.3064980227082795e+01 1.2933017378664537e+01 -1 2 1
5600 1 2.9273145226638992e+00 1.5959821750519755e+01 1.3889024080851936e+01 1 1 0
1776 1 5.8483395227942410e+00 1.2700028837880453e+01 1.3956132644512762e+01 0 3 1
3831 1 7.7645120974017443e+00 1.4338740945782689e+01 1.3060309752991747e+01 2 2 0
3457 1 1.0035674788329992e+01 1.3662323254083136e+01 1.3616695314880682e+01 -2 0 0
5010 1 1.1095714053038984e+01 1.1183574291135061e+01 2.3445661901717859e+01 2 -2 1
3907 1 3.3772012068297639e+00 2.0211522421029571e+01 1.3596407252384513e+01 1 -2 0
3870 1 4.5972030875905050e+00 1.7643106906710397e+01 1.3167943539214644e+01 2 -1 1
1857 1 6.9294130664071965e+00 1.6957878066868727e+01 1.3751286178577521e+01 0 -1 0
3701 1 8.7977535990633235e+00 1.8705260997173188e+01 1.2760407843829901e+01 1 -2 0
4809 1 1.1396186377249867e+01 1.8101058134222125e+01 1.3787679603536233e+01 -1 1 1
3290 1 8.2968656848791178e-01 2.0938397834791388e+01 1.2993537248007552e+01 -3 1 1
4683 1 3.4394120684299918e+00 1.3560178911635417e+01 2.3563720414014142e+01 1 3 1
35 1 5.3733292318660517e+00 2.2107355671839539e+01 1.3063196678183276e+01 1 2 1
5255 1 7.7766765766600843e+00 2.1276764282091108e+01 1.3710450317755170e+01 -1 -1 1
5262 1 1.0067973229263364e+01 2.3073925725354336e+01 1.3309391912503337e+01 3 -1 1
1457 1 2.0630803657260866e+00 2.3439827711180463e+00 1.7529886896546667e+01 0 1 1
5450 1 3.8474957475474705e+00 4.1181832919860879e+00 1.6444522022024255e+01 2 2 0
4886 1 6.3354443949112929e+00 3.5554194388199756e+00 1.7193601153688981e+01 -2 2 1
1344 1 7.2673512372567020e+00 9.3918866577683846e-01 1.6490921894816214e+01 -4 0 1
1854 1 1.1353536946293945e+01 2.1072441389110077e+00 1.6498343867392343e+01 -5 1 0
1403 1 4.9022912632005322e-01 2.3383711949908331e+01 1.6310234741707674e+01 1 -1 1
3942 1 3.1856648507918051e+00 6.6340880397726352e+00 1.7408333139682579e+01 0 3 1
1573 1 4.6066628426664744e+00 2.0274246287436126e+00 2.3408304027288843e+01 -3 -1 1
1735 1 8.0611671739824100e+00 5.4435925425650886e+00 1.6485133035408285e+01 1 2 1
1458 1 7.2992489038059185e+00 7.9216751166741739e+00 1.7267650849270890e+01 3 3 1
201 1 1.0508321440059310e+01 4.7015603087760578e+00 1.7485026430298838e+01 4 2 0
597 1 1.3265973184648485e+00 1.1544608022556336e+01 1.6472462302739491e+01 1 0 1
6694 1 4.6647920489115560e+00 8.4682370570071921e+00 1.6204158655407522e+01 -1 1 1
6419 1 4.1156435850209121e+00 1.0855537498896648e+01 1.7399667601509687e+01 3 3 1
3421 1 8.2711295087406764e+00 1.2175030673497755e+01 1.7530204501683723e+01 1 1 0
1651 1 9.1829945987776274e+00 9.4754955076849630e+00 1.6484302891721622e+01 -2 0 1
3085 1 1.1804409754613696e+01 8.7961814086406083e+00 1.7424395258087305e+01 0 -1 1
5568 1 1.1882072747900057e+01 9.1268123615167607e+00 2.0045578901991110e+01 3 0 0
3699 1 6.8314467527286105e-01 1.4100786244736691e+01 1.7618718414370576e+01 4 -1 0
1718 1 2.4861724981250655e+00 1.6141531066439413e+01 1.6634549294061962e+01 -1 -2 0
6565 1 8.1241108018521035e-01 1.4093133324107646e+01 2.0292255276122436e+01 1 0 1
1749 1 5.8790425446556949e+00 1.2697629278656759e+01 1.6523254434257577e+01 -1 2 0
6555 1 5.1284392324578247e+00 1.5494011869380802e+01 1.7431182778023153e+01 -1 0 1
1736 1 1.0399847462281564e+01 1.3754923523655636e+01 1.6227097503350986e+01 0 4 0
5087 1 2.0817701517039300e+00 1.8827821375629870e+01 1.7278772123091500e+01 0 -1 1
1555 1 3.7447463023660488e+00 2.0519457460316978e+01 1.6212978613741061e+01 0 -1 0
1981 1 7.1511137000804981e+00 1.7313430363946406e+01 1.6377484604371531e+01 3 0 0
6517 1 6.2533199453366919e+00 1.9596481300748462e+01 1.7202258881102988e+01 -2 2 1
3808 1 9.4988867492284896e+00 1.6220710316653317e+01 1.7215259614539089e+01 0 1 0
5590 1 1.1411669028971719e+01 1.8023625698326967e+01 1.6468322759111018e+01 2 2 1
1725 1 1.9177899239796936e+00 2.5776441912513719e+00 2.3881891838687331e+01 3 -1 0
3462 1 2.9730872293059245e+00 2.2864043589901613e+01 1.7025021130980747e+01 -1 -3 1
2115 1 7.3021229723562939e+00 2.3864817525120621e+01 1.7044565203352629e+01 2 -2 0
143 1 7.0663871098220525e+00 2.3925117996776297e+01 1.9647842183965288e+01 2 -1 0
3252 1 8.0528158135838765e+00 2.1338016190199571e+01 1.6361206528532893e+01 1 -1 1
4885 1 1.0599521648110930e+01 2.0449891034893060e+01 1.7296472045120563e+01 1 0 1
48 1 1.9875181118011866e+00 2.5262420011744160e+00 2.0300842670503766e+01 -1 0 0
5663 1 9.7389315137256993e+00 2.3392436317514179e+01 2.0624540548203832e+01 0 2 1
6410 1 6.2860152926418822e+00 3.3977565203771478e+00 1.9838839349182823e+01 2 1 1
3098 1 4.5589520333040294e+00 1.6159551578149181e+00 2.0631035131480726e+01 -1 1 1
5275 1 1.1901376504709676e+01 1.5511569373800032e+01 2.0923345424357880e+01 4 0 0
6593 1 1.0576600354577284e+01 2.0511565085484129e+01 2.0196929783355813e+01 0 1 1
3344 1 8.6670794020544424e+00 2.7711068834410582e+00 2.0914678684038751e+01 1 2 0
165 1 8.7753002046205211e+00 3.1073062458232452e+00 2.3714034153475911e+01 1 -3 0
1315 1 9.8718671145808248e+00 2.3276310518430162e+01 2.3327235636971633e+01 1 2 1
3013 1 3.4195389086245687e-01 2.3309792673749648e+01 1.3900546916596628e+01 4 1 1
6348 1 2.9975628244047936e+00 6.5561709305639226e+00 2.0061381885734296e+01 -1 0 1
1603 1 1.1582511334584891e+00 4.8850478353877920e+00 2.1029289520922305e+01 0 3 1
6589 1 7.8834404620680543e+00 1.4313119356196717e+01 2.3530160466757408e+01 -1 -1 1
130 1 7.1200873690196822e+00 7.8986869886306188e+00 1.9973602030999899e+01 1 2 1
4985 1 5.5505058690566962e+00 2.1881057104071221e+01 2.0830095339969493e+01 0 2 1
4722 1 5.4103260578911705e+00 5.7289519619163247e+00 2.0792241160696381e+01 2 3 1
101 1 1.0519965540122342e+01 4.4656628429950391e+00 2.0280768178213620e+01 -2 -3 1
6740 1 2.9899221930525055e+00 2.2768237552887605e+01 1.9686538139655337e+01 3 -1 0
2151 1 9.8232003932120993e+00 7.2062126012949239e+00 2.0479340716174821e+01 1 1 0
5580 1 2.4475728372550529e+00 9.2336579660576046e+00 2.0767790937493949e+01 2 0 1
3325 1 9.2155795640597304e+00 2.4022550833871184e-01 2.0053170171338166e+01 2 -1 1
5678 1 4.0458297140514858e+00 1.1335223679761544e+01 1.9841814186266284e+01 3 -2 0
15 1 6.3521658366087879e+00 1.0280487912533657e+01 2.0900531422375348e+01 2 0 1
3484 1 1.1051777699784087e+00 2.1168345457743506e+01 2.3416435323453999e+01 1 1 0
309 1 8.2118218604335897e+00 1.2234478481160993e+01 2.0213021498238501e+01 0 2 0
3654 1 1.0994312295461315e+01 1.1557730644668704e+01 2.0886086686280560e+01 -1 -1 0
5070 1 8.1463697219729647e-01 1.4145107375179007e+01 2.3693103962197132e+01 1 -2 0
5204 1 3.1805969975367820e-01 2.8466976820434547e-01 2.0762952174209939e+01 -1 1 0
3908 1 1.2051840291675017e+01 1.5208802749417959e+01 2.3405191062268159e+01 2 0 1
5143 1 3.5076459582396904e+00 1.3785293304221648e+01 2.0973648029386084e+01 3 -3 0
1800 1 4.6056133827397145e+00 1.7715141708417626e+01 2.3803658890289242e+01 1 2 0
1542 1 5.4155344388304618e+00 1.5338230060802971e+01 2.0324978820458313e+01 3 0 1
1732 1 7.6434737677448217e+00 1.4457870743196713e+01 2.1115309853735198e+01 1 0 0
4795 1 9.3838797344400362e+00 1.6210810481842838e+01 1.9961940182287737e+01 2 0 1
3625 1 5.4535742768711755e+00 2.1819038236063278e+01 2.3271767440259730e+01 -2 -2 0
3755 1 5.5996762241637628e+00 5.9522191823589452e+00 2.3377808340782774e+01 1 3 0
3054 1 9.8669009200094191e+00 7.1486225046157106e+00 2.3124686451930906e+01 0 2 1
3005 1 1.9869530865137044e+00 1.8499505789607216e+01 1.9968737318070993e+01 -2 -3 1
1484 1 6.1806485027403255e+00 1.9473484669210457e+01 1.9880576158285450e+01 3 0 1
51 1 1.1577940441091867e+00 2.0980339488122393e+01 2.0717058672901320e+01 3 2 1
5536 1 4.4424477578164678e+00 1.7626256902994278e+01 2.1191325159051033e+01 0 1 1
4706 1 8.8752374942975560e+00 1.8794205483729471e+01 2.3851449753680210e+01 3 0 1
4899 1 8.8912579978687987e+00 1.8657643082068812e+01 2.0900501509041728e+01 3 -2 1
105 1 9.5645543991019188e+00 4.0819877361012402e-01 1.7482174459544261e+01 -2 2 1
6479 1 5.7819874456986864e-01 7.1611418324095304e+00 1.6382259569722397e+01 -1 0 1
5577 1 2.8880213944027497e+00 9.1389829755296166e+00 2.3270017092655344e+01 0 0 1
5266 1 1.1964711722935315e+00 5.0018438462315125e+00 2.3708772441583896e+01 1 -1 0
3357 1 1.2229364664529779e+01 1.5650136410329074e+01 1.2940080186326323e+01 0 1 1
251 1 7.5190746219089988e+00 8.0914824263760572e+00 2.3969115111188845e+01 -1 -1 1
1870 1 4.4814044381590690e-01 1.6870764052731722e+01 1.3048561183543088e+01 2 -1 0
6627 1 1.2327702641163967e+01 6.4469242342457642e+00 1.6730064372312778e+01 2 -3 0
1777 1 3.9289328868709106e-01 7.2035459557178640e+00 1.3799258331917354e+01 3 2 0
3146 1 1.0725783123973388e+01 4.8210024969961704e+00 2.3949237374460605e+01 -2 0 1
6726 1 6.3277715288182756e+00 3.6336153149505224e+00 2.3946594675377298e+01 0 1 1
618 2 2.3984649305264227e-01 3.0528930668762602e+00 2.6741735053193299e+01 0 0 0
620 2 2.3984649305264227e-01 2.3887012938955365e-01 2.6741735053193299e+01 0 0 0
622 2 1.4583541684003396e+00 9.4237586376123028e-01 2.6741735053193299e+01 0 0 0
629 2 1.4583541684003396e+00 2.3493873325054211e+00 2.6741735053193299e+01 0 0 0
631 2 2.6768618437480369e+00 3.0528930668762602e+00 2.6741735053193299e+01 0 0 0
633 2 2.6768618437480369e+00 2.3887012938955365e-01 2.6741735053193299e+01 0 0 0
635 2 3.8953695190936988e+00 9.4237586376123028e-01 2.6741735053193299e+01 0 0 0
650 2 3.8953695190936988e+00 2.3493873325054211e+00 2.6741735053193299e+01 0 0 0
1767 1 1.9495992707931895e+00 1.8416198781040162e+01 2.4261067917593905e+01 0 2 0
652 2 5.1138771944434316e+00 3.0528930668762602e+00 2.6741735053193299e+01 0 0 0
654 2 5.1138771944434316e+00 2.3887012938955365e-01 2.6741735053193299e+01 0 0 0
656 2 6.3323848697901326e+00 9.4237586376123028e-01 2.6741735053193299e+01 0 0 0
679 2 6.3323848697901326e+00 2.3493873325054211e+00 2.6741735053193299e+01 0 0 0
681 2 7.5508925451347553e+00 3.0528930668762602e+00 2.6741735053193299e+01 0 0 0
683 2 7.5508925451347553e+00 2.3887012938955365e-01 2.6741735053193299e+01 0 0 0
3075 1 7.3567270349835603e+00 2.3849973976488382e+01 2.4085785332535142e+01 0 0 1
685 2 8.7694002204842221e+00 9.4237586376123028e-01 2.6741735053193299e+01 0 0 0
716 2 8.7694002204842221e+00 2.3493873325054211e+00 2.6741735053193299e+01 0 0 0
718 2 9.9879078958342209e+00 3.0528930668762602e+00 2.6741735053193299e+01 0 0 0
720 2 9.9879078958342209e+00 2.3887012938955365e-01 2.6741735053193299e+01 0 0 0
722 2 1.1206415571181155e+01 9.4237586376123028e-01 2.6741735053193299e+01 0 0 0
761 2 1.1206415571181155e+01 2.3493873325054211e+00 2.6741735053193299e+01 0 0 0
763 2 1.2424923246527623e+01 3.0528930668762602e+00 2.6741735053193299e+01 0 0 0
765 2 1.2424923246527623e+01 2.3887012938955365e-01 2.6741735053193299e+01 0 0 0
623 2 2.3984649305264227e-01 7.2739274731016055e+00 2.6741735053193299e+01 0 0 0
625 2 2.3984649305264227e-01 4.4599045356212885e+00 2.6741735053193299e+01 0 0 0
627 2 1.4583541684003396e+00 5.1634102699915827e+00 2.6741735053193299e+01 0 0 0
642 2 1.4583541684003396e+00 6.5704217387324881e+00 2.6741735053193299e+01 0 0 0
644 2 2.6768618437480369e+00 7.2739274731016055e+00 2.6741735053193299e+01 0 0 0
646 2 2.6768618437480369e+00 4.4599045356212885e+00 2.6741735053193299e+01 0 0 0
648 2 3.8953695190936988e+00 5.1634102699915827e+00 2.6741735053193299e+01 0 0 0
671 2 3.8953695190936988e+00 6.5704217387324881e+00 2.6741735053193299e+01 0 0 0
6518 1 9.9575033157725716e+00 1.6067451505026966e+01 2.4362909952227394e+01 0 -2 1
673 2 5.1138771944434316e+00 7.2739274731016055e+00 2.6741735053193299e+01 0 0 0
675 2 5.1138771944434316e+00 4.4599045356212885e+00 2.6741735053193299e+01 0 0 0
677 2 6.3323848697901326e+00 5.1634102699915827e+00 2.6741735053193299e+01 0 0 0
708 2 6.3323848697901326e+00 6.5704217387324881e+00 2.6741735053193299e+01 0 0 0
710 2 7.5508925451347553e+00 7.2739274731016055e+00 2.6741735053193299e+01 0 0 0
712 2 7.5508925451347553e+00 4.4599045356212885e+00 2.6741735053193299e+01 0 0 0
714 2 8.7694002204842221e+00 5.1634102699915827e+00 2.6741735053193299e+01 0 0 0
753 2 8.7694002204842221e+00 6.5704217387324881e+00 2.6741735053193299e+01 0 0 0
755 2 9.9879078958342209e+00 7.2739274731016055e+00 2.6741735053193299e+01 0 0 0
757 2 9.9879078958342209e+00 4.4599045356212885e+00 2.6741735053193299e+01 0 0 0
759 2 1.1206415571181155e+01 5.1634102699915827e+00 2.6741735053193299e+01 0 0 0
800 2 1.1206415571181155e+01 6.5704217387324881e+00 2.6741735053193299e+01 0 0 0
802 2 1.2424923246527623e+01 7.2739274731016055e+00 2.6741735053193299e+01 0 0 0
804 2 1.2424923246527623e+01 4.4599045356212885e+00 2.6741735053193299e+01 0 0 0
3770 1 6.4117611132477448e+00 1.9560270068309499e+01 2.4463915360099261e+01 -1 2 0
636 2 2.3984649305264227e-01 1.1494961879336380e+01 2.6741735053193299e+01 0 0 0
638 2 2.3984649305264227e-01 8.6809389418530234e+00 2.6741735053193299e+01 0 0 0
640 2 1.4583541684003396e+00 9.3844446762221772e+00 2.6741735053193299e+01 0 0 0
663 2 1.4583541684003396e+00 1.0791456144958941e+01 2.6741735053193299e+01 0 0 0
665 2 2.6768618437480369e+00 1.1494961879336380e+01 2.6741735053193299e+01 0 0 0
667 2 2.6768618437480369e+00 8.6809389418530234e+00 2.6741735053193299e+01 0 0 0
669 2 3.8953695190936988e+00 9.3844446762221772e+00 2.6741735053193299e+01 0 0 0
700 2 3.8953695190936988e+00 1.0791456144958941e+01 2.6741735053193299e+01 0 0 0
189 1 3.2174468243700480e+00 2.2953056069641907e+01 2.4215900830820232e+01 2 0 0
702 2 5.1138771944434316e+00 1.1494961879336380e+01 2.6741735053193299e+01 0 0 0
704 2 5.1138771944434316e+00 8.6809389418530234e+00 2.6741735053193299e+01 0 0 0
706 2 6.3323848697901326e+00 9.3844446762221772e+00 2.6741735053193299e+01 0 0 0
745 2 6.3323848697901326e+00 1.0791456144958941e+01 2.6741735053193299e+01 0 0 0
747 2 7.5508925451347553e+00 1.1494961879336380e+01 2.6741735053193299e+01 0 0 0
749 2 7.5508925451347553e+00 8.6809389418530234e+00 2.6741735053193299e+01 0 0 0
751 2 8.7694002204842221e+00 9.3844446762221772e+00 2.6741735053193299e+01 0 0 0
792 2 8.7694002204842221e+00 1.0791456144958941e+01 2.6741735053193299e+01 0 0 0
794 2 9.9879078958342209e+00 1.1494961879336380e+01 2.6741735053193299e+01 0 0 0
796 2 9.9879078958342209e+00 8.6809389418530234e+00 2.6741735053193299e+01 0 0 0
798 2 1.1206415571181155e+01 9.3844446762221772e+00 2.6741735053193299e+01 0 0 0
839 2 1.1206415571181155e+01 1.0791456144958941e+01 2.6741735053193299e+01 0 0 0
841 2 1.2424923246527623e+01 1.1494961879336380e+01 2.6741735053193299e+01 0 0 0
843 2 1.2424923246527623e+01 8.6809389418530234e+00 2.6741735053193299e+01 0 0 0
5384 1 1.1784244832761168e+01 8.8049649345230918e+00 3.6030880000373585e+01 2 0 -1
1686 1 2.6041970830519565e+00 2.2168178461515904e+01 3.6075785583774277e+01 0 -3 0
657 2 2.3984649305264227e-01 1.5715996285562694e+01 2.6741735053193299e+01 0 0 0
659 2 2.3984649305264227e-01 1.2901973348075423e+01 2.6741735053193299e+01 0 0 0
661 2 1.4583541684003396e+00 1.3605479082449238e+01 2.6741735053193299e+01 0 0 0
692 2 1.4583541684003396e+00 1.5012490551190190e+01 2.6741735053193299e+01 0 0 0
694 2 2.6768618437480369e+00 1.5715996285562694e+01 2.6741735053193299e+01 0 0 0
696 2 2.6768618437480369e+00 1.2901973348075423e+01 2.6741735053193299e+01 0 0 0
698 2 3.8953695190936988e+00 1.3605479082449238e+01 2.6741735053193299e+01 0 0 0
737 2 3.8953695190936988e+00 1.5012490551190190e+01 2.6741735053193299e+01 0 0 0
739 2 5.1138771944434316e+00 1.5715996285562694e+01 2.6741735053193299e+01 0 0 0
741 2 5.1138771944434316e+00 1.2901973348075423e+01 2.6741735053193299e+01 0 0 0
743 2 6.3323848697901326e+00 1.3605479082449238e+01 2.6741735053193299e+01 0 0 0
784 2 6.3323848697901326e+00 1.5012490551190190e+01 2.6741735053193299e+01 0 0 0
786 2 7.5508925451347553e+00 1.5715996285562694e+01 2.6741735053193299e+01 0 0 0
788 2 7.5508925451347553e+00 1.2901973348075423e+01 2.6741735053193299e+01 0 0 0
1088 2 9.9879078958342209e+00 2.4158065098024824e+01 3.3320264946792250e+01 0 0 0
4996 1 8.8778126446086514e+00 1.1918994565151685e+01 2.4515550032168736e+01 -3 1 1
790 2 8.7694002204842221e+00 1.3605479082449238e+01 2.6741735053193299e+01 0 0 0
831 2 8.7694002204842221e+00 1.5012490551190190e+01 2.6741735053193299e+01 0 0 0
833 2 9.9879078958342209e+00 1.5715996285562694e+01 2.6741735053193299e+01 0 0 0
835 2 9.9879078958342209e+00 1.2901973348075423e+01 2.6741735053193299e+01 0 0 0
837 2 1.1206415571181155e+01 1.3605479082449238e+01 2.6741735053193299e+01 0 0 0
873 2 1.1206415571181155e+01 1.5012490551190190e+01 2.6741735053193299e+01 0 0 0
875 2 1.2424923246527623e+01 1.5715996285562694e+01 2.6741735053193299e+01 0 0 0
877 2 1.2424923246527623e+01 1.2901973348075423e+01 2.6741735053193299e+01 0 0 0
2168 1 4.0485897238287780e+00 1.0242534299537928e+01 3.5731290848984216e+01 0 3 -1
686 2 2.3984649305264227e-01 1.9937030691797670e+01 2.6741735053193299e+01 0 0 0
688 2 2.3984649305264227e-01 1.7123007754316493e+01 2.6741735053193299e+01 0 0 0
690 2 1.4583541684003396e+00 1.7826513488685027e+01 2.6741735053193299e+01 0 0 0
729 2 1.4583541684003396e+00 1.9233524957420340e+01 2.6741735053193299e+01 0 0 0
731 2 2.6768618437480369e+00 1.9937030691797670e+01 2.6741735053193299e+01 0 0 0
733 2 2.6768618437480369e+00 1.7123007754316493e+01 2.6741735053193299e+01 0 0 0
735 2 3.8953695190936988e+00 1.7826513488685027e+01 2.6741735053193299e+01 0 0 0
776 2 3.8953695190936988e+00 1.9233524957420340e+01 2.6741735053193299e+01 0 0 0
778 2 5.1138771944434316e+00 1.9937030691797670e+01 2.6741735053193299e+01 0 0 0
780 2 5.1138771944434316e+00 1.7123007754316493e+01 2.6741735053193299e+01 0 0 0
782 2 6.3323848697901326e+00 1.7826513488685027e+01 2.6741735053193299e+01 0 0 0
823 2 6.3323848697901326e+00 1.9233524957420340e+01 2.6741735053193299e+01 0 0 0
825 2 7.5508925451347553e+00 1.9937030691797670e+01 2.6741735053193299e+01 0 0 0
827 2 7.5508925451347553e+00 1.7123007754316493e+01 2.6741735053193299e+01 0 0 0
5432 1 3.2135936117532364e+00 6.5723786160034088e+00 2.4386704612527492e+01 1 2 0
1052 2 6.3323848697901326e+00 2.2047547894912952e+01 3.3320264946792250e+01 0 0 0
829 2 8.7694002204842221e+00 1.7826513488685027e+01 2.6741735053193299e+01 0 0 0
865 2 8.7694002204842221e+00 1.9233524957420340e+01 2.6741735053193299e+01 0 0 0
867 2 9.9879078958342209e+00 1.9937030691797670e+01 2.6741735053193299e+01 0 0 0
869 2 9.9879078958342209e+00 1.7123007754316493e+01 2.6741735053193299e+01 0 0 0
871 2 1.1206415571181155e+01 1.7826513488685027e+01 2.6741735053193299e+01 0 0 0
899 2 1.1206415571181155e+01 1.9233524957420340e+01 2.6741735053193299e+01 0 0 0
903 2 1.2424923246527623e+01 1.7123007754316493e+01 2.6741735053193299e+01 0 0 0
723 2 2.3984649305264227e-01 2.4158065098024824e+01 2.6741735053193299e+01 0 0 0
725 2 2.3984649305264227e-01 2.1344042160528328e+01 2.6741735053193299e+01 0 0 0
727 2 1.4583541684003396e+00 2.2047547894912952e+01 2.6741735053193299e+01 0 0 0
768 2 1.4583541684003396e+00 2.3454559363644922e+01 2.6741735053193299e+01 0 0 0
770 2 2.6768618437480369e+00 2.4158065098024824e+01 2.6741735053193299e+01 0 0 0
772 2 2.6768618437480369e+00 2.1344042160528328e+01 2.6741735053193299e+01 0 0 0
774 2 3.8953695190936988e+00 2.2047547894912952e+01 2.6741735053193299e+01 0 0 0