LAMMPS data file via write_data, version 16 Mar 2018, timestep = 100000

6750 atoms
2 atom types

2.8355774825234903e-01 4.8936442251748232e+01 xlo xhi
2.8240344544119367e-01 4.8737232484969581e+01 ylo yhi
-1.6623283112412679e-01 6.0228232831124139e+01 zlo zhi

Masses

1 18.015
2 12.01

Atoms # atomic

498 1 9.8254314819344923e+00 2.2947002479054412e+01 1.0020881248289013e+01 1 -2 0
3314 1 3.7540690723902452e+00 2.2555632878702760e+00 1.8938354691175356e+00 -1 2 1
230 1 5.9031541006368107e+00 2.1942283169250391e+01 1.1420161230150127e+01 1 0 1
5568 1 1.1297625967132928e+01 6.2044659630671788e+00 1.0940052032951801e+01 2 1 0
5226 1 5.0049938302770061e+00 3.7381202082838434e+00 3.8717771499256921e+00 0 0 0
3195 1 1.1120702257726281e+01 1.0730245667525786e+01 4.5768298439334970e-02 1 0 1
3560 1 1.1075908171274548e+01 3.3121527494484506e+00 1.4917837139852468e+00 1 1 0
5520 1 1.0673625209774313e+01 8.6258724835720391e-01 8.8596596507589016e+00 0 0 0
3202 1 1.6551343990285885e+00 6.3473651330606788e+00 4.8619966342499685e+00 3 1 1
3495 1 4.1857568958990754e+00 6.6007776028843725e+00 3.5944169027658042e+00 2 0 0
5438 1 3.6541457661319137e+00 6.4352408960801188e+00 1.1085350841419757e+00 1 0 0
5247 1 9.5436682033862552e-01 6.8828797210933494e+00 7.8821559460344603e-01 0 2 1
5257 1 1.1935054013604688e+01 5.4462798133935886e-01 4.7838620362030426e-01 -1 1 0
1860 1 5.9407344906381319e+00 8.7054308456765135e+00 4.1899774321794965e+00 -1 1 0
3054 1 7.4992207819061276e+00 5.0694276290898532e+00 1.6344336791478120e-02 0 1 1
3586 1 1.4361939532019110e+00 1.3880509516266541e+01 -3.0622799844295001e-02 1 -1 0
123 1 1.1202908197614175e+01 7.1643614927520805e-01 1.1643047056804608e+01 1 0 1
5158 1 1.6226005118512610e+00 1.1238752330674910e+01 1.6289210431563521e+00 0 1 0
3065 1 4.4107536121985227e+00 1.0477661082691526e+01 2.1150200383369171e+00 -1 0 1
458 1 7.8850270002670300e+00 1.1268843084040471e+01 3.5344253343065808e+00 1 0 0
1310 1 1.0465206098647002e+00 2.3791787685754118e+00 2.2191708419536083e+00 0 1 1
2293 1 2.8101205848780921e+00 1.3328016064253674e+01 2.9781425441355940e+00 1 0 0
3469 1 6.6593521202510360e+00 1.7214110591415981e+01 6.7120158687953191e-01 -1 1 0
3775 1 4.6725563840766702e+00 1.6699539104700452e+01 4.0523333149485676e+00 1 2 0
1746 1 5.7204133589451827e+00 1.4585984582977064e+01 1.6834923854131720e+00 1 0 0
3162 1 1.1277822663070042e+01 1.4709792688514000e+01 1.7883497143613789e+00 0 1 1
4948 1 1.9477041418170900e+00 1.7973745454049652e+01 2.2627519677504129e+00 0 1 1
5178 1 1.1403179317704696e+01 1.7947682166628645e+01 9.5557695723648735e+00 1 1 0
1612 1 5.2838093246097646e+00 1.8877871722456081e+01 2.3034685661237377e+00 0 1 1
1640 1 9.3612260786548180e+00 1.6798569445985034e+01 9.6494008656372410e-01 2 1 1
6605 1 1.0558749326673858e+01 1.8577770210685969e+01 2.9959480251302950e+00 0 1 0
3017 1 2.1892881224309884e+00 2.0750879310594577e+01 2.0031644251286038e+00 0 1 1
5050 1 3.4650106059449954e+00 1.1549988235468485e+01 1.1001097012955997e+01 0 0 0
3505 1 1.1874431959028058e+01 1.2773642605258434e+01 8.1103234627045904e+00 0 2 0
1960 1 8.8327107594228718e+00 2.0927777988955949e+01 3.3994935527491821e-01 0 0 0
3159 1 5.0101997144866841e+00 8.6154674577397099e+00 3.1233406288068949e-01 1 1 1
19 1 4.7594709189796758e+00 8.6310894085233070e-01 7.2694184471682970e+00 1 1 1
5035 1 8.6318933469367494e+00 2.4194863507877242e+00 7.0870648886035434e+00 0 0 0
6591 1 3.7812112956102824e+00 3.3505750743183853e+00 6.5682354828950427e+00 0 0 1
3107 1 7.6177770029167231e+00 2.7312687141236567e+00 4.3433510158205406e+00 0 0 1
3995 1 4.7952311999450066e+00 4.2601496721412557e+00 -1.2290747344279263e-02 0 0 1
5507 1 1.1786044591442355e+01 2.3450857101310203e+00 4.0757490128406317e+00 1 0 0
1412 1 5.2486657029283323e+00 6.0514219196994006e+00 6.9217612257344312e+00 1 0 1
1646 1 8.6938596638919243e+00 1.8193062203638135e+01 1.1183787639592568e+01 1 1 1
6705 1 8.6947576742715817e+00 4.5420166452858064e+00 2.4567773885562674e+00 1 1 1
3010 1 9.6162787489181589e+00 6.4589779907187221e+00 4.4183515730745171e+00 1 1 1
1931 1 5.5567074635539599e+00 1.2442456761357922e+01 -4.2541256919713527e-02 1 -1 0
3859 1 1.2268527006862039e+01 9.6338206246342430e+00 7.3544106755463892e+00 0 0 1
437 1 1.0606597654461298e+01 1.9565624560453575e+01 7.2665739232805162e+00 1 0 0
5364 1 1.9470104869484344e+00 1.0345270574473936e+01 6.2887435922598369e+00 1 -1 0
4732 1 1.2209802078413987e+00 1.3276374223271352e+01 7.0264727971171048e+00 0 -1 1
3824 1 4.6910337720785344e+00 1.0564170489245351e+01 5.6939073680379355e+00 0 -1 0
3096 1 5.7553125346998666e+00 1.1214511530956369e+01 8.1447726562975991e+00 0 1 1
2044 1 8.7247325849932000e+00 1.1377868398589202e+01 8.0656993845375187e+00 0 1 0
3803 1 9.3010332267085225e+00 9.3749422079688340e+00 1.7799300470221902e+00 1 0 0
258 1 9.7657078089804354e+00 1.2081674818333665e+01 5.5779403660809281e+00 0 0 0
5434 1 8.7407628793170051e+00 2.1392769496951672e+01 7.2712505724411152e+00 0 0 0
2015 1 1.0371768772486734e+00 1.4569833197803717e+01 4.7657138351909696e+00 -1 -1 0
5062 1 5.3195373703832463e+00 1.2726379495800579e+01 4.3699043587967523e+00 0 1 1
1311 1 5.7734502754024692e+00 1.4618187571486965e+01 6.0370254965911689e+00 -1 -1 1
497 1 4.1866864122582470e+00 1.3735645598895383e+01 8.3938809802853136e+00 3 -1 0
6412 1 8.4325105031593370e+00 1.4371376878940683e+01 2.9789420751131650e+00 0 0 1
373 1 8.4849945156732272e+00 1.4929559581702463e+01 5.5962265305436469e+00 1 0 0
3865 1 1.9501166812187665e+00 1.9257839051146750e+01 7.2781084003726448e+00 0 -1 0
1509 1 1.9612061889311685e+00 1.7254720457586988e+01 5.0929374969148284e+00 -2 1 1
4786 1 6.1789555658255662e+00 2.0443583733856165e+01 4.1686707188432326e+00 1 0 1
6386 1 7.0555685672219557e+00 1.7939196507308960e+01 5.6706519980843728e+00 1 -1 1
3518 1 9.8900000399842956e+00 1.7700169826873175e+01 5.3347758993450505e+00 0 0 1
4689 1 5.9444216721467109e+00 2.0845445259993653e+01 3.9232687859661386e-01 1 0 1
1738 1 4.2014118824878786e+00 2.1963178001044387e+01 5.1180058275678748e+00 -1 0 1
5320 1 4.1044193290644611e+00 1.9847587644852677e+01 1.1847481338491033e+01 0 -1 0
1635 1 8.1842169657306147e+00 2.2312243598547266e+01 4.2525794751337518e+00 0 0 0
3787 1 1.0193335821955557e+01 2.1361725920463027e+01 2.5796267632996579e+00 -1 1 0
3664 1 3.1561389422560338e-01 2.3424031379517466e+01 7.1130745099864399e+00 0 0 0
3086 1 3.8398674383952418e+00 2.6522733833789700e+00 1.1045248851008354e+01 0 -1 0
5077 1 7.2715286234974554e+00 4.6867264260681116e+00 8.4089407467793578e+00 1 1 1
1525 1 4.1834618295153003e+00 2.0704285193823409e+01 7.5992134888202916e+00 0 -2 1
3272 1 4.0727387206923815e-01 1.6614420827138805e+01 4.6397995981256646e-01 1 1 1
2149 1 2.1803571119155110e+00 6.9162910265220976e+00 1.1711861763914882e+01 -1 1 0
6634 1 4.9616775110618176e+00 5.1343776972966575e+00 1.0318660945399030e+01 1 1 0
3245 1 3.8592146846957673e+00 7.4413728911902970e+00 9.1500908344638017e+00 2 1 1
5104 1 7.4734803003059618e+00 7.5161489524000684e+00 5.9619269171846110e+00 -1 0 1
2113 1 1.0469967307966364e+01 4.2074908304268410e+00 5.6759608003166555e+00 1 1 0
1720 1 1.3167465780547665e+00 3.8253092713683614e+00 5.9651190975661663e+00 2 1 0
5432 1 1.0139327855873901e+01 7.7927722639587582e+00 7.6990217299245138e+00 1 1 0
2154 1 7.7784256119584816e+00 7.6752729282239116e+00 4.0354587052742563e-01 0 0 1
6602 1 9.7932243762334859e-01 1.2452002154934164e+01 1.0090240112011941e+01 1 1 0
5460 1 6.0837314624423069e+00 8.7573841263097378e+00 9.3741155578894126e+00 0 -1 0
558 1 8.1281240573305489e+00 2.0612803968251903e+01 1.0241964143221711e+01 -1 0 1
5510 1 2.0160262507741651e+00 7.7682686879694032e+00 7.2175165537762549e+00 1 1 0
336 1 1.1385219205334977e+01 7.9977348687635761e+00 3.0633434784017979e+00 1 0 0
5411 1 8.7232966774412404e+00 1.0735094020078337e+01 1.0728306357753571e+01 1 1 0
4882 1 8.2693811006894844e+00 7.0368722510968640e+00 9.7709661244125030e+00 2 1 1
3602 1 1.1044396237924841e+01 9.4615886563087486e+00 1.0298051080895403e+01 0 1 1
1462 1 6.3907009377231221e+00 1.9210343513907205e+01 7.8952863391185115e+00 0 0 1
577 1 2.6512005772425074e+00 1.5240514594508063e+01 1.0487921567972775e+01 0 0 1
5437 1 1.3484671367764240e+00 2.1577010633920910e+01 4.7493296626722756e+00 1 1 0
3790 1 1.6306520480672018e+00 2.2789155553512384e+01 1.0998184814543379e+01 1 1 0
234 1 6.1907441055604258e+00 1.4993895077601302e+01 9.6527134287457894e+00 0 0 0
4837 1 1.1050299279078430e+01 5.2152941300058844e+00 8.1625658947919746e+00 -1 1 1
1710 1 8.3876895082373668e+00 1.4086666420734245e+01 8.4232312927625870e+00 -1 0 1
1718 1 1.0974689891282893e+01 1.5040413517263028e+01 9.5412883230665937e+00 0 0 0
6357 1 2.8595787052135804e+00 1.7893977286272055e+01 9.8917826179470669e+00 2 0 1
1694 1 8.3840264685890031e-01 2.0407499286300794e+00 1.0549931173440960e+01 0 0 1
6356 1 4.3578702268862246e-01 1.9085376752868257e+01 1.1147726941042288e+01 1 0 1
304 1 6.1039785136637459e+00 1.7610934140654685e+01 1.0148720540858569e+01 1 0 1
284 1 4.0253950975835959e+00 2.3012097447985685e+01 9.4329416136501258e+00 -1 0 0
1775 1 3.6323176426032671e+00 2.2570368681358531e+01 1.2317116797962364e+00 -1 1 1
3427 1 1.1780741143585621e+01 1.0189456420105797e+01 4.7934681225780276e+00 0 0 0
3544 1 8.3254595254557877e+00 3.9863183757996512e+00 1.1455414157553800e+01 0 0 0
3077 1 5.5176118780504932e+00 9.9320884116545205e+00 1.1546796042322166e+01 1 0 1
252 1 8.0919956301968039e+00 2.4454857211056183e+01 7.9670826707470663e+00 0 -2 0
5436 1 4.5816380414726758e+00 2.4470757665204889e+01 5.2894290441525538e+00 0 0 0
5241 1 6.3726000640287186e+00 1.9254940964532705e+00 1.1771297911844290e+01 0 0 0
321 1 3.4415049753972902e+00 2.3869223904316641e+00 2.3695462132161261e+01 1 1 0
3480 1 4.4036394878308451e+00 4.5365641073677185e+00 1.5023103640053602e+01 1 -1 0
6335 1 7.0608666055971803e-01 1.9529844650268422e+00 1.4376959103679528e+01 -1 1 1
96 1 6.0435997237793968e+00 2.2477592094877110e+00 1.4480109083975801e+01 1 1 0
3581 1 6.7751332244494682e+00 2.2259337598130212e+01 1.4264469768968732e+01 0 0 1
5068 1 9.9691157435671016e+00 2.4991945310729262e+00 1.3532215884068018e+01 1 2 1
6460 1 8.5055272923438192e+00 1.2785484567020875e+01 1.2653914936067673e+01 1 -1 0
3623 1 5.3003585456429478e+00 2.4484212818004121e+01 1.4663916105614907e+01 0 -2 0
3115 1 1.0255319907955840e+01 1.9988677378024004e+01 2.0274000469075226e+01 0 0 1
3434 1 4.1097051024255453e+00 8.1615065344605870e+00 1.3298981977863297e+01 1 -1 0
392 1 6.2282125505396166e+00 6.6691386854605099e+00 1.4436930496343985e+01 0 0 0
285 1 8.4161690361254440e+00 6.6560777305492627e+00 1.2601735375923544e+01 0 0 0
6644 1 4.1661194601567235e+00 1.3541280619339505e+01 1.2347433378611735e+01 1 0 1
5378 1 9.1845370600063596e+00 8.8436962210089334e+00 1.4438554572818539e+01 -1 0 0
2190 1 1.2419294558459780e+01 2.9944366612399635e+00 1.7522456914590588e+01 -1 1 0
3165 1 1.8211903847860578e+00 8.7529437825569030e+00 1.5783145626034772e+01 2 0 1
5338 1 2.1643507995423934e+00 1.3804005375666991e+01 1.6913106124015542e+01 1 1 0
5323 1 5.9690240795084701e+00 8.2104413574697190e+00 1.6539074120255361e+01 0 1 0
3188 1 6.0442641113639466e+00 1.1838037908118707e+01 1.6481924139546120e+01 1 0 0
4996 1 1.0266899417867467e+01 1.1373926414803865e+01 1.6514876044912096e+01 -1 1 1
2125 1 8.4278184387656268e+00 1.3105203457219247e+01 1.5488202855983650e+01 1 -1 0
2000 1 5.7421906121654196e+00 1.2230887380695714e+01 2.3468696060483012e+01 0 2 0
3617 1 1.3340919210686866e+00 1.8048453079212994e+01 1.6213789912647918e+01 1 -1 1
5303 1 8.0673280350124585e+00 1.6089587963787157e+01 1.4211619543980827e+01 3 1 0
4687 1 5.4786256284132193e+00 1.6534287281552000e+01 1.5805363700732995e+01 1 0 1
3504 1 2.5566036850262752e+00 3.7386605809905911e+00 1.3262635987296495e+01 1 1 0
1870 1 1.0585125620402703e+01 1.6936795904304805e+01 1.3428182474087809e+01 0 0 0
6594 1 1.1782271533706755e+01 1.7007766411013414e+01 1.6392648410696051e+01 -1 1 1
6550 1 5.3952056457214921e+00 1.9753499614175141e+01 1.7471218380008903e+01 0 0 1
5221 1 2.9934525665181684e+00 1.7411309747256063e+01 1.4207407301025407e+01 1 0 0
1832 1 6.1438366704099598e+00 1.8507099441812894e+01 1.3357771103936392e+01 1 0 0
3234 1 6.5868971332644515e+00 1.4550680125727348e+01 1.2234328975044575e+01 0 -1 1
4871 1 8.9368843035728744e+00 2.3826164140705174e+01 1.4123584968066991e+01 1 0 1
4797 1 4.0502468697271574e+00 2.3399806498191221e+01 2.2544674869401764e+01 0 0 1
6731 1 4.0308808474934423e+00 2.0506180693476313e+01 1.5042587561055374e+01 1 0 1
6353 1 8.9028182474697495e+00 1.9806432468484662e+01 1.3932100187068514e+01 1 1 1
3721 1 2.1512374171026698e+00 1.6580257473323041e+00 1.6642395415806480e+01 0 1 0
3132 1 2.0270026485457127e+00 1.4726703094612995e+01 1.4008315702254198e+01 1 -1 1
544 1 1.2200541608888310e+01 2.6821793099555098e+00 2.3233323878674117e+01 1 0 1
2088 1 5.4528116284484041e-01 9.6616323531808312e+00 2.1218539100468956e+01 0 1 0
4813 1 2.2875863132482133e+00 3.2302330094593659e+00 1.9761226000544703e+01 1 1 1
113 1 3.4040104175415693e+00 1.1141088056147847e+01 2.3730978266085614e+01 1 0 0
3497 1 8.4092711927230699e+00 2.0934247752103765e+00 1.5748012231375762e+01 0 0 1
3753 1 2.2950246050548424e+00 1.7376976748220038e+01 2.2941909055871911e+01 2 1 0
3233 1 2.6156282389753254e+00 5.0512315515543253e+00 2.3189271723256301e+01 1 2 0
2022 1 3.5048484819089265e-01 2.1024762272925162e+01 2.3680175959562487e+01 2 0 0
403 1 1.0035580364561630e+01 3.1913242414499328e+00 1.8895495471996565e+01 -1 1 0
193 1 2.3220091413581732e+00 4.5051788510383322e+00 1.7044215749722028e+01 -1 0 0
296 1 3.2878450981817591e+00 7.0863074315750962e+00 1.6965590186208249e+01 1 1 0
3377 1 6.9872359364076457e+00 1.9149564613201626e+01 2.3703601339422619e+01 -1 0 1
5267 1 8.0747922922354043e+00 4.3230887415270587e+00 1.7552648304610447e+01 2 0 0
3091 1 7.8794058563762057e+00 7.1828047585989090e+00 1.7834476938311791e+01 1 -1 1
6640 1 1.0549280991311280e+01 2.0535521332121050e+01 2.3507540289701101e+01 0 0 1
4758 1 9.9554521244715097e+00 8.7176013800314962e+00 1.7327774685742138e+01 1 -1 1
2202 1 1.9077041439561810e+00 1.0153057514731211e+01 1.3187785917485403e+01 0 1 0
5051 1 1.7809240097062644e+00 1.0729440791362549e+01 1.7741236489708186e+01 1 1 0
4788 1 5.5908788797162554e+00 1.0387932168161532e+01 1.9037895397884085e+01 1 0 1
6454 1 2.8814299552386498e+00 1.1176091937591620e+01 2.0689936390321662e+01 0 1 1
4852 1 7.4728947867075428e+00 8.6037028092242007e+00 2.0273408014523500e+01 0 1 1
1330 1 1.0142623188517515e+01 9.5074527503200166e+00 2.0370971836075462e+01 1 1 1
4773 1 4.3258469365943695e+00 2.2305387904200018e+01 1.9007220127416900e+01 0 -1 1
6415 1 1.2465883162441642e+00 1.6094422243063438e+01 1.8174099336442403e+01 1 -1 0
2079 1 4.9312675347413730e+00 1.4178992380313410e+01 1.7255680190237872e+01 -1 0 0
5377 1 9.4021745835191304e+00 1.5700778494876353e+01 1.6962243011104530e+01 1 0 0
4800 1 1.0097040826641020e+01 1.2194463401751946e+01 1.9449563181537545e+01 -1 -1 1
3836 1 7.0555326554577311e+00 1.0047383852178081e+01 1.3879780413245015e+01 1 1 0
5215 1 2.6808786324974276e+00 1.7692417243276637e+01 2.0250479418167117e+01 2 0 0
5368 1 6.9633946578967567e+00 1.7551574827393203e+01 1.7998759847568270e+01 0 1 1
5214 1 9.2780585885899303e+00 1.9101110949126092e+01 1.7476311509293030e+01 0 1 1
1968 1 1.1438372048977611e+01 1.9905133725899645e+01 1.5538543405603122e+01 0 1 0
6378 1 9.2458822857557106e+00 1.6393553882007975e+01 1.9921698675506558e+01 0 1 1
5095 1 1.1455591907950170e+01 1.6091783809232318e+01 2.3989361738102918e+01 0 1 1
3853 1 1.1140673930237609e+01 1.7560596462913328e+01 2.1172304107260022e+01 0 0 0
1935 1 8.2749259029838051e-01 2.2713655008590511e+01 1.7076029347011634e+01 -1 0 0
228 1 2.3280751769337398e+00 2.2632963290199083e+01 2.0585464157777082e+01 0 0 1
3044 1 7.6556636384040413e+00 1.6486473365631955e+01 2.2902220918381602e+01 1 0 1
4849 1 7.7176084445311810e+00 2.1263596166211030e+01 1.6927134207865389e+01 0 1 1
3616 1 8.9632351813157811e+00 2.3938473972297530e+01 1.7252460614412183e+01 2 -1 0
3507 1 7.5074512249068270e+00 2.0448105427394175e+01 2.1354434083727611e+01 0 0 0
3799 1 7.6632416040366573e+00 1.0056589173329884e+01 2.2977846868206804e+01 0 2 1
1830 1 2.0662946835682314e+00 1.9932679171218719e+01 1.7770088556112437e+01 0 0 0
5496 1 4.4737780239185367e+00 2.3079768899395781e+00 2.1080240096735370e+01 1 0 1
4869 1 7.8703294190295496e+00 2.8827639920490009e+00 2.2651582725883337e+01 1 -1 1
4724 1 1.0660112513004510e+01 2.1817389224746325e+01 1.2671736313521917e+01 1 0 1
6690 1 1.0192961114647455e+01 1.4040567774941835e+00 2.1181246459625669e+01 0 0 0
5284 1 2.2767310509946213e+00 2.3529391519990750e+01 1.4846064676593990e+01 1 0 0
1980 1 1.2246129577944444e+01 2.2689569455658170e+01 1.7408886903084859e+01 0 0 0
268 1 1.8979501245281818e+00 5.6528820817313914e+00 2.0704990758150650e+01 1 0 1
4991 1 3.0892724729083030e+00 8.1320547408758657e+00 1.9575614790334761e+01 2 2 0
1743 1 6.8041771569288585e+00 4.1015756628943052e+00 2.0484528916092547e+01 -1 1 1
3094 1 5.2920914206903014e+00 6.7864185985443406e+00 2.0636174034005819e+01 1 1 1
3482 1 8.7865707767189871e+00 6.1460022662160849e+00 2.1390952762493939e+01 1 0 1
3941 1 1.1087074069929679e+01 5.5814712996437708e+00 2.0173548414761111e+01 0 0 1
6383 1 4.7527755592216172e+00 6.6091722252613492e+00 2.3261638967297646e+01 0 0 1
1767 1 4.1350392789455181e+00 1.9132042238093401e+01 2.3397928459076528e+01 0 1 0
3963 1 1.0557164125155667e+01 1.4505903311578546e+01 1.2309309261174095e+01 1 1 1
1353 1 4.7792819488877933e+00 3.0014543003620386e-01 1.5890231934544659e+01 1 0 1
1967 1 1.1784875250832163e+01 8.6643841320902943e+00 2.3333656126700998e+01 2 0 0
3237 1 2.1290210225445128e+00 1.3873491718747877e+01 2.0554872807330025e+01 1 1 1
5539 1 1.1617661673618976e+01 8.6730877814526135e+00 1.3179356368218787e+01 0 1 1
370 1 1.2264973232495581e+01 3.0375064610164904e+00 1.4570319315157425e+01 0 1 0
5306 1 4.5781849453058712e+00 1.4385997704588720e+01 1.9948359252934402e+01 1 0 0
3650 1 6.9518576086966544e+00 2.3359698817606343e+01 1.9620577590419494e+01 0 -1 0
6589 1 6.1033736142606267e+00 1.2518099314592883e+01 2.0794800302421070e+01 1 0 1
2114 1 8.6804184504816799e+00 1.3988042371949110e+01 2.0888916606059315e+01 1 0 0
3284 1 6.5993821195127209e+00 2.3079986806483774e+01 2.2356727507934270e+01 1 1 0
3349 1 9.1871227312315085e-01 2.0102910610937489e+01 2.0833012418139472e+01 0 1 1
400 1 1.7810586661938852e+00 2.1054620700787464e+01 1.3325296100013972e+01 1 0 0
593 1 4.9784408316269895e+00 1.9836599065482709e+01 2.0508645060567197e+01 0 -1 1
3109 1 5.8484839159472308e+00 1.6679820342733485e+01 2.0658952414101613e+01 0 -1 1
5439 1 1.1811021669281102e+01 2.4258692666851282e+01 2.1114577653012919e+01 0 1 0
1571 1 9.2677937752713258e-01 1.2612447692490480e+00 2.3635533871779632e+01 1 0 1
3248 1 3.2022416531284041e+00 1.4963600144424348e+01 2.2980940243723946e+01 1 -2 1
3243 1 7.7298725152905978e-01 1.5060248739693942e+00 2.0812058856519247e+01 0 0 1
3137 1 1.0480663539278892e+01 1.1106076836725599e+01 2.3977604494129082e+01 1 0 1
6554 1 1.2412620892743174e+01 1.2901291561545550e+01 2.0156047025884710e+01 1 -1 1
6567 1 9.8112418032504767e+00 1.4026202925749617e+01 2.3220389729897004e+01 1 -2 0
412 1 1.2151718625911668e+01 7.0261731140103283e+00 1.8156685288983095e+01 0 0 0
1483 1 9.7744548989813484e+00 6.8775504834159671e+00 2.3795514430114878e+01 0 1 1
618 2 2.8355774825234903e-01 3.0913790419356109e+00 2.6747634806737924e+01 0 0 0
620 2 2.8355774825234903e-01 2.8240344544119367e-01 2.6747634806737924e+01 0 0 0
622 2 1.4998798608397108e+00 9.8464734456476866e-01 2.6747634806737924e+01 0 0 0
629 2 1.4998798608397108e+00 2.3891351428121057e+00 2.6747634806737924e+01 0 0 0
631 2 2.7162019734270726e+00 3.0913790419356109e+00 2.6747634806737924e+01 0 0 0
633 2 2.7162019734270726e+00 2.8240344544119367e-01 2.6747634806737924e+01 0 0 0
635 2 3.9325240860143498e+00 9.8464734456476866e-01 2.6747634806737924e+01 0 0 0
650 2 3.9325240860143498e+00 2.3891351428121057e+00 2.6747634806737924e+01 0 0 0
3797 1 9.9639312359655854e+00 3.7591126099404049e+00 2.4460637738558297e+01 2 0 0
652 2 5.1488461986017962e+00 3.0913790419356109e+00 2.6747634806737924e+01 0 0 0
654 2 5.1488461986017962e+00 2.8240344544119367e-01 2.6747634806737924e+01 0 0 0
656 2 6.3651683111893327e+00 9.8464734456476866e-01 2.6747634806737924e+01 0 0 0
679 2 6.3651683111893327e+00 2.3891351428121057e+00 2.6747634806737924e+01 0 0 0
681 2 7.5814904237763505e+00 3.0913790419356109e+00 2.6747634806737924e+01 0 0 0
683 2 7.5814904237763505e+00 2.8240344544119367e-01 2.6747634806737924e+01 0 0 0
1785 1 2.3191737417890770e+00 8.3851669646334610e+00 2.4012164254142736e+01 2 0 0
685 2 8.7978125363638071e+00 9.8464734456476866e-01 2.6747634806737924e+01 0 0 0
716 2 8.7978125363638071e+00 2.3891351428121057e+00 2.6747634806737924e+01 0 0 0
718 2 1.0014134648951243e+01 3.0913790419356109e+00 2.6747634806737924e+01 0 0 0
720 2 1.0014134648951243e+01 2.8240344544119367e-01 2.6747634806737924e+01 0 0 0
722 2 1.1230456761538646e+01 9.8464734456476866e-01 2.6747634806737924e+01 0 0 0
761 2 1.1230456761538646e+01 2.3891351428121057e+00 2.6747634806737924e+01 0 0 0
763 2 1.2446778874126316e+01 3.0913790419356109e+00 2.6747634806737924e+01 0 0 0
765 2 1.2446778874126316e+01 2.8240344544119367e-01 2.6747634806737924e+01 0 0 0
623 2 2.8355774825234903e-01 7.3048424366770437e+00 2.6747634806737924e+01 0 0 0
625 2 2.8355774825234903e-01 4.4958668401830177e+00 2.6747634806737924e+01 0 0 0
627 2 1.4998798608397108e+00 5.1981107393064514e+00 2.6747634806737924e+01 0 0 0
642 2 1.4998798608397108e+00 6.6025985375535550e+00 2.6747634806737924e+01 0 0 0
644 2 2.7162019734270726e+00 7.3048424366770437e+00 2.6747634806737924e+01 0 0 0
646 2 2.7162019734270726e+00 4.4958668401830177e+00 2.6747634806737924e+01 0 0 0
648 2 3.9325240860143498e+00 5.1981107393064514e+00 2.6747634806737924e+01 0 0 0
671 2 3.9325240860143498e+00 6.6025985375535550e+00 2.6747634806737924e+01 0 0 0
2063 1 2.9608780129205519e+00 2.1504137827375047e+01 2.4163014023833952e+01 1 -1 0
673 2 5.1488461986017962e+00 7.3048424366770437e+00 2.6747634806737924e+01 0 0 0
675 2 5.1488461986017962e+00 4.4958668401830177e+00 2.6747634806737924e+01 0 0 0
677 2 6.3651683111893327e+00 5.1981107393064514e+00 2.6747634806737924e+01 0 0 0
708 2 6.3651683111893327e+00 6.6025985375535550e+00 2.6747634806737924e+01 0 0 0
710 2 7.5814904237763505e+00 7.3048424366770437e+00 2.6747634806737924e+01 0 0 0
712 2 7.5814904237763505e+00 4.4958668401830177e+00 2.6747634806737924e+01 0 0 0
714 2 8.7978125363638071e+00 5.1981107393064514e+00 2.6747634806737924e+01 0 0 0
753 2 8.7978125363638071e+00 6.6025985375535550e+00 2.6747634806737924e+01 0 0 0
755 2 1.0014134648951243e+01 7.3048424366770437e+00 2.6747634806737924e+01 0 0 0
757 2 1.0014134648951243e+01 4.4958668401830177e+00 2.6747634806737924e+01 0 0 0
759 2 1.1230456761538646e+01 5.1981107393064514e+00 2.6747634806737924e+01 0 0 0
800 2 1.1230456761538646e+01 6.6025985375535550e+00 2.6747634806737924e+01 0 0 0
802 2 1.2446778874126316e+01 7.3048424366770437e+00 2.6747634806737924e+01 0 0 0
804 2 1.2446778874126316e+01 4.4958668401830177e+00 2.6747634806737924e+01 0 0 0
1100 2 1.1230456761538646e+01 2.3456452116520275e+01 3.3314365193263889e+01 0 0 0
636 2 2.8355774825234903e-01 1.1518305831418862e+01 2.6747634806737924e+01 0 0 0
638 2 2.8355774825234903e-01 8.7093302349248418e+00 2.6747634806737924e+01 0 0 0
640 2 1.4998798608397108e+00 9.4115741340480952e+00 2.6747634806737924e+01 0 0 0
663 2 1.4998798608397108e+00 1.0816061932294852e+01 2.6747634806737924e+01 0 0 0
665 2 2.7162019734270726e+00 1.1518305831418862e+01 2.6747634806737924e+01 0 0 0
667 2 2.7162019734270726e+00 8.7093302349248418e+00 2.6747634806737924e+01 0 0 0
669 2 3.9325240860143498e+00 9.4115741340480952e+00 2.6747634806737924e+01 0 0 0
700 2 3.9325240860143498e+00 1.0816061932294852e+01 2.6747634806737924e+01 0 0 0
3435 1 9.8463459116634269e+00 1.8183231608082473e+01 2.4371532955234542e+01 1 0 1
702 2 5.1488461986017962e+00 1.1518305831418862e+01 2.6747634806737924e+01 0 0 0
704 2 5.1488461986017962e+00 8.7093302349248418e+00 2.6747634806737924e+01 0 0 0
706 2 6.3651683111893327e+00 9.4115741340480952e+00 2.6747634806737924e+01 0 0 0
745 2 6.3651683111893327e+00 1.0816061932294852e+01 2.6747634806737924e+01 0 0 0
747 2 7.5814904237763505e+00 1.1518305831418862e+01 2.6747634806737924e+01 0 0 0
749 2 7.5814904237763505e+00 8.7093302349248418e+00 2.6747634806737924e+01 0 0 0
751 2 8.7978125363638071e+00 9.4115741340480952e+00 2.6747634806737924e+01 0 0 0
792 2 8.7978125363638071e+00 1.0816061932294852e+01 2.6747634806737924e+01 0 0 0
794 2 1.0014134648951243e+01 1.1518305831418862e+01 2.6747634806737924e+01 0 0 0
796 2 1.0014134648951243e+01 8.7093302349248418e+00 2.6747634806737924e+01 0 0 0
798 2 1.1230456761538646e+01 9.4115741340480952e+00 2.6747634806737924e+01 0 0 0
839 2 1.1230456761538646e+01 1.0816061932294852e+01 2.6747634806737924e+01 0 0 0
841 2 1.2446778874126316e+01 1.1518305831418862e+01 2.6747634806737924e+01 0 0 0
843 2 1.2446778874126316e+01 8.7093302349248418e+00 2.6747634806737924e+01 0 0 0
5602 1 1.2355292604108902e+01 1.1483519083298813e+01 3.6011579107232109e+01 0 1 0
657 2 2.8355774825234903e-01 1.5731769226160520e+01 2.6747634806737924e+01 0 0 0
659 2 2.8355774825234903e-01 1.2922793629665916e+01 2.6747634806737924e+01 0 0 0
661 2 1.4998798608397108e+00 1.3625037528789413e+01 2.6747634806737924e+01 0 0 0
692 2 1.4998798608397108e+00 1.5029525327036943e+01 2.6747634806737924e+01 0 0 0
694 2 2.7162019734270726e+00 1.5731769226160319e+01 2.6747634806737924e+01 0 0 0
696 2 2.7162019734270726e+00 1.2922793629665916e+01 2.6747634806737924e+01 0 0 0
698 2 3.9325240860143498e+00 1.3625037528789413e+01 2.6747634806737924e+01 0 0 0
737 2 3.9325240860143498e+00 1.5029525327036943e+01 2.6747634806737924e+01 0 0 0
1089 2 1.0014134648951243e+01 2.1349720419148511e+01 3.3314365193263889e+01 0 0 0
739 2 5.1488461986017962e+00 1.5731769226160520e+01 2.6747634806737924e+01 0 0 0
741 2 5.1488461986017962e+00 1.2922793629665916e+01 2.6747634806737924e+01 0 0 0
743 2 6.3651683111893327e+00 1.3625037528789413e+01 2.6747634806737924e+01 0 0 0
784 2 6.3651683111893327e+00 1.5029525327036943e+01 2.6747634806737924e+01 0 0 0
786 2 7.5814904237763505e+00 1.5731769226160520e+01 2.6747634806737924e+01 0 0 0
788 2 7.5814904237763505e+00 1.2922793629665916e+01 2.6747634806737924e+01 0 0 0
790 2 8.7978125363638071e+00 1.3625037528789413e+01 2.6747634806737924e+01 0 0 0
831 2 8.7978125363638071e+00 1.5029525327036943e+01 2.6747634806737924e+01 0 0 0
833 2 1.0014134648951243e+01 1.5731769226160319e+01 2.6747634806737924e+01 0 0 0
835 2 1.0014134648951243e+01 1.2922793629665916e+01 2.6747634806737924e+01 0 0 0
837 2 1.1230456761538646e+01 1.3625037528789413e+01 2.6747634806737924e+01 0 0 0
873 2 1.1230456761538646e+01 1.5029525327036943e+01 2.6747634806737924e+01 0 0 0
875 2 1.2446778874126316e+01 1.5731769226160520e+01 2.6747634806737924e+01 0 0 0
877 2 1.2446778874126316e+01 1.2922793629665916e+01 2.6747634806737924e+01 0 0 0
4897 1 5.7089690414089906e+00 1.4756097017084471e+01 2.4112711915364763e+01 0 -2 1
686 2 2.8355774825234903e-01 1.9945232620902225e+01 2.6747634806737924e+01 0 0 0
688 2 2.8355774825234903e-01 1.7136257024408490e+01 2.6747634806737924e+01 0 0 0
690 2 1.4998798608397108e+00 1.7838500923530873e+01 2.6747634806737924e+01 0 0 0
729 2 1.4998798608397108e+00 1.9242988721778396e+01 2.6747634806737924e+01 0 0 0
731 2 2.7162019734270726e+00 1.9945232620902225e+01 2.6747634806737924e+01 0 0 0
733 2 2.7162019734270726e+00 1.7136257024408490e+01 2.6747634806737924e+01 0 0 0
735 2 3.9325240860143498e+00 1.7838500923530873e+01 2.6747634806737924e+01 0 0 0
776 2 3.9325240860143498e+00 1.9242988721778396e+01 2.6747634806737924e+01 0 0 0
778 2 5.1488461986017962e+00 1.9945232620902225e+01 2.6747634806737924e+01 0 0 0
780 2 5.1488461986017962e+00 1.7136257024408490e+01 2.6747634806737924e+01 0 0 0
782 2 6.3651683111893327e+00 1.7838500923530873e+01 2.6747634806737924e+01 0 0 0
823 2 6.3651683111893327e+00 1.9242988721778396e+01 2.6747634806737924e+01 0 0 0
825 2 7.5814904237763505e+00 1.9945232620902225e+01 2.6747634806737924e+01 0 0 0
827 2 7.5814904237763505e+00 1.7136257024408490e+01 2.6747634806737924e+01 0 0 0
829 2 8.7978125363638071e+00 1.7838500923530873e+01 2.6747634806737924e+01 0 0 0
865 2 8.7978125363638071e+00 1.9242988721778396e+01 2.6747634806737924e+01 0 0 0
867 2 1.0014134648951243e+01 1.9945232620902225e+01 2.6747634806737924e+01 0 0 0
869 2 1.0014134648951243e+01 1.7136257024408490e+01 2.6747634806737924e+01 0 0 0
871 2 1.1230456761538646e+01 1.7838500923530873e+01 2.6747634806737924e+01 0 0 0
899 2 1.1230456761538646e+01 1.9242988721778396e+01 2.6747634806737924e+01 0 0 0
903 2 1.2446778874126316e+01 1.7136257024408490e+01 2.6747634806737924e+01 0 0 0
2279 1 7.4427295249794909e+00 1.2179871359294671e+01 3.5605640204639499e+01 0 0 0
723 2 2.8355774825234903e-01 2.4158696015643837e+01 2.6747634806737924e+01 0 0 0
725 2 2.8355774825234903e-01 2.1349720419148511e+01 2.6747634806737924e+01 0 0 0
727 2 1.4998798608397108e+00 2.2051964318272518e+01 2.6747634806737924e+01 0 0 0
768 2 1.4998798608397108e+00 2.3456452116520275e+01 2.6747634806737924e+01 0 0 0
770 2 2.7162019734270726e+00 2.4158696015643837e+01 2.6747634806737924e+01 0 0 0
772 2 2.7162019734270726e+00 2.1349720419148511e+01 2.6747634806737924e+01 0 0 0
774 2 3.9325240860143498e+00 2.2051964318272518e+01 2.6747634806737924e+01 0 0 0
815 2 3.9325240860143498e+00 2.3456452116520275e+01 2.6747634806737924e+01 0 0 0
3147 1 8.7074397001335520e+00 3.5907892392304532e+00 3.5825630856824603e+01 -1 0 0
817 2 5.1488461986017962e+00 2.4158696015643837e+01 2.6747634806737924e+01 0 0 0
819 2 5.1488461986017962e+00 2.1349720419148511e+01 2.6747634806737924e+01 0 0 0
821 2 6.3651683111893327e+00 2.2051964318272518e+01 2.6747634806737924e+01 0 0 0