LAMMPS data file via write_data, version 16 Mar 2018, timestep = 100000

6750 atoms
2 atom types

0.0000000000000000e+00 4.9219999999999999e+01 xlo xhi
0.0000000000000000e+00 4.9019635930410494e+01 ylo yhi
3.8259290583692973e-01 5.9679407094162528e+01 zlo zhi

Masses

1 18.015
2 12.01

Atoms # atomic

2257 1 1.6913225507320624e+00 1.8306768214288303e+00 4.7199150489810621e-01 0 1 1
6701 1 3.0469843008575257e+00 9.2463595940955443e+00 9.2088795168633553e+00 2 0 0
602 1 4.7642389242142151e+00 3.0441184550262135e-01 8.6498991667911138e+00 0 2 1
4698 1 3.8499187853383030e+00 2.5212916628124420e+00 1.7643033872579847e+00 0 0 1
6674 1 5.8768936241200951e+00 8.2457486285311654e-01 1.1672035885093919e+00 1 0 1
2110 1 8.2177675411332327e+00 1.3673028067570341e+00 1.9060588437960870e+00 1 -1 0
65 1 1.9759195356136898e+00 7.6364279425959369e-01 1.1184731483477011e+01 -1 1 1
4881 1 1.2250076945820418e+01 7.9384712428674720e-01 1.0762613695478667e+01 0 0 1
3605 1 3.2513337371267950e+00 7.3597831060273231e+00 4.0198008859782188e+00 1 0 0
2249 1 9.1342701642584316e+00 1.2318785730520476e+00 8.9126726724574237e+00 0 1 1
6368 1 8.6311311469805343e+00 6.3606313239707699e+00 3.6694810788218026e+00 1 0 1
5030 1 4.9230219484277411e+00 5.3258686111273956e+00 2.5440975804855870e+00 0 1 0
5005 1 9.5274517600179234e+00 4.2144373779493689e+00 2.0905123360781666e+00 1 1 1
1912 1 9.7421467414610188e+00 4.6796409943274506e+00 9.9782558028472028e+00 1 3 0
3865 1 8.5150535899570734e+00 1.2273920924658666e+01 1.1225066882052213e+01 0 -1 0
5031 1 2.4228169366394066e+00 9.8684453585411500e+00 3.0869601279292453e+00 1 -2 1
5228 1 6.2775380238208034e-01 1.0193147285136696e+01 9.5669501764657596e+00 0 0 0
4927 1 9.3568122374872011e+00 1.0926633886946830e+01 4.1049457978310731e+00 0 1 1
3398 1 8.9385049894134223e+00 1.4769675366815854e+01 5.0013562164326197e-01 0 -1 0
2302 1 1.1071507792214250e+01 9.4317765344905737e+00 1.1962287664366102e+00 0 2 1
1709 1 6.8294254350626389e+00 1.1972572483953721e+01 4.5496916265043215e+00 0 0 1
423 1 1.0265029834925670e+01 9.3715817812334272e+00 8.9749014381765555e+00 0 0 1
3997 1 6.4421235695696388e-01 1.4938558341178478e+01 2.1644615296441492e+00 0 2 1
177 1 3.5550894972619598e+00 9.4906148868840905e+00 1.2159850005224722e+01 0 0 0
3595 1 7.4911359640211295e+00 1.0892327794432680e+01 7.4906456732936588e+00 -1 -1 0
3957 1 5.9247232260703919e+00 1.4776544607720798e+01 5.0191129474377485e+00 1 1 1
1501 1 7.6986583598503522e-01 8.5846610760209536e+00 8.4697956575645783e-01 -1 0 1
3327 1 6.7735292067302737e+00 6.8493458576650550e+00 1.0180648938836869e+00 1 1 0
5004 1 1.1328907544238806e+01 1.4117750246040488e+01 1.6415489259035256e+00 1 0 1
5122 1 1.0513862858379495e+01 1.3364099243736929e+01 3.9171573868251981e+00 1 0 0
3651 1 2.7362966886204663e+00 1.5519545840106851e+01 5.2842029897449070e+00 1 -1 0
5323 1 3.1282666744170471e+00 2.2800100588667149e+00 4.3434488959293063e+00 0 1 0
1651 1 1.3442129950240784e+00 3.7389039394232495e+00 5.4588320352942743e+00 0 0 1
3193 1 1.0400072995597956e+01 2.5376305326685729e+00 6.6705878753084571e+00 0 0 1
5152 1 2.1499044178286915e+00 4.5237469627378402e-01 8.6721052718947202e+00 -1 0 0
2147 1 5.8145767566553159e+00 2.8526992044884714e+00 5.5609546976384641e+00 0 0 0
6599 1 1.1353918577861702e+01 5.6834439185223551e-01 4.5200760325529989e+00 0 0 0
60 1 7.9253415054983671e+00 1.9282831737953212e+00 4.6732283849963112e+00 1 -1 1
1883 1 6.9882095039352050e+00 9.1157930197433590e+00 9.4597047329435924e+00 -1 -1 0
186 1 1.6491208242587718e+00 6.2401919601706801e+00 5.9600781656965411e+00 0 0 0
5547 1 1.8383345828900661e+00 5.1229936053844609e+00 1.0182724501811807e+01 2 -1 0
3727 1 5.3209280056574695e+00 7.6961808627618611e+00 5.8117632930648560e+00 1 1 0
1495 1 6.3613346634249552e+00 5.3344195144341668e+00 4.6426185233582462e+00 0 0 1
4993 1 6.2691889537884435e+00 6.7699387145488350e+00 8.2739269498094536e+00 1 1 1
3065 1 1.0528109374578550e+01 6.5956188809950600e+00 6.1464823455635837e+00 -1 0 1
2065 1 4.0318069490581996e+00 1.2429868659093573e+01 1.1926162629591454e+01 0 2 0
3645 1 9.2012213383115071e+00 1.4766270536675986e+01 8.1025979678658988e+00 1 0 1
3808 1 8.2220537479073847e+00 8.9294955020511946e+00 1.8233153456846092e+00 0 1 0
6573 1 4.4587556657785372e+00 1.0177254662552629e+01 6.9219639805565283e+00 0 0 1
1364 1 3.2983472595592849e+00 6.6358027975880765e+00 8.4940175636755768e+00 0 0 1
1313 1 1.0109143465834103e+01 9.4134338844963068e+00 6.0631107521005676e+00 0 0 1
5600 1 3.4533566499530148e+00 3.2208112050728404e+00 1.1654122704978738e+01 1 0 0
5369 1 2.5378152734819071e+00 1.3778504126790104e+01 8.8475910493688623e+00 0 1 0
5288 1 3.4767184401140634e+00 1.1655818359458507e+01 4.8770270722136448e+00 2 0 0
442 1 1.5898038169856026e+00 1.2900132511408845e+01 6.2424633689012925e+00 2 0 0
175 1 5.1104677532134799e+00 1.5124309525244717e+01 7.5944382032477469e+00 0 0 0
5284 1 8.8213380167256314e+00 1.5262215681124957e+01 5.1799190165616364e+00 1 0 0
5208 1 1.1760247270383367e+01 1.3404866775258292e+01 8.1284711667351779e+00 0 0 0
2327 1 6.2133655271901818e+00 1.0761817015382977e+01 1.8911166502226093e+00 1 1 1
2016 1 8.9506202078997088e-01 3.0754642598468722e+00 8.0704157510647025e+00 1 1 0
1671 1 6.5314762283304004e+00 2.2460902275332559e+00 8.2525647213620115e+00 1 0 1
3094 1 3.3391909602504106e+00 1.0576683885606691e+01 3.8919580863287062e-01 1 1 1
3320 1 4.6609690494524907e+00 1.2002813100040520e+01 9.3344109700223790e+00 2 0 0
1968 1 1.0078778868836014e+01 7.0511171171965312e+00 1.1819632345319544e+01 0 2 0
3231 1 2.1366589886368939e-01 1.2681816856313727e+01 1.0333288767644751e+01 1 1 0
543 1 5.7214426676140375e+00 3.4566873276524324e+00 1.0406074521488218e+01 -1 2 1
1942 1 9.3538664873423230e+00 2.2844542378795589e+00 1.1486660495272398e+01 0 2 0
3088 1 7.3048278667459394e+00 5.8617009762398018e+00 1.1062217722057193e+01 0 1 0
1682 1 1.1048958379069713e+01 1.1657293851126692e+01 1.0126181837476507e+01 0 0 0
3603 1 8.4809284291176681e+00 5.0661222537034716e+00 7.6616658628239005e+00 0 0 1
6414 1 7.2246312416943974e+00 1.3202708681681980e+01 8.8363010997314451e+00 1 -1 1
6620 1 3.4950643005067321e+00 1.4899240749965042e+01 2.0467806291629809e+00 1 -1 0
6402 1 2.5032216944266619e+00 6.1706841162269583e+00 6.8859604666547836e-01 1 2 1
1924 1 3.7200971487479950e-01 4.2650744365775006e+00 9.7421705616995180e-01 1 0 0
225 1 1.1961691014275404e+01 7.3258159904728313e+00 9.3176236271458137e+00 1 1 0
6383 1 5.3037326631503845e-02 7.1958735851438291e+00 1.1113185910349067e+01 0 0 1
5394 1 6.8432950055884167e-01 1.6243042696831544e+01 1.0704206756918770e+01 1 1 0
360 1 1.0040229766121866e+01 1.6267173137978403e+01 1.0183945439909069e+01 2 0 0
4767 1 8.4558126761795087e+00 9.4606217640906980e+00 1.2168773426070505e+01 1 0 1
1691 1 5.7103658833031599e+00 7.4724869590776608e+00 1.2632427882520188e+01 0 0 1
4964 1 1.9820235895990621e+00 7.9862706012690199e-01 1.4293403873865296e+01 1 1 1
6358 1 1.2079681034407839e+00 3.4447649872454313e+00 1.4694303502851888e+01 0 -1 1
3218 1 7.9670417326175025e-01 4.4388107407127810e+00 2.0769757461537278e+01 0 0 1
1810 1 7.6942451010617203e+00 4.0920999090581427e+00 1.5426013620857217e+01 0 0 0
1678 1 4.3707915893252887e+00 2.5021287729060542e+00 1.4949730921694153e+01 1 0 1
5202 1 2.4374008462152212e+00 1.5297366949496000e+01 2.3562301747886490e+01 0 1 0
1320 1 1.1941069807587336e+01 5.0589772476036998e+00 1.6092038262337674e+01 1 0 1
5340 1 5.0072153240522850e+00 5.6381417920275787e+00 1.4816331936069030e+01 2 1 0
2069 1 1.0037428672810440e+00 8.8602641991731534e+00 1.5559613371636871e+01 1 0 0
3167 1 1.1697094285568243e+01 7.7346064673551407e+00 2.0069497851901708e+01 0 1 1
3878 1 8.8619688542559114e+00 7.3660302125038815e+00 1.6515110931224307e+01 1 0 1
1588 1 1.2291816716234756e+01 1.6103552408421844e+01 2.0060964329726392e+01 -1 0 1
3213 1 1.8503417608241781e+00 1.0687218826580551e+01 1.4136260061814713e+01 0 0 0
3030 1 2.7553937070508860e+00 5.3354563176222527e+00 1.3362351637216639e+01 -1 0 1
1915 1 1.0052874131503657e+01 4.4358901290086417e+00 2.3571971053224026e+01 0 2 1
1619 1 5.5514472471804162e+00 9.1122448195305896e+00 1.7883763496874622e+01 2 0 0
3936 1 7.0046974489922986e+00 8.7365252551576535e+00 1.4972532409814194e+01 1 1 1
6385 1 9.2297995596488356e+00 2.1395253433337484e+00 2.2793466486646675e+01 1 0 1
6750 1 3.3427603205805778e+00 1.5720344718071820e+01 1.8216092551300200e+01 2 0 1
3171 1 2.8990538545605795e+00 1.2595858474587367e+01 1.6054050909364911e+01 0 1 1
2983 1 3.8267538708526766e-01 6.8164559050343492e+00 1.3808747031932253e+01 0 1 1
87 1 9.8406382549134221e+00 5.3428062994064796e+00 1.4317397736692246e+01 1 1 0
6714 1 3.4255046831906015e+00 1.4428422850625354e+01 1.4199308141833974e+01 2 1 0
3363 1 1.0200623372809146e+01 1.0230186016379362e+01 1.4484321587684107e+01 0 1 0
3678 1 6.9482494181902705e+00 1.5413929789044007e+01 2.0533229064435467e+01 1 1 1
5077 1 1.0676660747074835e+00 1.4955316929443173e+01 1.2991573284614464e+01 1 1 1
1927 1 1.8921337614962688e+00 4.2765364677484099e+00 1.7538818368760616e+01 1 1 0
380 1 4.5270482669334635e+00 2.8741868350667885e+00 2.1532598604707580e+01 1 0 0
3387 1 7.3719680474763738e+00 5.2565800576474793e+00 1.7909205026759729e+01 0 0 1
6551 1 8.2727545156749098e+00 1.4568319475496549e+00 1.6772963541076393e+01 0 1 1
6731 1 1.8913592862737303e+00 8.5122843557894701e+00 1.8167706437586912e+01 1 0 1
5331 1 4.1561789310201176e+00 6.4527604992736709e+00 1.7421575742584075e+01 0 0 0
459 1 8.0703582112999417e+00 9.4563311528562526e+00 1.8487317579245158e+01 0 0 0
2003 1 4.9508049044123812e+00 4.2948438888911635e+00 1.9146024558190661e+01 1 -1 0
3234 1 5.6392884807091948e+00 6.9160928527684122e+00 2.0868017588116025e+01 0 -1 1
431 1 7.9411533926239350e+00 8.0317423561415335e+00 2.1276129355467965e+01 2 1 0
136 1 1.1168429166300770e+01 2.6254836962884598e+00 1.3638436741333443e+01 0 1 0
3369 1 1.4640324619419027e+00 1.3597553705684643e+01 1.7929000811219648e+01 2 1 0
80 1 5.4687027582766827e+00 1.2510164752324814e+01 1.7156984324060883e+01 0 1 1
5297 1 3.5858216797792775e+00 8.9600453370453934e+00 2.0549987712613444e+01 0 0 0
1689 1 1.1407761264391926e+01 7.6276991106408154e+00 1.7119625387026389e+01 1 0 0
2263 1 2.5032048639930506e+00 1.5981859417831860e+01 2.0648977438793960e+01 0 1 1
6737 1 6.4590695006663488e+00 1.3030316054685565e+01 1.2926226271430346e+01 1 0 0
3756 1 5.5548858786530806e+00 1.5154413542821498e+01 1.6688417726513375e+01 1 -1 0
1626 1 9.5089126525594097e+00 1.2733981611478802e+01 1.6095381050744002e+01 -1 0 1
1679 1 7.1432287641104715e+00 1.1639106861063873e+01 1.5328354193885630e+01 -1 0 1
5199 1 8.5985925456584429e+00 1.5119915156474507e+01 1.4741071020702334e+01 1 0 1
5413 1 1.7401854790275353e+00 1.7011660624614724e+00 2.0910610053183994e+01 0 1 0
234 1 1.2267333089516699e+01 1.3696555881595998e+01 1.6015806783256721e+01 0 0 0
1952 1 9.6175190599646179e+00 4.0070245352531737e+00 1.9284248214343435e+01 0 1 0
2060 1 9.9885641279207213e+00 1.4362122635383184e+01 1.2366603568775233e+01 0 1 0
2139 1 1.9311834390720166e+00 8.5001936396832800e+00 2.2862630193826742e+01 0 0 0
5162 1 5.8298705510860458e+00 9.1547625785518694e+00 2.3834593391902395e+01 1 0 1
5432 1 1.0641245359049773e+01 9.7868920510695001e-01 1.5785376688738662e+01 1 1 0
1992 1 8.0575422954578073e+00 1.2234219259006766e+01 2.3961788304929343e+01 1 2 0
3052 1 8.9363884581805131e+00 1.7770821209222820e+00 2.0302075826900204e+01 -1 1 1
3092 1 9.8756332943546923e+00 6.1954433212419984e+00 2.1308593146466734e+01 -1 0 1
3725 1 1.0458610636751324e+01 1.0530864040374592e+01 2.3878270935401364e+01 1 -1 0
5565 1 1.6131076828551391e-01 1.0122920185658185e+01 1.9975626698584612e+01 0 1 1
3586 1 1.7036011399688840e+00 1.2755728831987192e+01 2.0573892181839188e+01 1 -1 0
2131 1 7.6583116840787877e+00 1.1093645002095320e+01 2.1441957475343173e+01 1 1 0
1687 1 9.5244928152373181e+00 1.2087375479621246e+01 1.8610817038283582e+01 -1 0 1
4871 1 5.8939619982909850e+00 8.4973676856961333e-02 2.0752468719316404e+01 1 1 1
5270 1 1.0736965269773336e+01 1.0323935509021537e+01 2.0850757554371107e+01 -1 0 0
3044 1 9.7273245487513069e+00 1.4596496190383919e+01 2.2950422229018425e+01 1 0 1
3766 1 6.7329628787488689e+00 2.6210724364343605e+00 2.3828920401379730e+01 -1 1 0
3091 1 1.1288583737915117e+00 5.1491273009343947e+00 2.3489197162909285e+01 1 -1 1
3734 1 4.1035881082796832e+00 1.1755160756255059e+01 2.1582278317590497e+01 1 0 0
5408 1 4.1994206875160449e+00 6.5410907715594713e-01 1.6999627230506700e+01 0 1 0
1936 1 1.1949831814014258e+01 7.2226453359042808e-01 1.8340569844486989e+01 -1 1 0
1711 1 6.2868167544054678e+00 1.2953243839542020e+01 1.9881829705514839e+01 1 1 0
1999 1 9.9273224510941152e+00 1.4378052931136610e+01 2.0265083370153977e+01 0 0 0
2152 1 7.0842622417776644e+00 1.6111381436926500e+01 2.2924993529184693e+01 1 0 0
6355 1 1.6127892931503203e+00 1.4344913953966141e+00 1.7853192112466758e+01 2 0 1
3835 1 6.8588292670154676e+00 1.9654750706346971e+00 1.2824090840976664e+01 1 0 0
5552 1 8.9656429494215795e-01 1.2873643161660214e+01 2.3621520476468142e+01 0 0 1
1943 1 5.8085314716033922e+00 1.7463973800980153e+00 1.8759057375765622e+01 1 1 0
5313 1 1.1602623142286951e+01 1.6076857266774223e+01 1.7232685861450129e+01 1 0 0
2148 1 5.5078892484769533e+00 5.3855722748501877e+00 2.3362843846021196e+01 1 0 0
1525 1 6.0445503281612316e+00 1.6189400500999113e+01 1.4068898561731977e+01 0 -2 1
3555 1 1.2297180084903475e+01 3.4932181227494681e+00 1.8439025770861914e+01 1 0 0
618 2 0.0000000000000000e+00 2.8417180249513345e+00 2.6807308993839676e+01 0 0 0
620 2 0.0000000000000000e+00 0.0000000000000000e+00 2.6807308993839676e+01 0 0 0
622 2 1.2305000000000001e+00 7.1042950623783474e-01 2.6807308993839676e+01 0 0 0
629 2 1.2305000000000001e+00 2.1312885187134998e+00 2.6807308993839676e+01 0 0 0
631 2 2.4610000000000003e+00 2.8417180249513345e+00 2.6807308993839676e+01 0 0 0
633 2 2.4610000000000003e+00 0.0000000000000000e+00 2.6807308993839676e+01 0 0 0
635 2 3.6915000000000004e+00 7.1042950623783474e-01 2.6807308993839676e+01 0 0 0
650 2 3.6914999999999996e+00 2.1312885187134998e+00 2.6807308993839676e+01 0 0 0
3870 1 9.6086253600516809e+00 8.1197933954609738e+00 3.5610004972289531e+01 0 0 0
652 2 4.9220000000000006e+00 2.8417180249513332e+00 2.6807308993839676e+01 0 0 0
654 2 4.9220000000000006e+00 0.0000000000000000e+00 2.6807308993839676e+01 0 0 0
656 2 6.1524999999999999e+00 7.1042950623783407e-01 2.6807308993839676e+01 0 0 0
679 2 6.1524999999999999e+00 2.1312885187134989e+00 2.6807308993839676e+01 0 0 0
681 2 7.3829999999999991e+00 2.8417180249513345e+00 2.6807308993839676e+01 0 0 0
683 2 7.3829999999999991e+00 0.0000000000000000e+00 2.6807308993839676e+01 0 0 0
685 2 8.6134999999999984e+00 7.1042950623783407e-01 2.6807308993839676e+01 0 0 0
716 2 8.6134999999999984e+00 2.1312885187135002e+00 2.6807308993839676e+01 0 0 0
718 2 9.8440000000000012e+00 2.8417180249513332e+00 2.6807308993839676e+01 0 0 0
720 2 9.8440000000000012e+00 0.0000000000000000e+00 2.6807308993839676e+01 0 0 0
722 2 1.1074500000000002e+01 7.1042950623783330e-01 2.6807308993839676e+01 0 0 0
761 2 1.1074500000000002e+01 2.1312885187135002e+00 2.6807308993839676e+01 0 0 0
4722 1 5.3524224862960121e+00 3.3613541180149191e+00 3.5407390895182104e+01 1 1 0
1010 2 4.9220000000000006e+00 1.5629449137232333e+01 3.3254691006159881e+01 0 0 0
623 2 0.0000000000000000e+00 7.1042950623783341e+00 2.6807308993839676e+01 0 0 0
625 2 0.0000000000000000e+00 4.2625770374269996e+00 2.6807308993839676e+01 0 0 0
627 2 1.2305000000000001e+00 4.9730065436648339e+00 2.6807308993839676e+01 0 0 0
642 2 1.2305000000000001e+00 6.3938655561404980e+00 2.6807308993839676e+01 0 0 0
644 2 2.4610000000000003e+00 7.1042950623783341e+00 2.6807308993839676e+01 0 0 0
646 2 2.4610000000000003e+00 4.2625770374269996e+00 2.6807308993839676e+01 0 0 0
648 2 3.6914999999999996e+00 4.9730065436648339e+00 2.6807308993839676e+01 0 0 0
671 2 3.6914999999999996e+00 6.3938655561404980e+00 2.6807308993839676e+01 0 0 0
673 2 4.9220000000000006e+00 7.1042950623783341e+00 2.6807308993839676e+01 0 0 0
675 2 4.9220000000000006e+00 4.2625770374269978e+00 2.6807308993839676e+01 0 0 0
677 2 6.1524999999999999e+00 4.9730065436648339e+00 2.6807308993839676e+01 0 0 0
708 2 6.1524999999999999e+00 6.3938655561404980e+00 2.6807308993839676e+01 0 0 0
710 2 7.3830000000000009e+00 7.1042950623783341e+00 2.6807308993839676e+01 0 0 0
712 2 7.3829999999999991e+00 4.2625770374269996e+00 2.6807308993839676e+01 0 0 0
714 2 8.6135000000000002e+00 4.9730065436648339e+00 2.6807308993839676e+01 0 0 0
753 2 8.6135000000000002e+00 6.3938655561404980e+00 2.6807308993839676e+01 0 0 0
755 2 9.8440000000000012e+00 7.1042950623783341e+00 2.6807308993839676e+01 0 0 0
757 2 9.8440000000000012e+00 4.2625770374270004e+00 2.6807308993839676e+01 0 0 0
759 2 1.1074500000000002e+01 4.9730065436648339e+00 2.6807308993839676e+01 0 0 0
800 2 1.1074500000000002e+01 6.3938655561404980e+00 2.6807308993839676e+01 0 0 0
1078 2 1.1074500000000002e+01 1.4919019630994494e+01 3.3254691006159881e+01 0 0 0
636 2 0.0000000000000000e+00 1.1366872099805333e+01 2.6807308993839676e+01 0 0 0
638 2 0.0000000000000000e+00 8.5251540748539991e+00 2.6807308993839676e+01 0 0 0
640 2 1.2305000000000001e+00 9.2355835810918343e+00 2.6807308993839676e+01 0 0 0
663 2 1.2305000000000001e+00 1.0656442593567498e+01 2.6807308993839676e+01 0 0 0
665 2 2.4610000000000003e+00 1.1366872099805333e+01 2.6807308993839676e+01 0 0 0
667 2 2.4610000000000003e+00 8.5251540748539991e+00 2.6807308993839676e+01 0 0 0
669 2 3.6915000000000004e+00 9.2355835810918343e+00 2.6807308993839676e+01 0 0 0
700 2 3.6914999999999996e+00 1.0656442593567499e+01 2.6807308993839676e+01 0 0 0
31 1 5.2706678290264319e+00 1.2031418756851371e+01 2.4200831165684651e+01 2 -1 1
702 2 4.9220000000000006e+00 1.1366872099805333e+01 2.6807308993839676e+01 0 0 0
704 2 4.9220000000000006e+00 8.5251540748539991e+00 2.6807308993839676e+01 0 0 0
706 2 6.1524999999999999e+00 9.2355835810918343e+00 2.6807308993839676e+01 0 0 0
745 2 6.1524999999999999e+00 1.0656442593567499e+01 2.6807308993839676e+01 0 0 0
747 2 7.3829999999999991e+00 1.1366872099805333e+01 2.6807308993839676e+01 0 0 0
749 2 7.3830000000000009e+00 8.5251540748539991e+00 2.6807308993839676e+01 0 0 0
1057 2 8.6135000000000002e+00 1.4919019630994494e+01 3.3254691006159881e+01 0 0 0
1036 2 8.6135000000000002e+00 1.3498160618518835e+01 3.3254691006159881e+01 0 0 0
1059 2 9.8440000000000012e+00 1.2787731112280996e+01 3.3254691006159881e+01 0 0 0
751 2 8.6134999999999984e+00 9.2355835810918343e+00 2.6807308993839676e+01 0 0 0
792 2 8.6134999999999984e+00 1.0656442593567498e+01 2.6807308993839676e+01 0 0 0
794 2 9.8440000000000012e+00 1.1366872099805333e+01 2.6807308993839676e+01 0 0 0
796 2 9.8440000000000012e+00 8.5251540748539956e+00 2.6807308993839676e+01 0 0 0
798 2 1.1074500000000002e+01 9.2355835810918343e+00 2.6807308993839676e+01 0 0 0
839 2 1.1074500000000002e+01 1.0656442593567498e+01 2.6807308993839676e+01 0 0 0
841 2 1.2304999999999998e+01 1.1366872099805333e+01 2.6807308993839676e+01 0 0 0
657 2 0.0000000000000000e+00 1.5629449137232333e+01 2.6807308993839676e+01 0 0 0
659 2 0.0000000000000000e+00 1.2787731112280996e+01 2.6807308993839676e+01 0 0 0
661 2 1.2305000000000001e+00 1.3498160618518829e+01 2.6807308993839676e+01 0 0 0
692 2 1.2305000000000001e+00 1.4919019630994494e+01 2.6807308993839676e+01 0 0 0
694 2 2.4610000000000003e+00 1.5629449137232328e+01 2.6807308993839676e+01 0 0 0
696 2 2.4610000000000003e+00 1.2787731112280996e+01 2.6807308993839676e+01 0 0 0
698 2 3.6915000000000004e+00 1.3498160618518829e+01 2.6807308993839676e+01 0 0 0
737 2 3.6915000000000004e+00 1.4919019630994494e+01 2.6807308993839676e+01 0 0 0
739 2 4.9220000000000006e+00 1.5629449137232333e+01 2.6807308993839676e+01 0 0 0
741 2 4.9220000000000006e+00 1.2787731112280996e+01 2.6807308993839676e+01 0 0 0
743 2 6.1524999999999990e+00 1.3498160618518829e+01 2.6807308993839676e+01 0 0 0
784 2 6.1524999999999990e+00 1.4919019630994494e+01 2.6807308993839676e+01 0 0 0
786 2 7.3829999999999991e+00 1.5629449137232333e+01 2.6807308993839676e+01 0 0 0
788 2 7.3829999999999991e+00 1.2787731112280996e+01 2.6807308993839676e+01 0 0 0
790 2 8.6135000000000002e+00 1.3498160618518835e+01 2.6807308993839676e+01 0 0 0
831 2 8.6135000000000002e+00 1.4919019630994494e+01 2.6807308993839676e+01 0 0 0
833 2 9.8440000000000012e+00 1.5629449137232328e+01 2.6807308993839676e+01 0 0 0
835 2 9.8440000000000012e+00 1.2787731112280996e+01 2.6807308993839676e+01 0 0 0
837 2 1.1074500000000002e+01 1.3498160618518829e+01 2.6807308993839676e+01 0 0 0
873 2 1.1074500000000002e+01 1.4919019630994494e+01 2.6807308993839676e+01 0 0 0
1058 2 9.8440000000000012e+00 1.5629449137232328e+01 3.3254691006159881e+01 0 0 0
619 2 0.0000000000000000e+00 1.4208590124756650e+00 3.0030999999999842e+01 0 0 0
621 2 0.0000000000000000e+00 0.0000000000000000e+00 3.0030999999999842e+01 0 0 0
628 2 1.2305000000000001e+00 3.5521475311891644e+00 3.0030999999999842e+01 0 0 0
630 2 1.2305000000000001e+00 2.1312885187134998e+00 3.0030999999999842e+01 0 0 0
632 2 2.4610000000000003e+00 1.4208590124756650e+00 3.0030999999999842e+01 0 0 0
634 2 2.4610000000000003e+00 0.0000000000000000e+00 3.0030999999999842e+01 0 0 0
649 2 3.6914999999999996e+00 3.5521475311891644e+00 3.0030999999999842e+01 0 0 0
651 2 3.6914999999999996e+00 2.1312885187134998e+00 3.0030999999999842e+01 0 0 0
653 2 4.9220000000000006e+00 1.4208590124756650e+00 3.0030999999999842e+01 0 0 0
655 2 4.9220000000000006e+00 0.0000000000000000e+00 3.0030999999999842e+01 0 0 0
678 2 6.1524999999999999e+00 3.5521475311891644e+00 3.0030999999999842e+01 0 0 0
680 2 6.1524999999999999e+00 2.1312885187134989e+00 3.0030999999999842e+01 0 0 0
682 2 7.3829999999999991e+00 1.4208590124756659e+00 3.0030999999999842e+01 0 0 0
684 2 7.3829999999999991e+00 0.0000000000000000e+00 3.0030999999999842e+01 0 0 0
715 2 8.6134999999999984e+00 3.5521475311891657e+00 3.0030999999999842e+01 0 0 0
717 2 8.6134999999999984e+00 2.1312885187135002e+00 3.0030999999999842e+01 0 0 0
719 2 9.8440000000000012e+00 1.4208590124756659e+00 3.0030999999999842e+01 0 0 0
721 2 9.8440000000000012e+00 0.0000000000000000e+00 3.0030999999999842e+01 0 0 0
760 2 1.1074500000000002e+01 3.5521475311891644e+00 3.0030999999999842e+01 0 0 0
762 2 1.1074500000000002e+01 2.1312885187135002e+00 3.0030999999999842e+01 0 0 0
624 2 0.0000000000000000e+00 5.6834360499026637e+00 3.0030999999999842e+01 0 0 0
626 2 0.0000000000000000e+00 4.2625770374269996e+00 3.0030999999999842e+01 0 0 0
641 2 1.2305000000000001e+00 7.8147245686161639e+00 3.0030999999999842e+01 0 0 0
643 2 1.2305000000000001e+00 6.3938655561404980e+00 3.0030999999999842e+01 0 0 0
645 2 2.4610000000000003e+00 5.6834360499026637e+00 3.0030999999999842e+01 0 0 0
647 2 2.4610000000000003e+00 4.2625770374269996e+00 3.0030999999999842e+01 0 0 0
670 2 3.6914999999999996e+00 7.8147245686161639e+00 3.0030999999999842e+01 0 0 0
672 2 3.6914999999999996e+00 6.3938655561404980e+00 3.0030999999999842e+01 0 0 0
674 2 4.9220000000000006e+00 5.6834360499026637e+00 3.0030999999999842e+01 0 0 0
676 2 4.9220000000000006e+00 4.2625770374269978e+00 3.0030999999999842e+01 0 0 0
707 2 6.1524999999999999e+00 7.8147245686161639e+00 3.0030999999999842e+01 0 0 0
709 2 6.1524999999999999e+00 6.3938655561404980e+00 3.0030999999999842e+01 0 0 0
711 2 7.3829999999999991e+00 5.6834360499026637e+00 3.0030999999999842e+01 0 0 0
713 2 7.3829999999999991e+00 4.2625770374269996e+00 3.0030999999999842e+01 0 0 0
752 2 8.6135000000000002e+00 7.8147245686161639e+00 3.0030999999999842e+01 0 0 0
754 2 8.6135000000000002e+00 6.3938655561404980e+00 3.0030999999999842e+01 0 0 0
756 2 9.8440000000000012e+00 5.6834360499026637e+00 3.0030999999999842e+01 0 0 0
758 2 9.8440000000000012e+00 4.2625770374270004e+00 3.0030999999999842e+01 0 0 0
799 2 1.1074500000000002e+01 7.8147245686161639e+00 3.0030999999999842e+01 0 0 0
801 2 1.1074500000000002e+01 6.3938655561404980e+00 3.0030999999999842e+01 0 0 0
637 2 0.0000000000000000e+00 9.9460130873296642e+00 3.0030999999999842e+01 0 0 0
639 2 0.0000000000000000e+00 8.5251540748539991e+00 3.0030999999999842e+01 0 0 0
662 2 1.2305000000000001e+00 1.2077301606043163e+01 3.0030999999999842e+01 0 0 0
664 2 1.2305000000000001e+00 1.0656442593567498e+01 3.0030999999999842e+01 0 0 0
666 2 2.4610000000000003e+00 9.9460130873296642e+00 3.0030999999999842e+01 0 0 0
668 2 2.4610000000000003e+00 8.5251540748539991e+00 3.0030999999999842e+01 0 0 0
699 2 3.6914999999999996e+00 1.2077301606043163e+01 3.0030999999999842e+01 0 0 0
701 2 3.6914999999999996e+00 1.0656442593567499e+01 3.0030999999999842e+01 0 0 0
703 2 4.9220000000000006e+00 9.9460130873296642e+00 3.0030999999999842e+01 0 0 0
705 2 4.9220000000000006e+00 8.5251540748539991e+00 3.0030999999999842e+01 0 0 0
744 2 6.1524999999999999e+00 1.2077301606043163e+01 3.0030999999999842e+01 0 0 0
746 2 6.1524999999999999e+00 1.0656442593567499e+01 3.0030999999999842e+01 0 0 0
748 2 7.3830000000000009e+00 9.9460130873296642e+00 3.0030999999999842e+01 0 0 0
750 2 7.3830000000000009e+00 8.5251540748539991e+00 3.0030999999999842e+01 0 0 0
791 2 8.6135000000000002e+00 1.2077301606043163e+01 3.0030999999999842e+01 0 0 0
793 2 8.6134999999999984e+00 1.0656442593567498e+01 3.0030999999999842e+01 0 0 0
795 2 9.8440000000000012e+00 9.9460130873296642e+00 3.0030999999999842e+01 0 0 0
797 2 9.8440000000000012e+00 8.5251540748539956e+00 3.0030999999999842e+01 0 0 0
838 2 1.1074500000000002e+01 1.2077301606043163e+01 3.0030999999999842e+01 0 0 0
840 2 1.1074500000000002e+01 1.0656442593567498e+01 3.0030999999999842e+01 0 0 0
658 2 0.0000000000000000e+00 1.4208590124756663e+01 3.0030999999999842e+01 0 0 0
660 2 0.0000000000000000e+00 1.2787731112280996e+01 3.0030999999999842e+01 0 0 0
693 2 1.2305000000000001e+00 1.4919019630994494e+01 3.0030999999999842e+01 0 0 0
695 2 2.4610000000000003e+00 1.4208590124756663e+01 3.0030999999999842e+01 0 0 0
697 2 2.4610000000000003e+00 1.2787731112280996e+01 3.0030999999999842e+01 0 0 0
738 2 3.6915000000000004e+00 1.4919019630994494e+01 3.0030999999999842e+01 0 0 0
740 2 4.9220000000000006e+00 1.4208590124756663e+01 3.0030999999999842e+01 0 0 0
742 2 4.9220000000000006e+00 1.2787731112280996e+01 3.0030999999999842e+01 0 0 0
785 2 6.1524999999999990e+00 1.4919019630994494e+01 3.0030999999999842e+01 0 0 0
787 2 7.3830000000000009e+00 1.4208590124756663e+01 3.0030999999999842e+01 0 0 0
789 2 7.3829999999999991e+00 1.2787731112280996e+01 3.0030999999999842e+01 0 0 0
832 2 8.6135000000000002e+00 1.4919019630994494e+01 3.0030999999999842e+01 0 0 0
834 2 9.8440000000000012e+00 1.4208590124756663e+01 3.0030999999999842e+01 0 0 0
836 2 9.8440000000000012e+00 1.2787731112280996e+01 3.0030999999999842e+01 0 0 0
872 2 1.1074500000000002e+01 1.6339878643470161e+01 3.0030999999999842e+01 0 0 0
874 2 1.1074500000000002e+01 1.4919019630994494e+01 3.0030999999999842e+01 0 0 0
876 2 1.2304999999999998e+01 1.4208590124756658e+01 3.0030999999999842e+01 0 0 0
947 2 0.0000000000000000e+00 2.8417180249513345e+00 3.3254691006159881e+01 0 0 0
948 2 0.0000000000000000e+00 0.0000000000000000e+00 3.3254691006159881e+01 0 0 0
949 2 1.2305000000000001e+00 7.1042950623783474e-01 3.3254691006159881e+01 0 0 0
953 2 1.2305000000000001e+00 2.1312885187134998e+00 3.3254691006159881e+01 0 0 0
954 2 2.4610000000000003e+00 2.8417180249513345e+00 3.3254691006159881e+01 0 0 0
955 2 2.4610000000000003e+00 0.0000000000000000e+00 3.3254691006159881e+01 0 0 0
956 2 3.6915000000000004e+00 7.1042950623783474e-01 3.3254691006159881e+01 0 0 0
964 2 3.6914999999999996e+00 2.1312885187134998e+00 3.3254691006159881e+01 0 0 0
965 2 4.9220000000000006e+00 2.8417180249513332e+00 3.3254691006159881e+01 0 0 0
966 2 4.9220000000000006e+00 0.0000000000000000e+00 3.3254691006159881e+01 0 0 0
967 2 6.1524999999999999e+00 7.1042950623783407e-01 3.3254691006159881e+01 0 0 0
979 2 6.1524999999999999e+00 2.1312885187134989e+00 3.3254691006159881e+01 0 0 0
980 2 7.3829999999999991e+00 2.8417180249513345e+00 3.3254691006159881e+01 0 0 0
981 2 7.3829999999999991e+00 0.0000000000000000e+00 3.3254691006159881e+01 0 0 0
1034 2 7.3829999999999991e+00 1.5629449137232333e+01 3.3254691006159881e+01 0 0 0
982 2 8.6134999999999984e+00 7.1042950623783407e-01 3.3254691006159881e+01 0 0 0
998 2 8.6134999999999984e+00 2.1312885187135002e+00 3.3254691006159881e+01 0 0 0
999 2 9.8440000000000012e+00 2.8417180249513332e+00 3.3254691006159881e+01 0 0 0
1000 2 9.8440000000000012e+00 0.0000000000000000e+00 3.3254691006159881e+01 0 0 0
1001 2 1.1074500000000002e+01 7.1042950623783330e-01 3.3254691006159881e+01 0 0 0
1021 2 1.1074500000000002e+01 2.1312885187135002e+00 3.3254691006159881e+01 0 0 0
950 2 0.0000000000000000e+00 7.1042950623783341e+00 3.3254691006159881e+01 0 0 0
951 2 0.0000000000000000e+00 4.2625770374269996e+00 3.3254691006159881e+01 0 0 0
952 2 1.2305000000000001e+00 4.9730065436648339e+00 3.3254691006159881e+01 0 0 0
960 2 1.2305000000000001e+00 6.3938655561404980e+00 3.3254691006159881e+01 0 0 0
961 2 2.4610000000000003e+00 7.1042950623783341e+00 3.3254691006159881e+01 0 0 0
962 2 2.4610000000000003e+00 4.2625770374269996e+00 3.3254691006159881e+01 0 0 0
963 2 3.6914999999999996e+00 4.9730065436648339e+00 3.3254691006159881e+01 0 0 0
975 2 3.6914999999999996e+00 6.3938655561404980e+00 3.3254691006159881e+01 0 0 0
1035 2 7.3829999999999991e+00 1.2787731112280996e+01 3.3254691006159881e+01 0 0 0
976 2 4.9220000000000006e+00 7.1042950623783341e+00 3.3254691006159881e+01 0 0 0
977 2 4.9220000000000006e+00 4.2625770374269978e+00 3.3254691006159881e+01 0 0 0
978 2 6.1524999999999999e+00 4.9730065436648339e+00 3.3254691006159881e+01 0 0 0
994 2 6.1524999999999999e+00 6.3938655561404980e+00 3.3254691006159881e+01 0 0 0
995 2 7.3830000000000009e+00 7.1042950623783341e+00 3.3254691006159881e+01 0 0 0
996 2 7.3829999999999991e+00 4.2625770374269996e+00 3.3254691006159881e+01 0 0 0