
# Create simulation box and atoms

read_data data.graphite_substrate_500
  orthogonal box = (0 0 -0.518223) to (49.22 49.0196 60.5802)
  4 by 3 by 5 MPI processor grid
  reading atoms ...
  6750 atoms
  reading velocities ...
  6750 velocities
group water type 1
3990 atoms in group water
group graphite type 2
2760 atoms in group graphite

# Define potential

pair_style sw
pair_coeff * * mWC.sw mW C
Reading potential file mWC.sw with DATE: 2019-02-27


# Fix graphite atoms in place

fix 5 graphite setforce 0.0 0.0 0.0
velocity graphite set 0.0 0.0 0.0


# Equilibration of molecular water

# Add velocity/set timestep

velocity	    water create ${TEMP} ${SEED} rot yes dist gaussian
velocity	    water create 225 ${SEED} rot yes dist gaussian
velocity	    water create 225 2638 rot yes dist gaussian
timestep	    5.0

# Define output

compute			1 water msd
compute			3 water temp
thermo	    	50
thermo_style	custom step temp press vol etotal ke pe c_1[4] c_3

# Neighbor lists

neigh_modify    delay 0 every 1 check yes

# Set fixes

fix             1 water momentum 10 linear 1 1 1 rescale
fix             2 water nve
fix             3 water temp/csvr ${TEMP} ${TEMP} 500.0 ${SEED}
fix             3 water temp/csvr 225 ${TEMP} 500.0 ${SEED}
fix             3 water temp/csvr 225 225 500.0 ${SEED}
fix             3 water temp/csvr 225 225 500.0 2638
fix             4 water press/berendsen z ${PRES} ${PRES} 1000.0 modulus 20000
fix             4 water press/berendsen z -500 ${PRES} 1000.0 modulus 20000
fix             4 water press/berendsen z -500 -500 1000.0 modulus 20000

# Run 0.5 ns equilibration

dump		    1 all atom 2000 ${DIR}/eq.${NAME}-${TEMP}.dump
dump		    1 all atom 2000 run_1/eq.${NAME}-${TEMP}.dump
dump		    1 all atom 2000 run_1/eq.het_freeze_1-${TEMP}.dump
dump		    1 all atom 2000 run_1/eq.het_freeze_1-225.dump

reset_timestep  0

run	            100000
Neighbor list info ...
  update every 1 steps, delay 0 steps, check yes
  max neighbors/atom: 2000, page size: 100000
  master list distance cutoff = 7.76
  ghost atom cutoff = 7.76
  binsize = 3.88, bins = 13 13 16
  1 neighbor lists, perpetual/occasional/extra = 1 0 0
  (1) pair sw, perpetual
      attributes: full, newton on
      pair build: full/bin/atomonly
      stencil: full/bin/3d
      bin: standard
Per MPI rank memory allocation (min/avg/max) = 4.091 | 4.193 | 4.512 Mbytes
Step Temp Press Volume TotEng KinEng PotEng c_1[4] c_3 
       0    132.98637   -1273.0418    147415.06    -35990.25    2675.3515   -38665.602            0          225 
      50    177.66648      -1373.1    146936.96   -36323.068    3574.2031   -39897.271   0.84565995    300.59441 
     100    166.18241   -1364.2251     146653.7   -36798.325    3343.1724   -40141.498    1.8580783    281.16447 
     150    159.20589   -1225.2365    146292.74   -37072.215    3202.8224   -40275.037    2.6768254    269.36087 
     200    155.46269   -1335.9275     145847.5   -37387.004    3127.5187   -40514.523    3.4009372    263.02775 
     250    157.27779    -1237.434    145439.25   -37625.986    3164.0339    -40790.02    4.1003957    266.09873 
     300     149.3547   -1260.8949    145090.01    -37855.61    3004.6412   -40860.251    4.7911995    252.69363 
     350    149.15198   -1281.3979    144762.28   -38055.782     3000.563   -41056.345    5.4062729    252.35064 
     400    148.57031   -1347.8723    144527.18   -38151.455    2988.8614   -41140.316    5.9437153    251.36652 
     450    144.26991   -1184.0568    144169.52   -38284.744     2902.348   -41187.092    6.5429699    244.09065 
     500    141.67471    -1070.225    143935.18    -38434.22    2850.1392   -41284.359    7.1662644    239.69983 
     550    142.29201   -1003.8133    143642.21   -38537.442    2862.5576       -41400     7.681366    240.74424 
     600     138.8198   -1171.5138    143363.38   -38666.786    2792.7056   -41459.491    8.1352504     234.8696 
     650    139.02174   -760.06499    143189.44   -38699.753     2796.768   -41496.521    8.5190814    235.21126 
     700    140.44193   -709.16248    143069.61   -38738.424    2825.3388   -41563.763    8.8770341    237.61409 
     750    142.61964   -981.95708    142948.69   -38759.812    2869.1488   -41628.961    9.3420322    241.29856 
     800    138.21715   -838.03766    142872.25   -38830.521    2780.5816   -41611.103    9.7354605    233.84997 
     850    138.66121   -609.24091    142894.49   -38890.248     2789.515   -41679.763    10.082602    234.60128 
     900     139.2853   -649.42359    142855.54   -38937.548    2802.0702   -41739.618     10.47205    235.65718 
     950     135.3079   -748.14653    142751.79   -39010.407    2722.0548   -41732.462    10.783352     228.9278 
    1000    136.28378   -531.53273    142723.43   -39091.114    2741.6872   -41832.801    11.122205     230.5789 
    1050    133.20597   -578.45162     142668.5     -39127.6    2679.7694   -41807.369    11.395029    225.37154 
    1100    135.56855   -563.28191    142591.95   -39141.279    2727.2986   -41868.577    11.742337     229.3688 
    1150    135.79845    -780.0875    142543.84   -39136.236    2731.9236    -41868.16    12.084904    229.75777 
    1200    135.24347     -639.837     142520.7    -39151.76    2720.7587   -41872.518    12.369159    228.81879 
    1250    136.46244    -599.4636    142514.94   -39149.853    2745.2814   -41895.135    12.735383    230.88118 
    1300    136.76561   -473.38278    142522.26   -39154.722    2751.3804   -41906.102    13.094713    231.39411 
    1350    134.55851    -477.7441     142540.8   -39191.395    2706.9792   -41898.374    13.285536    227.65992 
    1400    134.70809   -638.62079    142565.52   -39203.187    2709.9882   -41913.175    13.488917    227.91298 
    1450    133.71122   -789.38365    142498.87   -39200.117    2689.9337   -41890.051    13.800175    226.22637 
    1500    135.91656   -593.91424    142484.34   -39199.456    2734.2997   -41933.756    14.080607    229.95761 
    1550    135.91801    -650.5717    142441.56   -39271.175    2734.3287   -42005.503    14.349419    229.96004 
    1600    134.99023   -624.66415    142493.85   -39283.416    2715.6643    -41999.08    14.739167    228.39035 
    1650     132.3177   -619.96497    142528.75   -39310.621    2661.8997   -41972.521     14.90471    223.86868 
    1700    133.71801   -718.90897    142421.17   -39337.686    2690.0703   -42027.756    15.098703    226.23786 
    1750     132.1713   -672.04695    142478.97   -39336.214    2658.9543   -41995.168    15.342162    223.62098 
    1800     133.7225   -777.15595    142479.92   -39379.366    2690.1607   -42069.527    15.636553    226.24546 
    1850    131.75549   -670.89421    142499.42   -39405.229    2650.5894   -42055.819    15.969326    222.91747 
    1900    131.84089   -862.05149    142515.64   -39398.999    2652.3074   -42051.306    16.167689    223.06196 
    1950    132.92897   -659.66307     142499.2   -39395.123    2674.1967    -42069.32    16.438134    224.90288 
    2000    131.43365   -936.50764    142446.55   -39427.851    2644.1146   -42071.965    16.826122    222.37294 
    2050    130.96847   -660.29446    142454.73   -39403.699    2634.7566   -42038.456     17.15144    221.58592 
    2100    130.46626   -671.15889    142480.33   -39427.538    2624.6532   -42052.192    17.444622    220.73621 
    2150    134.63144   -863.74534    142438.15   -39409.185    2708.4461   -42117.631    17.756342    227.78329 
    2200    132.29457   -490.98136     142448.6   -39385.934    2661.4344   -42047.369    18.155981    223.82955 
    2250    132.82989   -582.16106    142515.15   -39404.818    2672.2037   -42077.021     18.44383    224.73526 
    2300    131.74412   -815.14925    142434.81    -39462.15    2650.3606   -42112.511    18.760232    222.89824 
    2350    133.06228   -685.65471    142362.54   -39411.042    2676.8788    -42087.92    18.980963    225.12844 
    2400    131.31024   -429.33231    142364.02   -39419.383    2641.6321   -42061.015    19.260729    222.16416 
    2450    135.61734   -563.01062    142317.11   -39393.666    2728.2802   -42121.946      19.4797    229.45135 
    2500     133.5153   -516.73357    142257.69   -39428.084    2685.9924   -42114.076    19.815771    225.89491 
    2550    135.42586   -628.92117    142241.74   -39402.312    2724.4279   -42126.739     20.06701    229.12738 
    2600    130.49666   -707.81011    142247.69   -39444.059    2625.2649   -42069.324    20.356159    220.78766 
    2650    133.12447   -570.54927    142172.39   -39510.511    2678.1298    -42188.64    20.768734    225.23365 
    2700    132.36989   -624.53062    142231.83   -39476.858    2662.9495   -42139.807    21.123681    223.95698 
    2750    131.51852   -531.97581    142227.72    -39515.89    2645.8221   -42161.712    21.215166    222.51654 
    2800     133.7929   -649.88518    142212.61   -39465.499    2691.5769   -42157.076    21.384149    226.36457 
    2850    134.63944   -552.53226    142261.49   -39446.597    2708.6071   -42155.204    21.523712    227.79683 
    2900    132.03424   -643.16191    142338.79   -39465.126    2656.1972   -42121.323    21.738438     223.3891 
    2950    131.90006    -535.4301       142353   -39429.204    2653.4978   -42082.702    21.975175    223.16207 
    3000    130.48099   -682.11875    142398.58   -39464.968    2624.9495   -42089.917    22.177764    220.76114 
    3050    132.77711   -744.49269     142423.6   -39470.223    2671.1417   -42141.365    22.481418    224.64595 
    3100    134.12138   -609.24389    142415.56   -39469.183    2698.1852   -42167.368    22.703881    226.92033 
    3150    136.67939   -565.93317     142458.6   -39452.484    2749.6459    -42202.13    22.983197    231.24823 
    3200    134.25451   -605.04479       142514   -39469.504    2700.8633   -42170.368    23.165901    227.14557 
    3250    132.56836   -592.38589    142597.61   -39530.703    2666.9423   -42197.645    23.210232    224.29278 
    3300    133.91936   -573.79164    142702.35   -39535.617    2694.1211   -42229.738     23.29105    226.57854 
    3350    132.94504    -636.1569     142732.1   -39600.321    2674.5201   -42274.841    23.458987    224.93008 
    3400    130.63238   -759.52741    142765.71   -39599.043    2627.9952   -42227.038    23.617606    221.01728 
    3450    131.67418    -576.2348    142809.23   -39603.979    2648.9536   -42252.932    23.776654     222.7799 
    3500    131.89568    -660.8642     142789.9   -39645.877    2653.4096   -42299.287    23.919383    223.15466 
    3550     130.3439   -507.41336    142833.28   -39681.434    2622.1918   -42303.626     24.10165     220.5292 
    3600     129.7606   -571.13686    142929.85   -39709.665    2610.4572   -42320.122      24.2436    219.54232 
    3650    131.26021   -743.90254    142987.15   -39675.382    2640.6257   -42316.008    24.345316    222.07951 
    3700    130.06471   -701.74138     142980.1   -39768.557     2616.575   -42385.132    24.453365    220.05683 
    3750    130.77286   -560.24768    143033.46   -39744.733    2630.8213   -42375.554    24.549554    221.25496 
    3800    133.52325    -425.5408     143075.7    -39674.58    2686.1523   -42360.732    24.650899    225.90835 
    3850    131.05953   -623.34217    143135.01   -39629.336    2636.5885   -42265.925    24.940365    221.73998 
    3900    131.99453   -670.84762     143149.9   -39658.182    2655.3982    -42313.58    25.178351     223.3219 
    3950    130.09929   -624.88786    143145.09    -39680.17    2617.2708   -42297.441    25.311493    220.11535 
    4000    129.96691   -791.18269    143208.66   -39659.148    2614.6075   -42273.756    25.448962    219.89136 
    4050    133.87353   -756.09466    143141.49   -39618.569    2693.1991   -42311.769    25.719414      226.501 
    4100    132.58967   -828.86102     143115.9   -39661.824     2667.371   -42329.195     25.98409    224.32883 
    4150    132.10626   -949.97993    143102.56   -39661.685    2657.6459   -42319.331    26.157333    223.51094 
    4200    128.12092   -844.35829    143114.41   -39637.247    2577.4709   -42214.718    26.293075    216.76813 
    4250     131.8189   -866.44767     143042.5   -39614.931    2651.8651   -42266.797    26.461903    223.02476 
    4300    132.67815   -799.78128    143026.57   -39616.152     2669.151   -42285.303    26.611231    224.47852 
    4350    131.18713   -833.26674    142966.97   -39623.004    2639.1553   -42262.159    26.808312    221.95586 
    4400    132.98076     -725.021    142904.53   -39622.324    2675.2388   -42297.563    26.845303    224.99052 
    4450    131.80462   -739.39179    142808.42   -39663.057    2651.5777   -42314.635    27.056716     223.0006 
    4500    129.87049   -780.74917    142794.98   -39739.298     2612.668   -42351.966    27.162687    219.72825 
    4550    131.50306   -604.34731    142822.13   -39709.953    2645.5111   -42355.464    27.302206    222.49039 
    4600    131.75094   -483.12993     142826.9   -39667.922    2650.4978   -42318.419    27.476016    222.90977 
    4650    132.64893   -447.12469     142880.2   -39706.149    2668.5631   -42374.712    27.630383    224.42908 
    4700    130.36091   -846.38938    142864.04   -39744.166    2622.5339     -42366.7     27.70622    220.55798 
    4750    130.98829   -672.86427    142817.57   -39735.843    2635.1552   -42370.998    27.963785    221.61945 
    4800    130.89784   -851.14569    142825.27   -39687.451    2633.3357   -42320.786    28.213731    221.46642 
    4850    131.42922   -752.15048    142820.16   -39642.881    2644.0255   -42286.906    28.294071    222.36545 
    4900    131.82542   -563.04134    142789.22   -39632.006    2651.9963   -42284.002    28.552603    223.03579 
    4950    130.52416   -780.47125    142813.58   -39655.192    2625.8181   -42281.011    28.852223    220.83418 
    5000    132.83785   -438.70301    142826.08   -39639.981    2672.3637   -42312.345    29.059208    224.74872 
    5050    134.31607   -640.71743    142906.21   -39623.638    2702.1018    -42325.74    29.283294    227.24973 
    5100    132.26231   -714.85767    142913.91   -39620.298    2660.7854   -42281.083    29.475169    223.77497 
    5150    132.13389   -743.49375    142881.75   -39626.189    2658.2019   -42284.391    29.792574     223.5577 
    5200    130.64693   -617.13989    142803.52   -39610.028    2628.2879   -42238.316    29.956356     221.0419 
    5250    131.51937   -545.96625    142831.86   -39681.457    2645.8393   -42327.296    30.007326    222.51798 
    5300    131.42956    -466.7673    142859.65   -39642.773    2644.0325   -42286.806     30.14032    222.36604 
    5350    131.60062   -661.93286     142883.4   -39644.419    2647.4738   -42291.893    30.248059    222.65545 
    5400    132.86356    -785.2521    142856.82    -39590.03     2672.881   -42262.911    30.436068    224.79222 
    5450    132.92237   -760.55897    142872.52   -39584.355    2674.0641   -42258.419     30.39023    224.89172 
    5500    133.14748   -605.37572     142884.7   -39567.316    2678.5927   -42245.908    30.604561    225.27258 
    5550     132.1885   -589.41441    142963.56    -39593.11    2659.3004   -42252.411     30.85806    223.65008 
    5600    134.42589   -704.90459    142972.74    -39601.23    2704.3111   -42305.541    30.967139    227.43553 
    5650     132.7104    -826.4433    142976.68   -39604.089    2669.7997   -42273.889    31.279432    224.53308 
    5700    134.46938    -682.3332    142895.71   -39576.547     2705.186   -42281.733    31.613311    227.50911 
    5750    131.48736   -744.00874    142965.42   -39571.548    2645.1953   -42216.744    31.926055    222.46383 
    5800     135.3281   -608.46967    143008.02    -39577.11    2722.4613   -42299.572    32.259518    228.96199 
    5850    132.30425     -544.563    143058.92   -39597.725     2661.629   -42259.354    32.457628    223.84592 
    5900    133.38346   -561.49156    143083.76   -39611.987      2683.34   -42295.327    32.668386    225.67184 
    5950    133.94467   -543.15623    143073.58   -39601.965    2694.6301   -42296.595    32.911207    226.62135 
    6000    132.85676   -342.85405    143042.37   -39596.708    2672.7442   -42269.452    33.163073    224.78072 
    6050    133.24659   -565.23011    143126.62    -39622.06    2680.5866   -42302.647    33.441177    225.44027 
    6100    132.53363   -596.36411    143063.47    -39682.51    2666.2435   -42348.754    33.685774      224.234 
    6150    132.13839   -442.59595    143068.41   -39676.902    2658.2923   -42335.194    33.856691     223.5653 
    6200    135.10678   -458.92844    143120.64   -39681.133    2718.0089   -42399.142    34.073671    228.58753 
    6250    132.72922   -751.00946    143122.75   -39648.563    2670.1784   -42318.741    34.252357    224.56494 
    6300    133.24747   -345.40783    143196.99   -39619.918    2680.6042   -42300.522    34.267536    225.44175 
    6350    134.18951   -593.56723    143305.72   -39609.441    2699.5557   -42308.997    34.442528    227.03559 
    6400    135.47585   -581.60216     143373.1   -39599.346    2725.4336    -42324.78    34.482975    229.21196 
    6450    136.57738   -595.84078    143394.33   -39581.004    2747.5936   -42328.598    34.669468    231.07564 
    6500    135.19051   -755.43637     143405.6   -39542.618    2719.6933   -42262.312    34.770956    228.72919 
    6550    135.65522   -669.10896       143366   -39559.692     2729.042   -42288.734    34.892211    229.51543 
    6600     133.9155   -602.92826    143492.69   -39623.241    2694.0434   -42317.285    34.989598      226.572 
    6650    133.09453   -729.38296    143591.29    -39674.47    2677.5274   -42351.997    35.037502    225.18299 
    6700    134.25553   -580.82507    143657.17   -39639.265    2700.8838   -42340.149    35.199924    227.14729 
    6750    135.28566   -698.28783    143728.66   -39614.645    2721.6076   -42336.252    35.442542    228.89018 
    6800    136.47108   -848.62852    143652.22   -39608.705    2745.4553   -42354.161    35.543619     230.8958 
    6850    133.61441   -704.92289     143613.5   -39706.323    2687.9862   -42394.309     35.58583    226.06259 
    6900     132.6768   -622.11599    143686.97   -39688.223    2669.1238   -42357.347    35.743315    224.47624 
    6950    133.89716    -674.3871    143678.92   -39650.591    2693.6744   -42344.265    35.827364    226.54097 
    7000    134.05921    -586.2077    143713.06   -39677.456    2696.9344    -42374.39    36.118968    226.81514 
    7050    132.16883    -747.7497    143717.01   -39710.003    2658.9047   -42368.908    36.478055     223.6168 
    7100     135.4314   -862.02806    143762.33   -39709.446    2724.5394   -42433.986    36.510688    229.13675 
    7150    133.00988   -811.92448    143725.18   -39728.286    2675.8245   -42404.111    36.688315    225.03978 
    7200    132.93773   -874.02731    143765.02   -39776.886     2674.373   -42451.259    36.963372    224.91771 
    7250    131.06779   -954.11806    143744.62   -39762.116    2636.7546   -42398.871    37.043694    221.75395 
    7300    130.25529   -538.49756    143714.03   -39737.146     2620.409   -42357.555    37.031404    220.37927 
    7350     132.3837   -633.12443    143738.41   -39765.638    2663.2273   -42428.865    37.141864    223.98034 
    7400    130.58979   -675.83668    143654.72   -39762.087    2627.1384   -42389.225    37.322393    220.94522 
    7450    131.66616   -664.89984    143643.74   -39729.647    2648.7923   -42378.439    37.652403    222.76634 
    7500    130.35137   -522.59447    143667.66   -39797.058    2622.3419     -42419.4    37.858113    220.54183 
    7550    128.68351   -619.13079    143698.41   -39819.904    2588.7888   -42408.693    38.057787    217.71998 
    7600    131.62558    -634.4911    143712.63   -39772.644    2647.9758    -42420.62    38.322149    222.69767 
    7650    132.59545   -505.19468    143685.92   -39785.184    2667.4873   -42452.671    38.575545    224.33861 
    7700    132.00206   -574.35417    143728.93   -39785.524    2655.5497   -42441.073    38.808668    223.33464 
    7750    132.34746   -747.59114    143695.37   -39762.529    2662.4983   -42425.027    39.025737    223.91903 
    7800    133.28296   -807.14795    143730.62   -39749.992    2681.3181   -42431.311    39.161537     225.5018 
    7850    131.35937    -560.2326    143704.67   -39664.739    2642.6205   -42307.359    39.191449    222.24728 
    7900    134.95358   -793.73117    143635.78   -39647.463    2714.9269    -42362.39    39.284005    228.32833 
    7950    136.39891   -722.67879    143678.85   -39653.911    2744.0033   -42397.914    39.300226    230.77369 
    8000    133.25306   -703.81464     143637.8   -39691.278    2680.7166   -42371.995    39.531373    225.45121 
    8050      133.996   -725.75399     143610.8   -39754.905    2695.6628   -42450.568    39.613169     226.7082 
    8100    133.77594   -662.83594    143577.78   -39745.124    2691.2357   -42436.359     39.77959    226.33587 
    8150    135.03112   -692.27051    143570.98   -39722.337    2716.4869   -42438.824    40.066959    228.45953 
    8200    132.82958   -778.21977    143596.27   -39763.166    2672.1974   -42435.363    40.246025    224.73473 
    8250    135.42623   -587.31943    143635.43   -39767.677    2724.4355   -42492.113    40.373277    229.12801 
    8300    134.44782   -664.30344    143646.85   -39737.838    2704.7522    -42442.59    40.584406    227.47263 
    8350    134.36718   -789.21687    143695.42   -39717.742      2703.13   -42420.872    40.595437     227.3362 
    8400    130.28471   -640.43421    143686.99   -39752.039    2621.0009    -42373.04    40.721545    220.42905 
    8450    132.32321   -563.20927    143626.66   -39763.928    2662.0104   -42425.938    40.924634      223.878 
    8500    130.04127   -742.15936     143626.9   -39777.343    2616.1035   -42393.447    41.097873    220.01717 
    8550    132.19644   -783.78818     143538.3   -39753.764    2659.4601   -42413.224    41.301118    223.66351 
    8600    133.29866   -743.30952       143415   -39731.914    2681.6342   -42413.548    41.530983    225.52838 
    8650     132.4758   -678.69266     143338.9   -39751.746    2665.0803   -42416.826    41.617967    224.13618 
    8700    132.70777   -750.65514     143282.7   -39734.019    2669.7468   -42403.766    41.738786    224.52864 
    8750    132.24889   -833.71868     143230.9   -39750.775    2660.5152   -42411.291    42.051727    223.75225 
    8800    132.09865   -545.59709    143228.45   -39776.887    2657.4929    -42434.38    42.117901    223.49807 
    8850    133.15216   -672.64666    143216.93   -39719.726    2678.6869   -42398.413    42.279354    225.28051 
    8900    134.86543   -451.72941    143250.32   -39758.364    2713.1535   -42471.518    42.375968    228.17919 
    8950    130.12692   -902.45008    143246.99   -39796.957    2617.8267   -42414.784    42.568617     220.1621 
    9000    132.76432   -617.12007    143279.69   -39747.948    2670.8844   -42418.833     42.80643    224.62431 
    9050    132.25872   -533.72706    143366.28   -39729.215    2660.7132   -42389.928     42.88287     223.7689 
    9100    132.19453   -489.53339    143376.78   -39731.326    2659.4217   -42390.748    42.968847    223.66029 
    9150    133.82601   -613.76119    143431.03   -39692.314    2692.2429   -42384.557    43.036626    226.42059 
    9200    131.61425    -595.1789     143504.3   -39677.362     2647.748    -42325.11    43.109193    222.67851 
    9250    134.17746   -760.03102    143529.98   -39642.061    2699.3133   -42341.374    43.119045    227.01521 
    9300    130.85497   -764.47514    143563.92   -39653.815    2632.4732   -42286.288    43.245264    221.39388 
    9350    130.74529   -901.61252    143604.04   -39640.487    2630.2666   -42270.754    43.416313    221.20831 
    9400    133.86821   -844.18361    143607.12   -39629.697    2693.0919   -42322.789    43.504758    226.49199 
    9450    133.72084   -873.09786    143614.95    -39637.37    2690.1273   -42327.498    43.447722    226.24266 
    9500    131.04145   -797.09065    143594.32   -39631.751    2636.2247   -42267.976    43.644952    221.70939 
    9550    131.22079   -749.10428    143617.99   -39618.219    2639.8326   -42258.051    43.807998    222.01282 
    9600    129.01945   -652.98764    143562.05   -39624.286    2595.5471   -42219.833    44.039527    218.28836 
    9650    134.31197   -902.97993     143554.8   -39622.519    2702.0194   -42324.538     44.05434     227.2428 
    9700    133.87707   -886.22289    143503.26   -39573.892    2693.2702   -42267.162    44.214006    226.50698 
    9750    134.43269   -798.09535    143472.21   -39565.989    2704.4479   -42270.437    44.458937    227.44703 
    9800    131.87993   -860.87504     143448.9   -39639.515    2653.0928   -42292.608    44.701498    223.12802 
    9850    132.15497   -1054.3066    143400.98   -39629.404     2658.626    -42288.03    44.768194    223.59336 
    9900    131.88481   -682.19214     143358.7   -39686.215     2653.191   -42339.406    44.922362    223.13627 
    9950     131.9824   -918.89274     143354.4   -39672.618    2655.1542   -42327.772     45.16378    223.30138 
   10000    130.19251   -875.54133    143276.01   -39674.726    2619.1462   -42293.872    45.461509    220.27307 
   10050    133.86172   -691.62797    143247.17    -39654.12    2692.9613   -42347.082    45.540921      226.481 
   10100    130.51466   -842.63122    143221.44   -39661.159     2625.627   -42286.786    45.754219    220.81811 
   10150    133.22091   -776.56632    143170.64   -39670.769    2680.0699   -42350.839    45.936644    225.39682 
   10200    131.92733   -636.44565    143208.75    -39660.75    2654.0463   -42314.796    45.992863    223.20821 
   10250    131.68719   -668.55098     143263.1   -39702.979    2649.2153   -42352.194    45.986198    222.80191 
   10300    130.90869   -619.96369    143348.31   -39635.774    2633.5539   -42269.328    45.998448    221.48477 
   10350    132.55313   -615.23789    143348.08   -39632.582    2666.6358   -42299.218    46.133517      224.267 
   10400    134.44996   -538.73559    143394.77   -39548.272    2704.7954   -42253.068    46.295809    227.47626 
   10450    133.83495   -712.29338    143482.71   -39547.799    2692.4229   -42240.222    46.484802    226.43572 
   10500    134.82562   -797.66684    143377.61   -39560.852    2712.3526   -42273.204    46.553816    228.11183 
   10550    133.57526   -646.25154    143383.22   -39593.818    2687.1986   -42281.017    46.547487    225.99635 
   10600      137.593   -788.32563    143347.91   -39625.559    2768.0254   -42393.585    46.792835    232.79397 
   10650    131.01828   -681.89343    143286.09   -39662.885    2635.7585   -42298.644    46.833293    221.67018 
   10700    133.30317   -823.19336    143275.09   -39707.764    2681.7247   -42389.489    46.902819    225.53599 
   10750    133.49215   -759.17099    143252.32     -39703.9    2685.5266   -42389.426    47.076113    225.85573 
   10800    131.97613   -634.06697    143216.13    -39697.93     2655.028   -42352.958    47.401499    223.29077 
   10850    129.89085   -745.22757    143185.34   -39679.525    2613.0774   -42292.602    47.537498    219.76268 
   10900     131.6402   -740.51093    143140.37   -39728.684    2648.2701   -42376.954     47.62191    222.72242 
   10950    130.97092   -738.73327    143115.59   -39703.527    2634.8057   -42338.333    47.943514    221.59005 
   11000    131.33251   -435.02282    143171.25   -39677.344    2642.0801   -42319.424     48.05226    222.20184 
   11050    131.31942   -697.94048    143251.28   -39716.524    2641.8167   -42358.341    48.360631    222.17968 
   11100     132.9676   -802.42058    143245.48   -39661.118     2674.974   -42336.092    48.617777    224.96825 
   11150    134.93347   -607.51515    143247.48   -39656.564    2714.5224   -42371.087     48.63809    228.29431 
   11200    134.76755   -668.80335    143277.83    -39617.35    2711.1845   -42328.535    48.867007    228.01359 
   11250    132.78979   -720.43928    143229.67   -39597.821    2671.3968   -42269.218    49.121616     224.6674 
   11300    132.48528   -725.08886    143254.63    -39642.69    2665.2709   -42307.961     49.27293     224.1522 
   11350    129.29256   -828.59428    143207.53   -39674.419    2601.0413    -42275.46    49.503987    218.75043 
   11400    131.15225   -778.68783    143193.85   -39706.203    2638.4537   -42344.657    49.794737    221.89685 
   11450    131.27086   -953.87836    143151.68   -39668.674    2640.8397   -42309.514    50.083777    222.09752 
   11500    132.99924   -859.61198     143073.4   -39688.066    2675.6105   -42363.676    50.356799    225.02178 
   11550    134.35023   -857.90645    143052.63   -39578.945     2702.789   -42281.734    50.505223    227.30752 
   11600    133.75098   -683.50904       143065   -39611.422    2690.7335   -42302.155    50.654336    226.29364 
   11650      131.208   -689.38718    143085.21   -39626.513    2639.5752   -42266.088    50.855988    221.99117 
   11700     129.3807   -880.16998    143051.28   -39625.385    2602.8146     -42228.2    51.022122    218.89956 
   11750    131.91894   -806.95656    142977.43   -39607.182    2653.8775    -42261.06    51.310565    223.19401 
   11800    134.11023   -907.85951    142928.22   -39556.118    2697.9609   -42254.079    51.439997    226.90147 
   11850     130.8531   -971.89835       142829   -39552.897    2632.4356   -42185.333    51.641793    221.39073 
   11900    133.69981   -759.29866    142754.84   -39552.781    2689.7041   -42242.485     51.98971    226.20707 
   11950    133.92577   -769.87819    142737.81   -39569.584      2694.25   -42263.834    52.048084    226.58938 
   12000    134.78636    -690.6127    142715.28   -39579.335    2711.5629   -42290.898    52.451994    228.04541 
   12050    133.79429   -825.14752    142712.34   -39574.363    2691.6048   -42265.968    52.586816    226.36692 
   12100    130.69942   -738.24583    142695.33   -39658.853    2629.3438   -42288.197    52.798827     221.1307 
   12150    131.84957   -547.58196    142717.23   -39606.731    2652.4819   -42259.213    52.904398    223.07664 
   12200      137.099    -763.8509     142755.3   -39636.043    2758.0873   -42394.131    52.937763    231.95817 
   12250    134.85855     -744.761    142763.93   -39628.241    2713.0151   -42341.256    52.990342    228.16754 
   12300    135.33509   -612.51953    142744.98   -39576.204     2722.602   -42298.806    53.192259    228.97381 
   12350    131.21572   -725.08963    142741.19   -39640.379    2639.7306    -42280.11    53.390225    222.00424 
   12400    130.82638   -474.01033    142673.22   -39647.376    2631.8979   -42279.274    53.546115    221.34551 
   12450    131.20707   -551.34209    142782.02   -39650.284    2639.5566   -42289.841    53.673195     221.9896 
   12500    134.78859   -669.43005    142887.86   -39546.161    2711.6077   -42257.768    53.603866    228.04919 
   12550     132.3727    -556.5306    142953.12   -39568.064     2663.006    -42231.07    53.843835    223.96173 
   12600    133.07962   -721.07672    142967.31   -39557.606    2677.2275   -42234.834    54.009764    225.15777 
   12650     132.4366   -592.09157     142982.1    -39559.01    2664.2915   -42223.301    54.146229    224.06984 
   12700    137.56076   -474.56441    143032.31   -39523.692    2767.3767   -42291.069     54.42986    232.73942 
   12750    134.91828   -613.26612     143091.2   -39479.981    2714.2168   -42194.197    54.588097    228.26861 
   12800    134.41847   -382.44332    143037.87   -39509.633    2704.1617   -42213.794    54.490705    227.42297 
   12850    134.51578   -568.55662    143024.13   -39532.152    2706.1194   -42238.272    54.969256    227.58761 
   12900     135.5961   -853.71158    142974.11   -39514.859    2727.8528   -42242.712    55.139852    229.41541 
   12950    134.62912   -527.62333    142946.07   -39490.458    2708.3995   -42198.858    55.363043    227.77937 
   13000     134.0208   -626.96923    142976.98   -39451.131    2696.1618   -42147.293    55.640003    226.75016 
   13050    134.31861   -767.59768    142925.05   -39471.606    2702.1529   -42173.759    55.906972    227.25402 
   13100    135.47757   -734.46289    142893.43   -39473.215    2725.4682   -42198.684    56.225858    229.21487 
   13150    132.97106   -559.01748    142896.91   -39518.462    2675.0437   -42193.506    56.551904    224.97411 
   13200    134.66789   -739.72324    142862.85   -39480.585    2709.1795   -42189.764    56.808988    227.84497 
   13250    132.34147   -554.95936    142950.86   -39565.228    2662.3777   -42227.606    56.996289    223.90889 
   13300    133.39563   -715.58009    142976.44   -39586.994    2683.5849   -42270.579    57.160503    225.69244 
   13350     133.2095   -638.89898    142987.49   -39583.592    2679.8403   -42263.433    57.378527    225.37751 
   13400    133.51413   -532.18861    143022.06   -39578.807    2685.9688   -42264.776    57.365813    225.89292 
   13450    136.53319   -721.87043    142988.25   -39560.077    2746.7047   -42306.782    57.620678    231.00088 
   13500    134.12487   -702.75122    142957.64   -39590.045    2698.2553     -42288.3    57.821446    226.92623 
   13550    132.97638   -458.80501    142962.31   -39593.948    2675.1507   -42269.098    58.191095    224.98311 
   13600    131.15572   -337.18338    143072.68   -39647.855    2638.5235   -42286.378    58.196643    221.90272 
   13650    131.81217   -794.48208    143131.16   -39609.144    2651.7296   -42260.873    58.262783    223.01337 
   13700    132.82361   -505.85981    143091.34   -39601.228    2672.0773   -42273.305    58.286777    224.72463 
   13750    133.81445   -763.14496    143152.79   -39623.471    2692.0104   -42315.482    58.348828    226.40103 
   13800    134.14621   -672.78147    143264.35   -39587.426    2698.6846   -42286.111    58.489798    226.96233 
   13850    130.42763   -602.03542    143214.25   -39606.663    2623.8762   -42230.539     58.63875    220.67087 
   13900    134.61518   -706.20583    143221.03   -39598.093     2708.119   -42306.212    58.958529    227.75578 
   13950    132.12122    -521.4544    143278.07   -39625.013    2657.9469    -42282.96    58.905631    223.53625 
   14000    132.93424   -648.70378    143316.75    -39607.44    2674.3029   -42281.743    59.298686     224.9118 
   14050     132.5649    -678.6592    143255.56   -39605.535    2666.8727   -42272.408    59.570992    224.28692 
   14100    130.47774   -697.84294    143198.13   -39634.128    2624.8842   -42259.012    59.818061    220.75564 
   14150    130.02819   -589.84946    143097.87   -39638.163    2615.8404   -42254.003    59.931221    219.99505 
   14200    134.92753   -510.67875    143050.79   -39606.497    2714.4028     -42320.9     59.81614    228.28426 
   14250    132.56696   -711.46739     143066.1    -39627.74     2666.914   -42294.654    59.768191     224.2904 
   14300    127.92378   -685.72595    143042.56   -39664.586     2573.505   -42238.091    59.971624     216.4346 
   14350    132.50571   -681.66992    143095.14   -39681.088    2665.6819    -42346.77    60.274342    224.18677 
   14400    131.76568   -906.77733    143031.48   -39667.905    2650.7943   -42318.699    60.399277    222.93471 
   14450    133.16258   -525.26611    142979.12   -39648.622    2678.8964   -42327.519    60.659633    225.29813 
   14500    131.36625   -673.94473    142960.37   -39625.742    2642.7588   -42268.501    60.694022    222.25891 
   14550    131.26111   -714.82288    142931.69    -39602.41    2640.6437   -42243.053    60.821498    222.08103 
   14600    133.99663   -747.75215    142889.06    -39555.62    2695.6754   -42251.296    60.876563    226.70926 
   14650    136.51348   -696.52479     142856.3   -39495.606    2746.3081   -42241.914     60.74113    230.96753 
   14700    137.34554   -660.79653    142858.14   -39440.469    2763.0472   -42203.516    61.226343     232.3753 
   14750    136.01605   -696.46996    142890.03   -39424.364    2736.3011   -42160.665    61.410728    230.12592 
   14800    136.07618   -622.52705    142862.95   -39443.883    2737.5108   -42181.394    61.662763    230.22766 
   14850    134.36536   -595.74341    142904.97   -39418.841    2703.0934   -42121.935     62.07588    227.33312 
   14900    137.20211   -574.93515     142894.4    -39441.46    2760.1617   -42201.622    62.372665    232.13263 
   14950     133.0931   -671.64876    142930.66   -39439.941    2677.4987   -42117.439    62.449892    225.18058 
   15000     134.5629   -753.79476    142892.01   -39515.356    2707.0674   -42222.423    62.649973    227.66733 
   15050    133.89911   -694.58395    142853.24   -39559.907    2693.7137   -42253.621     62.79744    226.54428 
   15100    131.81572   -768.01927    142898.73    -39577.92     2651.801   -42229.721    63.052379    223.01937 
   15150    133.45493   -749.66939     142829.9   -39515.957    2684.7778   -42200.735    63.287436    225.79276 
   15200    131.98248   -635.44603    142799.11   -39514.405    2655.1559   -42169.561    63.646096    223.30152 
   15250    132.99723    -900.4114    142762.62   -39531.285      2675.57   -42206.855    64.000569    225.01837 
   15300    134.57206   -694.93088    142694.42   -39520.648    2707.2517     -42227.9    64.216568    227.68284 
   15350    132.14408   -657.04254     142742.4   -39550.688    2658.4067   -42209.094    64.422866    223.57492 
   15400    134.24229   -762.97151    142729.88   -39541.347    2700.6176   -42241.965    64.702242     227.1249 
   15450    133.48338   -667.71811    142713.31   -39561.768    2685.3501   -42247.118    64.814696    225.84089 
   15500    134.54982   -643.70911     142773.9    -39555.86    2706.8043   -42262.664    64.871121    227.64522 
   15550    134.07288   -723.76592    142745.91   -39585.833    2697.2094   -42283.043    64.909103    226.83827 
   15600    133.29692   -565.00689    142741.41   -39580.149    2681.5991   -42261.748    65.144686    225.52542 
   15650    132.17383   -604.44045    142729.45   -39586.467    2659.0053   -42245.473    65.231075    223.62527 
   15700    130.92177   -611.65402    142744.04   -39603.986    2633.8171   -42237.803    65.561989    221.50691 
   15750     132.3655   -483.96616    142811.62   -39635.834    2662.8611   -42298.695    65.894846    223.94954 
   15800    130.78657   -666.06686    142795.47   -39655.111    2631.0972   -42286.209    65.957823    221.27816 
   15850     132.3145   -650.97813     142804.5   -39657.991    2661.8353   -42319.826     66.11487    223.86327 
   15900    133.55648   -694.46839    142831.29   -39586.655    2686.8208   -42273.476    66.247322    225.96458 
   15950    134.64753   -637.55321    142798.59   -39637.076    2708.7699   -42345.845    66.231674    227.81052 
   16000    132.05626   -603.97925    142816.98   -39613.365    2656.6401   -42270.005    66.385669    223.42635 
   16050    131.93788   -558.09282    142819.22   -39648.126    2654.2586   -42302.385     66.35862    223.22606 
   16100    132.52473   -674.45805    142836.41   -39611.892    2666.0646   -42277.956      66.6532    224.21896 
   16150     134.1664    -632.2299    142895.41   -39605.484    2699.0908   -42304.575    66.766373    226.99649 
   16200     136.4185   -702.56948    142917.58   -39562.651    2744.3974   -42307.049    66.920424    230.80684 
   16250    133.70252   -447.33537    142935.76   -39550.706    2689.7587   -42240.465    66.782917    226.21166 
   16300    134.35361   -634.32833    142965.39   -39535.424     2702.857   -42238.281    66.619866    227.31324 
   16350    134.27417   -471.35638    142921.97   -39539.181     2701.259    -42240.44    66.766858    227.17884 
   16400    133.77419   -717.03904    142905.29   -39541.168    2691.2004   -42232.369    66.865653    226.33291 
   16450    133.58955   -651.22031    142852.04   -39597.769     2687.486   -42285.255    67.234623    226.02052 
   16500    133.67414   -665.01093    142801.02   -39637.217    2689.1878   -42326.405    67.246086    226.16365 
   16550    131.75846   -748.98872     142734.8   -39643.717    2650.6491   -42294.366    67.462973     222.9225 
   16600    133.37176   -643.38031    142681.33   -39659.185    2683.1046    -42342.29    67.701692    225.65204 
   16650    129.14413   -569.69954    142662.33   -39701.188    2598.0554   -42299.243    67.741575    218.49931 
   16700    131.92332   -865.11933    142606.21   -39672.219    2653.9657   -42326.185    68.048788    223.20143 
   16750    132.77345   -602.28603    142609.46   -39678.219    2671.0681   -42349.287    68.362418    224.63976 
   16800    130.62241   -390.43983    142713.24   -39691.858    2627.7946   -42319.653    68.482135    221.00041 
   16850     132.4005   -515.95146    142889.47   -39644.356    2663.5653   -42307.921    68.595606    224.00877 
   16900    131.01019   -909.88157    142868.69   -39731.051    2635.5958   -42366.647    69.130273     221.6565 
   16950    130.21238   -551.12401    142814.13   -39697.894    2619.5459   -42317.439    69.415279    220.30668 
   17000    131.10714   -758.14818    142797.43   -39690.572    2637.5462   -42328.118    69.650086    221.82053 
   17050    134.92384   -683.24914    142752.04   -39663.543    2714.3285   -42377.872    69.915438    228.27801 
   17100    132.27855    -587.7256    142736.82   -39619.494     2661.112   -42280.606    69.846769    223.80244 
   17150     134.3154    -679.2963    142768.36   -39615.164    2702.0883   -42317.253    69.838593    227.24859 
   17200    134.23071   -660.54089    142832.25   -39603.732    2700.3846   -42304.117    70.056306    227.10531 
   17250    132.70198   -559.72293    142817.05   -39667.494    2669.6303   -42337.125    70.222907    224.51884 
   17300    134.80762   -626.19533    142798.95   -39647.058    2711.9905   -42359.049    70.583015    228.08137 
   17350    134.17677      -681.76    142834.61   -39627.669    2699.2994   -42326.969     70.67847    227.01404 
   17400     134.0349   -624.16605    142833.49   -39644.058    2696.4454   -42340.504    70.908268    226.77402 
   17450    130.57018    -731.9781     142794.6   -39637.226    2626.7439    -42263.97    71.207176    220.91205 
   17500    135.27838   -874.41406    142713.63   -39648.388    2721.4611    -42369.85    71.379585    228.87787 
   17550    131.71554   -674.57575    142682.26    -39660.64    2649.7856   -42310.426    71.514483    222.84988 
   17600    134.98996   -522.94054    142722.71   -39619.285    2715.6588   -42334.943    71.537384    228.38988 
   17650    130.90764   -585.95512    142753.96    -39686.85    2633.5327   -42320.383    71.754523    221.48299 
   17700    131.77695   -658.52588    142740.33   -39672.118    2651.0211   -42323.139    72.101262    222.95378 
   17750    132.76298   -544.48991    142769.06   -39754.155    2670.8575   -42425.012    72.151951    224.62204 
   17800    133.19083   -588.34479    142843.79   -39708.014    2679.4647   -42387.478    72.476652    225.34592 
   17850    130.34952   -542.15077    142852.35   -39741.559    2622.3047   -42363.864    72.680667    220.53871 
   17900    131.73129   -539.50746     142900.6   -39742.543    2650.1025   -42392.646    72.740546    222.87653 
   17950    131.99084   -745.53748    142963.86   -39752.145    2655.3241   -42407.469    72.788704    223.31567 
   18000    129.66765   -543.28531     143030.6    -39707.76    2608.5873   -42316.348    73.037522    219.38506 
   18050     132.7914   -751.82288    143041.79   -39701.552    2671.4293   -42372.982    73.148486    224.67014 
   18100    130.51919    -417.4008       143040   -39700.794    2625.7181   -42326.512    73.135698    220.82577 
   18150    133.94246   -542.14056    143038.46   -39705.305    2694.5857    -42399.89    73.195456    226.61761 
   18200    130.79736   -678.79629    143050.62   -39694.217    2631.3142   -42325.531    73.246918    221.29641 
   18250    132.63649   -491.39232    143116.21   -39677.328    2668.3129   -42345.641    73.405192    224.40804 
   18300    133.15269    -571.4369    143129.51   -39659.195    2678.6976   -42337.892    73.317291    225.28141 
   18350     133.9206   -690.12872     143159.4   -39609.969    2694.1459   -42304.115    73.494046    226.58063 
   18400    133.79146   -741.70828    143081.66   -39628.785     2691.548   -42320.333    73.840345    226.36214 
   18450    134.79028   -589.93335    143135.45   -39606.378    2711.6418    -42318.02    74.120442    228.05205 
   18500    135.40064   -880.51501     143133.9   -39619.972    2723.9207   -42343.892    74.309093    229.08472 
   18550    132.85099   -678.36707    142998.19   -39618.242     2672.628    -42290.87    74.435194    224.77095 
   18600    133.46116    -545.7946    142994.24   -39679.659    2684.9031   -42364.562    74.456764     225.8033 
   18650    130.25556   -562.23749    143016.14   -39716.739    2620.4145   -42337.153    74.558288    220.37973 
   18700    132.48047   -694.07049    143042.34   -39671.449     2665.174   -42336.623    74.710629    224.14406 
   18750    131.65817     -498.913    143004.65   -39669.481    2648.6316   -42318.113    74.881534    222.75283 
   18800    133.40152   -634.88222    142962.61   -39684.936    2683.7034   -42368.639    75.018823     225.7024 
   18850    129.60695   -534.14208    142999.77   -39696.958    2607.3662   -42304.325    75.205717    219.28236 
   18900    129.50994   -537.75795    143000.41   -39704.982    2605.4145   -42310.396    75.563354    219.11822 
   18950    132.66969     -596.592    142989.18   -39667.961    2668.9807   -42336.941    75.773647    224.46421 
   19000    133.53659   -737.75659    143071.53   -39653.693    2686.4207   -42340.113     75.78919    225.93093 
   19050    133.01667   -833.77407    143058.81   -39672.388    2675.9612   -42348.349    75.849356    225.05127 
   19100    132.57331   -717.57989    143085.04   -39672.935    2667.0418   -42339.976    75.736409    224.30114 
   19150    131.44383   -625.38042    143102.72   -39659.806    2644.3196   -42304.125    76.039037    222.39018 
   19200    134.11348    -670.6622    143087.82   -39667.722    2698.0262   -42365.749    76.234059    226.90696 
   19250    133.19939   -651.25643    143118.01    -39647.25     2679.637   -42326.887    76.507123    225.36041 
   19300    131.58281   -472.57748    143111.08   -39656.169    2647.1155   -42303.284    76.531002    222.62532 
   19350    133.88272   -690.28542    143113.94   -39612.947    2693.3839   -42306.331    76.629116    226.51654 
   19400    133.65262   -643.07881    143173.28   -39688.544    2688.7548   -42377.299    76.770193    226.12723 
   19450    127.25506    -515.6633    143123.35   -39706.789     2560.052   -42266.841     76.98998    215.30318 
   19500    134.16742   -630.00482    143115.56   -39699.787    2699.1114   -42398.899    77.085986    226.99823 
   19550    130.82424    -573.1822    143054.08   -39712.343    2631.8549   -42344.197    77.284399    221.34188 
   19600    133.75928   -818.12308     142985.8   -39655.227    2690.9006   -42346.127    77.610192    226.30769 
   19650    132.46156   -613.36811    142991.61   -39642.242    2664.7937   -42307.036    77.605647    224.11208 
   19700    132.93257   -635.90267    142964.31    -39648.06    2674.2693   -42322.329    77.942741    224.90898 
   19750     134.9318   -753.96647    143001.38   -39648.043    2714.4887   -42362.531    78.245245    228.29148 
   19800    132.41854    -531.2421    143045.25   -39678.179    2663.9283   -42342.108    78.569705    224.03929 
   19850    132.38003   -792.85785    143076.99   -39746.091    2663.1536   -42409.245    78.913821    223.97414 
   19900     131.5576   -639.19734    143076.17   -39761.034    2646.6084   -42407.642    79.150917    222.58267 
   19950    129.92776   -648.76886    143104.71     -39747.2    2613.8201   -42361.021    79.289875    219.82514 
   20000    131.03769   -415.77151    143167.03   -39743.566     2636.149   -42379.715     79.47665    221.70303 
   20050    132.37096   -647.58283    143233.63   -39708.304    2662.9712   -42371.275    79.760234     223.9588 
   20100    129.64867   -602.16781    143189.57    -39685.77    2608.2055   -42293.976    79.898163    219.35294 
   20150    131.51474    -697.8892    143179.52   -39713.159    2645.7461   -42358.905    79.778601    222.51015 
   20200    135.42932   -643.16354    143210.48   -39696.518    2724.4977   -42421.016    79.558157    229.13324 
   20250    135.83691   -542.50465    143221.99   -39657.621    2732.6972   -42390.318    79.723008    229.82283 
   20300    134.01871   -850.30361    143234.71    -39671.77    2696.1197   -42367.889     79.90303    226.74662 
   20350    134.05821   -624.54942    143256.05    -39652.28    2696.9142   -42349.194    80.013381    226.81344 
   20400    135.62305   -454.27112    143321.88   -39671.948     2728.395   -42400.343    80.162175    229.46102 
   20450    132.88609   -579.00029    143401.54   -39647.071    2673.3342   -42320.405    80.450901    224.83034 
   20500    134.29247   -630.69116    143489.34   -39683.717     2701.627   -42385.344    80.698489    227.20979 
   20550    134.74169   -587.46745    143449.84   -39691.289    2710.6641   -42401.953    80.726627    227.96983 
   20600    131.82058   -718.05513    143435.08    -39713.23    2651.8989   -42365.129    80.919975    223.02761 
   20650     133.2085   -679.15011    143409.19   -39678.376    2679.8202   -42358.196     80.83846    225.37582 
   20700    133.97553   -675.44357    143434.29   -39651.262    2695.2509   -42346.513    80.940683    226.67356 
   20750    135.69557   -780.96216     143399.9   -39614.573    2729.8539   -42344.427     81.26383    229.58371 
   20800    134.49785   -606.26907     143385.3   -39587.886    2705.7588   -42293.645    81.629477    227.55728 
   20850      132.846   -647.43234    143379.44   -39565.761    2672.5278   -42238.289    81.735896    224.76252 
   20900    131.46003   -694.47229    143365.65   -39616.152    2644.6455   -42260.797    81.896908    222.41759 
   20950    132.71588   -667.95476     143327.9    -39642.99    2669.9101     -42312.9    81.900462    224.54237 
   21000    134.06591    -732.9735    143375.29    -39647.93    2697.0692   -42344.999    82.153512    226.82648 
   21050    134.10821   -774.60494    143268.12   -39605.418    2697.9202   -42303.338    82.512414    226.89805 
   21100    132.62753   -870.65778    143231.09   -39573.197    2668.1326   -42241.329    82.720485    224.39288 
   21150    134.07731   -820.84857    143179.85   -39606.452    2697.2985   -42303.751    83.010726    226.84576 
   21200    132.76935   -730.41033    143152.94   -39568.272    2670.9857   -42239.258    83.269023    224.63283 
   21250    133.57481   -791.28859    143184.85   -39586.889    2687.1895   -42274.079    83.233297    225.99558 
   21300    131.96559   -937.58141    143238.94   -39577.467     2654.816   -42232.283    83.261998    223.27294 
   21350    133.00632   -797.12265    143123.87   -39657.884     2675.753   -42333.637    83.707587    225.03376 
   21400    134.95995   -746.36594    143084.99   -39616.571    2715.0551   -42331.626     84.06088    228.33911 
   21450    131.66522   -715.60481    143043.64    -39604.45    2648.7733   -42253.224    84.290219    222.76474 
   21500    134.86774   -768.52956    143003.11   -39618.276    2713.2001   -42331.476    84.225837     228.1831 
   21550    134.34573   -547.39738       143003   -39614.132    2702.6984    -42316.83    84.647487     227.2999 
   21600     132.0097   -617.85052    143047.11   -39616.238    2655.7034   -42271.941    84.870236    223.34757 
   21650    131.45871   -856.94275    143051.14   -39694.703    2644.6189   -42339.322    84.912592    222.41535 
   21700     133.6651   -722.03278    142976.98   -39700.346    2689.0059   -42389.351    85.158138    226.14834 
   21750    132.11567   -704.40195    142943.75   -39644.384    2657.8352   -42302.219    85.369789    223.52686 
   21800     131.5126   -768.81665    142979.32   -39611.723    2645.7031   -42257.426    85.483189    222.50653 
   21850    135.52625   -534.23161     142996.8   -39624.233    2726.4476    -42350.68    85.817446    229.29723 
   21900    132.30025   -713.82055    142895.58   -39629.882    2661.5485    -42291.43    86.223182    223.83915 
   21950    132.53512   -733.76306    142886.25   -39655.382    2666.2735   -42321.656    86.544843    224.23653 
   22000    136.31123   -686.60728     142775.2   -39583.064    2742.2394   -42325.303    86.675126    230.62534 
   22050    135.58971   -683.17036    142783.17   -39617.392    2727.7243   -42345.116    86.692618     229.4046 
   22100    131.59204   -569.24882    142794.68   -39619.699    2647.3012       -42267    87.021562    222.64094 
   22150    133.75027   -708.72851    142812.43   -39606.919    2690.7194   -42297.638    87.229061    226.29245 
   22200    134.03282   -589.56005    142908.04   -39628.427    2696.4035   -42324.831    87.209998     226.7705 
   22250    131.76051   -728.02082     142931.9   -39603.313    2650.6903   -42254.003    87.400807    222.92596 
   22300    132.74168   -566.60998    142877.65   -39607.544    2670.4289   -42277.973    87.424492      224.586 
   22350    133.57226   -579.56179    142910.61   -39570.957    2687.1382   -42258.095    87.875304    225.99127 
   22400    133.65475   -674.03549     142935.8   -39580.299    2688.7976   -42269.096    87.982005    226.13083 
   22450    132.53644   -593.47605    142867.05   -39530.483    2666.3001   -42196.783    88.084478    224.23877 
   22500    137.11303   -748.95299    142827.36   -39514.757    2758.3696   -42273.126      88.2668    231.98191 
   22550    133.90285   -596.67167     142800.9   -39569.175    2693.7888   -42262.963    88.532982    226.55059 
   22600    134.41906   -816.75035    142791.29   -39612.087    2704.1738   -42316.261    88.988838    227.42398 
   22650    133.38009   -656.76892    142708.45   -39576.291    2683.2723   -42259.563    89.375351    225.66614 
   22700    132.88537   -597.01277    142755.71   -39622.105    2673.3198   -42295.425     89.55885    224.82913 
   22750     132.6697   -905.88479    142804.81   -39644.157     2668.981   -42313.138    89.599631    224.46423 
   22800    131.37541   -662.81312    142841.54   -39661.937    2642.9431    -42304.88    89.818832    222.27442 
   22850    130.98585   -639.37935    142871.54   -39716.664    2635.1061    -42351.77    89.929788    221.61532 
   22900    132.87286   -655.71359       142865   -39690.789     2673.068   -42363.857    90.085298    224.80795 
   22950    132.45458   -697.48935    142797.12   -39699.218    2664.6534   -42363.871    90.208107    224.10027 
   23000    132.73562   -597.96791    142831.41   -39639.458    2670.3071   -42309.765    90.511831    224.57576 
   23050    134.37249   -623.26926     142869.4   -39641.532    2703.2367   -42344.769    90.874611    227.34518 
   23100    132.97794   -554.48494    142954.93   -39621.706    2675.1821   -42296.888    91.115904    224.98575 
   23150    132.15627   -584.77348    143061.56   -39630.642     2658.652   -42289.294    91.051087    223.59555 
   23200    131.88067   -651.44143    143129.93   -39667.435    2653.1078   -42320.543    91.232801    223.12927 
   23250    131.56906   -763.48285     143143.5    -39623.13    2646.8389   -42269.969    91.254694    222.60205 
   23300    132.07272   -601.51659    143118.21   -39598.296    2656.9713   -42255.267    91.391732     223.4542 
   23350    133.07491   -743.86474    143067.56   -39586.413    2677.1329   -42263.546    91.578873    225.14981 
   23400    133.53466   -797.14565     143024.2   -39612.483    2686.3819   -42298.865    91.843095    225.92766 
   23450    135.19172   -825.04094    142969.59   -39569.288    2719.7178   -42289.006    92.133005    228.73125 
   23500    132.87957   -745.78157    142919.08   -39586.237     2673.203    -42259.44    92.454638    224.81931 
   23550    133.10971    -726.2977    142868.04   -39584.483    2677.8328   -42262.316     92.74388    225.20868 
   23600     132.1015   -634.13381    142823.33   -39578.067    2657.5502   -42235.617    92.763351    223.50289 
   23650    134.24125   -436.07934    142932.11   -39546.812    2700.5966   -42247.409    92.964316    227.12314 
   23700    132.54229    -879.9649    142980.86   -39557.481    2666.4177   -42223.899     93.17174    224.24866 
   23750    130.85343   -654.25243     142967.5   -39555.588    2632.4421    -42188.03    93.473464    221.39127 
   23800    132.90081   -716.86555    142988.03   -39583.118    2673.6303   -42256.749    93.587485    224.85524 
   23850    135.52638    -564.1377    142970.35   -39587.765    2726.4502   -42314.215    93.732784    229.29745 
   23900    132.43261    -582.7926    142985.65   -39640.348    2664.2113   -42304.559    94.046608    224.06309 
   23950    131.69231   -710.57213    143026.03    -39671.91    2649.3184   -42321.228    94.135331    222.81058 
   24000    130.22888   -755.37237    143050.18   -39684.135    2619.8779   -42304.012    94.288656     220.3346 
   24050    133.14229   -624.85768    143093.23   -39692.085    2678.4883   -42370.573     94.48223     225.2638 
   24100    131.80282   -611.49694     143103.2    -39637.46    2651.5415   -42289.001    94.490705    222.99755 
   24150     131.7462   -479.99322    143089.53   -39685.471    2650.4024   -42335.873     94.83847    222.90175 
   24200    131.60337   -579.54177     143100.6   -39674.554    2647.5291   -42322.083    95.122083     222.6601 
   24250    134.91725    -652.7409    143092.86   -39639.241    2714.1959   -42353.437     95.12091    228.26686 
   24300    132.12735   -579.67016    143141.58   -39689.094    2658.0703   -42347.164    95.220123    223.54663 
   24350    132.43928   -672.85427    143194.17   -39652.661    2664.3454   -42317.006    95.199834    224.07437 
   24400    131.38941   -605.22804    143230.67    -39617.27    2643.2247   -42260.495    95.538588     222.2981 
   24450    134.74085   -826.26506    143193.86   -39628.723    2710.6473    -42339.37     95.84942    227.96841 
   24500    134.61818   -775.39018    143179.67   -39676.511    2708.1796   -42384.691    95.756626    227.76087 
   24550    133.18557   -697.56966    143150.25    -39710.04    2679.3589   -42389.399    95.921709    225.33702 
   24600    133.12851   -714.76285    143148.32   -39691.018    2678.2111   -42369.229    96.210133    225.24049 
   24650    131.63786   -786.63412    143126.65   -39703.764    2648.2229   -42351.987    96.296151    222.71846 
   24700    132.39921   -615.55423    143093.68   -39748.739    2663.5393   -42412.278    96.665732    224.00658 
   24750    133.21784   -660.16292    143117.07   -39739.772    2680.0082   -42419.781     96.94228    225.39163 
   24800    132.68488   -782.61353    143149.86   -39654.105    2669.2864   -42323.391    97.098812    224.48991 
   24850    130.94224   -578.85313    143155.79   -39691.677    2634.2288   -42325.906    97.083792    221.54154 
   24900    131.50915   -713.34045    143171.75    -39736.24    2645.6336   -42381.874    97.258909    222.50069 
   24950    131.82741    -774.2213     143159.1   -39735.338    2652.0362   -42387.375    97.363642    223.03916 
   25000    133.79795   -770.18406     143157.1   -39664.285    2691.6785   -42355.964    97.682201    226.37312 
   25050    133.41972   -714.74522    143156.73   -39720.138    2684.0694   -42404.208    98.001131    225.73318 
   25100    132.01211   -679.00929    143175.85   -39720.091    2655.7519   -42375.843    98.175569    223.35165 
   25150    131.74566   -881.24172    143158.79   -39739.864    2650.3916   -42390.255    98.347736    222.90084 
   25200    130.58367   -591.49915    143114.39   -39782.184    2627.0153   -42409.199    98.624175    220.93487 
   25250    132.79504   -693.39078    143238.78   -39716.606    2671.5026   -42388.109    98.648834     224.6763 
   25300    130.67727   -731.11945    143251.24   -39688.183    2628.8983   -42317.081    98.843446    221.09323 
   25350    132.85214    -679.9678    143245.15   -39698.276    2672.6513   -42370.927    99.062164    224.77291 
   25400    130.22013   -717.75425    143242.98    -39684.73    2619.7018   -42304.432    99.010042     220.3198 
   25450    134.27921   -600.36588    143272.16   -39670.047    2701.3602   -42371.407    99.232319    227.18736 
   25500    134.91223   -737.71681    143230.68   -39663.267     2714.095   -42377.362    99.094055    228.25837 
   25550    130.79315   -657.70105    143167.73    -39705.25    2631.2294   -42336.479    99.215102    221.28928 
   25600    129.59882   -712.75828       143057   -39721.036    2607.2026   -42328.239    99.308992     219.2686 
   25650    131.83738   -822.05636    143030.96   -39672.836    2652.2367   -42325.072    99.467523    223.05602 
   25700    132.97426   -609.93838    143066.59   -39662.747     2675.108   -42337.855     99.67753    224.97952 
   25750    132.23915   -790.44906    143173.94   -39605.471    2660.3193    -42265.79    99.714693    223.73577 
   25800    131.94388   -531.39145    143179.58   -39620.522    2654.3792   -42274.902    99.767518    223.23621 
   25850    134.96608   -613.90354    143161.38    -39572.94    2715.1784   -42288.119    100.04481    228.34949 
   25900     133.6665   -713.36784       143101   -39560.669    2689.0341   -42249.703    100.41175    226.15072 
   25950    136.26186    -710.6812    143053.24   -39544.024    2741.2463    -42285.27    100.46029    230.54182 
   26000    131.65582   -698.27814    142992.95   -39599.815    2648.5842   -42248.399    100.51326    222.74883 
   26050    134.39108   -646.06126    142944.47   -39604.037    2703.6109   -42307.648    100.77375    227.37664 
   26100    132.35069   -676.83689    142937.29   -39613.687    2662.5634   -42276.251    101.11344     223.9245 
   26150    131.23753   -512.75921    142937.38    -39570.85    2640.1693   -42211.019    101.37159    222.04114 
   26200    132.47961   -740.81501    142945.59   -39590.956    2665.1569   -42256.113    101.47208    224.14262 
   26250    133.39933   -568.10039    142906.38   -39611.343    2683.6594   -42295.002    101.47677     225.6987 
   26300     131.7617   -748.01247     142943.5   -39599.633    2650.7142   -42250.347    101.47258    222.92797 
   26350    134.17131   -771.44418    142910.06   -39618.821    2699.1896   -42318.011    101.59006    227.00481 
   26400     131.6659   -639.63602    142884.06   -39629.191     2648.787   -42277.978    101.76066     222.7659 
   26450    128.29559   -553.19883    142896.97   -39655.041    2580.9849   -42236.026    101.99887    217.06366 
   26500    129.29708   -632.35693    142932.95   -39614.951    2601.1324   -42216.083    102.26089    218.75809 
   26550    130.91328   -515.94836    142888.07   -39587.645    2633.6463   -42221.291    102.57458    221.49254 
   26600     132.3549   -755.05888    142846.47   -39525.894     2662.648   -42188.542    102.91184    223.93162 
   26650     134.1397   -766.01916    142767.99   -39527.985    2698.5537   -42226.539     103.3042    226.95133 
   26700    130.22362   -654.66957    142828.87   -39579.026    2619.7719   -42198.798    103.42445    220.32569 
   26750    133.22334   -628.97075       142817   -39571.262    2680.1189   -42251.381    103.79691    225.40094 
   26800    132.37688   -594.43503    142780.24   -39548.018    2663.0901   -42211.109    104.22997     223.9688 
   26850    133.07189   -734.90684    142898.83   -39576.151     2677.072   -42253.223    104.44871     225.1447 
   26900    130.05371   -711.93898    142975.81   -39612.978    2616.3538   -42229.331    104.81833    220.03822 
   26950     129.9241   -700.27097    143016.32   -39589.191    2613.7463   -42202.937    105.05835    219.81894 
   27000    129.91639   -720.04517    143057.99   -39608.477    2613.5913   -42222.069    105.44302    219.80589 
   27050    131.88577   -799.04213    143056.42   -39595.366    2653.2102   -42248.576    105.84697    223.13789 
   27100    134.51532   -707.18398    143070.23   -39569.865    2706.1102   -42275.975    105.99803    227.58683 
   27150    136.42038   -596.97947    143129.67   -39548.206    2744.4352   -42292.641    106.26619    230.81001 
   27200    133.84556   -752.22495    143175.05   -39617.433    2692.6363   -42310.069    106.31487    226.45367 
   27250    132.90169   -705.42793    143196.39    -39616.02    2673.6479   -42289.668     106.3252    224.85672 
   27300    134.22468   -581.50501    143292.42   -39550.727    2700.2633    -42250.99    106.45808    227.09511 
   27350    132.70394   -972.84217    143255.56   -39607.924    2669.6699   -42277.594    106.75869    224.52216 
   27400    131.32031   -628.82129    143142.86   -39658.103    2641.8347   -42299.938    106.81561     222.1812 
   27450    133.56631   -758.69371    143109.52   -39642.577    2687.0184   -42329.596    106.99337     225.9812 
   27500    132.05888   -803.05115    143055.13   -39574.713    2656.6929   -42231.406    107.07763    223.43079 
   27550    135.82719   -642.70237    143071.97   -39530.425    2732.5017   -42262.927    107.33635    229.80639 
   27600    133.89561   -654.17245    143142.31   -39565.598    2693.6432   -42259.241     107.3541    226.53835 
   27650    130.47335   -807.23041    143151.62   -39612.671     2624.796   -42237.467    107.57846    220.74822 
   27700    133.44091   -750.50737    143145.37   -39618.742    2684.4957   -42303.238    107.59374    225.76903 
   27750    134.17874   -764.11208    143137.59    -39583.82     2699.339   -42283.159     107.5725    227.01737 
   27800    135.60746   -905.61265    143115.81   -39537.713    2728.0814   -42265.795     107.6297    229.43464 
   27850    133.58458   -679.29927    143107.57   -39517.227    2687.3861   -42204.613    107.86768    226.01212 
   27900     134.3621   -639.77119    143158.02   -39539.868    2703.0278   -42242.895    108.07371     227.3276 
   27950    131.54111   -826.02597    143225.57   -39547.108    2646.2765   -42193.384    108.03994    222.55476 
   28000    132.86318   -715.77345    143284.41   -39590.216    2672.8732   -42263.089    108.12368    224.79157 
   28050     133.6569   -709.39633    143294.85   -39568.726     2688.841   -42257.567     108.3285    226.13448 
   28100    134.85994   -783.18184     143318.9   -39526.947    2713.0431    -42239.99    108.51226     228.1699 
   28150    135.05876   -554.82099    143423.32   -39526.233    2717.0428   -42243.276    108.94526    228.50628 
   28200    136.25873   -728.42903    143497.96   -39535.041    2741.1833   -42276.225    109.23194    230.53652 
   28250    134.58011   -705.26249     143521.5   -39563.325    2707.4136   -42270.739     109.6995    227.69645 
   28300    136.41748    -735.5112    143508.05    -39570.26     2744.377   -42314.637     109.7762    230.80511 
   28350    134.91455   -821.92342    143510.29   -39539.034    2714.1418   -42253.176    110.09276     228.2623 
   28400     136.3131   -717.42096    143498.75   -39519.054     2742.277   -42261.331    110.22557     230.6285 
   28450    136.40133    -998.7661    143482.75   -39531.284     2744.052   -42275.336    110.43597    230.77779 
   28500    136.15474   -556.64837     143497.1   -39583.931    2739.0912   -42323.022    110.43653    230.36058 
   28550    136.81454   -690.83573    143551.37   -39584.306    2752.3648    -42336.67     110.3746     231.4769 
   28600    133.42042    -680.8027    143587.29   -39612.599    2684.0836   -42296.682    110.51235    225.73438 
   28650    133.84279   -735.76081    143586.02   -39646.325    2692.5806   -42338.906    110.60495    226.44898 
   28700     132.4025   -784.07168    143587.24   -39628.501    2663.6055   -42292.106    110.58304    224.01215 
   28750    134.51558   -754.53568    143551.12   -39639.259    2706.1153   -42345.375    110.63782    227.58727 
   28800    131.30844    -757.9552    143559.26   -39701.236    2641.5957   -42342.832    110.67085     222.1611 
   28850    132.50145   -660.96183    143495.71   -39678.275    2665.5962   -42343.872    110.97253    224.17957 
   28900    129.58185   -858.57252    143478.67   -39719.405    2606.8612   -42326.267    110.96862    219.23989 
   28950    130.79237   -774.60633    143456.75   -39712.174    2631.2138   -42343.388    111.11409    221.28797 
   29000    131.19152   -769.19074    143422.15   -39685.603    2639.2437   -42324.846    111.56212    221.96329 
   29050    131.04895   -812.33467    143303.74   -39679.733    2636.3756   -42316.108    111.67741    221.72208 
   29100    130.95454   -870.42332    143230.61   -39666.651    2634.4762   -42301.127    111.97121    221.56234 
   29150    131.31209   -653.00504    143197.87   -39644.808    2641.6693   -42286.477    112.41498    222.16728 
   29200    132.44077   -638.25375    143196.73   -39621.434    2664.3755   -42285.809    112.91562     224.0769 
   29250    132.80529   -851.95203    143235.54   -39629.054    2671.7086   -42300.763    113.04111    224.69363 
   29300    133.44169   -862.17746    143109.27   -39594.189    2684.5115     -42278.7    113.51446    225.77036 
   29350    135.78951   -788.69699    143073.52   -39564.961    2731.7437   -42296.705    113.74766    229.74264 
   29400    131.64177    -612.1478    143019.13   -39599.987    2648.3015   -42248.289    113.65293    222.72506 
   29450     134.1743     -743.713    142996.41   -39623.413    2699.2498   -42322.663     113.9514    227.00987 
   29500    130.28861   -719.23371     142993.3   -39612.132    2621.0795   -42233.212       114.16    220.43566 
   29550    132.71026    -659.4096     142888.9   -39592.317    2669.7968   -42262.114    114.22509    224.53284 
   29600    135.91427    -591.1823    142897.95   -39551.982    2734.2535   -42286.236    114.47592    229.95372 
   29650    134.57056   -634.73327     142950.2   -39531.913    2707.2215   -42239.134     114.8003     227.6803 
   29700    134.19261   -631.87539       143101   -39559.759    2699.6181   -42259.377    115.02566    227.04085 
   29750    135.21497   -629.32271    143254.53   -39600.831    2720.1853   -42321.016    115.20638    228.77057 
   29800    131.78345   -777.00206    143316.84   -39606.818    2651.1518   -42257.969    115.58589    222.96477 
   29850    135.25966   -630.78474    143333.33   -39574.645    2721.0845   -42295.729    115.79728     228.8462 
   29900    132.22183   -848.09178    143280.83   -39616.501    2659.9709   -42276.472    116.17176    223.70647 
   29950    135.15359   -485.73251    143270.66   -39598.858    2718.9506   -42317.809    116.48756    228.66673 
   30000    134.29377   -816.59941    143338.87   -39565.166    2701.6531   -42266.819    116.48702    227.21199 
   30050    133.87767   -666.48355     143276.3   -39552.518    2693.2823     -42245.8    116.41862      226.508 
   30100    134.55695   -760.75703    143255.74   -39559.613    2706.9478   -42266.561    116.61029    227.65728 
   30150    131.58995   -719.29073    143178.52   -39579.142    2647.2591   -42226.401    116.96167     222.6374 
   30200    134.72083   -612.56691    143113.94   -39538.421    2710.2446   -42248.665    117.16609    227.93455 
   30250    132.04601   -833.57387    143038.35   -39550.796    2656.4339    -42207.23    117.35023      223.409 
   30300     131.3725   -615.13379    143063.88    -39568.91    2642.8846   -42211.794     117.5898     222.2695 
   30350    132.64135   -678.22043     143051.6   -39567.247    2668.4105   -42235.657    117.83005    224.41625 
   30400    133.37121   -610.36299     142981.4   -39531.297    2683.0935   -42214.391    118.01892    225.65111 
   30450    132.32427   -538.83078     143015.4   -39564.501    2662.0319   -42226.533    118.27546     223.8798 
   30500    131.90693   -541.03796    143057.51   -39602.173     2653.636   -42255.809     118.5077     223.1737 
   30550    134.35283    -889.1096    143054.43   -39576.484    2702.8412   -42279.325    118.82485    227.31191 
   30600    132.44356    -849.5088    142987.04   -39622.776    2664.4316   -42287.207    118.71663    224.08162 
   30650    131.09443   -629.02821    142960.32   -39638.562    2637.2905   -42275.853    118.90955    221.79903 
   30700    132.22513   -779.75713    142974.84   -39662.784    2660.0373   -42322.822    119.06575    223.71206 
   30750    130.44022   -755.47736    142940.97   -39586.856    2624.1295   -42210.985    119.23679    220.69217 
   30800    133.11781   -707.82934    142955.11   -39510.368    2677.9957   -42188.364    119.48593    225.22238 
   30850    134.61503   -687.77646    142875.76   -39485.958    2708.1162   -42194.074    119.32714    227.75554 
   30900    132.47067   -752.04758    142883.19   -39450.009     2664.977   -42114.986    119.42909    224.12749 
   30950    133.71966   -765.62166     142881.5   -39450.514    2690.1034   -42140.617    119.68515    226.24065 
   31000     136.4909   -618.13066     142800.1   -39479.886     2745.854    -42225.74    119.82363    230.92933 
   31050    136.67101    -837.1646    142790.71   -39447.778    2749.4774   -42197.255    119.96475    231.23406 
   31100    136.85188   -803.39753    142736.99   -39484.201     2753.116   -42237.317    120.28793    231.54008 
   31150    139.56797   -838.83654    142614.62   -39481.622    2807.7569   -42289.378    120.82219    236.13543 
   31200    135.95737   -529.18345    142678.87   -39517.043    2735.1206   -42252.164    121.02263    230.02665 
   31250    135.58319   -382.48012    142743.26   -39491.028    2727.5932   -42218.621    121.40033    229.39358 
   31300     133.4801   -620.58724    142775.61   -39510.434    2685.2841   -42195.718     122.0304    225.83534 
   31350    133.51684    -676.4788     142772.5   -39513.116    2686.0234   -42199.139     122.1214    225.89751 
   31400     134.7756   -500.38478    142821.99    -39525.84    2711.3465   -42237.186    122.23355    228.02721 
   31450    133.38592   -569.56906     142837.2   -39559.928    2683.3895   -42243.318    122.39525      225.676 
   31500    132.53094   -629.41823    142881.26   -39603.842    2666.1894   -42270.032    122.43995    224.22945 
   31550    131.88474    -631.5455    142881.72   -39603.777    2653.1896   -42256.966    122.78831    223.13616 
   31600    133.80062   -541.16098    142812.51    -39561.89    2691.7323   -42253.622    123.09671    226.37764 
   31650    133.58981   -608.96683    142817.93   -39597.948    2687.4913    -42285.44    123.27746    226.02097 
   31700    135.43981    -551.1078    142835.81   -39586.936    2724.7086   -42311.645    123.29595    229.15099 
   31750    133.81019    -438.3559     142874.5   -39539.742    2691.9249   -42231.667    123.36898    226.39383 
   31800    133.10538   -437.51314    142931.65   -39549.309    2677.7457   -42227.055    123.54506    225.20135 
   31850    133.45803   -592.58977     142943.9   -39584.712    2684.8403   -42269.553    123.72896    225.79801 
   31900    132.75296   -669.95135    143008.42   -39601.153    2670.6559   -42271.809     123.8005    224.60509 
   31950    132.08729    -696.9523    143050.13   -39575.815    2657.2643    -42233.08    123.73413    223.47884 
   32000    133.71855   -781.33824    142955.88    -39624.23    2690.0813   -42314.311    123.75763    226.23879 
   32050    133.55495    -772.7177    142983.24   -39585.119      2686.79   -42271.909    124.06942    225.96199 
   32100    135.10533   -623.66147    142854.98   -39625.685    2717.9797   -42343.665     124.2652    228.58507 
   32150    131.94425   -596.45409    142804.51   -39632.457    2654.3867   -42286.844    124.55559    223.23684 
   32200    130.63517   -672.88987     142815.5   -39634.988    2628.0513   -42263.039    125.13802      221.022 
   32250    131.68781   -758.68634    142820.82   -39594.852    2649.2279    -42244.08    125.32574    222.80297 
   32300    135.25479   -588.16513    142766.95   -39626.962    2720.9864   -42347.948    125.40949    228.83794 
   32350    131.00681   -582.50018    142823.79   -39693.849    2635.5277   -42329.376    125.48945    221.65077 
   32400    129.06129    -778.1681    142792.22   -39742.346    2596.3889   -42338.735    125.40788    218.35916 
   32450    130.81109   -526.62173    142811.97   -39744.417    2631.5904   -42376.008    125.27972    221.31964 
   32500     130.0821   -637.24277    142810.58   -39714.293    2616.9249   -42331.218    125.44368    220.08626 
   32550    129.12768   -626.71693    142832.06   -39715.781    2597.7244   -42313.506    125.85276    218.47147 
   32600    133.07525    -530.3988    142860.95   -39668.483    2677.1397   -42345.623    125.70847    225.15039 
   32650    128.81946   -697.28333    142923.65   -39690.565    2591.5238   -42282.089    125.90357    217.94999 
   32700    130.46992   -570.69837    142911.49   -39675.595     2624.727   -42300.322    126.06312    220.74242 
   32750    132.16911   -657.56507    142947.78   -39672.982    2658.9103   -42331.892    126.16848    223.61727 
   32800    133.21686   -402.96551    142988.92   -39639.072    2679.9884   -42319.061     126.1916    225.38996 
   32850    135.15945   -564.97806    143088.76   -39624.644    2719.0685   -42343.712    126.30676    228.67665 
   32900    131.83348   -741.10312    143124.24   -39589.876    2652.1584   -42242.034    126.56544    223.04943 
   32950    132.57021   -608.36139    143077.48   -39616.809    2666.9795   -42283.789    126.94867     224.2959 
   33000    131.86446   -392.49704    143134.53   -39626.626    2652.7815   -42279.407    127.20053    223.10183 
   33050    134.17877   -556.44695    143187.15   -39598.921    2699.3396    -42298.26    127.41186    227.01742 
   33100    135.26812   -762.30578    143154.55   -39556.941    2721.2546   -42278.195    127.62832    228.86049 
   33150    132.55038   -672.52213    143123.58   -39563.188    2666.5806   -42229.769    127.83028    224.26236 
   33200    131.26921   -641.43711    143192.02   -39608.523    2640.8066    -42249.33     127.5618    222.09473 
   33250    131.60511   -524.18328    143243.27   -39609.315    2647.5642   -42256.879     127.6895    222.66305 
   33300    133.09746   -661.22514     143312.7   -39590.917    2677.5864   -42268.504    127.58807    225.18795 
   33350    134.08572   -652.33389    143386.91   -39617.361    2697.4677   -42314.829    127.69497       226.86 
   33400    131.35021   -685.20408    143336.71   -39629.947    2642.4362   -42272.383    127.73187    222.23179 
   33450    129.61264    -847.1215     143369.7   -39688.342    2607.4807   -42295.823    127.89785    219.29199 
   33500    131.44477   -710.52209    143349.06   -39699.791    2644.3385    -42344.13    128.25039    222.39177 
   33550    132.30707   -746.48218    143395.48   -39691.724    2661.6857    -42353.41    128.34622    223.85069 
   33600    132.86427   -862.64849    143367.82   -39651.965    2672.8952    -42324.86    128.36204    224.79342 
   33650    131.11984   -813.03248    143385.71   -39673.564    2637.8017   -42311.365    128.45592    221.84202 
   33700    130.54656    -716.5998    143379.55   -39618.254    2626.2686   -42244.522    128.60793    220.87207 
   33750    131.03927   -673.85249    143340.77   -39554.919    2636.1809     -42191.1    128.44803    221.70571 
   33800    133.50741   -883.71285    143360.08   -39574.169    2685.8336   -42260.003    128.71172    225.88155 
   33850    130.64021   -835.03863    143357.08    -39580.02    2628.1527   -42208.173    129.17873    221.03052 
   33900    132.09403   -747.71405    143240.29   -39605.494       2657.4   -42262.894    129.38077    223.49025 
   33950    133.28295   -673.83192    143221.75   -39624.051    2681.3181   -42305.369      129.529    225.50179 
[...]
   92000    133.70908   -790.35044    143184.94   -39583.469    2689.8908    -42273.36    322.43045    226.22277 
   92050    134.48995   -505.61985    143222.57   -39589.376    2705.5997   -42294.975    322.60112    227.54391 
   92100    131.90179   -914.47562     143114.2   -39642.948    2653.5325    -42296.48    323.00424    223.16499 
   92150     132.5098    -707.8812    143104.19    -39681.61    2665.7642   -42347.374    323.38091    224.19369 
   92200    132.36779   -794.33006    143080.45   -39680.225    2662.9074   -42343.132    323.36742    223.95343 
   92250    133.22466    -645.6461    143107.15   -39738.672    2680.1454   -42418.817    323.36231    225.40317 
   92300    131.92126   -577.76343    143165.31   -39722.873    2653.9242   -42376.797    323.75715    223.19794 
   92350    133.01412   -491.40772    143294.43   -39721.957    2675.9098   -42397.867    323.95122    225.04695 
   92400    134.41675   -547.68528    143459.92   -39671.926    2704.1272   -42376.053    324.35055    227.42006 
   92450    132.48834   -752.64252    143477.53   -39651.733    2665.3324   -42317.065    324.86905    224.15738 
   92500    131.08283   -562.07087    143491.83    -39643.79    2637.0572   -42280.847    324.95943     221.7794 
   92550    133.53046   -802.84981     143539.5   -39616.434    2686.2972   -42302.731    325.18861    225.92054 
   92600     134.0497   -731.81728    143536.61   -39603.745    2696.7431   -42300.488    324.79897    226.79906 
   92650    131.14823   -851.10337     143485.7   -39648.394    2638.3729   -42286.766    324.86663    221.89005 
   92700    131.23821   -799.22307    143448.66   -39699.968    2640.1831   -42340.152      324.959    222.04229 
   92750    130.59155   -831.28526     143337.3   -39697.353    2627.1739   -42324.527    325.47593     220.9482 
   92800    132.69129   -677.45923    143376.07   -39654.449    2669.4153   -42323.864    325.27731    224.50075 
   92850    133.58048    -682.1833    143406.81   -39652.739    2687.3035   -42340.043    325.61753    226.00518 
   92900     130.6607   -757.99165    143486.98   -39662.746    2628.5649   -42291.311     326.0343     221.0652 
   92950    129.96353      -567.76     143493.5   -39714.225    2614.5395   -42328.764    326.19195    219.88564 
   93000    130.62809   -512.59088     143518.7   -39721.464    2627.9089   -42349.373    326.26694    221.01002 
   93050    132.24663   -753.94111     143488.1   -39703.982    2660.4698   -42364.451    326.25296    223.74843 
   93100    128.96944   -678.41409    143423.27   -39765.613     2594.541   -42360.155    326.70362    218.20375 
   93150    129.85311   -679.02163    143425.33   -39770.276    2612.3183   -42382.594    326.90671    219.69884 
   93200    129.44394   -616.62218    143483.12   -39747.073    2604.0868    -42351.16    326.81841    219.00656 
   93250    134.27929   -638.64886    143468.35   -39686.322    2701.3619   -42387.684    326.62178     227.1875 
   93300     133.4616   -835.16171    143418.74   -39707.518     2684.912    -42392.43    327.03445    225.80405 
   93350    131.60825   -656.27446     143412.9   -39711.745    2647.6272   -42359.372    327.51377    222.66836 
   93400    133.56588   -616.98219     143425.5   -39662.974    2687.0098   -42349.984    327.62837    225.98048 
   93450    134.79082   -607.23567    143443.37   -39639.437    2711.6526   -42351.089    327.75309    228.05296 
   93500    130.06217   -683.05395    143441.06   -39694.693    2616.5241   -42311.217    327.90543    220.05255 
   93550    132.49271   -823.93682    143358.86   -39645.964    2665.4205   -42311.384     327.9601    224.16478 
   93600    131.52681   -732.63549    143339.47   -39678.475    2645.9889   -42324.463    328.17885    222.53057 
   93650    129.94383   -660.05673    143360.33   -39722.064    2614.1433   -42336.207    328.21464    219.85232 
   93700    132.92541   -819.86587    143396.25   -39693.313    2674.1252   -42367.438    328.52837    224.89686 
   93750    132.10031   -712.50034    143341.69   -39743.437    2657.5263   -42400.964    328.30175    223.50088 
   93800    132.29279   -561.21734    143408.39   -39747.934    2661.3985   -42409.333     328.3143    223.82653 
   93850    130.88702   -630.26922    143458.32   -39739.877     2633.118   -42372.995    328.42748    221.44811 
   93900    132.81048   -581.55579    143473.08   -39724.857    2671.8131    -42396.67    328.04772    224.70241 
   93950    130.57122   -750.74834    143488.92   -39686.405    2626.7648    -42313.17    328.29986     220.9138 
   94000    132.66662   -561.97631    143450.63   -39702.487    2668.9191   -42371.406     329.3585    224.45902 
   94050    131.64319   -505.50193    143416.41   -39690.497    2648.3302   -42338.827    329.58517    222.72748 
   94100    133.77037   -708.61224    143402.64   -39680.876    2691.1237   -42371.999    329.55281    226.32646 
   94150    133.67839   -578.91581    143486.26   -39646.898    2689.2733   -42336.172    329.95576    226.17084 
   94200    135.74423   -706.65715    143514.58   -39655.596    2730.8329   -42386.429    330.29251    229.66604 
   94250    131.61252   -573.32069    143569.79   -39645.146    2647.7131   -42292.859    330.19792    222.67558 
   94300    133.11673   -655.14337    143565.72   -39678.171    2677.9741   -42356.145    330.69136    225.22056 
   94350    134.35358   -632.56135    143628.67   -39653.632    2702.8564   -42356.489    330.44386    227.31319 
   94400    131.76807    -579.2589    143730.51   -39620.709    2650.8424   -42271.551    330.72784    222.93876 
   94450    132.53579   -719.06321    143745.42   -39616.916     2666.287   -42283.203    330.83825    224.23766 
   94500    133.05121   -542.65748     143779.1   -39605.881    2676.6559   -42282.537    331.29629     225.1097 
   94550    135.89614   -681.44975    143877.38    -39570.01    2733.8889   -42303.899    331.35866    229.92305 
   94600    135.42726   -559.24948    143884.75   -39585.546    2724.4561   -42310.002       331.65    229.12975 
   94650    132.53849   -717.55075    143817.06   -39623.532    2666.3414   -42289.873    331.76571    224.24224 
   94700      133.263    -780.4583    143749.01   -39615.042    2680.9167   -42295.959    331.89671    225.46803 
   94750    134.59992   -743.09042    143758.83    -39644.39    2707.8121   -42352.202    332.04241    227.72997 
   94800    132.20983   -785.75505    143695.83   -39600.098    2659.7295   -42259.827     332.1488    223.68617 
   94850    135.09755   -725.78742    143664.86    -39595.23    2717.8233   -42313.054    332.41314    228.57192 
   94900     135.3235   -676.77042    143666.42   -39557.307    2722.3688   -42279.676    332.61037     228.9542 
   94950    131.29802   -816.60101    143658.04   -39589.794    2641.3863    -42231.18    332.89946    222.14348 
   95000     132.9203   -575.96052    143659.75   -39525.977    2674.0225   -42199.999     332.5373    224.88822 
   95050    132.71768   -981.11974    143657.07   -39640.734    2669.9462    -42310.68    332.86733     224.5454 
   95100    132.88964   -634.66127     143609.7   -39661.197    2673.4056   -42334.602    333.23786    224.83635 
   95150    133.11867   -757.10659    143647.44   -39648.697    2678.0132   -42326.711    333.19563    225.22385 
   95200     129.8029   -696.72602    143623.63   -39689.275    2611.3082   -42300.583     332.8419    219.61388 
   95250    134.66395   -572.50911    143578.16   -39639.538    2709.1003   -42348.638    333.01957    227.83831 
   95300    132.73554   -408.83074    143619.07   -39622.273    2670.3055   -42292.578    333.40969    224.57562 
   95350    133.44228   -668.09761    143714.56   -39652.132    2684.5234   -42336.655    333.83877    225.77136 
   95400    131.45293   -728.46972    143707.83   -39690.368    2644.5027    -42334.87    334.04975    222.40558 
   95450    132.50316   -897.80818    143678.39   -39688.181    2665.6306   -42353.812    334.26888    224.18246 
   95500    130.90474    -842.5264    143607.15   -39717.296    2633.4745    -42350.77    334.34161     221.4781 
   95550    131.90369    -674.7556     143588.6   -39702.368    2653.5709   -42355.939    334.54134    223.16822 
   95600    132.04789   -695.47726    143559.31    -39622.72    2656.4717   -42279.192    334.71203    223.41218 
   95650    133.45223   -760.80201    143484.63   -39618.641    2684.7235   -42303.364    335.33719    225.78819 
   95700    135.14852   -770.48377    143433.86   -39531.873    2718.8486   -42250.722    335.38167    228.65815 
   95750    136.81266   -848.59801    143335.41    -39506.51    2752.3269   -42258.837    335.79767    231.47371 
   95800    134.83182   -728.33053    143303.86   -39563.968    2712.4775   -42276.445    336.28697    228.12233 
   95850    133.18956   -814.59297    143327.64   -39586.471    2679.4392    -42265.91    336.61793    225.34378 
   95900    133.43476   -488.45989    143381.95   -39601.958     2684.372    -42286.33    336.99421    225.75863 
   95950    130.67767   -798.47953    143389.09   -39694.785    2628.9063   -42323.691    337.16128    221.09391 
   96000    133.44656   -733.26907    143420.35   -39675.152    2684.6095   -42359.762    338.08405     225.7786 
   96050     130.9005   -916.40635    143370.36   -39707.692    2633.3892   -42341.081    338.23236    221.47092 
   96100    129.77961   -690.73579    143299.31   -39766.569    2610.8396   -42377.408    338.63721    219.57448 
   96150     129.8795   -716.06906    143263.71   -39772.595    2612.8493   -42385.445    338.82795    219.74349 
   96200     132.9693   -799.77737    143154.17    -39749.08    2675.0081   -42424.088    339.21026    224.97112 
   96250    132.51967   -467.94627    143235.42   -39716.572    2665.9627   -42382.535    339.59419    224.21039 
   96300      135.515   -621.91653    143355.19   -39630.112    2726.2212   -42356.333    339.88894     229.2782 
   96350    133.73598   -677.26285    143382.36   -39600.385    2690.4319   -42290.817    339.82939    226.26828 
   96400    135.82759   -423.97102     143394.3   -39603.099    2732.5099   -42335.609     339.9117    229.80708 
   96450     134.4387   -478.77971    143462.11   -39577.245    2704.5688   -42281.814    340.21471     227.4572 
   96500    136.96413   -601.49119    143444.24    -39528.27    2755.3741   -42283.644    340.18758    231.72998 
   96550     132.1231   -632.35851     143469.4   -39553.604    2657.9847   -42211.589    340.35139    223.53943 
   96600    130.87666    -924.6738    143449.86   -39559.885    2632.9096   -42192.795    340.41801    221.43059 
   96650    134.65058   -895.36741    143387.23   -39515.675    2708.8314   -42224.507    340.45702    227.81569 
   96700    136.08311   -569.71406    143361.11   -39520.768    2737.6502   -42258.418    340.33019    230.23939 
   96750    131.67364    -632.3788    143375.74   -39565.976    2648.9427   -42214.919    340.08646    222.77899 
   96800    134.91136   -526.45589    143399.11   -39529.393    2714.0774    -42243.47    340.26069    228.25689 
   96850     138.4061   -630.27608    143435.86   -39482.855    2784.3828   -42267.238    340.25995    234.16965 
   96900    135.42643   -641.13052    143381.36   -39519.967    2724.4394   -42244.407    339.71232    229.12835 
   96950     132.7021   -706.55854    143424.17   -39571.452    2669.6328   -42241.084    339.49927    224.51904 
   97000    134.43163   -650.57049    143371.99   -39557.627    2704.4266   -42262.054    339.58853    227.44524 
   97050    132.01496   -691.05022    143272.21   -39549.549    2655.8093   -42205.358    339.62229    223.35648 
   97100    134.47794   -682.66736    143305.72   -39548.906    2705.3582   -42254.264    339.17372    227.52359 
   97150    130.88731   -774.59318    143374.26   -39566.563    2633.1238   -42199.687    339.48135     221.4486 
   97200    133.15278   -757.16822    143342.09   -39543.642    2678.6994   -42222.341     339.6807    225.28156 
   97250    135.18282   -640.59994    143333.92   -39522.249    2719.5387   -42241.788    339.83277    228.71619 
   97300    136.05493   -613.73001    143369.01   -39510.349    2737.0833   -42247.432    339.87227    230.19171 
   97350      134.051   -451.13522    143427.51   -39524.078    2696.7693   -42220.848    340.48509    226.80126 
   97400     132.5304   -753.23872    143373.86   -39552.963    2666.1786   -42219.141    340.55844    224.22854 
   97450    132.56316   -709.03155    143379.67   -39532.528    2666.8376   -42199.365    340.79169    224.28397 
   97500    133.87297   -639.14316    143412.39   -39552.853    2693.1877    -42246.04    340.81252    226.50004 
   97550    132.76406    -712.1434    143411.09   -39561.493    2670.8792   -42232.373    340.94644    224.62387 
   97600    132.98578   -678.81189    143337.67   -39550.544    2675.3396   -42225.884    341.15189      224.999 
   97650    136.30832   -757.32138    143337.61    -39544.04    2742.1809   -42286.221    341.17127    230.62042 
   97700    134.51437   -900.16849    143308.74   -39579.075    2706.0912   -42285.166    341.75612    227.58524 
   97750    131.18566   -527.92191    143261.96   -39570.679    2639.1258   -42209.805    341.93153    221.95337 
   97800      134.412   -740.23157    143162.77   -39546.098    2704.0317    -42250.13    341.90616    227.41203 
   97850    134.00958   -767.31557    143124.87   -39565.513     2695.936   -42261.449    341.46136    226.73117 
   97900    134.02949   -931.51114    143141.94   -39554.359    2696.3365   -42250.696    341.73477    226.76486 
   97950    134.67112   -775.20172    143109.92   -39590.878    2709.2444   -42300.122    341.92639    227.85043 
   98000    132.20031   -913.47326    143074.38   -39541.086    2659.5381   -42200.624    341.98357    223.67007 
   98050    129.93283   -691.73454     143027.1   -39552.731    2613.9221   -42166.653    341.75483    219.83372 
   98100    137.49773    -606.8046    143006.19   -39492.569    2766.1089   -42258.677    341.56542    232.63279 
   98150    135.19416   -665.03136    143005.89   -39498.375    2719.7668   -42218.142    342.23855    228.73537 
   98200    134.84635   -640.44847    143056.63   -39560.848    2712.7696   -42273.618    342.48046     228.1469 
   98250    135.15196   -640.18928    143047.54    -39552.89    2718.9178   -42271.807    342.80018    228.66397 
   98300    134.22104   -1041.8393    142941.36   -39534.595    2700.1899   -42234.785    343.26261    227.08894 
   98350    133.35018   -813.62496    142841.57   -39582.514    2682.6706   -42265.184    342.73692    225.61554 
   98400    133.52239   -572.64252    142898.38    -39605.16     2686.135   -42291.295    342.67585     225.9069 
   98450    132.31611   -777.26733    142875.98   -39634.321    2661.8677   -42296.189     342.7856    223.86599 
   98500    130.84572   -521.93393    142917.68   -39621.588    2632.2871   -42253.875    342.99682    221.37823 
   98550    133.12414   -460.23765    142938.56   -39571.191    2678.1232   -42249.314    342.74172     225.2331 
   98600    135.28619   -744.81952     142913.4   -39517.874    2721.6182   -42239.492    343.10749    228.89108 
   98650    135.39138   -816.65654    142821.69    -39478.63    2723.7342   -42202.364    343.06642    229.06904 
   98700    137.69571   -597.14462    142824.84   -39514.872    2770.0917   -42284.964    343.23114    232.96775 
   98750     132.5443   -492.14814    142907.16   -39514.933    2666.4583   -42181.391    342.74392    224.25207 
   98800    130.86559   -744.95327    142949.56   -39587.246    2632.6868   -42219.933    342.50448    221.41185 
   98850    133.20049   -575.87677    142931.58    -39561.77    2679.6592   -42241.429    342.53763    225.36228 
   98900    133.22446    -859.6991    142922.69   -39578.289    2680.1414    -42258.43    342.81523    225.40283 
   98950    132.30432    -730.7251    142851.66   -39548.418    2661.6305   -42210.048     343.2842    223.84604 
   99000     133.4805   -693.45467    142838.77   -39573.109    2685.2923   -42258.401    343.31745    225.83603 
   99050     134.9026   -731.81915     142836.1   -39564.022    2713.9014   -42277.924    343.19825    228.24208 
   99100    135.66434   -608.40121    142855.64   -39634.509    2729.2256   -42363.735    343.42646    229.53087 
   99150     132.2597   -668.30393    142936.81   -39609.867    2660.7329     -42270.6    343.68344    223.77056 
   99200     132.4101   -424.85191    142981.45   -39631.456    2663.7585   -42295.214    343.95786    224.02502 
   99250    132.49271   -874.67675     142942.3   -39624.825    2665.4203   -42290.245    344.10956    224.16477 
   99300      133.452   -628.08255    142891.33   -39579.639    2684.7189   -42264.357    344.15112     225.7878 
   99350    132.19567   -799.08397    142923.35   -39578.538    2659.4448   -42237.983    344.26393    223.66222 
   99400    131.17418   -694.18158    142889.83   -39572.126    2638.8948   -42211.021    343.98977    221.93395 
   99450    133.70392   -576.55519     142925.4   -39591.831    2689.7869   -42281.618    344.48308    226.21403 
   99500    132.75561   -615.30907    143003.71   -39571.204    2670.7093   -42241.914    344.78542    224.60958 
   99550    131.72341     -762.529    142924.65   -39555.636    2649.9439    -42205.58    344.68427    222.86319 
   99600      133.673    -735.3009    142947.63   -39527.352    2689.1649   -42216.516    344.73926    226.16172 
   99650    130.94209   -756.17126    142910.09   -39583.031    2634.2258   -42217.257    344.98917    221.54128 
   99700    130.91409   -860.94652    142839.42   -39631.562    2633.6626   -42265.224    345.07659    221.49391 
   99750     131.9332   -541.50662    142857.86   -39546.211    2654.1645   -42200.376    345.09341    223.21815 
   99800    132.43505   -533.75468    142916.44    -39545.22    2664.2605    -42209.48    345.54317    224.06723 
   99850    133.54393   -678.65989    142952.23   -39585.811    2686.5682   -42272.379    345.63012    225.94334 
   99900    131.39875   -540.60289    142987.32    -39545.18    2643.4127   -42188.592    345.77218    222.31391 
   99950    133.48486   -471.31735    143056.28   -39518.782      2685.38   -42204.162    345.67567     225.8434 
  100000    134.13275   -775.30562    143068.18   -39529.348    2698.4138   -42227.762    346.35947    226.93956 
Loop time of 224.744 on 60 procs for 100000 steps with 6750 atoms

Performance: 192.219 ns/day, 0.125 hours/ns, 444.952 timesteps/s
99.4% CPU use with 60 MPI tasks x no OpenMP threads

MPI task timing breakdown:
Section |  min time  |  avg time  |  max time  |%varavg| %total
---------------------------------------------------------------
Pair    | 36.143     | 94.212     | 166.4      | 503.9 | 41.92
Neigh   | 1.3384     | 2.7331     | 7.6723     | 133.2 |  1.22
Comm    | 37.981     | 88.159     | 108.67     | 251.9 | 39.23
Output  | 0.21202    | 0.21588    | 0.23157    |   0.5 |  0.10
Modify  | 10.378     | 37.972     | 77.158     | 510.2 | 16.90
Other   |            | 1.452      |            |       |  0.65

Nlocal:    112.5 ave 261 max 71 min
Histogram: 48 0 0 0 0 0 0 0 7 5
Nghost:    1028.87 ave 1331 max 699 min
Histogram: 24 0 0 0 0 0 0 8 16 12
Neighs:    0 ave 0 max 0 min
Histogram: 60 0 0 0 0 0 0 0 0 0
FullNghs:  13410.7 ave 47374 max 4352 min
Histogram: 48 0 0 0 0 0 0 0 4 8

Total # of neighbors = 804644
Ave neighs/atom = 119.207
Neighbor list builds = 6133
Dangerous builds = 0

write_data		${DIR}/data.eq-${NAME}-${TEMP}
write_data		run_1/data.eq-${NAME}-${TEMP}
write_data		run_1/data.eq-het_freeze_1-${TEMP}
write_data		run_1/data.eq-het_freeze_1-225
undump          1

reset_timestep  0

unfix           2
unfix           3
unfix           4


################################################
#######         Run Simulation         #########
################################################

log				${DIR}/log.run_${NAME}
log				run_1/log.run_${NAME}
log				run_1/log.run_het_freeze_1
