
# Create simulation box and atoms

read_data data.ML_graphite_1atm_240K
  orthogonal box = (0 0 2.18931) to (49.22 49.0196 37.8107)
  4 by 4 by 4 MPI processor grid
  reading atoms ...
  4990 atoms
  reading velocities ...
  4990 velocities
group water type 1
2230 atoms in group water
group graphite type 2
2760 atoms in group graphite

# Define potential

pair_style sw
pair_coeff * * MLC_e.sw mW C


# Fix graphite atoms in place

fix 5 graphite setforce 0.0 0.0 0.0
velocity graphite set 0.0 0.0 0.0


# Equilibration of molecular water

# Add velocity/set timestep

velocity	    water create ${TEMP} ${SEED} rot yes dist gaussian
velocity	    water create 240 ${SEED} rot yes dist gaussian
velocity	    water create 240 16626 rot yes dist gaussian
timestep	    5.0

# Define output

compute			1 water msd
compute			3 water temp
thermo	    	50
thermo_style	custom step temp press vol etotal ke pe c_1[4] c_3

# Neighbor lists

neigh_modify    delay 0 every 1 check yes

# Set fixes

fix             1 water momentum 10 linear 1 1 1 rescale
fix             2 water nve
fix             3 water temp/csvr ${TEMP} ${TEMP} 500.0 ${SEED}
fix             3 water temp/csvr 240 ${TEMP} 500.0 ${SEED}
fix             3 water temp/csvr 240 240 500.0 ${SEED}
fix             3 water temp/csvr 240 240 500.0 16626
fix             4 water press/berendsen z ${PRES} ${PRES} 1000.0 modulus 20000
fix             4 water press/berendsen z 1 ${PRES} 1000.0 modulus 20000
fix             4 water press/berendsen z 1 1 1000.0 modulus 20000

# Run 0.5 ns equilibration

dump		    1 all atom 2000 ${DIR}/eq.${NAME}-${TEMP}.dump
dump		    1 all atom 2000 run_13/eq.${NAME}-${TEMP}.dump
dump		    1 all atom 2000 run_13/eq.het_freeze_13-${TEMP}.dump
dump		    1 all atom 2000 run_13/eq.het_freeze_13-240.dump

reset_timestep  0

run	            100000
Neighbor list info ...
  update every 1 steps, delay 0 steps, check yes
  max neighbors/atom: 2000, page size: 100000
  master list distance cutoff = 6.67472
  ghost atom cutoff = 6.67472
  binsize = 3.33736, bins = 15 15 11
  1 neighbor lists, perpetual/occasional/extra = 1 0 0
  (1) pair sw, perpetual
      attributes: full, newton on
      pair build: full/bin/atomonly
      stencil: full/bin/3d
      bin: standard
Per MPI rank memory allocation (min/avg/max) = 4.094 | 4.225 | 4.497 Mbytes
Step Temp Press Volume TotEng KinEng PotEng c_1[4] c_3 
       0     107.2279   -141.85038    85945.351   -21384.105    1594.6141   -22978.719            0          240 
      50     106.9606   -310.92307    85898.183   -21394.635     1590.639   -22985.274   0.53260189    239.40171 
     100    108.83019   -565.83405    85802.355   -21384.783    1618.4421   -23003.225    0.9033677    243.58627 
     150    108.01935   -539.48154    85766.264   -21389.713     1606.384   -22996.097     1.182745    241.77144 
     200    108.98969   -214.92734    85765.313   -21397.686    1620.8141     -23018.5    1.4568402    243.94327 
     250    105.31104   -401.84726    85768.001   -21466.323     1566.108   -23032.431    1.7224018    235.70964 
     300    106.16151   -209.84912    85758.959   -21438.015    1578.7555    -23016.77    1.9361651    237.61318 
     350     103.5391   -438.06563    85738.651   -21472.034     1539.757   -23011.791    2.1111878    231.74364 
     400    105.89861   -176.73564    85759.447   -21459.178    1574.8459   -23034.024    2.3478425    237.02476 
     450    105.53224   -853.66591    85725.718   -21433.502    1569.3976     -23002.9    2.5896365    236.20474 
     500    106.57833   -664.77855    85610.241   -21437.346    1584.9542     -23022.3    2.8356893    238.54612 
     550    107.95217   -175.54825    85622.358   -21414.742     1605.385   -23020.127    3.0836404    241.62108 
     600    106.28763   -320.39679    85652.847   -21423.205    1580.6311   -23003.836    3.3268414    237.89547 
     650    105.98822   -405.50169    85754.676   -21456.564    1576.1786   -23032.742    3.5579893    237.22533 
     700    104.24945   -610.20856    85810.675   -21427.573    1550.3208   -22977.894     3.729953    233.33356 
     750    106.80312   -323.81553    85820.014   -21450.046    1588.2971   -23038.343     3.934034    239.04925 
     800    105.09482   -323.92079    85789.673   -21455.622    1562.8925   -23018.514    4.1863342    235.22568 
     850    107.01094    -136.3416    85818.172   -21439.043    1591.3877   -23030.431    4.4706318     239.5144 
     900    106.72424    -561.0438    85864.348    -21399.09    1587.1241   -22986.214    4.6896912     238.8727 
     950    107.89246   -78.356166     85905.72   -21411.763     1604.497    -23016.26     4.921461    241.48743 
    1000    107.89792   -554.20663    85918.907   -21385.137    1604.5782   -22989.715    5.1150983    241.49966 
    1050    105.95601   -683.51343    85817.377   -21395.057    1575.6994   -22970.757    5.3384432    237.15321 
    1100    110.11097   -277.34249    85797.395   -21408.426     1637.489   -23045.915    5.6854294    246.45295 
    1150    106.25248   -537.85319    85801.779   -21396.675    1580.1084   -22976.783    5.9058266     237.8168 
    1200    108.50542   -162.52121    85821.359   -21419.956    1613.6124   -23033.568     6.083935    242.85937 
    1250     106.3563   -424.47598    85818.687   -21411.085    1581.6523   -22992.738    6.4184823    238.04916 
    1300    106.28436    70.139191    85880.113   -21399.984    1580.5825   -22980.566    6.7054878    237.88814 
    1350    109.27912   -319.91093    85925.476   -21384.957    1625.1183   -23010.076      6.92363    244.59108 
    1400    108.21506   -224.67574    85948.101   -21384.461    1609.2945   -22993.756     7.169381    242.20949 
    1450    107.70216   -227.20496    85890.905    -21392.08     1601.667   -22993.747    7.4088651     241.0615 
    1500    108.43929   -242.37996    85806.868     -21398.2     1612.629   -23010.829    7.6063853    242.71136 
    1550    106.64135   -449.17665    85878.285   -21398.867    1585.8914   -22984.758    7.8866515    238.68716 
    1600    106.26144    -76.02059    85942.296   -21401.753    1580.2417   -22981.995    8.0865617    237.83685 
    1650    108.31065   -348.29572    85917.934   -21423.551     1610.716   -23034.267    8.2708143    242.42344 
    1700    106.65632    47.441175    85955.848   -21448.645    1586.1141   -23034.759    8.5399828    238.72068 
    1750     104.0235   -135.66445    85942.763   -21418.808    1546.9607   -22965.768    8.7428639    232.82784 
    1800    106.54551   -312.94856    85954.628   -21435.831    1584.4661   -23020.297    9.0087149    238.47266 
    1850    107.25014   -365.04626    85973.912   -21399.434    1594.9448   -22994.379    9.2716265    240.04977 
    1900    107.84077   -432.80695    85887.716   -21430.941    1603.7282   -23034.669    9.5513512    241.37173 
    1950    107.89469   -476.20934    85865.892   -21387.444    1604.5301   -22991.974    9.8557225    241.49242 
    2000    106.10736   -376.52015     85874.88    -21439.32    1577.9502    -23017.27    10.156615    237.49197 
    2050    105.40446    -219.6402    85813.914   -21435.342    1567.4973   -23002.839    10.288738    235.91874 
    2100    109.26625   -344.54727    85776.765   -21435.663     1624.927    -23060.59    10.530538    244.56229 
    2150    107.27957   -383.81994    85787.336   -21417.253    1595.3825   -23012.636    10.831964    240.11564 
    2200    104.54496   -418.51949    85767.297   -21413.538    1554.7154   -22968.253    11.023129    233.99497 
    2250    106.02261   -386.59827    85704.229    -21404.67      1576.69    -22981.36    11.263894     237.3023 
    2300    104.73455   -353.49257    85763.628   -21401.122    1557.5349   -22958.657    11.549867    234.41932 
    2350    106.38118   -531.19796    85715.074   -21407.056    1582.0224   -22989.079     11.75604    238.10485 
    2400     108.0708   -271.81768    85673.275   -21385.625    1607.1491   -22992.774     11.93065    241.88659 
    2450    108.23997    -412.2844    85629.079    -21380.04     1609.665   -22989.705    12.177443    242.26525 
    2500    107.37216   -130.13419     85732.47   -21382.313    1596.7594   -22979.073    12.532161    240.32288 
    2550    108.29178   -194.07101    85733.918   -21334.993    1610.4353   -22945.428    12.783664    242.38119 
    2600    111.19798   -235.67304    85776.256   -21333.723    1653.6543   -22987.377    12.819241    248.88593 
    2650    110.46123   -528.14078    85740.146   -21327.454    1642.6979   -22970.152     12.97623    247.23692 
    2700    109.84535   -464.98755     85760.24   -21399.478    1633.5389   -23033.017    13.148404    245.85843 
    2750    106.99283   -410.64581     85830.46   -21420.674    1591.1184   -23011.792     13.34196    239.47386 
    2800    106.56319   -252.35503    85837.754   -21413.583     1584.729   -22998.312    13.561712    238.51222 
    2850    107.48015   -528.82195    85891.632   -21422.255    1598.3654   -23020.621     13.77077    240.56459 
    2900    106.86607   -107.45207    85929.367   -21404.086    1589.2332   -22993.319    14.037897    239.19013 
    2950    107.05888   -308.51995    85991.599   -21393.982    1592.1006   -22986.083     14.25936    239.62169 
    3000    108.07692   -439.98568    86016.148   -21409.242    1607.2402   -23016.482    14.497143     241.9003 
    3050    105.80117   -445.45829     86054.86   -21471.302    1573.3969   -23044.698    14.692466    236.80666 
    3100    105.96244   -456.31566    86041.755   -21442.473    1575.7952   -23018.268    14.933794    237.16762 
    3150    106.66313    -509.8603    85954.817   -21404.186    1586.2153   -22990.401    15.165686    238.73592 
    3200    107.52427   -365.98321    85939.993   -21375.556    1599.0215   -22974.577    15.430867    240.66333 
    3250    107.28373   -477.52765    85991.892   -21366.415    1595.4444    -22961.86    15.513064    240.12496 
    3300     108.3193   -132.21825    86056.757   -21364.013    1610.8446   -22974.857     15.68246     242.4428 
    3350    107.52408   -72.237615    86144.884   -21363.877    1599.0187   -22962.895    16.058125    240.66292 
    3400    107.78083   -186.56593    86186.946    -21368.83    1602.8369   -22971.667    16.473296    241.23758 
    3450    106.97363    -181.4402    86219.498    -21399.71    1590.8328   -22990.543    16.747348    239.43089 
    3500    105.51528   -94.135209    86321.437   -21378.913    1569.1453   -22948.058    16.873484    236.16678 
    3550    109.12917   -519.40911    86352.463   -21355.641    1622.8884   -22978.529    17.101769    244.25546 
    3600    110.80838   -332.10914     86339.81   -21334.281    1647.8604   -22982.141    17.394888    248.01391 
    3650    108.20667   -265.72884    86337.764   -21338.856    1609.1696   -22948.026     17.63826     242.1907 
    3700    109.69131   -286.40843    86333.496   -21339.389    1631.2481   -22970.638    17.837873    245.51365 
    3750    111.06459   -123.55085    86367.484   -21314.934    1651.6706   -22966.604    17.987038    248.58737 
    3800    112.73511   -253.18306    86439.548   -21331.363    1676.5132   -23007.876    18.231645    252.32635 
    3850    105.75085   -713.34178    86404.617   -21377.522    1572.6485   -22950.171    18.788358    236.69402 
    3900    107.56025   -390.68778    86349.753   -21423.587    1599.5565   -23023.144    18.983849    240.74386 
    3950    107.66321   -271.97469    86284.818   -21421.651    1601.0877   -23022.739    19.208105    240.97431 
    4000    106.91522   -244.21266    86282.736   -21438.382    1589.9642   -23028.346    19.672836    239.30015 
    4050    108.35948   -585.90231    86252.284   -21425.473    1611.4421   -23036.915    20.105638    242.53273 
    4100    107.53648   -413.97362    86191.465   -21438.621    1599.2031   -23037.824    20.269918    240.69067 
    4150    106.17474   -204.12106    86266.967   -21454.422    1578.9523   -23033.375    20.559649    237.64279 
    4200    109.60116   -630.88922    86300.324   -21446.888    1629.9075   -23076.796    20.676329    245.31189 
    4250    107.20084   -414.69221    86240.816   -21436.365    1594.2117   -23030.577    20.801189    239.93942 
    4300    109.45167   -118.55275    86269.976   -21416.608    1627.6844   -23044.293    20.903395    244.97729 
    4350    106.71513   -466.33472    86275.704   -21423.006    1586.9885   -23009.994    21.211062     238.8523 
    4400    108.84055   -461.71548    86240.253   -21399.477    1618.5963   -23018.074    21.495586    243.60947 
    4450    108.82469   -555.22984    86235.203   -21396.166    1618.3605   -23014.526    21.649494    243.57398 
    4500    106.00959   -403.41498    86162.451   -21453.697    1576.4963   -23030.193    21.836192    237.27314 
    4550    106.10588    -263.3079    86111.319   -21458.001    1577.9283   -23035.929     21.94402    237.48867 
    4600    109.16499   -334.29008    86069.077   -21468.743    1623.4211   -23092.164    22.225961    244.33563 
    4650    107.29383   -512.06807    86087.902   -21446.784    1595.5946   -23042.379    22.535926    240.14757 
    4700    105.37201    18.481006    86142.099   -21471.494    1567.0148   -23038.509    22.664917    235.84611 
    4750    106.39036   -213.74239    86201.037   -21436.789    1582.1588   -23018.948     22.91512    238.12539 
    4800    105.27377   -243.55901    86247.133   -21484.955    1565.5538   -23050.509     23.10978    235.62622 
    4850    106.67024   -663.83808    86267.614   -21487.525    1586.3211   -23073.846    23.233146    238.75184 
    4900    104.11448   -357.54627    86156.037   -21494.696    1548.3136   -23043.009    23.550942    233.03146 
    4950    106.17897    -561.0911    86101.458   -21471.816    1579.0152   -23050.831    23.899639    237.65226 
    5000    106.29062   -447.32043    86114.725   -21483.568    1580.6756   -23064.244    24.206983    237.90216 
    5050    107.30464   -275.85033    86114.328   -21452.203    1595.7553   -23047.959    24.601705    240.17175 
    5100    107.57483   -619.51695    86178.415   -21456.575    1599.7735   -23056.349    24.904868    240.77651 
    5150    105.20892   -260.06387    86170.768   -21448.594    1564.5894   -23013.183    25.123703    235.48107 
    5200    103.96463   -170.90756    86186.713   -21474.483    1546.0851   -23020.568     25.61445    232.69606 
    5250    107.94918   -466.87275    86088.302   -21421.581    1605.3405   -23026.922    25.974957    241.61439 
    5300    104.27652   -407.63913     86059.95   -21464.133    1550.7233   -23014.856    26.162105    233.39414 
    5350    107.29404    -192.9382    86140.063   -21419.039    1595.5977   -23014.636    26.306544    240.14803 
    5400    110.01333   -310.84161    86207.411   -21404.261    1636.0369   -23040.298     26.61478     246.2344 
    5450     107.0285   -445.27942    86204.473   -21405.563    1591.6488   -22997.211     27.05097     239.5537 
    5500    105.04292   -426.14452    86240.319   -21397.496    1562.1207   -22959.617    27.329645    235.10953 
    5550    108.33644   -520.30514    86209.035   -21429.043    1611.0995   -23040.143    27.559273    242.48116 
    5600    108.99773   -416.80754    86221.126    -21436.31    1620.9337   -23057.244    27.802013    243.96127 
    5650    106.66449   -280.15111    86203.352   -21469.358    1586.2354   -23055.594    27.996289    238.73895 
    5700    105.62451    150.12456    86115.367   -21469.974    1570.7698   -23040.744    28.197564    236.41126 
    5750    105.99527   -120.35818    86203.661   -21492.179    1576.2834   -23068.462    28.509322     237.2411 
    5800     106.1095   -185.87787    86169.882   -21507.171    1577.9821   -23085.153    28.530058    237.49677 
    5850    107.47031    23.335022    86190.767   -21454.311     1598.219    -23052.53    28.726911    240.54256 
    5900    105.95179   -356.05265    86154.196   -21452.603    1575.6367   -23028.239    29.210879    237.14378 
    5950    105.22017   -341.32286     86127.26    -21480.21    1564.7566   -23044.966    29.636307    235.50624 
    6000    106.98424   -264.43147    86122.439   -21473.987    1590.9907   -23064.978    29.934843    239.45464 
    6050    107.84017    265.65715    86122.024   -21479.584    1603.7193   -23083.303    30.355325    241.37039 
    6100    106.76642   -529.39995    86197.716   -21468.919    1587.7513    -23056.67    30.703201     238.9671 
    6150    105.84544   -172.49483    86243.796   -21437.702    1574.0552   -23011.757    30.972291    236.90575 
    6200     107.4514   -423.26487    86298.161   -21472.203    1597.9379   -23070.141    31.303721    240.50025 
    6250    105.72916   -338.27591    86260.917   -21486.467     1572.326   -23058.793    31.407815    236.64548 
    6300    107.67227   -90.023989    86312.123   -21448.588    1601.2225   -23049.811    31.601567    240.99461 
    6350    104.52753  -0.19962491    86410.777   -21488.604    1554.4562    -23043.06    31.804196    233.95597 
    6400    104.67837   -345.13507    86450.248   -21475.446    1556.6994   -23032.145    31.897903    234.29358 
    6450    107.90721   -378.09824    86396.032   -21486.494    1604.7163    -23091.21    32.121403    241.52044 
    6500    109.12422   -388.06832    86414.689   -21464.714    1622.8147   -23087.529    32.511417    244.24438 
    6550    104.48901   -519.97127    86373.666   -21533.618    1553.8833   -23087.502     32.64567    233.86974 
    6600    103.04439   -243.66437    86439.513   -21511.755    1532.4001   -23044.155    32.754623    230.63638 
    6650    103.57337   -500.95783    86411.191   -21551.478    1540.2667   -23091.745    33.049657    231.82034 
    6700    102.85496   -360.41362    86362.122   -21530.228     1529.583   -23059.811    33.253484    230.21239 
    6750     106.4605   -281.82537     86344.81   -21477.122    1583.2019   -23060.324    33.383912    238.28238 
    6800     108.6542   -448.38571    86344.216   -21478.031     1615.825   -23093.856    33.687849    243.19237 
    6850    106.37418    -588.3334    86312.588   -21456.662    1581.9183   -23038.581    33.958246    238.08919 
    6900    108.13143   -353.75246    86277.232   -21481.363    1608.0507   -23089.414    34.133575    242.02229 
    6950    104.17776   -472.09586    86264.596   -21492.007    1549.2547   -23041.261    34.175642     233.1731 
    7000      107.959    -390.1813    86255.431     -21470.8    1605.4865   -23076.287    34.427135    241.63636 
    7050    106.78969   -287.99653    86307.068   -21467.383    1588.0974    -23055.48     34.69348    239.01918 
    7100    105.35307   -98.264017    86313.111   -21449.662    1566.7331   -23016.395    34.598308    235.80372 
    7150    107.01243   -328.63949    86303.702   -21444.981    1591.4098    -23036.39    34.662393    239.51773 
    7200    108.16254   -234.64257    86297.027   -21479.551    1608.5134   -23088.064    34.947221    242.09193 
    7250    107.45403   -174.17934    86334.917   -21474.685     1597.977   -23072.662    35.111512    240.50613 
    7300     106.9494   -85.667851    86355.517   -21467.143    1590.4724   -23057.615      35.2781    239.37665 
    7350    106.54482   -481.96672    86402.965   -21469.858    1584.4558   -23054.314    35.331998     238.4711 
    7400    107.32655   -201.18157    86446.229    -21449.59    1596.0812   -23045.672    35.342697     240.2208 
    7450    106.50368    -578.2051    86439.758   -21464.676     1583.844    -23048.52    35.332866    238.37902 
    7500     110.8524   -659.29286    86329.841   -21456.977     1648.515   -23105.492    35.528157    248.11243 
    7550    107.53902   -596.55589    86335.597   -21464.945    1599.2409   -23064.186    35.790676    240.69636 
    7600    103.82892   -656.14558    86269.952    -21465.71     1544.067   -23009.777    35.905922    232.39232 
    7650    107.49699   -98.044654    86316.346   -21494.368    1598.6158   -23092.984    36.135403    240.60227 
    7700    105.18639   -341.27975    86328.616   -21504.936    1564.2544   -23069.191    36.378493    235.43065 
    7750    105.76395   -212.57196    86331.505   -21473.007    1572.8433    -23045.85    36.453197    236.72334 
    7800    108.92069   -647.09098      86293.6   -21468.812     1619.788     -23088.6    36.359509    243.78883 
    7850    104.76883   -341.97064    86260.789   -21463.064    1558.0447   -23021.109    36.417444    234.49606 
    7900    106.67854    -672.8341    86228.516   -21465.805    1586.4444    -23052.25    36.514797    238.77041 
    7950      109.733   -190.12843     86206.27   -21445.786    1631.8681   -23077.655    36.656324    245.60697 
    8000    107.43914   -509.95241    86247.856   -21441.632    1597.7555   -23039.388    36.789363    240.47279 
    8050    106.43046   -240.81337    86162.667   -21423.869    1582.7552   -23006.625    37.007091    238.21515 
    8100    108.12969   -382.47788    86158.239   -21432.032    1608.0249   -23040.057    37.117697     242.0184 
    8150     108.1049   -93.355594    86221.576   -21454.529    1607.6563   -23062.185     37.35772    241.96293 
    8200    109.53449    -158.9711    86278.297   -21425.518     1628.916   -23054.434    37.535585    245.16266 
    8250    109.09385   -198.19553    86265.775   -21412.032    1622.3632   -23034.396    37.688809    244.17642 
    8300    107.22536    109.69501    86313.506   -21404.998    1594.5763   -22999.575    37.804711     239.9943 
    8350    106.22482   -172.55707    86375.596    -21408.34    1579.6971   -22988.037    38.102226    237.75489 
    8400    106.80407   -430.16275    86391.932   -21417.975    1588.3112   -23006.286     38.19903    239.05137 
    8450    108.95692   -444.59647    86383.359   -21412.795    1620.3268   -23033.122    38.510941    243.86992 
    8500    108.49575   -483.87939    86362.115    -21411.44    1613.4686   -23024.909     38.76532    242.83772 
    8550    106.16515   -450.82558    86397.665   -21400.481    1578.8097   -22979.291    38.925842    237.62133 
    8600     106.9459   -451.01856    86388.294   -21428.026    1590.4205   -23018.447    39.028987    239.36883 
    8650    105.40196   -373.98747     86313.12     -21442.2    1567.4601    -23009.66    39.131606    235.91313 
    8700    108.98026   -570.82252    86198.194   -21449.073     1620.674   -23069.747    39.283432    243.92218 
    8750    107.58822    22.206748    86202.973   -21424.946    1599.9725   -23024.918    39.608951    240.80647 
    8800    108.78688   -297.40617    86235.465   -21434.654    1617.7981   -23052.453    39.867128    243.48934 
    8850    106.73581   -347.52935    86285.161   -21425.011    1587.2962   -23012.307    40.024911    238.89859 
    8900     106.6563     -401.682    86261.183   -21489.993    1586.1137   -23076.107    40.179785    238.72063 
    8950    107.49523      -302.13    86243.321   -21496.544    1598.5896   -23095.134    40.384192    240.59834 
    9000    106.18345   -717.43178    86204.778   -21513.041    1579.0818   -23092.123    40.478565    237.66228 
    9050    107.06775   -433.02153    86237.084   -21498.475    1592.2325   -23090.707    40.532253    239.64154 
    9100    108.10207   -205.18071    86306.571   -21477.854    1607.6142   -23085.469    40.671995    241.95659 
    9150    107.51485    -574.2375    86326.897   -21450.436    1598.8814   -23049.317     40.69102    240.64225 
    9200    111.66087   -174.43874    86417.286   -21413.976     1660.538   -23074.514    40.689779    249.92198 
    9250    107.96825   -499.78685    86421.429   -21417.785     1605.624   -23023.409    40.818712    241.65705 
    9300     109.3825   -208.74201     86403.09   -21398.243    1626.6558   -23024.898    40.939433    244.82247 
    9350    110.79172   -299.17329    86431.384   -21372.285    1647.6126   -23019.897    41.369005    247.97662 
    9400    109.66394   -246.28978    86460.602   -21435.479    1630.8411    -23066.32    41.619821    245.45239 
    9450    108.47142   -381.35995    86470.552   -21419.177    1613.1068   -23032.284    41.833204    242.78327 
    9500    109.52354   -194.15549    86457.898   -21350.261    1628.7531   -22979.014    42.203662    245.13814 
    9550    109.98336   -552.71557    86449.007   -21347.054    1635.5913   -22982.645    42.577471    246.16734 
    9600    106.60069   -169.84769    86410.409   -21377.331    1585.2867   -22962.618    42.612686    238.59616 
    9650    108.26509   -408.04658    86419.154    -21399.57    1610.0385   -23009.608    42.622843    242.32146 
    9700    108.23283   -447.06565    86470.189   -21402.518    1609.5587   -23012.077    42.646457    242.24926 
    9750    108.32362   -467.20701    86439.157    -21378.29    1610.9089   -22989.199    42.717452    242.45247 
    9800    105.81764   -279.04911    86448.683   -21393.805    1573.6417   -22967.446    42.740101    236.84351 
    9850     108.5294   -235.96158     86433.55   -21387.013    1613.9691   -23000.982    43.029409    242.91305 
    9900    109.82252   -13.055878    86404.788   -21345.607    1633.1994   -22978.806     43.37157    245.80734 
    9950    110.30548   -515.24525    86402.061   -21333.606    1640.3817   -22973.988    43.508199    246.88832 
   10000    107.75519   -572.32626    86389.526   -21347.034    1602.4555    -22949.49    43.784412    241.18018 
   10050    109.88789   -365.60754     86396.15   -21345.428    1634.1715   -22979.599    44.096919    245.95365 
   10100    111.07475   -97.443767    86421.692   -21335.122    1651.8216   -22986.944    44.597066    248.61011 
   10150    110.16074   -206.47792     86487.64   -21293.432    1638.2291   -22931.661    45.044246    246.56434 
   10200    112.44283   -270.26476    86447.763   -21277.378    1672.1667   -22949.545    45.455561    251.67217 
   10250    109.31208   -396.53909    86448.047   -21309.737    1625.6084   -22935.346    45.839213    244.66485 
   10300    109.28381   -274.32899    86469.288   -21302.806    1625.1881   -22927.994    46.130115    244.60158 
   10350    109.54101    2.6066483    86402.217   -21361.742     1629.013   -22990.755    46.343385    245.17726 
   10400    112.27125   -212.21719    86330.379   -21368.921    1669.6151   -23038.536    46.627539    251.28815 
   10450    108.38637   -289.54021     86344.14   -21367.136    1611.8421   -22978.978     46.62379    242.59292 
   10500    113.85083   -282.36133    86374.059   -21296.727    1693.1054   -22989.832    46.848106    254.82358 
   10550    111.79082   -371.82437    86356.234   -21300.941    1662.4705   -22963.411    47.118924    250.21282 
   10600    109.50986     -317.059     86314.46   -21314.397    1628.5498   -22942.947    47.150188    245.10754 
   10650    109.53367   -510.75791    86293.924   -21331.371    1628.9039   -22960.275    47.153436    245.16084 
   10700    110.02022   -50.527526     86265.65   -21349.404    1636.1394   -22985.543    47.501285    246.24983 
   10750    109.20293   -346.43254    86293.612   -21400.444    1623.9853   -23024.429    47.860438    244.42055 
   10800    107.44241   -410.51751    86298.582   -21416.014    1597.8042   -23013.818    48.014742    240.48012 
   10850    104.82699   -473.31021    86332.852   -21472.376    1558.9095   -23031.285    48.206961    234.62621 
   10900    103.86624   -406.07834    86285.741   -21469.944    1544.6219   -23014.566    48.285101    232.47584 
   10950     106.9208   -223.29595    86226.218   -21504.858    1590.0472   -23094.905     48.53899    239.31265 
   11000     103.9896   -628.36837    86267.503   -21540.971    1546.4565   -23087.428    48.611659    232.75196 
   11050    106.15239   -517.45273    86266.696   -21527.411    1578.6199   -23106.031    48.875598    237.59276 
   11100    106.92081   -395.29463    86282.975   -21499.963    1590.0473   -23090.011    49.134489    239.31266 
   11150     106.6661   -386.67102    86261.465   -21497.133    1586.2595   -23083.393    49.549983    238.74257 
   11200    106.82144   -260.25086     86314.27   -21494.876    1588.5695   -23083.445    49.867052    239.09024 
   11250    107.54956   -585.42444    86307.677   -21483.923    1599.3976   -23083.321    50.113113    240.71995 
   11300    107.24655    -528.9467    86240.896   -21521.364    1594.8915   -23116.255    50.056177    240.04175 
   11350    105.52202   -206.56425    86284.043   -21517.633    1569.2455   -23086.878    50.049907    236.18185 
   11400    105.61014   -273.68606    86347.467   -21485.725    1570.5561   -23056.281    49.898124     236.3791 
   11450    107.42364   -302.85804    86382.936   -21490.018     1597.525   -23087.543    49.985758    240.43811 
   11500    105.56609   -233.73779    86419.112     -21528.9    1569.9009   -23098.801    50.080686     236.2805 
   11550     105.9954   -402.60513    86442.974   -21507.722    1576.2854   -23084.008    50.504461     237.2414 
   11600    105.69445   -501.03043    86460.946   -21507.534    1571.8098   -23079.344    50.616524     236.5678 
   11650    105.90018   -577.44479    86393.666   -21549.374    1574.8693   -23124.243    50.824307    237.02827 
   11700    107.86063   -249.67191    86323.187     -21545.1    1604.0237   -23149.124     50.98499     241.4162 
   11750    105.68547   -373.41965    86379.875   -21506.895    1571.6762   -23078.571     51.10821    236.54768 
   11800    104.84122   -604.75196    86375.357   -21534.936    1559.1212   -23094.057    51.374784    234.65808 
   11850    102.95648    -546.9143    86388.678   -21566.131    1531.0927   -23097.223    51.240707    230.43961 
   11900    106.63175   -476.61927    86423.778   -21524.252    1585.7486       -23110    51.441433    238.66568 
   11950    105.58037   -461.98967    86387.878   -21502.553    1570.1132   -23072.667    51.641118    236.31245 
   12000    104.81322   -358.12408    86400.479   -21495.555    1558.7049    -23054.26    51.813125    234.59541 
   12050    104.44272   -759.85918     86390.75   -21527.476     1553.195   -23080.671    52.365464    233.76615 
   12100    107.86607   -345.39474    86343.901   -21545.352    1604.1046   -23149.457    52.341426    241.42837 
   12150    105.14234   -419.42187    86350.353   -21517.461    1563.5992    -23081.06    52.798999    235.33204 
   12200    104.76532   -444.23894    86348.012   -21546.683    1557.9924   -23104.675    53.086839    234.48818 
   12250    109.12464   -411.24653    86367.491   -21487.283     1622.821   -23110.104    53.043276    244.24531 
   12300    107.48341   -257.80679    86428.751   -21486.236    1598.4139    -23084.65    53.401972    240.57189 
   12350    107.86318   -486.49541    86436.561    -21504.75    1604.0615   -23108.811    53.709571    241.42189 
   12400    106.09204   -19.258692    86439.996   -21514.344    1577.7225   -23092.066    53.877088    237.45769 
   12450     104.9136   -651.69452    86431.909   -21538.391    1560.1976   -23098.588    54.184221    234.82008 
   12500    102.65352    -380.5612    86409.632   -21519.863    1526.5874   -23046.451     54.31264    229.76152 
   12550    106.42036   -531.38258    86400.717   -21465.098    1582.6049   -23047.703    54.363012    238.19253 
   12600    105.17077   -750.08671    86312.334   -21473.228     1564.022    -23037.25    54.370731    235.39569 
   12650     106.3275   -721.61401     86258.79   -21475.047     1581.224   -23056.271    54.473205    237.98469 
   12700    107.08621   -559.45115    86184.287   -21475.269     1592.507   -23067.776    54.620722    239.68286 
   12750    106.87923   -531.10946    86133.365   -21464.759     1589.429   -23054.188    54.908512     239.2196 
   12800    105.66224   -350.95631    86179.397   -21453.441    1571.3308   -23024.772    55.317099    236.49571 
   12850    107.89616   -486.36273    86149.377   -21463.486    1604.5519   -23068.038    55.395298     241.4957 
   12900      105.734   -359.47977    86195.314   -21479.273     1572.398   -23051.671    55.463245    236.65632 
   12950    107.33176   -365.71791    86231.533   -21470.737    1596.1587   -23066.896    55.583485    240.23246 
   13000    104.67563    -110.4638    86271.302   -21489.316    1556.6587   -23045.975    55.899462    234.28746 
   13050    106.16377   -162.75577    86323.433   -21489.901    1578.7891   -23068.691    56.132362    237.61823 
   13100    105.63663   -61.168904    86367.394   -21461.427      1570.95   -23032.377    56.461655    236.43838 
   13150    108.48086   -407.58499    86401.203   -21480.918    1613.2472   -23094.165    56.709791     242.8044 
   13200     107.2096   -270.13621    86459.411   -21465.811    1594.3419   -23060.152    57.083324    239.95903 
   13250    108.68515   -534.43192    86446.605   -21478.471    1616.2853   -23094.756    57.634732    243.26166 
   13300    108.39416    -431.9417    86372.176    -21482.42    1611.9578   -23094.378    57.853828    242.61034 
   13350     106.7723   -456.79674    86268.417   -21445.687    1587.8388   -23033.526    58.072429    238.98026 
   13400    106.29051   -764.95756    86206.978   -21457.015     1580.674   -23037.689    58.058414    237.90191 
   13450    107.16595    -607.2823    86207.969   -21477.868    1593.6928   -23071.561    58.138047    239.86133 
   13500    105.38979   -352.55152    86271.304   -21509.509    1567.2791   -23076.788    58.283739    235.88589 
   13550    106.89372   -567.44787    86207.531   -21469.376    1589.6445    -23059.02    58.540201    239.25203 
   13600    108.96821   -235.08817    86225.089   -21477.939    1620.4947   -23098.433    59.001524    243.89519 
   13650    105.96228   -468.07752    86219.107   -21514.662    1575.7927   -23090.455    59.366302    237.16725 
   13700    105.28115   -236.25633    86239.502   -21518.428    1565.6635   -23084.092    59.662223    235.64274 
   13750    105.78002   -506.36664    86220.713   -21504.863    1573.0823   -23077.945    59.897887    236.75931 
   13800    104.79918   -796.57361    86206.218   -21581.457    1558.4959   -23139.953    60.107771    234.56397 
   13850     104.3192    -497.3898    86179.628   -21574.463    1551.3581   -23125.821    60.123008    233.48968 
   13900     107.5436   -390.71615     86157.29   -21569.957    1599.3089   -23169.266    59.947157    240.70659 
   13950    104.66924   -315.92739    86171.457   -21556.912    1556.5637   -23113.475    59.953606    234.27315 
   14000    104.10486   -183.73144    86239.858   -21567.889    1548.1705   -23116.059    60.309659    233.00993 
   14050    105.24628   -25.224859    86237.346   -21522.814    1565.1449   -23087.959    60.378709    235.56468 
   14100     109.4738    -216.6765    86253.114   -21531.002    1628.0134   -23159.015    60.421088    245.02681 
   14150    105.68641   -545.44877     86272.35   -21527.523    1571.6903   -23099.213    60.529337    236.54981 
   14200    106.22252   -541.08363    86259.906   -21544.298    1579.6628   -23123.961    60.778166    237.74973 
   14250    104.52722   -268.74655    86190.629   -21522.543    1554.4515   -23076.995    60.895491    233.95526 
   14300    104.65576   -430.00772    86249.098    -21541.21    1556.3632   -23097.573    61.296049    234.24298 
   14350    104.13726    91.826302    86322.278   -21558.834    1548.6524   -23107.486    61.718391    233.08245 
   14400    105.01921   -65.312085    86413.204   -21538.785    1561.7681   -23100.553    62.248993    235.05645 
   14450     105.5071   -377.00886     86464.28   -21514.134    1569.0236   -23083.157    62.525519    236.14846 
   14500    107.06289   -272.26202    86466.051   -21482.677    1592.1602   -23074.837      62.8223    239.63067 
   14550    106.64674   -351.20932     86457.89   -21485.801    1585.9715   -23071.773    63.044681    238.69922 
   14600    104.81699    -326.0854    86507.777   -21497.579    1558.7609    -23056.34    63.186482    234.60385 
   14650    104.12831   -250.57599    86501.105   -21542.092    1548.5193   -23090.611    63.391232    233.06242 
   14700    105.41717   -417.95417    86505.515   -21500.136    1567.6864   -23067.822    63.633518    235.94719 
   14750    107.46907   -223.37824    86557.167   -21506.677    1598.2006   -23104.878    63.994107    240.53978 
   14800    106.72462    -553.1199    86573.596   -21518.994    1587.1298   -23106.124    64.280675    238.87355 
   14850    106.33617    -172.4236    86611.489   -21516.491     1581.353   -23097.844    64.737734    238.00411 
   14900    105.81234   -478.88692    86566.498   -21481.639     1573.563   -23055.202    64.958652    236.83166 
   14950    107.97772     -391.298    86495.197   -21494.918    1605.7649   -23100.682    65.256156    241.67826 
   15000    105.88169   -199.01475    86479.302   -21490.683    1574.5942   -23065.277    65.471751    236.98687 
   15050     107.0599   -469.97806    86460.609   -21508.461    1592.1158   -23100.576    65.695579    239.62398 
   15100    106.73968   -477.49497    86406.337   -21483.618    1587.3537   -23070.972    65.621666    238.90726 
   15150    106.07997   -660.04102    86355.337   -21508.372     1577.543   -23085.915    65.761037    237.43068 
   15200    106.73791    -517.9197    86439.464   -21464.281    1587.3273   -23051.608    65.927232    238.90329 
   15250    106.60925   -90.984785    86408.749   -21457.428    1585.4141   -23042.842    66.121927    238.61533 
   15300    109.61931   -472.21235    86360.452   -21453.009    1630.1774   -23083.186    66.235165    245.35251 
   15350    103.55469   -611.83018    86390.719   -21458.651    1539.9888   -22998.639    66.202144    231.77853 
   15400    105.59948   -909.38522    86324.089   -21484.386    1570.3975   -23054.784    66.340562    236.35524 
   15450     106.3126   -287.64266    86282.911   -21452.859    1581.0025   -23033.862    66.622289    237.95135 
   15500    108.13034   -370.28286    86298.334   -21427.022    1608.0346   -23035.057    66.801571    242.01987 
   15550    107.96506   -257.25504    86329.063   -21475.522    1605.5766   -23081.099    66.780322    241.64991 
   15600    106.45994   -474.27617    86290.127   -21461.784    1583.1936   -23044.977    67.125277    238.28114 
   15650    106.34809   -763.19925    86235.516   -21426.006    1581.5302   -23007.537    67.274047    238.03079 
   15700    106.37946   -514.64748    86179.361   -21462.047    1581.9968   -23044.044    67.557881      238.101 
   15750    108.20219   -710.19314    86134.964   -21459.424     1609.103   -23068.527    67.928735    242.18067 
   15800     107.6009   -386.46712    86127.955    -21477.35    1600.1611   -23077.511    67.986312    240.83485 
   15850    107.14023   -762.15341    86101.388   -21459.643    1593.3104   -23052.953    68.588611    239.80377 
   15900    107.81479   -190.89951    86103.512   -21450.176    1603.3418   -23053.518    68.879833    241.31358 
   15950     105.6606   -350.64541    86162.298   -21464.609    1571.3064   -23035.916    68.909399    236.49203 
   16000     105.6276   -258.57945    86120.004   -21420.877    1570.8156   -22991.692    68.925651    236.41817 
   16050    107.96699   -172.47357    86125.494    -21453.25    1605.6053   -23058.856     69.22553    241.65424 
   16100    105.82842   -574.79693     86060.07   -21473.158    1573.8021    -23046.96    69.462856    236.86765 
   16150    105.82302   -287.25718    86076.963   -21448.972    1573.7219   -23022.694    69.831516    236.85557 
   16200     108.6966   -347.18905    86080.064   -21465.906    1616.4555   -23082.361    69.736205    243.28727 
   16250    104.92906   -474.95588    86114.326   -21473.139    1560.4275   -23033.566    69.852883    234.85468 
   16300    108.02172   -413.43687    86186.568    -21478.42    1606.4192   -23084.839    70.315626    241.77674 
   16350    109.34134   -351.13587    86230.626   -21481.267    1626.0437    -23107.31    70.712233    244.73035 
   16400    105.12454   -688.33329    86284.471   -21496.128    1563.3345   -23059.462    70.883698    235.29221 
   16450    108.01345   -530.35521    86261.327    -21460.49    1606.2963   -23066.787    71.022622    241.75824 
   16500    106.30471   -791.11233    86211.414   -21463.307    1580.8852   -23044.192    71.234122     237.9337 
   16550    107.83061   -287.30008    86231.518   -21445.929    1603.5771   -23049.506    71.042167    241.34899 
   16600    109.52599   -24.765992    86331.234   -21466.705    1628.7896   -23095.494    71.198631    245.14364 
   16650    108.16718   -409.24563     86352.93   -21417.418    1608.5825       -23026    71.160975    242.10233 
   16700    105.60444   -218.30563    86346.849   -21452.408    1570.4712   -23022.879    71.719058    236.36632 
   16750    108.49498    257.33108    86457.167   -21464.164    1613.4573   -23077.621    71.629126    242.83601 
   16800    105.89506   -322.02333    86493.231   -21533.359    1574.7931   -23108.153    71.804702    237.01681 
   16850    103.74406   -180.66072    86482.573   -21552.563    1542.8051   -23095.368    72.159307    232.20239 
   16900    105.33038   -349.87605    86485.943   -21547.521    1566.3957   -23113.917    72.317283    235.75293 
   16950    102.69742   -578.02333     86453.41    -21553.97    1527.2402    -23081.21    72.357284    229.85978 
   17000    102.76847   -470.44505    86364.134   -21528.368    1528.2968   -23056.665    72.514838     230.0188 
   17050    103.13336   -481.25186    86380.035   -21481.947    1533.7232    -23015.67    72.788745    230.83551 
   17100    104.43579    -286.9885    86398.325   -21487.398     1553.092    -23040.49    73.166787    233.75064 
   17150      106.476   -275.23914    86422.003   -21489.851    1583.4324   -23073.283    73.757966    238.31707 
   17200    108.47697   -593.30507    86313.562   -21470.437    1613.1893   -23083.627    73.752296    242.79569 
   17250    106.74533   -565.23076    86244.575   -21495.696    1587.4377   -23083.133    73.833656     238.9199 
   17300    104.82839   -679.04833    86263.429   -21485.813    1558.9303   -23044.744    73.958299    234.62935 
   17350    106.83511   -566.23942    86184.159   -21463.611    1588.7729   -23052.384    73.909173    239.12085 
   17400    106.00091   -524.96889    86215.052   -21444.938    1576.3672   -23021.305    73.974952    237.25371 
   17450    107.38438    -357.1847    86216.268   -21429.708    1596.9412   -23026.649    73.847089    240.35024 
   17500    107.98475    -592.7011    86246.005   -21428.948    1605.8694   -23034.817    73.879401    241.69399 
   17550    107.15262   -456.06183    86213.447   -21461.262    1593.4946   -23054.757    73.978222    239.83151 
   17600    105.19729   -526.87102    86252.637   -21474.662    1564.4164   -23039.078    74.220708    235.45504 
   17650      105.271   -230.64457    86230.928   -21482.821    1565.5125   -23048.334    74.398599    235.62001 
   17700    105.59887   -581.70177        86221   -21469.936    1570.3883   -23040.325    74.449641    236.35385 
   17750    105.82527   -293.58697    86239.023    -21470.05    1573.7552   -23043.806    74.764974    236.86059 
   17800    104.74715   -14.430529    86320.575   -21463.463    1557.7223   -23021.185     75.14264    234.44753 
   17850     105.5608   -514.96412    86311.573   -21485.504    1569.8222   -23055.326    75.449868    236.26865 
   17900    104.69573   -397.89942    86341.752   -21476.426    1556.9576   -23033.383    75.650702    234.33244 
   17950    105.97271   -301.03299    86337.581   -21483.033    1575.9478   -23058.981     76.28469    237.19059 
   18000    107.64657   -426.02972    86292.108   -21452.948    1600.8403   -23053.789    76.481151    240.93708 
   18050    109.49549   -231.87816    86277.969   -21436.902     1628.336   -23065.238    76.666362    245.07537 
   18100    109.78197    -305.6049    86278.078   -21443.317    1632.5964   -23075.914    76.727361    245.71658 
   18150    104.06872    -397.9036    86245.547   -21495.976    1547.6331   -23043.609    77.215183    232.92904 
   18200    104.98262   -407.21766    86259.702   -21532.374     1561.224   -23093.598    77.275799    234.97456 
   18250    102.57644   -404.51703    86266.915   -21533.644    1525.4411   -23059.085    77.132736    229.58899 
   18300    106.24547   -96.844457    86227.044   -21491.321    1580.0041   -23071.325    77.190268    237.80109 
   18350    108.32281   -433.59685    86191.435   -21479.401    1610.8968   -23090.298     77.29955    242.45065 
   18400    107.64866   -690.27654    86119.192   -21466.782    1600.8714   -23067.653    77.714009    240.94175 
   18450     103.7203   -735.80292    86088.791   -21522.471    1542.4517   -23064.922    78.204125     232.1492 
   18500    107.02945   -472.91727    86075.003   -21505.101     1591.663   -23096.764    78.394988    239.55583 
   18550    103.96987   -217.51408    86096.791   -21457.932    1546.1631   -23004.095    78.128957     232.7078 
   18600    107.61558   -422.00658    86086.033   -21466.363    1600.3794   -23066.743    78.248215    240.86771 
   18650    106.91644   -273.01702    86072.465   -21482.343    1589.9823   -23072.325    78.695248    239.30287 
   18700    104.83991   -97.410036    86110.429   -21511.488    1559.1017   -23070.589    78.847344    234.65514 
   18750    105.78255   -253.68537    86142.972    -21516.03      1573.12    -23089.15    79.243123    236.76498 
   18800    106.37436   -266.81018    86162.647   -21507.345    1581.9209   -23089.266     79.36227    238.08958 
   18850    107.18475   -268.80497    86205.901   -21470.801    1593.9724   -23064.773     79.36127    239.90342 
   18900    105.37011   -383.14892    86261.747   -21478.121    1566.9865   -23045.107    79.686737    235.84185 
   18950    108.66221   -146.65134    86270.226   -21456.214    1615.9441   -23072.158    80.051651     243.2103 
   19000    109.65719    87.491351    86344.335   -21416.115    1630.7408   -23046.856    80.490888     245.4373 
   19050    106.54352   -181.63315    86378.056   -21452.271    1584.4366   -23036.707    80.849007    238.46821 
   19100    106.89911   -238.35069     86399.42   -21469.385    1589.7246   -23059.109    81.373612     239.2641 
   19150    104.84409   -299.79799     86432.47   -21483.555    1559.1639   -23042.719     81.71211    234.66451 
   19200    105.68689   -319.87182    86431.414   -21464.214    1571.6974   -23035.911    81.839166    236.55088 
   19250    110.97837   -189.34556     86426.38   -21417.396    1650.3884   -23067.785    82.136941    248.39439 
   19300     105.7715   -217.95964    86493.758   -21447.132    1572.9557   -23020.088    82.572861    236.74026 
   19350    109.18029   -542.73968    86476.155   -21430.295    1623.6486   -23053.944    82.865735    244.36989 
   19400    107.79401   -307.26126    86475.789   -21449.172    1603.0329   -23052.205    82.837585    241.26707 
   19450    104.75451   -391.49753    86500.299   -21486.543    1557.8317   -23044.374    83.184393    234.46399 
   19500    104.14554   -286.45989    86503.102   -21531.888    1548.7755   -23080.664    83.486396    233.10098 
   19550    104.14742     -248.576     86449.89   -21508.244    1548.8034   -23057.048    83.395854    233.10518 
   19600    105.24347    10.134171    86398.645   -21456.335    1565.1031   -23021.438    83.548569    235.55839 
   19650    108.99305     -215.095    86520.395   -21450.153    1620.8642   -23071.017    83.780204     243.9508 
   19700    106.33974   -204.55387    86671.094   -21479.384     1581.406    -23060.79    84.185064    238.01209 
   19750    106.11989   -424.58103    86624.141   -21455.473    1578.1367   -23033.609     84.34924    237.52003 
   19800    106.54294   -403.41918    86607.637   -21459.465    1584.4279   -23043.893    84.529431     238.4669 
   19850    107.83988   -521.56575    86655.873   -21478.481     1603.715   -23082.196    84.540898    241.36974 
   19900    105.93263   -434.12508     86546.23   -21517.986    1575.3518   -23093.338    84.948773    237.10089 
   19950    103.43522    -359.0793    86552.522   -21544.097    1538.2123    -23082.31      85.0417    231.51114 
   20000    107.55471   -243.05279    86492.499   -21500.908    1599.4742   -23100.382    85.184937    240.73147 
   20050    105.98535   -52.790184    86545.031   -21477.103    1576.1359   -23053.239    85.429792    237.21889 
   20100    107.02893   -446.82343    86572.161   -21435.061    1591.6553   -23026.717      85.3904    239.55467 
   20150    110.05053   -34.711476    86592.286   -21415.619    1636.5901   -23052.209    85.724035    246.31766 
   20200    107.92825   -601.13596    86620.215   -21441.383    1605.0293   -23046.412    85.690603    241.56754 
   20250     109.3548   -71.038274    86656.339   -21413.094    1626.2438   -23039.338    85.679925    244.76048 
   20300    107.24206   -271.72039    86681.653   -21398.103    1594.8247   -22992.928    85.557433    240.03169 
   20350    107.14121   -406.30057    86712.365    -21458.29     1593.325   -23051.615    85.619083    239.80597 
   20400    107.58257   -776.55932    86599.133   -21488.066    1599.8885   -23087.954    85.810825    240.79383 
   20450    107.05054   -381.72254    86509.138   -21521.215    1591.9766   -23113.191    85.823768    239.60303 
   20500    107.20201   -186.37444    86566.796   -21495.057     1594.229   -23089.286    86.066757    239.94204 
   20550    109.90996   -495.61512    86580.881   -21476.041    1634.4998    -23110.54    86.455939    246.00305 
   20600    107.92151   -368.03814    86540.843   -21464.599    1604.9289   -23069.528    86.660985    241.55245 
   20650    107.30762   -243.34756    86507.306   -21464.577    1595.7996   -23060.377     86.87601    240.17842 
   20700    108.94634   -306.04963    86520.968   -21462.095    1620.1696   -23082.265    87.164894    243.84626 
   20750    109.33407   -339.75828    86520.042   -21467.636    1625.9356   -23093.572    87.693115    244.71408 
   20800     109.2194    129.28343    86496.722    -21413.26    1624.2302    -23037.49    87.948607    244.45741 
   20850     112.2411   -433.68192    86590.157   -21348.767    1669.1668   -23017.934    87.973044    251.22067 
   20900    110.45117   -219.28129    86626.488   -21352.968    1642.5482   -22995.516    88.103441    247.21439 
   20950    108.92442   -253.45691    86634.296    -21372.98    1619.8435   -22992.823     88.16651    243.79719 
   21000    105.58596   -197.72324    86611.783   -21378.975    1570.1964   -22949.171    88.266162    236.32496 
   21050    112.74766   -595.06837    86590.998   -21318.882    1676.6999   -22995.582    88.669087    252.35445 
   21100    112.43074   -283.53657    86547.237   -21332.046    1671.9869   -23004.033    89.028033    251.64511 
   21150    105.49979   -570.85723    86587.581   -21325.376    1568.9149   -22894.291    89.277669     236.1321 
   21200    111.19916   -474.09421    86508.563   -21339.999    1653.6717   -22993.671    89.463142    248.88856 
   21250    107.49898   -616.77503    86535.683   -21373.331    1598.6455   -22971.977    90.032381    240.60675 
   21300    107.30355   -577.74583    86476.154   -21397.658    1595.7392   -22993.397    90.676537    240.16932 
   21350    108.08324   -446.34182    86502.102    -21425.64    1607.3341   -23032.974    90.863295    241.91444 
   21400    109.24152   -622.77656      86486.6   -21398.337    1624.5593   -23022.897    90.914178    244.50694 
   21450    109.72017   -387.82777    86418.894   -21403.138    1631.6773   -23034.815    91.204629    245.57825 
   21500    110.45469   -321.85021    86441.793   -21347.977    1642.6006   -22990.578    91.526853    247.22228 
   21550    107.63553   -446.61371    86421.637   -21374.516    1600.6761   -22975.192     91.35158    240.91237 
   21600     108.2972   -194.43319    86448.371   -21420.181     1610.516   -23030.697    91.501868    242.39333 
   21650    108.30709   -352.35038    86452.077   -21417.949     1610.663   -23028.612     91.55368    242.41546 
   21700    109.17378    -190.2901    86398.794    -21434.99    1623.5518   -23058.542    91.419617    244.35531 
   21750    106.87993   0.10787901    86458.637   -21452.455    1589.4393   -23041.895    91.657054    239.22115 
   21800     107.7715     -670.795    86509.542   -21466.544    1602.6981   -23069.242    91.854352    241.21669 
   21850    108.30054   -640.79169    86478.972   -21462.708    1610.5656   -23073.274    91.941115    242.40081 
   21900    107.16558   -661.72697    86371.668   -21480.405    1593.6874   -23074.092    92.351182    239.86052 
   21950    107.47796   -441.40002    86292.514   -21423.609    1598.3328   -23021.942     92.69292    240.55968 
   22000    107.18963   -102.34092    86281.622   -21450.488     1594.045   -23044.533     92.99495    239.91434 
   22050    104.89111   -247.32081    86380.443   -21462.037    1559.8631     -23021.9    93.427203    234.76973 
   22100    104.67263   -590.48173    86388.066   -21454.301    1556.6141   -23010.915    93.152903    234.28074 
   22150    106.62342   -184.32329     86452.24   -21439.891    1585.6247   -23025.516    93.086347    238.64703 
   22200    106.12638   -412.62428    86496.782   -21449.901    1578.2331   -23028.134    93.644897    237.53454 
   22250    105.93844   -315.07157    86417.016   -21440.719    1575.4382   -23016.158    93.984633    237.11389 
   22300    109.65932   -387.44589    86416.629   -21430.383    1630.7725   -23061.156    94.369435    245.44207 
   22350    106.06922   -483.84128    86400.699   -21471.933     1577.383   -23049.316     94.77599    237.40661 
   22400    108.17286    -454.0625    86370.661    -21443.94    1608.6669   -23052.607    95.121891    242.11503 
   22450    107.05029   -694.15895    86397.467    -21435.87    1591.9729   -23027.843    95.281321    239.60248 
   22500    110.23661   -387.26306    86309.326   -21485.005    1639.3574   -23124.363    95.284772    246.73416 
   22550    108.52504   -193.80861    86252.144   -21467.332    1613.9042   -23081.236    95.682599    242.90328 
   22600    109.23965   -306.89228    86273.368    -21474.02    1624.5313   -23098.551     96.12303    244.50274 
   22650      106.041    -209.9444    86295.548   -21478.485    1576.9634   -23055.449    96.453223    237.34344 
   22700    108.75311   -419.93234    86278.583   -21497.362    1617.2959   -23114.658    96.701126    243.41376 
   22750     104.9714   -513.63599    86238.587   -21516.651    1561.0571   -23077.708    96.714271    234.94944 
   22800    106.94401    -935.6335    86221.395   -21515.908    1590.3923     -23106.3    96.817824    239.36458 
   22850    104.99427   -400.39734    86231.504   -21486.934    1561.3973   -23048.331    97.176564    235.00064 
   22900    106.40988   -397.80676    86249.884   -21483.631    1582.4491    -23066.08    97.178648    238.16908 
   22950    105.75084   -21.733665    86325.815   -21487.805    1572.6484   -23060.454    97.467452    236.69402 
   23000    106.32977   -97.454387    86472.022   -21513.595    1581.2578   -23094.853    97.823558    237.98978 
   23050    106.08867   -454.41361    86477.006   -21518.053    1577.6723   -23095.725    98.116857    237.45014 
   23100     105.8067   -470.22957      86421.2   -21529.639    1573.4791   -23103.118    98.225054    236.81903 
   23150    103.65084   -333.06934    86395.527   -21514.364    1541.4187   -23055.783    98.671334    231.99374 
   23200    108.02726   -289.16893    86418.042   -21511.074    1606.5015   -23117.575    99.058387    241.78913 
   23250    104.48723    -630.6876    86413.045   -21536.336     1553.857   -23090.193    98.967801    233.86578 
   23300    107.43023   -452.95271    86350.626   -21529.278    1597.6231   -23126.901    98.950562    240.45286 
   23350     105.4154    -136.3024    86332.887   -21467.857    1567.6599   -23035.517     99.14837    235.94321 
   23400     105.8206   -208.11244    86344.974   -21496.596    1573.6858   -23070.282    99.399133    236.85015 
   23450    107.46757   -536.56572    86403.856   -21466.477    1598.1782   -23064.655    99.912197    240.53642 
   23500    110.90841   -301.46179     86430.58   -21456.514     1649.348   -23105.862    100.23019    248.23781 
   23550    107.91862   -129.84257    86448.212   -21470.863     1604.886   -23075.749    100.71596    241.54598 
   23600    105.71913   -124.99635    86467.667   -21500.214    1572.1768    -23072.39    101.18739    236.62302 
   23650    105.82282   -190.43028    86493.311   -21477.978    1573.7189   -23051.697    101.11442    236.85512 
   23700    106.19426   -710.40641    86461.196   -21525.752    1579.2425   -23104.995    101.22285    237.68647 
   23750    106.37255   -641.33266    86394.673   -21490.088    1581.8939   -23071.982    101.77262    238.08552 
   23800    104.86922   -469.05926    86364.618   -21493.506    1559.5375   -23053.044    102.12042    234.72074 
   23850    107.47524   -391.33857    86324.969   -21472.602    1598.2924   -23070.894     101.8695     240.5536 
   23900    105.23689   -319.51286    86246.238   -21469.614    1565.0052   -23034.619    102.23975    235.54366 
   23950    106.00806   -519.06207    86182.337   -21469.392    1576.4735   -23045.866    102.45773    237.26971 
   24000    105.95945   -97.458828    86207.768   -21454.847    1575.7507   -23030.597    102.22277    237.16092 
   24050    101.30902   -565.28467    86315.554   -21481.469    1506.5929   -22988.062    102.62717    226.75221 
   24100    107.00297   -222.89196    86294.143   -21462.292    1591.2691   -23053.561    103.06697    239.49654 
   24150    107.77476    -366.6603    86317.272   -21434.418    1602.7467   -23037.165    103.49658      241.224 
   24200    106.79969   -498.84114    86363.422   -21443.509    1588.2461   -23031.755    103.58365    239.04157 
   24250    107.40424   -248.96845     86339.68   -21445.486    1597.2365   -23042.722    103.85174    240.39469 
   24300    106.09865   -204.04103    86395.628   -21477.666    1577.8207   -23055.486    103.68302    237.47248 
   24350     107.6998   -370.51605    86426.589   -21459.175    1601.6319   -23060.807    103.88671    241.05622 
   24400    107.34637   -221.47747    86433.221    -21424.27    1596.3759   -23020.646    104.36306    240.26515 
   24450    108.89377   -530.13132    86430.407   -21417.336    1619.3877   -23036.724    104.81081    243.72858 
   24500    107.08824   -522.23145    86438.519   -21465.113    1592.5372    -23057.65    105.04099     239.6874 
   24550    106.99409   -725.20875    86349.552   -21507.489    1591.1371   -23098.627    105.55921    239.47668 
   24600    105.26797   -439.77442    86380.381   -21513.704    1565.4674   -23079.171    105.59911    235.61323 
   24650    107.02598    -356.1537    86369.067   -21530.005    1591.6113   -23121.616    105.68001    239.54805 
   24700    107.46887   -379.90181     86368.79   -21483.483    1598.1977   -23081.681    106.09911    240.53934 
   24750    105.80849   -331.87953    86364.949   -21509.749    1573.5058   -23083.254    106.23701    236.82305 
   24800    105.46636   -194.21568    86437.089   -21517.403    1568.4178   -23085.821    106.22107    236.05728 
   24850    106.03373   -147.78203    86541.848   -21532.702    1576.8554   -23109.558    106.67503    237.32718 
   24900     108.3952   -393.44311    86607.806   -21527.352    1611.9733   -23139.325    107.11889    242.61267 
   24950    107.97131    -360.7526    86659.248   -21473.215    1605.6696   -23078.885    107.61668    241.66393 
   25000    106.15583    -448.2705    86631.469   -21473.349     1578.671    -23052.02    108.06039    237.60046 
   25050    107.28926   -654.75862    86640.464   -21482.637    1595.5267   -23078.164    108.07056    240.13734 
   25100    106.51803   -478.10908    86566.837   -21491.844    1584.0575   -23075.901    107.85689    238.41115 
   25150    107.00039   -122.99086    86473.801   -21490.642    1591.2308   -23081.872    107.94208    239.49078 
   25200    107.46817   -461.61698    86530.125   -21536.255    1598.1872   -23134.443     108.1115    240.53777 
   25250    107.99323   -417.10595    86567.646   -21547.776    1605.9956   -23153.772     108.2439    241.71298 
   25300    104.92051   -410.32582    86583.861    -21589.29    1560.3003    -23149.59    108.46281    234.83554 
   25350    107.36409    -550.8215    86569.054    -21615.96    1596.6395   -23212.599    108.67827    240.30483 
   25400    104.18933   -423.24138    86582.424   -21587.966    1549.4268   -23137.392    108.92358      233.199 
   25450    106.92042   -314.83284    86667.373   -21589.272    1590.0415   -23179.314    109.11674    239.31178 
   25500    105.57295   -371.28653    86633.849   -21566.182    1570.0029   -23136.185    109.50488    236.29585 
   25550    104.46673   -496.95988     86595.68   -21577.638    1553.5521    -23131.19    109.66973    233.81989 
   25600    106.54818   -439.34384    86609.676   -21560.698    1584.5058   -23145.204    109.96636    238.47863 
   25650     105.7856   -531.01476    86577.915   -21514.052    1573.1652   -23087.217    110.43511     236.7718 
   25700    106.18982   -399.29962    86586.798   -21512.004    1579.1766   -23091.181    110.96381    237.67655 
   25750    106.57696   -181.76593    86574.003   -21501.757    1584.9338   -23086.691    111.10955    238.54304 
   25800     109.9356   -163.03911    86632.706   -21494.404    1634.8811   -23129.285    111.37033    246.06045 
   25850    107.59674   -662.56969     86635.72   -21521.006    1600.0992   -23121.105     111.6094    240.82553 
   25900    107.30116   -737.47233    86680.908   -21509.463    1595.7036   -23105.167    111.39085    240.16396 
   25950    107.85165   -289.38881    86694.142   -21523.275    1603.8901   -23127.165    110.87327    241.39609 
   26000    109.54041   -475.47962    86670.246   -21491.287    1629.0041   -23120.291    110.83776    245.17592 
   26050    109.56724   -362.40705    86681.559   -21468.434    1629.4031   -23097.837    110.71167    245.23597 
   26100     107.6658   -447.97677    86712.519   -21434.421    1601.1263   -23035.547    110.53348    240.98012 
   26150    106.43556   -257.30175    86681.889   -21422.756     1582.831   -23005.587      110.748    238.22656 
   26200     108.9645    -217.3281     86630.99   -21386.612    1620.4396   -23007.051    111.17321     243.8869 
   26250    109.69059    -682.1419    86644.378   -21379.165    1631.2374   -23010.403    111.65555    245.51205 
   26300    108.65257   -558.67609    86632.951   -21380.953    1615.8008   -22996.754    112.06179    243.18873 
   26350    109.39379   -293.16519    86665.462   -21344.515    1626.8237   -22971.339    112.64289    244.84775 
   26400    107.45725   -375.41848    86692.272   -21377.856    1598.0248   -22975.881    112.92012    240.51333 
   26450    107.18166   -683.95616    86684.262    -21394.35    1593.9264   -22988.276    113.27832     239.8965 
   26500     105.6786   -301.63613    86643.924   -21427.742    1571.5741   -22999.316    113.54924    236.53232 
   26550    106.14673   -777.54976    86578.029   -21417.282    1578.5357   -22995.818    113.83496    237.58009 
   26600    108.13759   -518.17513     86549.11   -21402.979    1608.1423   -23011.121    114.12439    242.03608 
   26650    104.75579   -394.44477    86553.282   -21420.689    1557.8508    -22978.54      114.612    234.46687 
   26700    106.80481   -229.30696    86485.804   -21453.444    1588.3222   -23041.766    115.04363    239.05302 
   26750    104.95816    -248.5692    86544.306   -21450.072    1560.8602   -23010.932    115.27022     234.9198 
   26800    106.61597   -201.35029    86644.951    -21421.58     1585.514   -23007.094    115.24088    238.63037 
   26850    109.63397   -384.89726    86703.213   -21416.937    1630.3955   -23047.332    115.22557    245.38533 
   26900    107.20782   -477.85436    86757.676   -21415.296    1594.3155   -23009.612    115.31335    239.95505 
   26950    109.02459   -382.37159    86757.304   -21412.127    1621.3332    -23033.46    115.56636     244.0214 
   27000    105.53765   -377.67949    86835.717   -21444.833     1569.478   -23014.311    115.98187    236.21685 
   27050    109.07674   -502.67909    86781.173   -21491.929    1622.1087   -23114.038    115.99046    244.13811 
   27100    104.79956   -246.64694    86669.189   -21448.546    1558.5017   -23007.047     115.7461    234.56484 
   27150    111.15387   -45.525623    86667.318   -21431.909    1652.9983   -23084.908    116.16051     248.7872 
   27200    108.99219    -395.0332    86733.881   -21422.365    1620.8513   -23043.216     116.3989    243.94887 
   27250    109.79394   -322.60007    86748.567    -21417.26    1632.7743   -23050.034    116.61976    245.74336 
   27300     109.7748   -219.84195    86807.349   -21457.102    1632.4897   -23089.592    116.95897    245.70053 
   27350    107.18306   -585.56642    86768.632   -21456.259    1593.9473   -23050.206    117.42702    239.89964 
   27400    105.81234   -291.01601    86792.241   -21441.582     1573.563   -23015.145     117.8253    236.83167 
   27450    108.95101    -358.6778    86823.942    -21448.62    1620.2389   -23068.859    118.04967     243.8567 
   27500    108.35812    -303.6364    86800.314   -21454.085    1611.4219   -23065.507     118.1341    242.52969 
   27550    104.61554   -469.98526    86821.645   -21475.789    1555.7651   -23031.554    118.37877    234.15296 
   27600     107.7778   -441.79057    86769.067   -21488.056    1602.7918   -23090.847    118.64543    241.23079 
   27650    108.54393   -582.77012    86764.548   -21477.352    1614.1851   -23091.537    119.14789    242.94556 
   27700    107.14331   -232.12317     86767.41   -21463.436    1593.3562   -23056.792    119.26609    239.81068 
   27750    106.59506   -595.18206    86805.232   -21473.447     1585.203    -23058.65    119.53713    238.58356 
   27800    106.43906   -99.618532    86818.767   -21486.935    1582.8831   -23069.818    119.53348    238.23439 
   27850    107.08977   -322.66615    86844.579   -21479.703      1592.56   -23072.263    119.66994    239.69084 
   27900     108.7845   -579.38051    86761.911   -21457.168    1617.7628   -23074.931    119.56174    243.48402 
   27950    107.25471   -568.92745    86695.677   -21487.032    1595.0128   -23082.045     119.5002       240.06 
   28000    107.97232   -145.40308    86679.977   -21468.102    1605.6846   -23073.786    119.76694    241.66618 
   28050    105.75561    23.049071    86709.589   -21531.728    1572.7193   -23104.448    120.33477    236.70467 
   28100    108.13934   -354.60761    86718.618   -21495.955    1608.1684   -23104.124    120.67885       242.04 
   28150    106.60338   -510.70368    86752.911   -21516.854    1585.3267   -23102.181    121.11701    238.60218 
   28200    105.58676   -526.66624    86709.776   -21546.127    1570.2082   -23116.335    121.21728    236.32675 
   28250    107.40677   -309.76357    86772.412   -21498.202    1597.2741   -23095.476    121.30435    240.40035 
   28300    113.00916   -585.82009    86787.217   -21463.059    1680.5888   -23143.647    121.57283    252.93975 
   28350    107.23688   -371.56995    86834.128   -21471.646    1594.7476   -23066.393    121.86913    240.02009 
   28400    108.42949   -246.29586     86876.87   -21491.103    1612.4833   -23103.586    122.27893    242.68943 
   28450    108.12539   -659.22397    86847.291    -21462.22    1607.9609   -23070.181    122.34395    242.00878 
   28500    108.46685   -660.58425    86852.907   -21473.808    1613.0389   -23086.847    122.38003    242.77304 
   28550    108.36371   -285.11046     86836.36   -21469.976    1611.5051   -23081.481    122.47146     242.5422 
   28600    107.14851   -656.00938     86723.57   -21494.099    1593.4335   -23087.532    122.05746     239.8223 
   28650    105.15933   -499.26524     86613.15   -21550.913    1563.8519   -23114.765    122.10884    235.37008 
   28700    108.60367   -286.75401    86622.574   -21533.531    1615.0736   -23148.604    122.28963    243.07929 
   28750    105.98139   -747.77405    86641.415   -21519.611     1576.077   -23095.688    122.70292    237.21004 
   28800    104.01288   -368.94854    86623.567   -21488.962    1546.8027   -23035.764    122.74501    232.80406 
   28850    106.92526   -355.24688    86546.376   -21489.874    1590.1135   -23079.987    122.51072    239.32263 
   28900    106.84044   -396.30728    86551.683   -21486.306    1588.8521   -23075.158    123.01165    239.13278 
   28950    105.30006   -273.63849    86579.327   -21478.004    1565.9448   -23043.949    123.33003    235.68507 
   29000    105.74455    -550.5563    86570.267   -21451.431    1572.5548   -23023.986    123.44869    236.67992 
   29050    108.00849   -554.43543    86545.846   -21510.214    1606.2225   -23116.437    123.58932    241.74714 
   29100    105.54505   -557.91782    86521.775   -21484.726    1569.5881   -23054.314     123.7573    236.23341 
   29150    107.32961   -407.21529    86542.065   -21497.458    1596.1266   -23093.585    123.72153    240.22764 
   29200    107.85672   -433.36843    86588.438     -21486.4    1603.9655   -23090.366    123.87479    241.40744 
   29250     105.1087   -647.41332    86570.844    -21542.23    1563.0989   -23105.329    123.98615    235.25675 
   29300    104.86956    -230.2451    86549.207   -21531.809    1559.5426   -23091.351    124.50433    234.72149 
   29350    104.41376   -214.27385    86564.218   -21510.749    1552.7643   -23063.513    124.64158    233.70131 
   29400    107.03375   -234.15115    86560.746   -21503.324    1591.7269   -23095.051    124.94474    239.56544 
   29450    105.16205   -380.37856    86530.424   -21506.448    1563.8923    -23070.34    125.24758    235.37616 
   29500    108.30392   -213.25478    86500.917   -21473.325    1610.6158   -23083.941    125.39855    242.40836 
   29550    102.87073   -178.41985    86524.194    -21538.43    1529.8175   -23068.247    125.29716    230.24768 
   29600    105.96414   -496.15241    86617.878   -21527.131    1575.8204   -23102.951    125.66541    237.17142 
   29650    103.17914   -388.41288    86648.803   -21529.674     1534.404   -23064.078    126.05775    230.93797 
   29700     108.0014   -182.51748    86691.081   -21485.488     1606.117   -23091.605     126.2006    241.73126 
   29750    105.40516   -512.06148    86693.747   -21439.195    1567.5077   -23006.703    126.03156    235.92031 
   29800    105.57503   -66.061811    86677.428   -21433.637    1570.0338    -23003.67    126.12329     236.3005 
   29850    109.93636    -149.0289    86640.834   -21431.659    1634.8923   -23066.551    126.62093    246.06213 
   29900    107.21561    -213.0844     86690.69   -21470.188    1594.4313   -23064.619     126.7541    239.97248 
   29950    108.44906    -333.7457     86664.38     -21450.3    1612.7743   -23063.074    126.93193    242.73323 
   30000    103.45431   -750.45058    86651.157   -21454.951    1538.4961   -22993.447    127.60827    231.55386 
   30050    102.96578   -651.22025    86641.783   -21481.837     1531.231   -23013.068    127.83068    230.46042 
   30100    106.42251   -222.89805      86621.1   -21447.439    1582.6369   -23030.076    128.26391    238.19734 
   30150    107.06952   -481.65931    86610.216   -21418.689    1592.2588   -23010.947     128.4705    239.64551 
   30200    105.74656   -620.86355    86531.008   -21439.839    1572.5847   -23012.423    128.61548    236.68442 
   30250    106.85284   -353.77647    86459.559   -21427.558    1589.0365   -23016.594    128.61981    239.16053 
   30300    110.00593   -213.41309    86459.026   -21437.973    1635.9269     -23073.9    128.65102    246.21785 
   30350    108.50339   -546.56495    86462.905   -21455.139    1613.5823   -23068.721    129.08176    242.85484 
   30400    106.62154   -412.89804    86489.711   -21426.455    1585.5967   -23012.051    129.35344    238.64282 
   30450    106.07786    -177.3496    86498.455    -21494.35    1577.5116   -23071.861    129.29426    237.42595 
   30500    105.19789   -294.76479    86547.516   -21523.753    1564.4253   -23088.179    129.60533    235.45639 
   30550    106.11085   -327.55528    86544.985   -21528.271    1578.0022   -23106.273    129.78362    237.49979 
   30600    107.09751   -195.25682     86624.17   -21450.815    1592.6751    -23043.49    129.90973    239.70815 
   30650    104.99539   -359.57492    86592.462   -21483.183    1561.4138   -23044.597    129.67139    235.00313 
   30700    108.13635   -662.60047    86593.853    -21466.43    1608.1239   -23074.554    130.28666     242.0333 
   30750    107.10358   -515.56116    86541.007   -21486.073    1592.7653   -23078.838    130.61966    239.72173 
   30800    105.17066   -299.01973    86498.587   -21512.909    1564.0204    -23076.93    130.66488    235.39545 
   30850     102.4967   -210.73259    86527.238   -21490.795    1524.2553    -23015.05    131.38505    229.41052 
   30900    108.64666   -86.744893    86626.083   -21477.528    1615.7129   -23093.241    131.58756     243.1755 
   30950    104.39287   -222.49258    86634.896   -21484.397    1552.4537   -23036.851    131.43572    233.65457 
   31000    104.79433   -17.936891     86627.08   -21476.291    1558.4238   -23034.715    131.89928    234.55312 
   31050    105.38116   -304.56238     86675.87   -21437.966    1567.1508   -23005.116    132.01132    235.86659 
   31100    108.52943   -257.54002    86699.379   -21435.746    1613.9695   -23049.716    132.18834     242.9131 
   31150     108.7462   -184.08458    86709.577   -21413.766    1617.1932   -23030.959    132.01696     243.3983 
   31200    105.35472   -263.41925    86733.148   -21445.504    1566.7575   -23012.261    132.17638    235.80739 
   31250    107.53297   -823.38987    86689.096   -21467.156    1599.1509   -23066.307    132.39652    240.68281 
   31300     106.7009   -607.14392    86597.947   -21449.373    1586.7769    -23036.15    132.81434    238.82045 
   31350    108.20889   -272.09008    86624.076   -21446.868    1609.2026   -23056.071     133.1938    242.19566 
   31400    108.53133   -468.27881    86626.429   -21432.201    1613.9978   -23046.198    133.45448    242.91737 
   31450    106.37252   -225.57391    86584.351   -21423.491    1581.8935   -23005.385    133.63258    238.08546 
   31500    106.63068   -249.46791    86645.551   -21449.482    1585.7326   -23035.215     133.9225    238.66327 
   31550    106.00218    -753.4111    86587.844   -21464.374    1576.3861    -23040.76    134.72307    237.25656 
   31600    103.08888   -274.02485    86515.242   -21459.738    1533.0617   -22992.799    135.13137    230.73594 
   31650    106.25984   -377.51286    86520.153   -21418.501    1580.2178   -22998.719    135.24356    237.83326 
   31700    104.94032   -539.13495    86396.089   -21431.325    1560.5949    -22991.92    135.49652    234.87988 
   31750    107.80131   -305.24133    86399.133   -21409.487    1603.1414   -23012.628    135.54768    241.28341 
   31800    105.51451   -472.70638    86409.516    -21356.73    1569.1338   -22925.863    135.51559    236.16505 
   31850    107.66356   -756.60219    86311.446   -21345.153    1601.0929   -22946.246    135.74108    240.97509 
   31900    114.29654   -555.61084    86300.934    -21314.95    1699.7338   -23014.684    135.89694     255.8212 
   31950    108.91315   -211.90554    86266.145   -21338.124    1619.6759     -22957.8    136.02102    243.77197 
   32000     109.9365   -517.16811    86249.819   -21352.386    1634.8945    -22987.28    135.85912    246.06246 
   32050    108.47418   -337.98204    86148.937   -21375.156    1613.1479   -22988.304    135.81734    242.78945 
   32100    109.67626   -514.62472    86104.529   -21374.762    1631.0243   -23005.787    136.05197    245.47997 
   32150    106.44101   -307.48008    86089.648   -21381.781     1582.912   -22964.693    136.21458    238.23875 
   32200    107.21639   -859.29315    86023.797   -21431.279    1594.4429   -23025.722    136.05825    239.97423 
   32250     104.0848   -773.12498    85934.464   -21417.061    1547.8723   -22964.934    136.17883    232.96505 
   32300    109.48744   -59.367282    85898.935   -21404.056    1628.2163   -23032.272     136.2558    245.05734 
   32350    108.72886   -372.44623    85910.378   -21411.191    1616.9354   -23028.126    136.59107    243.35949 
   32400    103.31312   -293.63118    85937.125   -21463.601    1536.3964   -22999.997    137.16263    231.23784 
   32450    104.96492   -24.359062    85968.554   -21469.096    1560.9608   -23030.057     137.3345    234.93495 
   32500    105.40087   -136.51419    85912.744   -21468.547    1567.4439   -23035.991    137.31143    235.91069 
   32550    107.24041   -259.86502     85893.09   -21422.684    1594.8001   -23017.484    137.86466    240.02799 
   32600    108.44778     46.72963    86060.561   -21406.744    1612.7553     -23019.5     138.2717    242.73037 
   32650    107.80628    -170.6894    86120.698   -21410.002    1603.2153   -23013.218    138.43561    241.29453 
   32700     109.1644    -209.7056    86161.945   -21369.683    1623.4124   -22993.096    138.56143    244.33432 
   32750    107.69014    -189.0837    86239.694   -21392.123    1601.4883   -22993.611    138.73773     241.0346 
   32800    105.00038   -567.39513    86243.991   -21446.752     1561.488    -23008.24    138.65189     235.0143 
   32850    107.27397   -350.33207    86278.716   -21420.101    1595.2992     -23015.4    138.75247    240.10311 
   32900    109.75144   -546.12635     86388.73   -21407.308    1632.1424    -23039.45      138.619    245.64825 
   32950    108.04643   -198.59601    86396.657   -21385.768    1606.7868   -22992.555    138.86039    241.83206 
   33000    107.62051   -473.97456    86361.963   -21406.487    1600.4528    -23006.94    138.87392    240.87875 
   33050    107.19926   -477.49659    86302.337   -21403.564    1594.1882   -22997.752    138.98294    239.93589 
   33100    108.78326    88.878685    86299.104   -21381.602    1617.7443   -22999.346    139.00812    243.48125 
   33150    110.46774   -54.001636    86367.952    -21380.09    1642.7947   -23022.884     139.4768    247.25149 
   33200    107.71767   -442.59974    86399.133   -21416.756    1601.8976   -23018.653    139.72433    241.09621 
   33250      108.112   -495.84095    86314.384   -21362.302    1607.7618   -22970.064    139.93873    241.97881 
   33300    111.23268   -279.53312    86229.521   -21342.426    1654.1702   -22996.596    140.18113    248.96358 
   33350    105.92869    -522.9041    86205.878   -21359.883    1575.2932   -22935.176    140.29191    237.09208 
   33400    107.60964   -373.23471    86155.845   -21372.309     1600.291     -22972.6    140.53122    240.85441 
   33450    107.14316   -457.51541    86172.665   -21405.825    1593.3539   -22999.179    140.51815    239.81033 
   33500    105.00645    -60.93806    86218.802   -21425.969    1561.5783   -22987.548    140.47716    235.02789 
   33550    104.49324    -350.8029    86275.462   -21468.788    1553.9462   -23022.734    140.25993    233.87921 
   33600    106.45527    -374.9335    86339.652   -21449.566    1583.1242    -23032.69    140.54966    238.27068 
   33650    106.66494   -668.51877    86316.169   -21443.526    1586.2421   -23029.768    141.17489    238.73996 
   33700    108.01073   -334.52945    86242.988   -21431.493    1606.2558   -23037.749     141.0168    241.75215 
   33750    107.37667   -649.99249    86238.198   -21456.654    1596.8265    -23053.48    141.32795    240.33297 
   33800    109.31749   -550.23605    86168.228   -21434.254    1625.6889   -23059.943    142.07274    244.67696 
   33850    107.04511   -256.13489    86246.809   -21389.054    1591.8958    -22980.95    142.39659    239.59088 
   33900    112.42017   -460.98685    86243.582   -21353.931    1671.8297   -23025.761    142.95872    251.62146 
   33950    109.46564   -751.51703     86201.04   -21350.981    1627.8921   -22978.873    142.94009    245.00856 
[...]
   92000    107.52944   -294.70966      86555.5   -21423.833    1599.0984   -23022.932     360.3899    240.67492 
   92050    106.61791   -774.13541    86489.273     -21437.7    1585.5429   -23023.243    360.87459    238.63471 
   92100    106.40379   -372.97249    86430.139   -21461.079    1582.3586   -23043.437    360.66585    238.15546 
   92150    106.64809   -741.35256     86399.66   -21485.087    1585.9917   -23071.079    361.08406    238.70226 
   92200    104.69947   -134.66004    86330.247   -21474.504    1557.0131   -23031.517    361.20464     234.3408 
   92250    107.71486   -125.58371    86319.596   -21468.101    1601.8558   -23069.957    360.87655    241.08992 
   92300    105.06301   -290.02476     86314.78   -21490.538    1562.4195   -23052.958    361.18614    235.15449 
   92350    107.51032   -521.02401    86283.766   -21526.387    1598.8141   -23125.201    361.50991    240.63212 
   92400    105.08725   -299.44222    86257.026   -21514.796      1562.78   -23077.576    361.89508    235.20875 
   92450    106.44829   -421.37266     86193.16   -21515.152    1583.0204   -23098.172    361.40107    238.25506 
   92500    106.80762    -439.6762    86238.869   -21452.966     1588.364    -23041.33    361.96565    239.05931 
   92550     106.6238   -433.72687    86212.513   -21462.144    1585.6305   -23047.775    362.81344     238.6479 
   92600    110.42922   -320.61269    86161.591   -21469.737    1642.2219   -23111.959     362.7476    247.16528 
   92650    109.54859    -177.8088    86191.388   -21509.583    1629.1257   -23138.708    362.59603    245.19422 
   92700    108.92092   -396.81661    86254.035   -21470.852    1619.7914   -23090.643    362.79121    243.78934 
   92750     108.2734   -411.29193    86211.218   -21462.731     1610.162   -23072.893    363.09503    242.34005 
   92800    106.73228   -227.66682    86181.139   -21479.435    1587.2436   -23066.679    363.05139    238.89068 
   92850     104.5301   -255.95021    86166.292   -21465.435    1554.4945   -23019.929     363.0749    233.96172 
   92900    104.31919   -533.69546    86079.908   -21437.213     1551.358   -22988.571    363.37744    233.48966 
   92950    108.47266   -171.87105    86088.117   -21422.471    1613.1252   -23035.596    364.67092    242.78604 
   93000      106.427   -318.13246    86070.096   -21448.865    1582.7037   -23031.569    364.71065     238.2074 
   93050      105.027    40.373034    86164.605   -21462.312     1561.884   -23024.196    363.99312    235.07389 
   93100    105.98216   -501.78903    86172.356   -21465.497    1576.0884   -23041.585    363.91629    237.21175 
   93150    105.09373   -307.08048    86203.893   -21441.723    1562.8763   -23004.599    364.45909    235.22324 
   93200    106.07867   -487.19079     86216.04   -21421.375    1577.5236   -22998.898    364.48715    237.42776 
   93250    108.76217   -471.50419    86199.248   -21346.928    1617.4307   -22964.359     364.0058    243.43404 
   93300    109.37531   -432.45853    86218.533   -21362.622    1626.5488   -22989.171    364.25259    244.80638 
   93350    108.74723   -256.94094    86234.695   -21389.292    1617.2085     -23006.5    364.12865     243.4006 
   93400    105.18904   -245.53619    86244.388   -21403.937    1564.2937   -22968.231    364.58702    235.43657 
   93450    105.60533   -159.40505    86278.404   -21419.337    1570.4845   -22989.822    365.08043    236.36833 
   93500    106.75062   -61.290434    86309.294   -21424.299    1587.5164   -23011.815    365.47953    238.93174 
   93550    106.18002   -54.333075    86330.064   -21432.863    1579.0308   -23011.893    365.43873     237.6546 
   93600    105.79339   -527.34669    86335.428   -21437.614    1573.2811   -23010.895    365.45545    236.78923 
   93650    104.65228   -320.33883    86286.553   -21429.049    1556.3115   -22985.361    366.10519    234.23519 
   93700    106.25019   -625.48141     86167.88   -21411.108    1580.0743   -22991.182    366.60618    237.81165 
   93750    109.40087   -329.53626    86064.602   -21376.633    1626.9289   -23003.562    366.58253    244.86358 
   93800     107.3545   -283.41402    86039.857   -21386.645    1596.4968   -22983.142    366.48027    240.28335 
   93850    108.43668   -326.06618    85997.917   -21397.322    1612.5902   -23009.912    366.26803    242.70551 
   93900     108.9347   -254.82684     86003.84   -21383.644    1619.9963    -23003.64    366.99287    243.82019 
   93950    103.68071   -108.79656    86077.653   -21424.931    1541.8629   -22966.794    367.17312    232.06059 
   94000    106.69076   -377.62049    86051.103   -21408.912    1586.6262   -22995.538     367.2914    238.79776 
   94050      108.993    26.618158    86064.394   -21375.844    1620.8634   -22996.707    367.56858    243.95069 
   94100     110.4052   -458.32177    86121.907   -21384.656    1641.8647    -23026.52    367.75318    247.11152 
   94150    107.05413   -436.00339    86137.171   -21440.402      1592.03   -23032.432    368.04547    239.61107 
   94200    103.20052   -64.740869    86165.739   -21425.993    1534.7219   -22960.715    368.27781    230.98583 
   94250    105.99188   -461.26733    86077.196    -21429.24    1576.2329   -23005.473    368.82474     237.2335 
   94300    107.92597   -495.48063    86106.341   -21383.288    1604.9953   -22988.284    369.09403    241.56243 
   94350    107.85805   -221.54909    86143.727   -21407.798    1603.9852   -23011.783    369.81748     241.4104 
   94400    105.39339   -269.48101    86194.008   -21420.104    1567.3327   -22987.436    369.72199    235.89396 
   94450     107.2529   -496.86511    86159.855   -21410.265     1594.986   -23005.251    369.50503    240.05596 
   94500    108.02566   -228.21921    86111.121   -21393.832    1606.4778    -23000.31    369.31156    241.78556 
   94550    108.33481   -534.48258     86067.96   -21398.843    1611.0753   -23009.918    369.92823    242.47752 
   94600    107.41224   -288.20491    86050.136   -21428.255    1597.3556   -23025.611    369.40178     240.4126 
   94650    107.70915   -355.96775    86099.754   -21381.812    1601.7709   -22983.583    369.62124    241.07714 
   94700    109.24033    -59.32599    86040.581   -21429.864    1624.5416   -23054.405     370.1491    244.50427 
   94750    108.63045   -306.63217    86105.187   -21431.301    1615.4719   -23046.773    370.65198    243.13923 
   94800    107.99164   -374.71334    86214.318   -21441.221     1605.972   -23047.193    371.11984    241.70943 
   94850    106.31997   -287.77078    86216.611   -21418.236     1581.112   -22999.348    371.01622    237.96784 
   94900    108.98278    23.053768    86212.035   -21406.501    1620.7113   -23027.212    371.50419     243.9278 
   94950    109.85064    65.087409     86246.82   -21385.405    1633.6175   -23019.023    371.67664    245.87027 
   95000    107.66872   -340.46966    86264.595   -21422.215    1601.1697   -23023.384     371.8538    240.98665 
   95050    105.26304   -233.56413    86256.232    -21410.87    1565.3941   -22976.265    371.35475     235.6022 
   95100    107.53832   -282.54806    86281.004    -21418.17    1599.2305   -23017.401    371.65959    240.69479 
   95150    107.48507   -230.89546     86239.94   -21413.484    1598.4385   -23011.922     371.5243    240.57559 
   95200    109.48723    -386.5648    86273.143   -21421.599    1628.2133   -23049.812    371.93024    245.05689 
   95250    105.26892   -169.84027    86298.952   -21423.862    1565.4816   -22989.344    371.66925    235.61536 
   95300    108.52124   -354.79416    86331.231   -21403.659    1613.8477   -23017.507    372.15686    242.89478 
   95350    109.23701   -378.75232    86328.172   -21404.545    1624.4921   -23029.037    372.62933    244.49684 
   95400    108.24529    50.771859    86356.756   -21446.143     1609.744   -23055.887    373.24404    242.27714 
   95450    107.02163   -213.87269     86429.68   -21463.909    1591.5466   -23055.455     373.2448    239.53832 
   95500    105.21716   -466.34354     86443.44    -21437.36    1564.7119   -23002.072    373.75259    235.49951 
   95550    106.27017   -460.71403    86396.482   -21446.593    1580.3715   -23026.965    373.88882    237.85639 
   95600    107.17928   -880.20799    86388.843   -21477.947    1593.8911   -23071.838    373.99512    239.89117 
   95650    106.61271   -410.05125    86389.948    -21477.16    1585.4655   -23062.625    374.09952    238.62307 
   95700    106.81251   -119.65104    86399.651   -21456.779    1588.4368   -23045.216     374.4183    239.07027 
   95750    106.20644   -298.99707    86464.697   -21472.129    1579.4237   -23051.553    375.43248    237.71374 
   95800    109.14487    -532.3276    86548.684   -21441.564    1623.1219   -23064.686    376.12369     244.2906 
   95850     107.3611   -513.21631    86558.034   -21470.246     1596.595   -23066.841    376.79878    240.29813 
   95900    105.54433   -428.14007    86547.678   -21474.312    1569.5772   -23043.889    377.20182    236.23178 
   95950    107.60507   -740.05663    86520.263   -21487.478    1600.2231   -23087.701    377.09866    240.84419 
   96000    105.53978   -530.42088    86489.227   -21476.632    1569.5097   -23046.142    376.95382    236.22161 
   96050    103.89113   -196.48471    86484.195   -21486.272    1544.9922   -23031.264    376.94484    232.53156 
   96100    107.07461   -493.60234    86487.868     -21434.6    1592.3345   -23026.934    377.13278     239.6569 
   96150    105.99728    -200.5428    86430.388   -21440.898    1576.3132   -23017.212    377.26585    237.24559 
   96200    110.44312   -249.48826     86435.99   -21446.644    1642.4286   -23089.072    377.43415    247.19639 
   96250    103.19397   -280.39336    86515.664   -21502.949    1534.6245   -23037.574    378.33651    230.97116 
   96300    104.64366   -567.76261    86500.799   -21493.297    1556.1832    -23049.48     378.4055    234.21588 
   96350    105.05912   -305.90034    86512.973    -21488.39    1562.3616   -23050.752    378.38191    235.14578 
   96400    105.03194   -333.07438    86521.268   -21517.985    1561.9575   -23079.942    378.42437    235.08496 
   96450    106.49346   -414.07633    86487.963   -21493.839     1583.692   -23077.531    378.88924    238.35615 
   96500    101.88662   -376.43006     86468.56   -21561.197    1515.1826    -23076.38    379.05729    228.04503 
   96550    101.84076   -179.82445    86505.897   -21576.165    1514.5006   -23090.666    379.88917    227.94238 
   96600    102.94397   -229.12104    86546.628   -21584.189    1530.9067   -23115.096    379.68256    230.41161 
   96650    101.97352   -173.09871    86658.315   -21610.096    1516.4748   -23126.571    380.55085    228.23952 
   96700     100.5931   -386.76782    86667.211   -21625.502    1495.9463   -23121.448    381.20279    225.14984 
   96750    105.20144   -255.09593    86697.614   -21577.698    1564.4781   -23142.176    380.83826    235.46432 
   96800    106.62492   -198.32862    86710.886   -21534.197     1585.647   -23119.844    381.11789    238.65039 
   96850    104.93468   -162.64885    86719.443   -21550.164     1560.511   -23110.675    381.20456    234.86725 
   96900    105.88146   -634.59699    86695.362   -21517.078    1574.5909   -23091.669     380.8164    236.98636 
   96950    107.06388   -344.18437    86675.572   -21513.907    1592.1749   -23106.082    380.71627    239.63288 
   97000    104.82045   -232.07949    86748.666   -21501.732    1558.8123   -23060.544    381.00487    234.61159 
   97050    106.89867   -402.68883    86769.319   -21510.213    1589.7181   -23099.931    381.27869    239.26312 
   97100    109.20464     -381.046    86856.569   -21503.211    1624.0107   -23127.221     381.4351    244.42438 
   97150    107.02937   -197.26257    86877.445   -21508.457    1591.6618   -23100.119    381.20163    239.55565 
   97200    104.25196    -342.0008    86899.817   -21568.494    1550.3582   -23118.852     381.1974    233.33918 
   97250    103.74414   -336.68366    86912.843   -21580.174    1542.8063    -23122.98    381.32803    232.20257 
   97300    105.73166   -437.27916    86927.755   -21549.996    1572.3632   -23122.359    381.04979    236.65108 
   97350    104.42761   -39.680261    86968.892   -21577.696    1552.9702   -23130.666    381.58814    233.73232 
   97400    104.56245   -412.74503    86988.005   -21566.295    1554.9755   -23121.271    381.65907    234.03412 
   97450    104.23851   -466.61236    86983.058   -21572.584    1550.1581   -23122.742    381.49663    233.30908 
   97500    103.12991   -570.44774    86948.769   -21587.217    1533.6718   -23120.888    381.74606    230.82778 
   97550    105.80426   -433.56482    86954.922   -21573.136    1573.4428   -23146.578    382.32169    236.81357 
   97600    104.31168   -416.60195    86999.795   -21568.288    1551.2463   -23119.534    382.13924    233.47285 
   97650    107.51168   -231.61168    87075.107   -21531.348    1598.8342   -23130.182    382.84473    240.63515 
   97700    106.37825   -500.98511    87033.898   -21561.868    1581.9787   -23143.847    383.24893    238.09828 
   97750     107.5073   -262.53479     87006.67   -21559.264    1598.7692   -23158.033     383.3997    240.62536 
   97800    106.61949   -456.45973    87018.983   -21563.933    1585.5663   -23149.499    383.71901    238.63824 
   97850    106.46143    -352.8863    86993.158   -21550.212    1583.2158   -23133.428    384.02278    238.28447 
   97900    106.11233   -545.52657    86995.113    -21560.81    1578.0242   -23138.834    384.07189     237.5031 
   97950    104.56738   -461.12424     86919.08   -21576.456    1555.0489   -23131.505    383.85012    234.04517 
   98000    102.83854   -488.65552     86880.44   -21599.321    1529.3388    -23128.66    384.04506    230.17562 
   98050    106.30506   -617.69081    86826.228   -21638.733    1580.8903   -23219.623    384.41268    237.93448 
   98100    106.02955   -704.83391    86752.701   -21621.011    1576.7932   -23197.804    384.64468    237.31783 
   98150    108.86403   -342.07698    86710.181   -21609.435    1618.9455    -23228.38    385.22418    243.66202 
   98200    103.03632   -553.57113     86727.46   -21608.746    1532.2801   -23141.026     385.5966    230.61831 
   98250    103.73379    -459.5952    86780.927    -21653.14    1542.6524   -23195.793    385.71229    232.17941 
   98300    104.03932   -496.60469    86804.104    -21625.95     1547.196   -23173.146    386.27022    232.86325 
   98350    107.42293    -681.3571    86750.215    -21615.44    1597.5144   -23212.955    386.69397    240.43651 
   98400    107.30005     -156.738    86754.497   -21609.014    1595.6871   -23204.701    386.35173    240.16148 
   98450    106.60276    -360.1728    86766.891   -21604.268    1585.3175   -23189.585    386.31991     238.6008 
   98500    106.53403   -404.75588    86795.861   -21577.056    1584.2954   -23161.351    386.55337    238.44695 
   98550    106.54117   -416.67034    86810.556   -21531.744    1584.4017   -23116.146    385.68822    238.46295 
   98600    108.70204   -464.77805    86793.681   -21479.027    1616.5365   -23095.563    385.86964    243.29945 
   98650    110.02329    -392.1198      86787.8   -21484.101    1636.1851   -23120.286    386.03079    246.25671 
   98700    107.28227   -278.55269     86813.97   -21469.819    1595.4226   -23065.241    386.16561    240.12169 
   98750    109.70779   -216.02789    86833.607   -21460.597    1631.4932    -23092.09    386.51225    245.55054 
   98800    108.13752   -283.17468    86790.977   -21453.103    1608.1414   -23061.244    386.76128    242.03594 
   98850    106.16339   -374.27662    86785.516   -21473.175    1578.7834   -23051.959    387.22444    237.61738 
   98900    108.06077   -611.46409    86819.032   -21493.704         1607   -23100.704    387.23801    241.86415 
   98950    109.76926   -543.12471    86813.578   -21435.079    1632.4073   -23067.486    387.47978    245.68813 
   99000    108.15477   -353.75767    86826.658   -21449.763    1608.3979   -23058.161    387.73701    242.07455 
   99050    106.63411   -458.50552    86718.602   -21495.207    1585.7838   -23080.991    387.50447    238.67097 
   99100     107.8183   -362.03936    86713.719   -21513.043    1603.3941   -23116.437    388.11352    241.32144 
   99150    104.85991   -292.66714    86698.615   -21524.393    1559.3991   -23083.792    388.47893     234.6999 
   99200    104.08064   -221.95365    86706.809   -21520.195    1547.8104   -23068.006    388.08114    232.95572 
   99250    103.90089    -291.1694    86723.537   -21516.576    1545.1373   -23061.713    388.78392     232.5534 
   99300    106.68433   -599.86534    86713.103   -21501.849    1586.5306   -23088.379    388.98024    238.78337 
   99350    106.79143   -484.99461    86719.366   -21465.429    1588.1233   -23053.552     388.5276    239.02309 
   99400    108.50204   -441.44564    86736.252   -21431.036    1613.5622   -23044.598    388.98047    242.85181 
   99450    107.12465   -261.75042    86733.614   -21476.435    1593.0786   -23069.514    388.38353    239.76889 
   99500    105.92358   -612.85878    86680.735   -21518.823    1575.2172    -23094.04    389.03277    237.08064 
   99550    107.59076   -143.75335    86668.681    -21503.11    1600.0103    -23103.12    389.89743    240.81215 
   99600    107.07636   -32.406621    86719.644   -21497.273    1592.3606   -23089.633     389.2869    239.66082 
   99650    105.03752   -144.78617     86669.22   -21496.116    1562.0405   -23058.157     389.7332    235.09745 
   99700    106.80237    79.434226    86721.887   -21511.634    1588.2859    -23099.92    389.97019    239.04756 
   99750    106.99545   -93.186928    86786.075   -21494.374    1591.1572   -23085.531     390.6895    239.47971 
   99800    108.73378   -388.62107    86772.679   -21480.842    1617.0085    -23097.85    390.81463     243.3705 
   99850    107.04948   -516.04368    86733.834    -21479.68    1591.9608   -23071.641     390.5825    239.60065 
   99900    108.86592   -528.84806    86732.675   -21443.861    1618.9736   -23062.835    390.18188    243.66626 
   99950    108.56453   -336.60151    86749.339   -21420.114    1614.4915   -23034.606    390.61596    242.99168 
  100000    107.27957    -642.3278    86680.601    -21439.32    1595.3825   -23034.702    390.09304    240.11564 
Loop time of 82.3163 on 64 procs for 100000 steps with 4990 atoms

Performance: 524.805 ns/day, 0.046 hours/ns, 1214.826 timesteps/s
100.0% CPU use with 64 MPI tasks x no OpenMP threads

MPI task timing breakdown:
Section |  min time  |  avg time  |  max time  |%varavg| %total
---------------------------------------------------------------
Pair    | 12.312     | 34.065     | 59.367     | 367.6 | 41.38
Neigh   | 0.61847    | 1.6308     | 3.4624     |  85.6 |  1.98
Comm    | 13.994     | 38.735     | 62.826     | 332.3 | 47.06
Output  | 0.11787    | 0.1193     | 0.13259    |   0.5 |  0.14
Modify  | 4.552      | 7.0839     | 12.569     | 108.5 |  8.61
Other   |            | 0.6822     |            |       |  0.83

Nlocal:    77.9688 ave 149 max 38 min
Histogram: 30 2 0 6 10 0 0 0 4 12
Nghost:    814.156 ave 1005 max 653 min
Histogram: 32 0 0 0 0 0 0 8 8 16
Neighs:    0 ave 0 max 0 min
Histogram: 64 0 0 0 0 0 0 0 0 0
FullNghs:  7462.19 ave 18297 max 1541 min
Histogram: 32 0 0 1 15 0 0 0 3 13

Total # of neighbors = 477580
Ave neighs/atom = 95.7074
Neighbor list builds = 5778
Dangerous builds = 0

write_data		${DIR}/data.eq-${NAME}-${TEMP}
write_data		run_13/data.eq-${NAME}-${TEMP}
write_data		run_13/data.eq-het_freeze_13-${TEMP}
write_data		run_13/data.eq-het_freeze_13-240
undump          1

reset_timestep  0

unfix           2
unfix           3
unfix           4


################################################
#######         Run Simulation         #########
################################################

log				${DIR}/log.run_${NAME}
log				run_13/log.run_${NAME}
log				run_13/log.run_het_freeze_13
