LAMMPS data file via write_data, version 16 Mar 2018, timestep = 8000000

6328 atoms
2 atom types

0.0000000000000000e+00 4.9219999999999999e+01 xlo xhi
0.0000000000000000e+00 4.9019635930410494e+01 ylo yhi
1.9954568271287272e+00 5.8066543172865309e+01 zlo zhi

Masses

1 18.015
2 12.01

Atoms # atomic

6171 1 1.3808807500583062e+00 2.9793446692848247e+00 5.1924566246467059e+00 1 2 0
3313 1 8.2165889379863877e-01 3.1099040866295979e+00 2.5387074125599773e+00 0 0 0
5956 1 7.8076395623790766e+00 2.1136054638714943e+00 2.4604637425108846e+00 0 0 1
106 1 7.7226879369857437e+00 1.9628889970455321e+00 5.4249187819764710e+00 0 -3 0
1255 1 1.0919951392569200e+01 1.0086367551168351e+01 1.3739481166737521e+01 -1 -6 1
2 1 1.1625334727206484e+01 3.8586600597679768e+00 2.7868236137539433e+00 3 2 0
1237 1 8.0048006688751661e-01 7.5303365299060587e+00 2.6710723341196867e+00 4 2 1
4997 1 4.6732020403041155e+00 4.9286794514627026e+00 2.2703576426932375e+00 -2 1 0
5114 1 4.7905411353879614e+00 6.0620833031150241e+00 4.8219015849402709e+00 3 -1 1
3652 1 8.1992019467350605e+00 6.6370273309741625e+00 2.6974236221616223e+00 -5 0 0
333 1 1.2092473085077660e+01 8.2673312343925058e+00 2.7039950996252338e+00 3 2 0
5243 1 4.6693573212485511e+00 9.4624526805318645e+00 2.2291387875789326e+00 0 2 1
216 1 4.7639674115557709e+00 8.7572550359132766e+00 4.9613317111669852e+00 5 0 0
5099 1 8.6393991472103320e+00 1.1054437100261749e+01 2.7693822370590544e+00 4 1 0
1769 1 4.2255565215403932e+00 1.5493252423340831e-01 2.7110700862750448e+00 2 1 0
4599 1 6.5928386138983885e+00 4.3859312961422914e+00 6.3524347666484244e+00 1 -1 1
6059 1 1.1563846890397846e+01 3.5844152780174441e+00 5.5316975093381924e+00 1 4 0
299 1 1.0078279626504802e+01 1.5806119074258795e+00 6.5199884360317872e+00 3 1 0
4790 1 9.8722472777307468e-01 7.5179164013880975e+00 5.4523203514080878e+00 -2 1 0
1438 1 2.3664343404947581e+00 5.4210968382835611e+00 6.2547825844641372e+00 -1 0 1
4407 1 8.3546066905590699e+00 6.5363686974462469e+00 5.4104825891137285e+00 -3 1 1
462 1 1.0768026819123456e+01 6.1263609077462560e+00 6.5523829165268177e+00 -1 -2 1
153 1 2.6204286068582623e+00 9.7299870912681232e+00 6.5138289995631018e+00 3 -1 1
3196 1 7.1909765890957233e+00 8.6027829978607517e+00 6.0402116271859674e+00 1 4 0
1249 1 8.4203276216565239e+00 1.0795425470929949e+01 5.3986815873891025e+00 -4 -3 1
3552 1 1.1162513476477553e+01 1.0697049058133461e+01 6.4603451855271334e+00 -2 4 1
1285 1 2.4223868563916739e+00 9.8315539323867573e-01 8.6789916217002521e+00 0 2 1
2111 1 1.7285365106387707e+00 3.2264957563479024e+00 9.7621106796014843e+00 1 2 1
123 1 6.3079205458478800e+00 3.7934016297612017e+00 8.9283228725674917e+00 -1 0 1
6128 1 5.0190148495259965e+00 1.2747301308403014e+00 9.8401036246175160e+00 1 -4 0
6163 1 1.0071741239360827e+01 1.3100828154667656e+00 9.0441598077296383e+00 5 0 0
2018 1 8.9301392672833817e+00 3.6269381335779984e+00 9.8905584154452839e+00 1 0 0
209 1 2.6327709835715476e+00 5.5139662952075188e+00 9.0446787946591325e+00 2 0 0
4574 1 1.6210061575405974e+00 8.0578532347843321e+00 1.0093237804823213e+01 -2 -1 1
2807 1 5.1778586973654077e+00 6.0544880911927077e+00 9.8860590421696344e+00 4 1 1
1371 1 1.0504420782868271e+01 5.7807108325985297e+00 9.0275137710080298e+00 -1 0 1
248 1 9.3437085518705878e+00 8.1939285685455623e+00 9.9196141377230447e+00 0 4 1
6100 1 3.1551841062995907e+00 1.0138923343708166e+01 9.0728730192283784e+00 3 6 1
182 1 6.8840069854457404e+00 8.0795304431038222e+00 8.8577936162699444e+00 0 -1 1
5199 1 5.6336087410096347e+00 1.0273422497748237e+01 1.0201706049096925e+01 3 -2 0
542 1 1.1033163034417482e+01 1.0356851345873931e+01 9.1167015268817782e+00 3 3 1
4504 1 1.4965825042022112e+00 2.8682413375405744e+00 1.2612662300506232e+01 -1 1 1
168 1 2.1993861447606831e+00 7.6280791609904464e-01 1.3815990553186255e+01 -3 0 1
3111 1 4.6659795545140454e+00 1.2140266428329691e+00 1.2452329991582136e+01 4 1 1
1394 1 6.2727083190442672e+00 3.2754324950001545e+00 1.3560716332400210e+01 -2 3 0
4561 1 8.7689703651903965e+00 3.7003957913440217e+00 1.2597983792510481e+01 -3 2 1
4454 1 1.0119202574123587e+01 1.2882284920586535e+00 1.3263458054348227e+01 0 2 1
141 1 1.5721635165571841e+00 7.8163477793740981e+00 1.3050953453791513e+01 3 2 0
1950 1 2.9424628537730313e+00 5.5144051508093090e+00 1.3633969412500081e+01 0 0 0
1954 1 5.3239366064760469e+00 5.6859120060778263e+00 1.2684536352049996e+01 0 -4 0
6203 1 6.7975606566024833e+00 7.7478426074400453e+00 1.3617756836192138e+01 -3 0 1
12 1 1.0521670962246521e+01 5.6583207543919007e+00 1.3378842201740271e+01 0 -3 0
374 1 9.5678340184719133e+00 8.0812596333640432e+00 1.2656103043222446e+01 -3 -5 0
2969 1 3.3400120972292120e+00 1.0039021751037726e+01 1.3870903259754321e+01 -2 -3 1
4912 1 6.1378967505345257e+00 1.0198631439205071e+01 1.2981769729365197e+01 0 0 1
5271 1 2.9480935443417939e+00 7.4090400942133716e-01 5.8996914950149657e+00 0 -2 1
1969 1 1.2086673653355410e+01 8.3983659391260232e+00 5.5697922339534767e+00 1 1 0
1905 1 1.8514131622713628e+00 1.2042981221075340e+01 5.2910839936158691e+00 -1 -2 0
1559 1 1.1649675903409555e+00 3.4504139379236465e+00 1.7548544058249554e+01 -2 -2 1
6009 1 1.0678661545625490e+01 5.8993216705222116e+00 1.6290614304104803e+01 2 6 0
1740 1 4.7114059259506638e+00 9.7314774380966484e-01 1.7319323935873371e+01 0 5 0
1798 1 3.0426218825406810e+00 1.0993660881613611e+01 2.3778158736480329e+01 4 -3 0
4610 1 8.9440780719510489e+00 3.4524727985587527e+00 1.6961075597771163e+01 1 4 1
6057 1 5.1578101626363682e-01 1.2071641732717632e+01 2.4176063210493496e+01 -1 1 1
411 1 2.6328878245219021e+00 5.5580289333618902e+00 1.6382602723564204e+01 1 -1 1
352 1 1.9867330023352141e+00 8.0923806678293833e+00 1.7527284996696434e+01 -1 0 0
3008 1 5.1984457239851576e+00 5.7244648301342425e+00 1.7286102633839626e+01 0 3 0
775 2 1.2304999999999998e+01 1.1366872099805333e+01 2.6684949295721598e+01 0 0 0
29 1 9.5744304370046827e+00 8.3568288325987687e+00 1.7236203035184964e+01 2 5 0
732 2 1.1074500000000002e+01 9.2355835810918343e+00 2.6684949295721598e+01 0 0 0
2931 1 1.1149441802747807e+01 1.0524665351392231e+01 1.6535811463581204e+01 0 1 1
3691 1 5.9535000290778317e+00 1.0590493250518280e+01 1.7160748238010598e+01 3 2 1
234 1 3.2598105243907414e+00 1.0248595595795893e+01 1.6632382817417458e+01 1 1 0
4678 1 2.2291855481061611e+00 9.4085630063897019e-01 2.1221417856175069e+01 1 2 1
4735 1 1.0196825617795964e+00 3.4879116950515283e+00 2.0380507020443510e+01 2 0 1
3275 1 4.6378305495747769e+00 1.2452403624789288e+00 2.0038993917063813e+01 7 -1 1
4448 1 6.4941146827234890e+00 3.4828029976400048e+00 2.0988313541972317e+01 3 -1 1
116 1 1.0088533493320790e+01 9.7174633591462367e-01 2.1092119183102906e+01 1 0 1
281 1 9.1214693530004247e+00 3.4928364265972722e+00 1.9831293717584124e+01 0 1 0
1651 1 2.5601614095802070e+00 5.8418338077368954e+00 2.1130115081042707e+01 0 2 0
1624 1 1.7560654984290620e+00 8.4031102442849530e+00 2.0168186998305728e+01 6 6 1
3020 1 5.2270141216572084e+00 5.9563596969167945e+00 2.0001114372113051e+01 0 1 1
1390 1 7.0590096811956329e+00 8.1887967009585623e+00 2.0736085487589197e+01 -2 -2 1
3376 1 1.0645374743276944e+01 5.6920088950268175e+00 2.0738870348480049e+01 1 -1 1
4896 1 9.8187776962195539e+00 8.3669258692332633e+00 2.0040890941807746e+01 -1 1 0
4487 1 3.5032103798249756e+00 1.0538169728532269e+01 2.1003850120348663e+01 0 4 1
728 2 9.8440000000000012e+00 1.1366872099805333e+01 2.6684949295721598e+01 0 0 0
6116 1 5.9526289912811032e+00 1.0904168577426026e+01 1.9798249922742748e+01 -1 3 0
318 1 1.1359925532422368e+01 1.0717339418304825e+01 2.1124091642136950e+01 -2 -5 0
726 2 8.6134999999999984e+00 1.0656442593567498e+01 2.6684949295721598e+01 0 0 0
4463 1 1.7851727479777688e+00 2.0813339698354181e+00 2.3854710315724954e+01 1 -3 1
367 1 7.3621259151068816e+00 9.8658655862511135e-01 2.4323097688717830e+01 -2 4 0
2120 1 1.0023773409817551e+01 8.9403128290616063e-01 2.3899113371232083e+01 -1 2 0
202 1 1.1562859138797732e+01 3.1924102543316981e+00 2.4236483848430296e+01 2 -2 0
4950 1 3.7993406372249967e+00 3.9851260969715590e+00 2.4452961527427824e+01 1 -4 0
4412 1 2.5033330043431903e+00 6.4044875724900576e+00 2.3798795753743530e+01 3 0 0
4991 1 6.4306002439068441e+00 3.7061637343515828e+00 2.3749794623492949e+01 -1 0 0
126 1 7.9497016350152787e+00 5.9134786288029000e+00 2.4174897765717969e+01 2 -3 0
6260 1 1.0658105395706698e+01 5.5142156939380760e+00 2.3489709678853341e+01 1 -2 0
3087 1 4.3065144490599554e+00 8.4757271909275786e+00 2.4154699388855924e+01 1 1 0
162 1 8.2905536777417108e+00 1.0483741442734786e+01 2.4088759112890507e+01 3 0 0
1398 1 6.9503205538798039e+00 8.2139222998971348e+00 2.3524342328907643e+01 6 1 1
4977 1 6.2974490684774933e+00 3.3237584490254322e+00 1.6280961640124744e+01 -2 1 0
1629 1 1.1016172893824375e+01 1.0320054919589580e+01 2.3848894898905165e+01 0 -1 0
552 2 0.0000000000000000e+00 2.8417180249513345e+00 2.6684949295721598e+01 0 0 0
554 2 0.0000000000000000e+00 0.0000000000000000e+00 2.6684949295721598e+01 0 0 0
556 2 1.2305000000000001e+00 7.1042950623783474e-01 2.6684949295721598e+01 0 0 0
563 2 1.2305000000000001e+00 2.1312885187134998e+00 2.6684949295721598e+01 0 0 0
565 2 2.4610000000000003e+00 2.8417180249513345e+00 2.6684949295721598e+01 0 0 0
567 2 2.4610000000000003e+00 0.0000000000000000e+00 2.6684949295721598e+01 0 0 0
569 2 3.6915000000000004e+00 7.1042950623783474e-01 2.6684949295721598e+01 0 0 0
584 2 3.6914999999999996e+00 2.1312885187134998e+00 2.6684949295721598e+01 0 0 0
586 2 4.9220000000000006e+00 2.8417180249513332e+00 2.6684949295721598e+01 0 0 0
588 2 4.9220000000000006e+00 0.0000000000000000e+00 2.6684949295721598e+01 0 0 0
590 2 6.1524999999999999e+00 7.1042950623783407e-01 2.6684949295721598e+01 0 0 0
613 2 6.1524999999999999e+00 2.1312885187134989e+00 2.6684949295721598e+01 0 0 0
615 2 7.3829999999999991e+00 2.8417180249513345e+00 2.6684949295721598e+01 0 0 0
617 2 7.3829999999999991e+00 0.0000000000000000e+00 2.6684949295721598e+01 0 0 0
619 2 8.6134999999999984e+00 7.1042950623783407e-01 2.6684949295721598e+01 0 0 0
650 2 8.6134999999999984e+00 2.1312885187135002e+00 2.6684949295721598e+01 0 0 0
652 2 9.8440000000000012e+00 2.8417180249513332e+00 2.6684949295721598e+01 0 0 0
654 2 9.8440000000000012e+00 0.0000000000000000e+00 2.6684949295721598e+01 0 0 0
656 2 1.1074500000000002e+01 7.1042950623783330e-01 2.6684949295721598e+01 0 0 0
695 2 1.1074500000000002e+01 2.1312885187135002e+00 2.6684949295721598e+01 0 0 0
559 2 0.0000000000000000e+00 4.2625770374269996e+00 2.6684949295721598e+01 0 0 0
561 2 1.2305000000000001e+00 4.9730065436648339e+00 2.6684949295721598e+01 0 0 0
576 2 1.2305000000000001e+00 6.3938655561404980e+00 2.6684949295721598e+01 0 0 0
580 2 2.4610000000000003e+00 4.2625770374269996e+00 2.6684949295721598e+01 0 0 0
582 2 3.6914999999999996e+00 4.9730065436648339e+00 2.6684949295721598e+01 0 0 0
605 2 3.6914999999999996e+00 6.3938655561404980e+00 2.6684949295721598e+01 0 0 0
557 2 0.0000000000000000e+00 7.1042950623783341e+00 2.6684949295721598e+01 0 0 0
578 2 2.4610000000000003e+00 7.1042950623783341e+00 2.6684949295721598e+01 0 0 0
609 2 4.9220000000000006e+00 4.2625770374269978e+00 2.6684949295721598e+01 0 0 0
611 2 6.1524999999999999e+00 4.9730065436648339e+00 2.6684949295721598e+01 0 0 0
642 2 6.1524999999999999e+00 6.3938655561404980e+00 2.6684949295721598e+01 0 0 0
646 2 7.3829999999999991e+00 4.2625770374269996e+00 2.6684949295721598e+01 0 0 0
607 2 4.9220000000000006e+00 7.1042950623783341e+00 2.6684949295721598e+01 0 0 0
644 2 7.3830000000000009e+00 7.1042950623783341e+00 2.6684949295721598e+01 0 0 0
648 2 8.6135000000000002e+00 4.9730065436648339e+00 2.6684949295721598e+01 0 0 0
687 2 8.6135000000000002e+00 6.3938655561404980e+00 2.6684949295721598e+01 0 0 0
691 2 9.8440000000000012e+00 4.2625770374270004e+00 2.6684949295721598e+01 0 0 0
693 2 1.1074500000000002e+01 4.9730065436648339e+00 2.6684949295721598e+01 0 0 0
734 2 1.1074500000000002e+01 6.3938655561404980e+00 2.6684949295721598e+01 0 0 0
689 2 9.8440000000000012e+00 7.1042950623783341e+00 2.6684949295721598e+01 0 0 0
603 2 3.6915000000000004e+00 9.2355835810918343e+00 2.6684949295721598e+01 0 0 0
570 2 0.0000000000000000e+00 1.1366872099805333e+01 2.6684949295721598e+01 0 0 0
597 2 1.2305000000000001e+00 1.0656442593567498e+01 2.6684949295721598e+01 0 0 0
599 2 2.4610000000000003e+00 1.1366872099805333e+01 2.6684949295721598e+01 0 0 0
634 2 3.6914999999999996e+00 1.0656442593567499e+01 2.6684949295721598e+01 0 0 0
572 2 0.0000000000000000e+00 8.5251540748539991e+00 2.6684949295721598e+01 0 0 0
574 2 1.2305000000000001e+00 9.2355835810918343e+00 2.6684949295721598e+01 0 0 0
601 2 2.4610000000000003e+00 8.5251540748539991e+00 2.6684949295721598e+01 0 0 0
681 2 7.3829999999999991e+00 1.1366872099805333e+01 2.6684949295721598e+01 0 0 0
636 2 4.9220000000000006e+00 1.1366872099805333e+01 2.6684949295721598e+01 0 0 0
679 2 6.1524999999999999e+00 1.0656442593567499e+01 2.6684949295721598e+01 0 0 0
638 2 4.9220000000000006e+00 8.5251540748539991e+00 2.6684949295721598e+01 0 0 0
640 2 6.1524999999999999e+00 9.2355835810918343e+00 2.6684949295721598e+01 0 0 0
683 2 7.3830000000000009e+00 8.5251540748539991e+00 2.6684949295721598e+01 0 0 0
730 2 9.8440000000000012e+00 8.5251540748539956e+00 2.6684949295721598e+01 0 0 0
773 2 1.1074500000000002e+01 1.0656442593567498e+01 2.6684949295721598e+01 0 0 0
685 2 8.6134999999999984e+00 9.2355835810918343e+00 2.6684949295721598e+01 0 0 0
94 1 9.9355542738654172e+00 7.8727419620036831e-01 1.6194192074516973e+01 1 2 1
65 1 6.7753443738975614e+00 8.0919456551208988e+00 1.6291124656143090e+01 -1 0 0
4556 1 2.0460223475484653e+00 9.8991086263515615e-01 1.6615317829839150e+01 -4 1 1
553 2 0.0000000000000000e+00 1.4208590124756650e+00 3.0030999999997086e+01 0 0 0
555 2 0.0000000000000000e+00 0.0000000000000000e+00 3.0030999999997086e+01 0 0 0
564 2 1.2305000000000001e+00 2.1312885187134998e+00 3.0030999999997086e+01 0 0 0
566 2 2.4610000000000003e+00 1.4208590124756650e+00 3.0030999999997086e+01 0 0 0
568 2 2.4610000000000003e+00 0.0000000000000000e+00 3.0030999999997086e+01 0 0 0
585 2 3.6914999999999996e+00 2.1312885187134998e+00 3.0030999999997086e+01 0 0 0
562 2 1.2305000000000001e+00 3.5521475311891644e+00 3.0030999999997086e+01 0 0 0
583 2 3.6914999999999996e+00 3.5521475311891644e+00 3.0030999999997086e+01 0 0 0
881 2 0.0000000000000000e+00 2.8417180249513345e+00 3.3377050704266729e+01 0 0 0
882 2 0.0000000000000000e+00 0.0000000000000000e+00 3.3377050704266729e+01 0 0 0
883 2 1.2305000000000001e+00 7.1042950623783474e-01 3.3377050704266729e+01 0 0 0
887 2 1.2305000000000001e+00 2.1312885187134998e+00 3.3377050704266729e+01 0 0 0
888 2 2.4610000000000003e+00 2.8417180249513345e+00 3.3377050704266729e+01 0 0 0
889 2 2.4610000000000003e+00 0.0000000000000000e+00 3.3377050704266729e+01 0 0 0
890 2 3.6915000000000004e+00 7.1042950623783474e-01 3.3377050704266729e+01 0 0 0
898 2 3.6914999999999996e+00 2.1312885187134998e+00 3.3377050704266729e+01 0 0 0
587 2 4.9220000000000006e+00 1.4208590124756650e+00 3.0030999999997086e+01 0 0 0
589 2 4.9220000000000006e+00 0.0000000000000000e+00 3.0030999999997086e+01 0 0 0
614 2 6.1524999999999999e+00 2.1312885187134989e+00 3.0030999999997086e+01 0 0 0
616 2 7.3829999999999991e+00 1.4208590124756659e+00 3.0030999999997086e+01 0 0 0
618 2 7.3829999999999991e+00 0.0000000000000000e+00 3.0030999999997086e+01 0 0 0
612 2 6.1524999999999999e+00 3.5521475311891644e+00 3.0030999999997086e+01 0 0 0
899 2 4.9220000000000006e+00 2.8417180249513332e+00 3.3377050704266729e+01 0 0 0
900 2 4.9220000000000006e+00 0.0000000000000000e+00 3.3377050704266729e+01 0 0 0
901 2 6.1524999999999999e+00 7.1042950623783407e-01 3.3377050704266729e+01 0 0 0
913 2 6.1524999999999999e+00 2.1312885187134989e+00 3.3377050704266729e+01 0 0 0
914 2 7.3829999999999991e+00 2.8417180249513345e+00 3.3377050704266729e+01 0 0 0
915 2 7.3829999999999991e+00 0.0000000000000000e+00 3.3377050704266729e+01 0 0 0
651 2 8.6134999999999984e+00 2.1312885187135002e+00 3.0030999999997086e+01 0 0 0
653 2 9.8440000000000012e+00 1.4208590124756659e+00 3.0030999999997086e+01 0 0 0
655 2 9.8440000000000012e+00 0.0000000000000000e+00 3.0030999999997086e+01 0 0 0
696 2 1.1074500000000002e+01 2.1312885187135002e+00 3.0030999999997086e+01 0 0 0
649 2 8.6134999999999984e+00 3.5521475311891657e+00 3.0030999999997086e+01 0 0 0
694 2 1.1074500000000002e+01 3.5521475311891644e+00 3.0030999999997086e+01 0 0 0
916 2 8.6134999999999984e+00 7.1042950623783407e-01 3.3377050704266729e+01 0 0 0
932 2 8.6134999999999984e+00 2.1312885187135002e+00 3.3377050704266729e+01 0 0 0
933 2 9.8440000000000012e+00 2.8417180249513332e+00 3.3377050704266729e+01 0 0 0
934 2 9.8440000000000012e+00 0.0000000000000000e+00 3.3377050704266729e+01 0 0 0
935 2 1.1074500000000002e+01 7.1042950623783330e-01 3.3377050704266729e+01 0 0 0
955 2 1.1074500000000002e+01 2.1312885187135002e+00 3.3377050704266729e+01 0 0 0
558 2 0.0000000000000000e+00 5.6834360499026637e+00 3.0030999999997086e+01 0 0 0
560 2 0.0000000000000000e+00 4.2625770374269996e+00 3.0030999999997086e+01 0 0 0
577 2 1.2305000000000001e+00 6.3938655561404980e+00 3.0030999999997086e+01 0 0 0
579 2 2.4610000000000003e+00 5.6834360499026637e+00 3.0030999999997086e+01 0 0 0
581 2 2.4610000000000003e+00 4.2625770374269996e+00 3.0030999999997086e+01 0 0 0
606 2 3.6914999999999996e+00 6.3938655561404980e+00 3.0030999999997086e+01 0 0 0
575 2 1.2305000000000001e+00 7.8147245686161639e+00 3.0030999999997086e+01 0 0 0
604 2 3.6914999999999996e+00 7.8147245686161639e+00 3.0030999999997086e+01 0 0 0
885 2 0.0000000000000000e+00 4.2625770374269996e+00 3.3377050704266729e+01 0 0 0
886 2 1.2305000000000001e+00 4.9730065436648339e+00 3.3377050704266729e+01 0 0 0
894 2 1.2305000000000001e+00 6.3938655561404980e+00 3.3377050704266729e+01 0 0 0
896 2 2.4610000000000003e+00 4.2625770374269996e+00 3.3377050704266729e+01 0 0 0
897 2 3.6914999999999996e+00 4.9730065436648339e+00 3.3377050704266729e+01 0 0 0
909 2 3.6914999999999996e+00 6.3938655561404980e+00 3.3377050704266729e+01 0 0 0
884 2 0.0000000000000000e+00 7.1042950623783341e+00 3.3377050704266729e+01 0 0 0
895 2 2.4610000000000003e+00 7.1042950623783341e+00 3.3377050704266729e+01 0 0 0
608 2 4.9220000000000006e+00 5.6834360499026637e+00 3.0030999999997086e+01 0 0 0
610 2 4.9220000000000006e+00 4.2625770374269978e+00 3.0030999999997086e+01 0 0 0
643 2 6.1524999999999999e+00 6.3938655561404980e+00 3.0030999999997086e+01 0 0 0
645 2 7.3829999999999991e+00 5.6834360499026637e+00 3.0030999999997086e+01 0 0 0
647 2 7.3829999999999991e+00 4.2625770374269996e+00 3.0030999999997086e+01 0 0 0
641 2 6.1524999999999999e+00 7.8147245686161639e+00 3.0030999999997086e+01 0 0 0
911 2 4.9220000000000006e+00 4.2625770374269978e+00 3.3377050704266729e+01 0 0 0
912 2 6.1524999999999999e+00 4.9730065436648339e+00 3.3377050704266729e+01 0 0 0
928 2 6.1524999999999999e+00 6.3938655561404980e+00 3.3377050704266729e+01 0 0 0
930 2 7.3829999999999991e+00 4.2625770374269996e+00 3.3377050704266729e+01 0 0 0
910 2 4.9220000000000006e+00 7.1042950623783341e+00 3.3377050704266729e+01 0 0 0
929 2 7.3830000000000009e+00 7.1042950623783341e+00 3.3377050704266729e+01 0 0 0
688 2 8.6135000000000002e+00 6.3938655561404980e+00 3.0030999999997086e+01 0 0 0
690 2 9.8440000000000012e+00 5.6834360499026637e+00 3.0030999999997086e+01 0 0 0
692 2 9.8440000000000012e+00 4.2625770374270004e+00 3.0030999999997086e+01 0 0 0
735 2 1.1074500000000002e+01 6.3938655561404980e+00 3.0030999999997086e+01 0 0 0
686 2 8.6135000000000002e+00 7.8147245686161639e+00 3.0030999999997086e+01 0 0 0
733 2 1.1074500000000002e+01 7.8147245686161639e+00 3.0030999999997086e+01 0 0 0
931 2 8.6135000000000002e+00 4.9730065436648339e+00 3.3377050704266729e+01 0 0 0
951 2 8.6135000000000002e+00 6.3938655561404980e+00 3.3377050704266729e+01 0 0 0
953 2 9.8440000000000012e+00 4.2625770374270004e+00 3.3377050704266729e+01 0 0 0
954 2 1.1074500000000002e+01 4.9730065436648339e+00 3.3377050704266729e+01 0 0 0
975 2 1.1074500000000002e+01 6.3938655561404980e+00 3.3377050704266729e+01 0 0 0
952 2 9.8440000000000012e+00 7.1042950623783341e+00 3.3377050704266729e+01 0 0 0
571 2 0.0000000000000000e+00 9.9460130873296642e+00 3.0030999999997086e+01 0 0 0
573 2 0.0000000000000000e+00 8.5251540748539991e+00 3.0030999999997086e+01 0 0 0
600 2 2.4610000000000003e+00 9.9460130873296642e+00 3.0030999999997086e+01 0 0 0
602 2 2.4610000000000003e+00 8.5251540748539991e+00 3.0030999999997086e+01 0 0 0
596 2 1.2305000000000001e+00 1.2077301606043163e+01 3.0030999999997086e+01 0 0 0
598 2 1.2305000000000001e+00 1.0656442593567498e+01 3.0030999999997086e+01 0 0 0
633 2 3.6914999999999996e+00 1.2077301606043163e+01 3.0030999999997086e+01 0 0 0
635 2 3.6914999999999996e+00 1.0656442593567499e+01 3.0030999999997086e+01 0 0 0
892 2 0.0000000000000000e+00 8.5251540748539991e+00 3.3377050704266729e+01 0 0 0
893 2 1.2305000000000001e+00 9.2355835810918343e+00 3.3377050704266729e+01 0 0 0
907 2 2.4610000000000003e+00 8.5251540748539991e+00 3.3377050704266729e+01 0 0 0
908 2 3.6915000000000004e+00 9.2355835810918343e+00 3.3377050704266729e+01 0 0 0
891 2 0.0000000000000000e+00 1.1366872099805333e+01 3.3377050704266729e+01 0 0 0
905 2 1.2305000000000001e+00 1.0656442593567498e+01 3.3377050704266729e+01 0 0 0
906 2 2.4610000000000003e+00 1.1366872099805333e+01 3.3377050704266729e+01 0 0 0
924 2 3.6914999999999996e+00 1.0656442593567499e+01 3.3377050704266729e+01 0 0 0
637 2 4.9220000000000006e+00 9.9460130873296642e+00 3.0030999999997086e+01 0 0 0
639 2 4.9220000000000006e+00 8.5251540748539991e+00 3.0030999999997086e+01 0 0 0
682 2 7.3830000000000009e+00 9.9460130873296642e+00 3.0030999999997086e+01 0 0 0
684 2 7.3830000000000009e+00 8.5251540748539991e+00 3.0030999999997086e+01 0 0 0
678 2 6.1524999999999999e+00 1.2077301606043163e+01 3.0030999999997086e+01 0 0 0
680 2 6.1524999999999999e+00 1.0656442593567499e+01 3.0030999999997086e+01 0 0 0
926 2 4.9220000000000006e+00 8.5251540748539991e+00 3.3377050704266729e+01 0 0 0
927 2 6.1524999999999999e+00 9.2355835810918343e+00 3.3377050704266729e+01 0 0 0
949 2 7.3830000000000009e+00 8.5251540748539991e+00 3.3377050704266729e+01 0 0 0
925 2 4.9220000000000006e+00 1.1366872099805333e+01 3.3377050704266729e+01 0 0 0
947 2 6.1524999999999999e+00 1.0656442593567499e+01 3.3377050704266729e+01 0 0 0
948 2 7.3829999999999991e+00 1.1366872099805333e+01 3.3377050704266729e+01 0 0 0
729 2 9.8440000000000012e+00 9.9460130873296642e+00 3.0030999999997086e+01 0 0 0
731 2 9.8440000000000012e+00 8.5251540748539956e+00 3.0030999999997086e+01 0 0 0
725 2 8.6135000000000002e+00 1.2077301606043163e+01 3.0030999999997086e+01 0 0 0
727 2 8.6134999999999984e+00 1.0656442593567498e+01 3.0030999999997086e+01 0 0 0
772 2 1.1074500000000002e+01 1.2077301606043163e+01 3.0030999999997086e+01 0 0 0
774 2 1.1074500000000002e+01 1.0656442593567498e+01 3.0030999999997086e+01 0 0 0
950 2 8.6134999999999984e+00 9.2355835810918343e+00 3.3377050704266729e+01 0 0 0
973 2 9.8440000000000012e+00 8.5251540748539956e+00 3.3377050704266729e+01 0 0 0
974 2 1.1074500000000002e+01 9.2355835810918343e+00 3.3377050704266729e+01 0 0 0
971 2 8.6134999999999984e+00 1.0656442593567498e+01 3.3377050704266729e+01 0 0 0
972 2 9.8440000000000012e+00 1.1366872099805333e+01 3.3377050704266729e+01 0 0 0
995 2 1.1074500000000002e+01 1.0656442593567498e+01 3.3377050704266729e+01 0 0 0
996 2 1.2304999999999998e+01 1.1366872099805333e+01 3.3377050704266729e+01 0 0 0
144 1 3.3282819559893326e+00 2.7379946516987115e+00 3.6125366779090044e+01 0 -5 0
6180 1 8.9180909374073192e+00 6.7774622936498625e+00 4.3239596155988444e+01 -1 3 0
4863 1 6.0934451592950030e+00 2.9043014275295427e+00 3.6685308949358010e+01 -1 2 0
4801 1 4.2426737191133146e+00 4.7989846642427159e-01 4.2734360788814115e+01 0 -1 -1
3604 1 1.0989662792417272e+01 2.6496689990967215e+00 3.6257034578997661e+01 -1 1 0
3543 1 6.8648806487759071e+00 1.1843339318472001e+01 4.3629427588122510e+01 2 -5 -1
3472 1 2.4446172731917697e+00 5.4154080712667891e+00 3.6277570363769527e+01 0 3 -1
1714 1 3.9279451256079034e+00 7.7533140055755956e+00 3.5814628572230909e+01 0 1 0
2049 1 7.4323537446663757e+00 4.9080407169342948e+00 3.5920355922018103e+01 -1 0 -1
4416 1 6.5347927470125367e+00 7.4794753387265196e+00 3.6749353711614127e+01 3 2 -1
1797 1 1.1241378426489300e+01 7.2102250655879061e+00 3.5609640156414173e+01 1 -4 -1
3254 1 9.8773938194156319e+00 5.0268427496005055e+00 3.6907347139599075e+01 1 -1 -1
4717 1 2.8020165228821825e+00 1.0165013628728731e+01 3.6256052383805837e+01 0 2 0
1880 1 3.3820079352157312e-01 1.0495395895143417e+01 3.5648322631982431e+01 1 -1 -1
2928 1 8.1034868371605153e+00 9.6896652503149294e+00 3.5825964109830160e+01 1 2 0
2128 1 1.1928596173049666e+01 2.0790894206421581e-01 4.0090350159215035e+01 -4 0 -1
5121 1 5.8249458205126814e+00 2.6442514635020928e+00 4.3796571736040612e+01 2 2 -1
5144 1 6.7805810090313230e+00 1.2096501779408905e+01 3.9058821007327261e+01 2 -2 -1
5096 1 1.0532952023247365e+01 9.3979247115091145e+00 3.6633413839196209e+01 0 -1 -1
4702 1 1.8898372605877605e+00 4.7715727244431377e-01 3.6457308120164114e+01 -4 4 0
5276 1 1.2151613724052319e+00 3.2631754603397098e+00 4.0117233297056146e+01 0 0 0
2953 1 5.9596352932841681e+00 2.6144662680123605e+00 3.9303004652983113e+01 3 1 0
4570 1 9.3455569737255999e+00 1.1442003112324482e+01 4.2831238869719272e+01 -1 5 0
2979 1 9.6421638204375260e+00 2.8991554139416170e-01 3.6322508788419896e+01 6 1 -1
1274 1 8.4425162526445874e+00 2.3270956656583826e+00 4.0452768238045294e+01 0 -2 0
6039 1 2.7522231093838303e+00 5.3746922333670124e+00 3.9120120276345133e+01 2 6 0
1358 1 2.0642193086560918e+00 7.8409256600889519e+00 4.0175854790761647e+01 0 1 -1
71 1 5.2199177823203087e+00 5.0060324631828372e+00 4.0091682325195045e+01 1 4 -1
283 1 6.6867327707551709e+00 7.3005890096199639e+00 3.9477254474582821e+01 -2 -2 -1
3277 1 9.6802290546279224e+00 4.6935327085177168e+00 3.9685669094236921e+01 5 1 -1
4576 1 8.9866900154976257e+00 7.0635666445486756e+00 4.0727589622508376e+01 1 4 0
1808 1 2.9905660999030106e+00 1.0058332621839350e+01 3.8925828125785131e+01 1 -2 -1
5260 1 1.5430968493497161e+00 6.8700069299006672e-01 4.3718286111636289e+01 4 -6 -1
5055 1 5.5350370558460336e+00 9.7611056707141248e+00 4.0006993428652045e+01 2 -3 -1
4567 1 1.0214020333185125e+01 9.1763424887302687e+00 3.9327645672740331e+01 -2 0 0
203 1 9.0621906013134872e+00 1.1755988287764280e+01 4.0140234462905681e+01 1 2 -1
1886 1 8.4422827402841882e-01 3.2079288916790039e+00 4.2849082567706688e+01 -2 2 -1
1535 1 1.2130343020160378e+01 1.1802875590639200e+01 3.5822104162539461e+01 2 1 -1
3028 1 8.3564392119909172e+00 2.0818477533253215e+00 4.3174383591888045e+01 -2 -4 -1
2027 1 4.3489849435539183e+00 5.7911518325878153e-01 3.9896346666046576e+01 3 -1 0
1634 1 1.8413343947165310e+00 7.6149197193458373e-01 3.9224717989185194e+01 -4 0 -1
5993 1 5.4256090600900668e+00 9.6873955261311675e+00 4.2850924185096147e+01 2 1 0
4894 1 1.3704242078812081e+00 7.5033356712420618e+00 4.2796628746338463e+01 3 3 0
3128 1 4.5881668299780447e+00 4.8731620085410015e+00 4.2684905907001365e+01 4 1 0
3569 1 7.0363919102140446e+00 4.8147117896033736e-01 3.5711182305369249e+01 2 2 -1
6141 1 2.2872385970677853e+00 5.2049020932371182e+00 4.3731761148381402e+01 3 3 0
491 1 7.2156290272321737e+00 1.2214757542482815e+01 3.6491461215445973e+01 -6 -2 0
215 1 1.9977569732862237e+00 1.2149176110482735e+01 4.3146717174810000e+01 -1 -5 -1
4489 1 2.7536898370915295e+00 9.6553310267458468e+00 4.3889085372707989e+01 -1 3 -1
4915 1 1.2192368039448299e+01 4.1511188901903023e-01 4.2912777999611521e+01 -1 3 -1
3337 1 6.1517870219724262e+00 7.0186584667032061e+00 4.3670063781268055e+01 -2 1 -1
1505 1 9.3588405001013797e+00 1.5145962783461187e-01 3.9192214373779962e+01 -3 2 0
6319 1 3.2982865027137471e+00 2.7702612745358306e+00 4.7757521211207063e+01 2 0 0
45 1 6.1384591842338452e+00 1.1730504088379904e+01 5.7906373354693940e+01 -1 -3 -1
1298 1 1.2203366897810422e+01 4.1038487194893545e+00 5.1060542588015302e+01 2 -2 -1
3462 1 5.7875784787890101e+00 2.4336002105608192e+00 4.6645692176641312e+01 -4 -3 -1
4660 1 9.7308621901372732e+00 9.0679499291545600e+00 5.5277143027872889e+01 1 -1 0
4725 1 1.1085219612847512e+01 2.5192044423227049e+00 4.7845708892724701e+01 1 -2 -1
382 1 2.7519264095227429e+00 5.1627871103473781e+00 4.6489125421040036e+01 -3 2 -1
5172 1 3.6469216295438067e+00 7.5267396557174848e+00 4.7788350469211181e+01 0 0 0
3612 1 5.8334713701407566e+00 7.1971156767708697e+00 4.6440144515517460e+01 4 1 0
5103 1 9.6149447285599567e+00 4.5005222591083456e+00 4.6973262667194113e+01 -2 2 -1
3402 1 8.7115634527752324e+00 1.1291828154889151e+01 5.4085965840148653e+01 -1 0 0
1698 1 2.9785779224039546e+00 9.9596915739809937e+00 4.6560579216406978e+01 5 -2 -1
6253 1 6.1886073483025461e+00 1.1920898403052364e+01 5.5251594705949401e+01 0 -1 0
4799 1 6.7216306252491647e+00 1.1758576753754827e+01 4.6561670003319321e+01 -2 2 0
3458 1 5.7627085293493518e+00 7.1250713021259378e+00 5.7414562702737634e+01 -1 4 -1
4901 1 1.0003864042569225e+01 9.1372726319184459e+00 4.6885462167803006e+01 3 1 -1
321 1 2.9494177482948190e+00 2.5994800087100649e+00 5.0277625350328613e+01 3 -2 -1
4484 1 9.5643397598924516e+00 8.7288769391302150e+00 5.7786357245267844e+01 1 -1 0
133 1 1.0618870612562064e+01 2.1134987808398296e+00 5.0378510384505084e+01 -1 2 0
200 1 3.4209379601577732e+00 7.1090787490141238e+00 5.0699296759644909e+01 3 -4 -1
6273 1 6.9603579851201181e+00 4.8592054467672865e+00 4.7478714718000127e+01 -1 1 0
2054 1 7.0219117417753765e+00 4.8269905909036517e+00 5.0169401415430563e+01 7 1 0
135 1 1.1076943960917745e+01 6.7766052580664704e+00 4.7585860032118312e+01 -4 -2 -1
1304 1 1.1193821238122217e+01 6.6476331997511870e+00 5.0421450524551894e+01 -1 1 0
3319 1 1.9395900384272509e+00 5.2774302576914858e+00 5.4539291904663443e+01 3 -2 -1