LAMMPS data file via write_data, version 16 Mar 2018, timestep = 100000

6328 atoms
2 atom types

0.0000000000000000e+00 4.9219999999999999e+01 xlo xhi
0.0000000000000000e+00 4.9019635930410494e+01 ylo yhi
3.5551087378139172e+00 5.6506891262186024e+01 zlo zhi

Masses

1 18.015
2 12.01

Atoms # atomic

3249 1 2.4155263806987342e+00 3.1436336161432328e+00 6.3645937251523801e+00 0 0 0
163 1 1.1868548428691950e+01 9.4910054598159821e+00 1.6124251232318787e+01 0 1 1
4675 1 9.0781178501786730e+00 6.6465542119230401e+00 1.6345994332565905e+01 1 0 0
4748 1 7.1530592400195738e+00 1.1056026577007525e+00 4.9174537820099413e+00 0 1 1
1639 1 2.0786683018840910e+00 5.1888725219507910e+00 1.4725155191037079e+01 -1 -1 0
16 1 8.7990170977778188e+00 3.6728302903732017e+00 7.7531713573520200e+00 0 0 0
5998 1 5.3624100478576908e+00 7.9974070500200236e+00 1.3449820681671641e+01 1 0 1
2845 1 1.1225261574565653e+01 2.9279448350737729e+00 4.1379486019584224e+00 0 0 1
4421 1 7.0209117299768673e+00 2.4483629050145206e+00 1.6230460601054006e+01 0 0 1
103 1 6.0247881868851652e+00 8.9170095167358809e-01 1.2027524167252940e+01 0 0 0
5264 1 1.3260276167376208e+00 7.2825351407323966e+00 5.6912765023783027e+00 0 1 1
4860 1 1.1465061820672153e+01 3.3499530714296410e+00 6.9106748572944001e+00 0 0 0
1718 1 6.2164000086490017e+00 4.6431411619658496e+00 6.8990696243542082e+00 0 1 1
5956 1 5.9224576593253166e+00 3.6231164074544071e+00 4.4723596931173812e+00 0 1 1
3316 1 5.1186318874962335e+00 6.7604036710218187e+00 8.1359603651691952e+00 0 1 0
1721 1 9.5329153886250424e+00 7.8864354211651779e+00 4.3328325933955378e+00 -1 1 1
1482 1 4.0299926834618818e+00 8.1989871729768478e+00 5.6831161997446893e+00 1 1 0
1770 1 2.8233309494896854e+00 1.0578195432715544e+01 6.2026708837517468e+00 0 1 1
4953 1 1.2134429086960798e+01 6.7894474056906207e+00 1.6524915911554483e+01 1 0 0
6321 1 1.1120224781680307e+01 4.6465431593636371e-02 1.0459329076789134e+01 1 1 0
2934 1 6.4467723618907513e+00 1.0842101344844023e+01 5.9404606590224489e+00 0 0 1
1545 1 1.1832862328435793e+01 3.0058051119379972e+00 1.0078628597124307e+01 0 0 1
227 1 6.5639615354172864e-01 1.0889923675009063e+01 4.7515739378272226e+00 0 1 0
3427 1 2.2877751474551218e+00 4.3870313311987950e+00 1.1512737428436914e+01 1 0 1
1774 1 1.5370748102478669e+00 9.5683417582534709e+00 1.5820974453894747e+01 -1 0 0
6291 1 2.1918102785128326e+00 1.6745603374089615e+00 9.8848422594506662e+00 1 0 1
3350 1 4.6050621075380276e+00 2.5785590184471472e+00 7.9954693298985129e+00 1 1 0
204 1 3.8041739332304831e+00 3.9786652269096736e+00 1.6516796085103699e+01 0 1 1
3497 1 9.1067077026614562e+00 3.5284830755843006e+00 1.0913558311324838e+01 0 0 1
4644 1 8.3466444691752546e+00 5.3504326656199552e-01 1.0440016163826597e+01 1 0 0
5162 1 8.0579890720449654e-01 5.0474378346250059e+00 7.4442085685642621e+00 0 0 0
71 1 2.4534468418432258e+00 6.0387684850207055e+00 9.2803537926694339e+00 0 0 0
2013 1 6.1989676075616051e+00 3.9045834244342301e+00 1.1567650246142023e+01 -1 1 0
6196 1 6.8357869743223896e+00 6.5045559448003019e+00 1.0672013924521920e+01 1 0 1
3199 1 8.6083073522421536e+00 9.2307519184502187e+00 1.0414803947736598e+01 0 0 1
1606 1 9.4546263081821174e+00 6.2561070636810605e+00 9.5090532937721211e+00 0 0 0
2016 1 9.3747232322774661e+00 8.4364822551743117e+00 7.1708129408533567e+00 0 -1 0
1952 1 9.2438053398140010e+00 1.0171838387737475e+01 1.5616006815422917e+01 0 0 0
156 1 1.8962876535006012e+00 8.4497487251695489e+00 1.0636879780284422e+01 0 0 0
3174 1 2.0124119506754479e+00 1.0700400746310972e+01 8.7249199894511857e+00 1 1 1
1478 1 2.1883181065436741e-01 7.8010494887886295e-01 1.5811667652629268e+01 1 0 1
6287 1 6.7661561420159453e+00 9.1583628218968851e+00 7.9213597258483350e+00 1 1 0
6109 1 4.9129365427630836e+00 9.0125177128878544e+00 1.0848284276219378e+01 0 1 1
3069 1 6.6686683175454053e+00 1.1283071089155138e+01 1.0132312167536863e+01 0 -1 1
3456 1 1.0992747911964374e+01 3.6708834214865003e+00 1.5795417448523930e+01 -1 0 1
6189 1 5.3932332786985304e+00 9.4426672799304501e-02 7.0303368879591446e+00 0 1 1
4883 1 1.1690968900015587e+01 1.0106664689479059e+01 7.5863822322945733e+00 1 0 1
3648 1 1.7814220196774369e+00 7.1464583889859390e-01 1.3026421063529407e+01 0 0 0
4976 1 9.7743818986460795e-01 8.0783883962521497e-01 5.9227143830796258e+00 1 0 0
3042 1 4.4453600515631408e-01 8.1583048151301664e-03 8.6192526994458518e+00 0 0 1
2893 1 3.6080290325556157e+00 3.0306215969802297e+00 1.3437459206255228e+01 0 2 1
6290 1 1.2944473713556923e+00 1.0624667013058287e+01 1.3253369424862962e+01 1 0 1
312 1 8.4585003810757353e+00 1.7976065568868578e+00 1.3791052957010463e+01 1 0 0
1961 1 1.0314426850509529e+01 4.3732830128661275e+00 1.3244109653837448e+01 0 1 0
4834 1 6.0930042675024536e+00 1.1551352560146004e+01 1.3403832623336900e+01 0 1 0
1432 1 3.4326570915924104e+00 7.5100501738602583e+00 1.5486937253861628e+01 0 0 0
1949 1 3.7511582890145885e+00 1.1384272078018247e+01 1.2131542155589543e+01 1 2 0
4684 1 1.0661465861148436e+01 1.1757551279080801e+01 1.3004063099250395e+01 0 0 0
459 1 6.0576084990139094e+00 5.0731525107912816e+00 1.3895888422381640e+01 0 0 0
4933 1 8.1806022184826315e+00 9.6359783168707871e+00 1.3258981771814300e+01 0 0 1
1895 1 8.7099976423043959e+00 6.4844954600804376e+00 1.3534837553317303e+01 0 0 0
139 1 1.1284727247412464e+01 1.1937516236101448e+01 5.3733784868633521e+00 1 0 1
3448 1 1.0397241265433609e+01 1.1455609151724296e+01 9.7389381487686926e+00 1 1 0
3093 1 8.3732757003730143e+00 1.1103512145051193e+00 7.7127635780167045e+00 0 0 1
4665 1 1.1923851358309241e+01 7.4272297164282088e+00 1.0431906972050346e+01 0 1 0
4938 1 6.2450549596842970e+00 5.7363557427810008e+00 1.6651466132136186e+01 1 2 0
6060 1 7.0251977720081271e+00 9.1360804809134475e+00 3.9379346229832710e+00 0 0 1
6182 1 1.0019227159650979e+00 5.6937601401153648e+00 3.7532066472803494e+00 1 1 1
1762 1 4.4305129186202761e+00 6.9480692137923350e-01 1.6700800325960387e+01 0 1 0
3000 1 2.7275583445474587e+00 3.4962314885499288e+00 3.5616128009393861e+00 0 1 1
3299 1 9.7711137174994249e+00 5.1845154423009578e+00 3.6891855793521557e+00 1 -1 0
4700 1 1.6416739069070141e+00 2.0186239667357624e+00 1.7729810088407206e+01 2 0 1
3695 1 7.6419697302913701e+00 3.7578690032817086e-01 2.4188075371408544e+01 1 0 0
3454 1 2.1903144350674673e+00 2.3062683521204725e+00 2.2387381276365748e+01 1 1 0
5101 1 1.1902002929037966e+01 1.1408001835015977e+01 2.0505247035837666e+01 1 0 1
3324 1 1.1121560374873622e+01 1.2408802781235191e+00 1.7254240363401689e+01 1 1 0
310 1 6.7741380576792276e-01 5.9295006120645821e+00 2.1795774033310209e+01 0 1 1
4776 1 4.6157048998928397e-02 1.1874216136110386e+01 2.4484801856927035e+01 1 0 1
3055 1 2.8795775380624584e+00 1.1855868278955944e+01 2.4193728704719522e+01 0 0 0
4832 1 1.3555006813304458e+00 7.0653891943711979e+00 1.8864893276205400e+01 2 -1 0
79 1 1.6692006049370558e+00 1.1675907225676427e+01 1.7404195239890626e+01 0 -1 1
432 1 4.6290122446548629e+00 4.9247169911889097e+00 1.9117068421710080e+01 0 1 0
6128 1 8.7176308918092680e+00 7.7608830486651605e+00 2.0731124880744382e+01 0 0 0
1802 1 8.7163280780817782e+00 4.0666572290309553e+00 1.7473980416628780e+01 0 2 0
5074 1 8.9556397519494855e+00 3.7861645804202642e+00 2.0216594576747966e+01 1 0 0
374 1 9.4510756054650571e+00 1.0444997316718736e+01 1.9359439316276763e+01 0 -1 0
2033 1 1.2084729512479830e+01 4.2382575542633134e+00 2.0230533431242122e+01 0 0 1
775 2 1.2304999999999998e+01 1.1366872099805333e+01 2.6871094231183779e+01 0 0 0
1869 1 3.6117610745786752e+00 1.0284677916183027e+01 2.1280378083596574e+01 1 1 1
5292 1 1.5263740468617666e+00 1.2117367920381556e+01 2.1545951229596305e+01 0 1 1
685 2 8.6134999999999984e+00 9.2355835810918343e+00 2.6871094231183779e+01 0 0 0
5099 1 3.9474808217201511e+00 8.2095843009641918e+00 1.9883885275836771e+01 1 -1 0
730 2 9.8440000000000012e+00 8.5251540748539956e+00 2.6871094231183779e+01 0 0 0
2937 1 6.5408051162091931e+00 1.1505438078443353e+01 2.2670253767001999e+01 0 1 1
233 1 7.9253301440878667e+00 8.7768740100554030e+00 1.7504583320569019e+01 1 0 0
4493 1 8.9881745319729340e+00 1.0180148559884815e+01 2.2313205383474067e+01 1 0 1
4480 1 1.2640552898070494e+00 4.4725694383664756e+00 2.4396597707981329e+01 0 0 1
1927 1 6.0216342343618310e+00 3.0446088874455053e+00 2.3629435945195894e+01 0 0 0
5056 1 3.9467038445448654e+00 1.3912407760217249e+00 2.3834882281123068e+01 0 0 0
773 2 1.1074500000000002e+01 1.0656442593567498e+01 2.6871094231183779e+01 0 0 0
6255 1 4.5925016531954810e-01 4.5282900982541392e+00 1.7763019416639878e+01 1 0 1
3161 1 9.7602692791335475e+00 2.0913925308900234e+00 2.4301269180033518e+01 1 0 1
1864 1 7.3738399429561792e+00 3.7548930459361529e-01 1.8130282755169254e+01 2 1 0
425 1 9.7283042079383968e+00 9.4258700435936649e-01 1.9597901405476509e+01 0 1 0
732 2 1.1074500000000002e+01 9.2355835810918343e+00 2.6871094231183779e+01 0 0 0
2077 1 3.3690102707836393e+00 4.7003495406023541e+00 2.1811781404985592e+01 2 -2 -1
3293 1 2.2110074197828213e+00 7.5482405420247831e+00 2.4247861162467697e+01 1 1 0
3424 1 5.6763512055091168e+00 6.9866117959056073e-01 2.0163737605909461e+01 1 0 0
429 1 4.4271683251672718e+00 5.0334648899342200e+00 2.4425741129708939e+01 0 0 0
1658 1 6.2069459639902114e+00 6.6826002227894312e+00 2.0985922128211772e+01 1 0 0
1954 1 6.4369025796187600e+00 3.3389334671932591e+00 2.1027626552475379e+01 1 -1 0
5079 1 9.1891390585755275e+00 7.7816276222361545e+00 2.4035749528967500e+01 1 -1 -1
1473 1 8.8985424455171369e+00 5.0529847276046844e+00 2.3307247641111495e+01 0 1 1
5976 1 1.1086669096785227e+01 6.6537773272028975e+00 2.1544254880837634e+01 1 0 1
3460 1 6.2676454499022523e+00 6.9060013647347898e+00 2.3547894909373724e+01 0 0 1
1734 1 4.6037002217568119e+00 9.3182558525770123e+00 2.3716264555458213e+01 1 1 1
728 2 9.8440000000000012e+00 1.1366872099805333e+01 2.6871094231183779e+01 0 0 0
3085 1 2.7007775772065585e+00 9.8351615918713065e-01 1.9988489799235815e+01 0 0 1
4530 1 1.0844799235903675e+01 1.1156772421484805e+01 2.4099255193046528e+01 1 1 1
552 2 0.0000000000000000e+00 2.8417180249513345e+00 2.6871094231183779e+01 0 0 0
554 2 0.0000000000000000e+00 0.0000000000000000e+00 2.6871094231183779e+01 0 0 0
556 2 1.2305000000000001e+00 7.1042950623783474e-01 2.6871094231183779e+01 0 0 0
563 2 1.2305000000000001e+00 2.1312885187134998e+00 2.6871094231183779e+01 0 0 0
565 2 2.4610000000000003e+00 2.8417180249513345e+00 2.6871094231183779e+01 0 0 0
567 2 2.4610000000000003e+00 0.0000000000000000e+00 2.6871094231183779e+01 0 0 0
569 2 3.6915000000000004e+00 7.1042950623783474e-01 2.6871094231183779e+01 0 0 0
584 2 3.6914999999999996e+00 2.1312885187134998e+00 2.6871094231183779e+01 0 0 0
586 2 4.9220000000000006e+00 2.8417180249513332e+00 2.6871094231183779e+01 0 0 0
588 2 4.9220000000000006e+00 0.0000000000000000e+00 2.6871094231183779e+01 0 0 0
590 2 6.1524999999999999e+00 7.1042950623783407e-01 2.6871094231183779e+01 0 0 0
613 2 6.1524999999999999e+00 2.1312885187134989e+00 2.6871094231183779e+01 0 0 0
615 2 7.3829999999999991e+00 2.8417180249513345e+00 2.6871094231183779e+01 0 0 0
617 2 7.3829999999999991e+00 0.0000000000000000e+00 2.6871094231183779e+01 0 0 0
619 2 8.6134999999999984e+00 7.1042950623783407e-01 2.6871094231183779e+01 0 0 0
650 2 8.6134999999999984e+00 2.1312885187135002e+00 2.6871094231183779e+01 0 0 0
652 2 9.8440000000000012e+00 2.8417180249513332e+00 2.6871094231183779e+01 0 0 0
654 2 9.8440000000000012e+00 0.0000000000000000e+00 2.6871094231183779e+01 0 0 0
656 2 1.1074500000000002e+01 7.1042950623783330e-01 2.6871094231183779e+01 0 0 0
695 2 1.1074500000000002e+01 2.1312885187135002e+00 2.6871094231183779e+01 0 0 0
559 2 0.0000000000000000e+00 4.2625770374269996e+00 2.6871094231183779e+01 0 0 0
561 2 1.2305000000000001e+00 4.9730065436648339e+00 2.6871094231183779e+01 0 0 0
576 2 1.2305000000000001e+00 6.3938655561404980e+00 2.6871094231183779e+01 0 0 0
580 2 2.4610000000000003e+00 4.2625770374269996e+00 2.6871094231183779e+01 0 0 0
582 2 3.6914999999999996e+00 4.9730065436648339e+00 2.6871094231183779e+01 0 0 0
605 2 3.6914999999999996e+00 6.3938655561404980e+00 2.6871094231183779e+01 0 0 0
557 2 0.0000000000000000e+00 7.1042950623783341e+00 2.6871094231183779e+01 0 0 0
578 2 2.4610000000000003e+00 7.1042950623783341e+00 2.6871094231183779e+01 0 0 0
609 2 4.9220000000000006e+00 4.2625770374269978e+00 2.6871094231183779e+01 0 0 0
611 2 6.1524999999999999e+00 4.9730065436648339e+00 2.6871094231183779e+01 0 0 0
642 2 6.1524999999999999e+00 6.3938655561404980e+00 2.6871094231183779e+01 0 0 0
646 2 7.3829999999999991e+00 4.2625770374269996e+00 2.6871094231183779e+01 0 0 0
607 2 4.9220000000000006e+00 7.1042950623783341e+00 2.6871094231183779e+01 0 0 0
644 2 7.3830000000000009e+00 7.1042950623783341e+00 2.6871094231183779e+01 0 0 0
648 2 8.6135000000000002e+00 4.9730065436648339e+00 2.6871094231183779e+01 0 0 0
687 2 8.6135000000000002e+00 6.3938655561404980e+00 2.6871094231183779e+01 0 0 0
691 2 9.8440000000000012e+00 4.2625770374270004e+00 2.6871094231183779e+01 0 0 0
693 2 1.1074500000000002e+01 4.9730065436648339e+00 2.6871094231183779e+01 0 0 0
734 2 1.1074500000000002e+01 6.3938655561404980e+00 2.6871094231183779e+01 0 0 0
689 2 9.8440000000000012e+00 7.1042950623783341e+00 2.6871094231183779e+01 0 0 0
572 2 0.0000000000000000e+00 8.5251540748539991e+00 2.6871094231183779e+01 0 0 0
574 2 1.2305000000000001e+00 9.2355835810918343e+00 2.6871094231183779e+01 0 0 0
601 2 2.4610000000000003e+00 8.5251540748539991e+00 2.6871094231183779e+01 0 0 0
603 2 3.6915000000000004e+00 9.2355835810918343e+00 2.6871094231183779e+01 0 0 0
570 2 0.0000000000000000e+00 1.1366872099805333e+01 2.6871094231183779e+01 0 0 0
597 2 1.2305000000000001e+00 1.0656442593567498e+01 2.6871094231183779e+01 0 0 0
599 2 2.4610000000000003e+00 1.1366872099805333e+01 2.6871094231183779e+01 0 0 0
634 2 3.6914999999999996e+00 1.0656442593567499e+01 2.6871094231183779e+01 0 0 0
683 2 7.3830000000000009e+00 8.5251540748539991e+00 2.6871094231183779e+01 0 0 0
640 2 6.1524999999999999e+00 9.2355835810918343e+00 2.6871094231183779e+01 0 0 0
636 2 4.9220000000000006e+00 1.1366872099805333e+01 2.6871094231183779e+01 0 0 0
679 2 6.1524999999999999e+00 1.0656442593567499e+01 2.6871094231183779e+01 0 0 0
638 2 4.9220000000000006e+00 8.5251540748539991e+00 2.6871094231183779e+01 0 0 0
681 2 7.3829999999999991e+00 1.1366872099805333e+01 2.6871094231183779e+01 0 0 0
726 2 8.6134999999999984e+00 1.0656442593567498e+01 2.6871094231183779e+01 0 0 0
3117 1 4.6754121321000941e+00 1.1451295752802691e+01 1.7747878986914554e+01 1 0 0
3461 1 5.1111334329523297e+00 8.6588951838577870e+00 1.7598850786072731e+01 1 0 1
4835 1 1.2259341040415974e+01 7.3025774756096817e+00 2.4196866687104453e+01 0 1 0
4769 1 1.1748121023906437e+01 1.9245586955992735e+00 2.2175648445056520e+01 -1 1 1
342 1 7.1790156624564749e-01 8.7890730020699870e+00 2.1389854839132301e+01 0 0 0
4800 1 1.2066181932115226e+01 4.3077705293394351e+00 2.4227070806232199e+01 -1 1 0
553 2 0.0000000000000000e+00 1.4208590124756650e+00 3.0031000000000034e+01 0 0 0
555 2 0.0000000000000000e+00 0.0000000000000000e+00 3.0031000000000034e+01 0 0 0
564 2 1.2305000000000001e+00 2.1312885187134998e+00 3.0031000000000034e+01 0 0 0
566 2 2.4610000000000003e+00 1.4208590124756650e+00 3.0031000000000034e+01 0 0 0
568 2 2.4610000000000003e+00 0.0000000000000000e+00 3.0031000000000034e+01 0 0 0
585 2 3.6914999999999996e+00 2.1312885187134998e+00 3.0031000000000034e+01 0 0 0
562 2 1.2305000000000001e+00 3.5521475311891644e+00 3.0031000000000034e+01 0 0 0
583 2 3.6914999999999996e+00 3.5521475311891644e+00 3.0031000000000034e+01 0 0 0
881 2 0.0000000000000000e+00 2.8417180249513345e+00 3.3190905768813749e+01 0 0 0
882 2 0.0000000000000000e+00 0.0000000000000000e+00 3.3190905768813749e+01 0 0 0
883 2 1.2305000000000001e+00 7.1042950623783474e-01 3.3190905768813749e+01 0 0 0
887 2 1.2305000000000001e+00 2.1312885187134998e+00 3.3190905768813749e+01 0 0 0
888 2 2.4610000000000003e+00 2.8417180249513345e+00 3.3190905768813749e+01 0 0 0
889 2 2.4610000000000003e+00 0.0000000000000000e+00 3.3190905768813749e+01 0 0 0
890 2 3.6915000000000004e+00 7.1042950623783474e-01 3.3190905768813749e+01 0 0 0
898 2 3.6914999999999996e+00 2.1312885187134998e+00 3.3190905768813749e+01 0 0 0
587 2 4.9220000000000006e+00 1.4208590124756650e+00 3.0031000000000034e+01 0 0 0
589 2 4.9220000000000006e+00 0.0000000000000000e+00 3.0031000000000034e+01 0 0 0
614 2 6.1524999999999999e+00 2.1312885187134989e+00 3.0031000000000034e+01 0 0 0
616 2 7.3829999999999991e+00 1.4208590124756659e+00 3.0031000000000034e+01 0 0 0
618 2 7.3829999999999991e+00 0.0000000000000000e+00 3.0031000000000034e+01 0 0 0
612 2 6.1524999999999999e+00 3.5521475311891644e+00 3.0031000000000034e+01 0 0 0
899 2 4.9220000000000006e+00 2.8417180249513332e+00 3.3190905768813749e+01 0 0 0
900 2 4.9220000000000006e+00 0.0000000000000000e+00 3.3190905768813749e+01 0 0 0
901 2 6.1524999999999999e+00 7.1042950623783407e-01 3.3190905768813749e+01 0 0 0
913 2 6.1524999999999999e+00 2.1312885187134989e+00 3.3190905768813749e+01 0 0 0
914 2 7.3829999999999991e+00 2.8417180249513345e+00 3.3190905768813749e+01 0 0 0
915 2 7.3829999999999991e+00 0.0000000000000000e+00 3.3190905768813749e+01 0 0 0
651 2 8.6134999999999984e+00 2.1312885187135002e+00 3.0031000000000034e+01 0 0 0
653 2 9.8440000000000012e+00 1.4208590124756659e+00 3.0031000000000034e+01 0 0 0
655 2 9.8440000000000012e+00 0.0000000000000000e+00 3.0031000000000034e+01 0 0 0
696 2 1.1074500000000002e+01 2.1312885187135002e+00 3.0031000000000034e+01 0 0 0
649 2 8.6134999999999984e+00 3.5521475311891657e+00 3.0031000000000034e+01 0 0 0
694 2 1.1074500000000002e+01 3.5521475311891644e+00 3.0031000000000034e+01 0 0 0
916 2 8.6134999999999984e+00 7.1042950623783407e-01 3.3190905768813749e+01 0 0 0
932 2 8.6134999999999984e+00 2.1312885187135002e+00 3.3190905768813749e+01 0 0 0
933 2 9.8440000000000012e+00 2.8417180249513332e+00 3.3190905768813749e+01 0 0 0
934 2 9.8440000000000012e+00 0.0000000000000000e+00 3.3190905768813749e+01 0 0 0
935 2 1.1074500000000002e+01 7.1042950623783330e-01 3.3190905768813749e+01 0 0 0
955 2 1.1074500000000002e+01 2.1312885187135002e+00 3.3190905768813749e+01 0 0 0
558 2 0.0000000000000000e+00 5.6834360499026637e+00 3.0031000000000034e+01 0 0 0
560 2 0.0000000000000000e+00 4.2625770374269996e+00 3.0031000000000034e+01 0 0 0
577 2 1.2305000000000001e+00 6.3938655561404980e+00 3.0031000000000034e+01 0 0 0
579 2 2.4610000000000003e+00 5.6834360499026637e+00 3.0031000000000034e+01 0 0 0
581 2 2.4610000000000003e+00 4.2625770374269996e+00 3.0031000000000034e+01 0 0 0
606 2 3.6914999999999996e+00 6.3938655561404980e+00 3.0031000000000034e+01 0 0 0
575 2 1.2305000000000001e+00 7.8147245686161639e+00 3.0031000000000034e+01 0 0 0
604 2 3.6914999999999996e+00 7.8147245686161639e+00 3.0031000000000034e+01 0 0 0
885 2 0.0000000000000000e+00 4.2625770374269996e+00 3.3190905768813749e+01 0 0 0
886 2 1.2305000000000001e+00 4.9730065436648339e+00 3.3190905768813749e+01 0 0 0
894 2 1.2305000000000001e+00 6.3938655561404980e+00 3.3190905768813749e+01 0 0 0
896 2 2.4610000000000003e+00 4.2625770374269996e+00 3.3190905768813749e+01 0 0 0
897 2 3.6914999999999996e+00 4.9730065436648339e+00 3.3190905768813749e+01 0 0 0
909 2 3.6914999999999996e+00 6.3938655561404980e+00 3.3190905768813749e+01 0 0 0
884 2 0.0000000000000000e+00 7.1042950623783341e+00 3.3190905768813749e+01 0 0 0
895 2 2.4610000000000003e+00 7.1042950623783341e+00 3.3190905768813749e+01 0 0 0
608 2 4.9220000000000006e+00 5.6834360499026637e+00 3.0031000000000034e+01 0 0 0
610 2 4.9220000000000006e+00 4.2625770374269978e+00 3.0031000000000034e+01 0 0 0
643 2 6.1524999999999999e+00 6.3938655561404980e+00 3.0031000000000034e+01 0 0 0
645 2 7.3829999999999991e+00 5.6834360499026637e+00 3.0031000000000034e+01 0 0 0
647 2 7.3829999999999991e+00 4.2625770374269996e+00 3.0031000000000034e+01 0 0 0
641 2 6.1524999999999999e+00 7.8147245686161639e+00 3.0031000000000034e+01 0 0 0
911 2 4.9220000000000006e+00 4.2625770374269978e+00 3.3190905768813749e+01 0 0 0
912 2 6.1524999999999999e+00 4.9730065436648339e+00 3.3190905768813749e+01 0 0 0
928 2 6.1524999999999999e+00 6.3938655561404980e+00 3.3190905768813749e+01 0 0 0
930 2 7.3829999999999991e+00 4.2625770374269996e+00 3.3190905768813749e+01 0 0 0
910 2 4.9220000000000006e+00 7.1042950623783341e+00 3.3190905768813749e+01 0 0 0
929 2 7.3830000000000009e+00 7.1042950623783341e+00 3.3190905768813749e+01 0 0 0
688 2 8.6135000000000002e+00 6.3938655561404980e+00 3.0031000000000034e+01 0 0 0
690 2 9.8440000000000012e+00 5.6834360499026637e+00 3.0031000000000034e+01 0 0 0
692 2 9.8440000000000012e+00 4.2625770374270004e+00 3.0031000000000034e+01 0 0 0
735 2 1.1074500000000002e+01 6.3938655561404980e+00 3.0031000000000034e+01 0 0 0
686 2 8.6135000000000002e+00 7.8147245686161639e+00 3.0031000000000034e+01 0 0 0
733 2 1.1074500000000002e+01 7.8147245686161639e+00 3.0031000000000034e+01 0 0 0
931 2 8.6135000000000002e+00 4.9730065436648339e+00 3.3190905768813749e+01 0 0 0
951 2 8.6135000000000002e+00 6.3938655561404980e+00 3.3190905768813749e+01 0 0 0
953 2 9.8440000000000012e+00 4.2625770374270004e+00 3.3190905768813749e+01 0 0 0
954 2 1.1074500000000002e+01 4.9730065436648339e+00 3.3190905768813749e+01 0 0 0
975 2 1.1074500000000002e+01 6.3938655561404980e+00 3.3190905768813749e+01 0 0 0
952 2 9.8440000000000012e+00 7.1042950623783341e+00 3.3190905768813749e+01 0 0 0
571 2 0.0000000000000000e+00 9.9460130873296642e+00 3.0031000000000034e+01 0 0 0
573 2 0.0000000000000000e+00 8.5251540748539991e+00 3.0031000000000034e+01 0 0 0
600 2 2.4610000000000003e+00 9.9460130873296642e+00 3.0031000000000034e+01 0 0 0
602 2 2.4610000000000003e+00 8.5251540748539991e+00 3.0031000000000034e+01 0 0 0
596 2 1.2305000000000001e+00 1.2077301606043163e+01 3.0031000000000034e+01 0 0 0
598 2 1.2305000000000001e+00 1.0656442593567498e+01 3.0031000000000034e+01 0 0 0
633 2 3.6914999999999996e+00 1.2077301606043163e+01 3.0031000000000034e+01 0 0 0
635 2 3.6914999999999996e+00 1.0656442593567499e+01 3.0031000000000034e+01 0 0 0
892 2 0.0000000000000000e+00 8.5251540748539991e+00 3.3190905768813749e+01 0 0 0
893 2 1.2305000000000001e+00 9.2355835810918343e+00 3.3190905768813749e+01 0 0 0
907 2 2.4610000000000003e+00 8.5251540748539991e+00 3.3190905768813749e+01 0 0 0
908 2 3.6915000000000004e+00 9.2355835810918343e+00 3.3190905768813749e+01 0 0 0
891 2 0.0000000000000000e+00 1.1366872099805333e+01 3.3190905768813749e+01 0 0 0
905 2 1.2305000000000001e+00 1.0656442593567498e+01 3.3190905768813749e+01 0 0 0
906 2 2.4610000000000003e+00 1.1366872099805333e+01 3.3190905768813749e+01 0 0 0
924 2 3.6914999999999996e+00 1.0656442593567499e+01 3.3190905768813749e+01 0 0 0
637 2 4.9220000000000006e+00 9.9460130873296642e+00 3.0031000000000034e+01 0 0 0
639 2 4.9220000000000006e+00 8.5251540748539991e+00 3.0031000000000034e+01 0 0 0
682 2 7.3830000000000009e+00 9.9460130873296642e+00 3.0031000000000034e+01 0 0 0
684 2 7.3830000000000009e+00 8.5251540748539991e+00 3.0031000000000034e+01 0 0 0
678 2 6.1524999999999999e+00 1.2077301606043163e+01 3.0031000000000034e+01 0 0 0
680 2 6.1524999999999999e+00 1.0656442593567499e+01 3.0031000000000034e+01 0 0 0
926 2 4.9220000000000006e+00 8.5251540748539991e+00 3.3190905768813749e+01 0 0 0
927 2 6.1524999999999999e+00 9.2355835810918343e+00 3.3190905768813749e+01 0 0 0
949 2 7.3830000000000009e+00 8.5251540748539991e+00 3.3190905768813749e+01 0 0 0
925 2 4.9220000000000006e+00 1.1366872099805333e+01 3.3190905768813749e+01 0 0 0
947 2 6.1524999999999999e+00 1.0656442593567499e+01 3.3190905768813749e+01 0 0 0
948 2 7.3829999999999991e+00 1.1366872099805333e+01 3.3190905768813749e+01 0 0 0
729 2 9.8440000000000012e+00 9.9460130873296642e+00 3.0031000000000034e+01 0 0 0
731 2 9.8440000000000012e+00 8.5251540748539956e+00 3.0031000000000034e+01 0 0 0
725 2 8.6135000000000002e+00 1.2077301606043163e+01 3.0031000000000034e+01 0 0 0
727 2 8.6134999999999984e+00 1.0656442593567498e+01 3.0031000000000034e+01 0 0 0
772 2 1.1074500000000002e+01 1.2077301606043163e+01 3.0031000000000034e+01 0 0 0
774 2 1.1074500000000002e+01 1.0656442593567498e+01 3.0031000000000034e+01 0 0 0
950 2 8.6134999999999984e+00 9.2355835810918343e+00 3.3190905768813749e+01 0 0 0
973 2 9.8440000000000012e+00 8.5251540748539956e+00 3.3190905768813749e+01 0 0 0
974 2 1.1074500000000002e+01 9.2355835810918343e+00 3.3190905768813749e+01 0 0 0
971 2 8.6134999999999984e+00 1.0656442593567498e+01 3.3190905768813749e+01 0 0 0
972 2 9.8440000000000012e+00 1.1366872099805333e+01 3.3190905768813749e+01 0 0 0
995 2 1.1074500000000002e+01 1.0656442593567498e+01 3.3190905768813749e+01 0 0 0
996 2 1.2304999999999998e+01 1.1366872099805333e+01 3.3190905768813749e+01 0 0 0
4481 1 2.2942284948051404e+00 2.9697929205803413e+00 3.9330508749198039e+01 1 1 0
3341 1 2.3316854008464554e+00 3.8180458392626533e+00 3.6409801794677257e+01 1 0 -1
5283 1 2.7651384548078766e+00 5.7979559371686502e+00 4.2012879065875879e+01 1 0 0
5064 1 5.2415096740692917e+00 3.0658888048544966e+00 3.5374573038138557e+01 1 1 -1
1556 1 7.5784198130390612e+00 1.8844644021560846e+00 3.6284883643063800e+01 1 0 -1
6075 1 4.0260412947578734e+00 7.9153906905468863e-01 3.8890712893156994e+01 0 0 0
288 1 6.7023113502783733e+00 1.7934469587515829e+00 3.8984403699599582e+01 1 2 0
5018 1 4.5140571852582854e+00 9.4130620924445711e+00 4.2462112485166422e+01 0 0 0
445 1 6.9752013663674735e+00 5.1507714011847017e-01 4.2373629425437549e+01 0 1 0
191 1 8.8752881173890579e+00 1.1404711673988611e+01 3.5930729530538855e+01 1 0 -1
1304 1 1.6867987847371964e+00 6.5381978868391313e+00 3.7495581635271186e+01 0 0 0
4465 1 2.6931688910927125e+00 7.7366301020495616e+00 3.9655308341596637e+01 1 1 0
20 1 5.5458017687133694e+00 5.5144282204694379e+00 3.6109989751508685e+01 0 0 -1
5154 1 4.5079387728351650e+00 4.9826422947457054e+00 3.8668490927437801e+01 -1 1 -1
6228 1 8.4768580140719081e+00 6.2243788700279588e+00 3.6493235264520493e+01 1 0 0
4449 1 9.7519011097474539e+00 3.6891349072668573e+00 3.5920875640814110e+01 0 1 0
2920 1 1.1882246187778572e+01 2.8229586330785456e-01 3.5695415956770248e+01 0 2 0
122 1 4.4765492978489609e+00 9.7801463712425249e+00 3.6325240506135884e+01 0 0 0
6269 1 3.1034713340532503e+00 7.6732936885348146e-01 3.6242552968864352e+01 0 0 0
4513 1 3.6505792489077460e+00 7.2523656449991902e+00 3.5753078365414588e+01 2 2 -1
1290 1 1.0892315619523675e+01 8.7494426459233168e+00 3.9122693713374900e+01 1 1 0
6113 1 6.8612541013795250e+00 9.2561413670887660e+00 3.8656949178912015e+01 0 1 0
2984 1 7.2481326559528041e+00 9.0366524815431042e+00 3.5698892876320095e+01 0 0 0
1862 1 1.2151742735709396e+01 1.1810393057172945e+01 3.5612499515845215e+01 0 0 -1
3059 1 1.1879874192572689e+01 5.9828384411635263e+00 3.6087637281044721e+01 1 1 0
3106 1 1.0873685112029394e+01 4.8736886236619315e+00 3.8646691690792267e+01 0 -1 -1
2906 1 1.1192166736276102e+01 6.5832285192263527e+00 4.1210929746150391e+01 0 0 0
1381 1 5.2123601503039323e+00 2.5627492308068294e+00 4.2563739216658099e+01 0 -1 0
4916 1 8.2718254277106276e+00 1.1123423931402780e+01 4.1930064212259246e+01 -1 -1 0
1516 1 1.3573149199129544e+00 3.6610120449060704e+00 4.1960359760927638e+01 1 0 0
4977 1 8.6756959233182251e-01 9.7207326772476517e+00 4.0001818977868481e+01 0 0 -1
4571 1 1.0808206300175113e+01 1.8560503929318246e+00 3.8277343708611980e+01 0 0 0
1733 1 5.5624589187038014e+00 5.5592527161563865e+00 4.2623689412192107e+01 0 1 -1
6238 1 6.6264278754805304e+00 4.3089026662328545e+00 4.0059463830838460e+01 0 0 0
5268 1 1.1048573988157390e+01 1.2529496187008635e+00 4.1011092154013852e+01 2 1 -1
1544 1 8.3515608024545216e+00 6.3597142132621753e+00 3.9178703640610422e+01 1 0 0
6119 1 5.5947199109993031e+00 1.1945656162657754e+01 4.2248908560764441e+01 1 1 -1
4430 1 1.8259593106927499e+00 9.9189478613630744e+00 4.2457802612269965e+01 1 -1 0
5174 1 4.1241217334826779e+00 1.0178527442184027e+01 3.9200925609937606e+01 -1 1 -1
2798 1 1.6573288496794865e+00 1.0947273474626371e+01 3.6213379010475450e+01 1 0 0
3010 1 8.3482856214232957e+00 8.2435855138050460e+00 4.1381524886673375e+01 1 1 0
190 1 2.7231505071947861e+00 1.4381995250848094e+00 4.2633882978599566e+01 0 0 -1
5318 1 1.0861780048870584e+01 8.6053912658300096e+00 3.6383607760072316e+01 0 1 -1
3677 1 1.8818005048013660e+00 1.2228761887808924e+01 3.8837900245995058e+01 1 1 0
3164 1 9.3976867036743030e+00 1.1107700333158153e+01 3.8605982653268171e+01 1 1 0
4850 1 1.1921467308675899e+01 1.1923785549257280e+01 3.8621268184120105e+01 0 -1 0
3395 1 3.7110435952193060e-01 1.3932334258996093e-02 3.5933210897769129e+01 -1 1 -1
6251 1 3.8875188104619283e+00 1.1360358825533334e+00 5.2293228050913740e+01 1 -2 -1
205 1 3.2430968937912033e+00 2.3956054375127165e+00 4.5315133822733728e+01 0 -1 -1
4521 1 1.1251038666956715e+01 6.3993026989536350e+00 5.4580685389292270e+01 1 1 0
3655 1 5.5191157835238629e+00 3.8856259972637974e+00 4.5476230721728037e+01 0 1 0
3386 1 7.7423910483779377e+00 2.1340706229120463e+00 4.5095954539027169e+01 0 0 -1
6032 1 8.8278727554602145e+00 2.2936067690091422e+00 4.7701297501049829e+01 1 0 0
4479 1 2.6839299447969003e+00 7.4800682310799793e+00 4.6195300370152147e+01 1 0 0
4886 1 7.5293613544156535e-01 3.8295706928581410e+00 4.5015910731677224e+01 1 1 -1
6225 1 5.3801593366904585e+00 6.6055759901699460e+00 4.6154713506642288e+01 0 0 -1
4406 1 1.0703172438226739e+01 4.2810061515590272e+00 4.7394907169386393e+01 1 0 0
2111 1 9.4031015943632279e-01 1.3489319264950115e+00 5.5525874082130287e+01 0 1 0
3003 1 9.3151290234025659e+00 6.4852434447249170e+00 4.3705322649311249e+01 0 1 -1
5143 1 5.3862618309342523e+00 4.7868673371404391e-01 4.8338483640997637e+01 0 1 -1
4450 1 6.6709273413726828e+00 8.0588481527494498e+00 4.4149855488918185e+01 0 2 0
5276 1 4.1870727991930812e+00 9.8091391842599442e+00 4.5383941325629308e+01 0 0 0
4488 1 9.1615538190464321e+00 1.0673077156291878e+01 4.4547036270979831e+01 0 1 -1