
# Create simulation box and atoms

read_data data.ML_graphite_1atm_240K
  orthogonal box = (0 0 3.74403) to (49.22 49.0196 56.318)
  4 by 4 by 4 MPI processor grid
  reading atoms ...
  6328 atoms
  reading velocities ...
  6328 velocities
group water type 1
3568 atoms in group water
group graphite type 2
2760 atoms in group graphite

# Define potential

pair_style sw
pair_coeff * * MLC_e.sw mW C


# Fix graphite atoms in place

fix 5 graphite setforce 0.0 0.0 0.0
velocity graphite set 0.0 0.0 0.0


# Equilibration of molecular water

# Add velocity/set timestep

velocity	    water create ${TEMP} ${SEED} rot yes dist gaussian
velocity	    water create 240 ${SEED} rot yes dist gaussian
velocity	    water create 240 2841 rot yes dist gaussian
timestep	    5.0

# Define output

compute			1 water msd
compute			3 water temp
thermo	    	50
thermo_style	custom step temp press vol etotal ke pe c_1[4] c_3

# Neighbor lists

neigh_modify    delay 0 every 1 check yes

# Set fixes

fix             1 water momentum 10 linear 1 1 1 rescale
fix             2 water nve
fix             3 water temp/csvr ${TEMP} ${TEMP} 500.0 ${SEED}
fix             3 water temp/csvr 240 ${TEMP} 500.0 ${SEED}
fix             3 water temp/csvr 240 240 500.0 ${SEED}
fix             3 water temp/csvr 240 240 500.0 2841
fix             4 water press/berendsen z ${PRES} ${PRES} 1000.0 modulus 20000
fix             4 water press/berendsen z 1 ${PRES} 1000.0 modulus 20000
fix             4 water press/berendsen z 1 1 1000.0 modulus 20000

# Run 0.5 ns equilibration

dump		    1 all atom 2000 ${DIR}/eq.${NAME}-${TEMP}.dump
dump		    1 all atom 2000 run_17/eq.${NAME}-${TEMP}.dump
dump		    1 all atom 2000 run_17/eq.het_freeze_17-${TEMP}.dump
dump		    1 all atom 2000 run_17/eq.het_freeze_17-240.dump

reset_timestep  0

run	            100000
Neighbor list info ...
  update every 1 steps, delay 0 steps, check yes
  max neighbors/atom: 2000, page size: 100000
  master list distance cutoff = 6.67472
  ghost atom cutoff = 6.67472
  binsize = 3.33736, bins = 15 15 16
  1 neighbor lists, perpetual/occasional/extra = 1 0 0
  (1) pair sw, perpetual
      attributes: full, newton on
      pair build: full/bin/atomonly
      stencil: full/bin/3d
      bin: standard
Per MPI rank memory allocation (min/avg/max) = 4.072 | 4.208 | 4.496 Mbytes
Step Temp Press Volume TotEng KinEng PotEng c_1[4] c_3 
       0    135.30583   -58.143592    126847.59   -33960.221    2551.8119   -36512.033            0          240 
      50    135.97517   -648.73991    126854.88   -33938.601    2564.4354   -36503.036   0.52065786    241.18725 
     100    135.93901   -420.96111    126803.07   -33953.296    2563.7534   -36517.049   0.90831741    241.12311 
     150    134.48239   -282.71025    126736.35    -33967.37     2536.282   -36503.652    1.1837943     238.5394 
     200    132.75733   -218.58266    126694.97   -34024.218    2503.7483   -36527.966    1.4542366    235.47958 
     250    136.46046   -213.90211    126686.98   -33987.781    2573.5877   -36561.369    1.7234595    242.04803 
     300    134.27223    82.531967    126759.56    -34003.09    2532.3185   -36535.409     1.988125    238.16664 
     350    135.39289    94.249316    126694.54   -33988.894    2553.4537   -36542.348    2.2734069    240.15442 
     400    136.59277   -149.13994    126761.52   -34025.617     2576.083     -36601.7    2.5571793    242.28272 
     450    136.58673   -383.56045    126765.83   -34005.277     2575.969   -36581.246    2.8342026      242.272 
     500    133.99266   -290.62829    126810.68   -34025.126     2527.046   -36552.172    3.1105599    237.67075 
     550    134.08121   -352.28472    126778.65   -34070.239    2528.7161   -36598.955    3.3030576    237.82782 
     600    137.94379   -95.641134    126788.04   -34037.071    2601.5627   -36638.634    3.4678303     244.6791 
     650    137.23762   -408.10146    126831.22   -34076.326    2588.2445   -36664.571    3.7168659    243.42652 
     700    134.07748   -174.67483    126870.89   -34084.091    2528.6456   -36612.737     3.991765     237.8212 
     750     134.7234   -317.34927    126870.41   -34080.901    2540.8274   -36621.728    4.1187575     238.9669 
     800    137.73236   -162.24814    126895.47   -34020.109    2597.5751   -36617.684      4.32391    244.30407 
     850    135.64033   -383.74782    126922.43   -33991.795    2558.1204   -36549.916    4.6026129    240.59333 
     900    134.23991   -404.26387    126884.94   -34018.774     2531.709   -36550.483    4.8201928    238.10931 
     950    136.84066   -15.680327    126870.43   -34027.543    2580.7581   -36608.301    5.0234935    242.72241 
    1000    132.40138   -197.25307    127030.32   -34025.191    2497.0351   -36522.226    5.2336413     234.8482 
    1050     133.7449   -76.443111     127129.1   -34092.567    2522.3733   -36614.941    5.4737279    237.23128 
    1100    135.02832   -202.22294    127186.91   -34129.873    2546.5781   -36676.451    5.7701604    239.50776 
    1150    135.00624    104.31859    127218.66   -34092.402    2546.1617   -36638.563    5.9653718     239.4686 
    1200    133.80905   -239.48009    127250.05   -34111.302    2523.5832   -36634.885    6.1341286    237.34507 
    1250    133.09141   -301.20073    127321.99   -34116.689    2510.0489   -36626.738    6.3297415    236.07215 
    1300    135.47844   -177.60553    127345.15   -34121.035    2555.0672   -36676.102    6.5432073    240.30616 
    1350    133.60061   -413.58128    127422.55   -34083.384     2519.652   -36603.036    6.7603991    236.97534 
    1400    134.40218   -355.98605    127424.81   -34034.087    2534.7694   -36568.857    7.1002754    238.39714 
    1450    135.35857   -181.93919    127427.94   -34024.636    2552.8065   -36577.442    7.4236489    240.09354 
    1500    137.66618   -100.19158    127512.45   -33990.997     2596.327   -36587.324    7.6183934    244.18669 
    1550    134.31062   -266.21077    127478.54   -34002.101    2533.0425   -36535.144    7.9093304    238.23472 
    1600    135.51464   -219.34598     127461.9   -33983.842    2555.7498   -36539.592     8.147948    240.37037 
    1650    136.17872   -157.26547    127386.53   -34008.321    2568.2742   -36576.595    8.3359569     241.5483 
    1700    135.90845   -228.28714    127430.87    -34006.48    2563.1771   -36569.657    8.6187206    241.06891 
    1750    133.88128    -497.0075    127441.51   -33996.844    2524.9454   -36521.789    8.8348498    237.47319 
    1800    133.78834   -145.59134     127384.9   -34023.596    2523.1927   -36546.789    9.0508842    237.30834 
    1850     137.0731   -283.97992    127428.49   -33974.976    2585.1418   -36560.118    9.3032923    243.13471 
    1900    134.26971   -263.85219    127464.76    -34044.18    2532.2711   -36576.451    9.5787496    238.16218 
    1950    133.58919   -461.03967     127482.7   -34049.786    2519.4367   -36569.223    9.8435785    236.95509 
    2000    135.48818   -337.66599    127444.26   -34001.205    2555.2508   -36556.456    10.046661    240.32343 
    2050    136.18808   -392.11318    127385.07   -33995.766    2568.4508   -36564.217     10.29772     241.5649 
    2100    133.42121   -331.38945     127319.5   -33989.894    2516.2686   -36506.162    10.560555    236.65713 
    2150    132.78771   -97.060635    127291.58   -34036.951     2504.321   -36541.272    10.687726    235.53345 
    2200    132.29718   -374.56526    127329.68   -34055.753    2495.0699   -36550.823    10.985069    234.66337 
    2250     134.3192   -194.27934    127394.02   -34068.528    2533.2044   -36601.733    11.171175    238.24996 
    2300    133.19187   -581.22153    127353.54   -34041.442    2511.9434   -36553.385     11.32379    236.25033 
    2350    134.26905   -581.12513     127274.9   -34026.127    2532.2586   -36558.386    11.541528      238.161 
    2400    137.80083   -391.89115     127193.8   -34012.329    2598.8665   -36611.196    11.750775    244.42552 
    2450    134.64135   -495.40016    127122.08   -34044.065      2539.28   -36583.345    12.001903    238.82136 
    2500    133.89155   -167.70669    127071.57   -34084.078    2525.1391   -36609.217    12.204918     237.4914 
    2550    134.60151   -331.40235    127205.11   -34084.442    2538.5286   -36622.971    12.400192     238.7507 
    2600    133.65561   -292.47738     127222.5   -34148.483    2520.6893   -36669.172    12.585666     237.0729 
    2650    132.10004   -56.501988       127170   -34174.267    2491.3519   -36665.619    12.741147    234.31369 
    2700    133.18455   -211.70915    127153.41   -34149.863    2511.8054   -36661.668    12.940944    236.23736 
    2750    133.89064    -213.2821    127198.16   -34152.188     2525.122    -36677.31    13.233123     237.4898 
    2800    135.04554    -140.9605    127115.97   -34143.662     2546.903   -36690.565    13.537285    239.53831 
    2850     134.5097    66.678828    127205.26   -34106.364    2536.7971   -36643.161    13.873866    238.58785 
    2900    134.81004    -100.5389    127242.48   -34098.409    2542.4614    -36640.87    14.115002    239.12058 
    2950    133.46529   -347.80504    127237.39   -34106.069       2517.1   -36623.169    14.299195    236.73532 
    3000    135.35109    -381.8295    127261.99   -34031.408    2552.6655   -36584.073    14.495323    240.08028 
    3050    133.41476   -154.30983    127295.66   -34068.641    2516.1471   -36584.788    14.631704     236.6457 
    3100    134.66939   -256.67672     127374.4   -34038.257    2539.8089   -36578.066    14.749875    238.87111 
    3150    134.15456    -340.0679    127357.56   -34016.081    2530.0994    -36546.18    14.882579    237.95792 
    3200    133.47479   -493.41253    127382.88   -34049.114    2517.2791   -36566.393    15.097539    236.75217 
    3250    136.95208   -350.07749    127267.35   -34026.258    2582.8595   -36609.118    15.230988    242.92005 
    3300     136.4936   -368.91727    127118.98   -34064.013    2574.2128   -36638.226    15.449225    242.10682 
    3350    138.11011   -198.33601    127156.95   -34038.524    2604.6994   -36643.224    15.569604    244.97411 
    3400    137.72257   -281.86174    127163.19    -34047.67    2597.3905    -36645.06    15.586944    244.28671 
    3450    135.48373    35.757191    127237.47   -34029.646    2555.1669   -36584.813    15.733752    240.31555 
    3500    137.02867   -446.11232    127235.64   -34057.353    2584.3038   -36641.657    16.063556    243.05589 
    3550    135.19094   -374.75529    127192.87   -34100.411    2549.6451   -36650.056    16.230086    239.79622 
    3600    133.17975   -166.16154    127181.34    -34121.22    2511.7149   -36632.935    16.350871    236.22884 
    3650    136.09452   -77.657594    127210.95   -34081.309    2566.6861   -36647.995    16.488929    241.39894 
    3700    133.63678   -496.92889    127220.31   -34103.983    2520.3343   -36624.317     16.74699    237.03951 
    3750    137.42251   -219.87967    127214.83   -34054.845    2591.7315   -36646.577    17.048458    243.75448 
    3800     134.1692   -88.049147    127287.52   -34048.667    2530.3754   -36579.042    17.205273    237.98388 
    3850    134.91344   -532.86173    127254.99   -34050.192    2544.4115   -36594.603    17.415353    239.30399 
    3900    134.56363   -309.95445    127232.07   -34054.696    2537.8143    -36592.51    17.732557    238.68351 
    3950    135.91009   -394.90022    127227.06   -34070.402    2563.2079    -36633.61    18.041056    241.07181 
    4000     136.9646   -244.19496    127243.43   -34027.958    2583.0954   -36611.053    18.223143    242.94225 
    4050     136.1262    -315.5734    127192.11   -34024.223    2567.2837   -36591.506     18.44242    241.45514 
    4100     134.5689   -393.98564    127120.39   -34020.311    2537.9137   -36558.225    18.783008    238.69287 
    4150    134.38823   -540.58228    127121.14   -34068.332    2534.5062   -36602.838    19.067986    238.37239 
    4200    134.90143   -281.66633    127142.07   -34086.686    2544.1849   -36630.871    19.302693    239.28268 
    4250     134.8892   -339.05134    127138.16   -34111.855    2543.9544    -36655.81    19.456332      239.261 
    4300    134.04286   -239.08363    127167.87   -34077.898    2527.9927   -36605.891    19.733086    237.75979 
    4350    136.48872   -416.41852    127159.99   -34038.496    2574.1207   -36612.617     19.90756    242.09816 
    4400    137.77688   -230.24727    127127.07   -33988.835    2598.4149    -36587.25    20.072695    244.38305 
    4450    136.70994   -530.97983    127079.48   -34004.011    2578.2927   -36582.303    20.438323    242.49054 
    4500    135.79313   -180.52174    127002.12   -34013.176    2561.0021   -36574.179    20.692591    240.86435 
    4550    134.79735   -309.19848    127009.58   -34026.471    2542.2221   -36568.693    20.895549    239.09807 
    4600    137.02186    -201.7753    127091.14    -33993.35    2584.1755   -36577.526    21.086115    243.04383 
    4650    133.99703   -361.83241    127183.49    -34046.56    2527.1284   -36573.689    21.469176     237.6785 
    4700    134.42081   -323.03955     127191.2   -34105.498    2535.1206   -36640.619    21.681869    238.43018 
    4750    134.79241   -264.08207     127159.8   -34125.249    2542.1289   -36667.378    21.896973    239.08931 
    4800    134.39549   -347.11643    127208.82   -34089.864    2534.6433   -36624.507    22.098739    238.38528 
    4850     133.6858   -127.33419    127249.53   -34148.754    2521.2587   -36670.012    22.275576    237.12645 
    4900    134.29224   -207.70311    127346.55   -34101.397    2532.6959   -36634.093    22.437899    238.20213 
    4950    135.37277   -94.403808    127484.22    -34056.73    2553.0742   -36609.804    22.516401    240.11873 
    5000    134.29018   -530.00448    127451.24   -34045.189     2532.657   -36577.846    22.668614    238.19847 
    5050    132.74257   -166.67967    127334.33   -34082.344    2503.4698   -36585.814    22.781809    235.45339 
    5100    132.37344   -269.61146    127312.93   -34039.055    2496.5081   -36535.564    22.953373    234.79864 
    5150    137.71035   -111.23575    127238.14   -33951.673      2597.16   -36548.833    23.072106    244.26503 
    5200    136.33503   -148.70938    127314.05   -33984.204    2571.2221   -36555.426    23.290788    241.82555 
    5250    136.88907   -168.73334    127339.08   -33966.371     2581.671   -36548.042    23.517979    242.80828 
    5300    139.23865   -295.72116    127385.35   -33944.709    2625.9831   -36570.692    23.765241    246.97587 
    5350    137.25821    181.44751    127352.42    -33941.87    2588.6328   -36530.503    24.073996    243.46304 
    5400    135.27837   -269.89298    127305.59   -33967.046    2551.2939    -36518.34    24.379429    239.95129 
    5450    135.90756   -169.21253    127313.87    -33954.97    2563.1602    -36518.13    24.560771    241.06732 
    5500    138.63017   -264.58432    127282.55    -33938.43    2614.5076   -36552.937    24.703592    245.89658 
    5550    135.11074   -376.32292    127146.84   -33984.857    2548.1326    -36532.99    24.971979    239.65396 
    5600    136.43295   -298.96713    127121.41   -33963.654    2573.0688   -36536.723    25.327806    241.99923 
    5650    135.58877   -242.37456    127097.07   -33962.183     2557.148   -36519.332    25.555589    240.50187 
    5700    134.58337   -20.784592    127070.88   -33943.714    2538.1865   -36481.901    25.737593    238.71852 
    5750    134.98374   -102.96224    127062.27   -33970.355    2545.7374   -36516.093    25.986301    239.42869 
    5800    137.85239   -5.9357088    127052.98   -33958.318    2599.8388   -36558.156    26.305383    244.51698 
    5850    134.16832   -56.066212    127115.74   -34014.644    2530.3588   -36545.003    26.353629    237.98232 
    5900    137.77597   -79.023829     127204.9   -33968.802    2598.3976     -36567.2    26.409864    244.38142 
    5950    134.46842   -70.217975    127250.24   -33988.697    2536.0186   -36524.715    26.721503    238.51463 
    6000    134.05638    68.229642    127382.54   -33980.392    2528.2478   -36508.639    27.082165    237.78378 
    6050    136.56474   -37.569452    127455.64    -34000.93    2575.5544   -36576.485    27.292656    242.23301 
    6100    134.35567   -121.90814    127510.32    -34008.79    2533.8922   -36542.683    27.439106    238.31464 
    6150    133.13532   -255.94192    127584.25   -34021.347    2510.8769   -36532.224    27.678201    236.15003 
    6200    135.68546   -479.09674    127461.94     -34043.7    2558.9715   -36602.672      27.7759    240.67337 
    6250    135.92133    65.008436    127440.08   -34061.511    2563.4198   -36624.931    27.978033    241.09174 
    6300    136.40679   -287.45677    127497.16   -34053.568    2572.5755   -36626.144      28.2498    241.95284 
    6350    132.74133     -9.62808    127522.87   -34073.998    2503.4464   -36577.445    28.401739    235.45119 
    6400    136.29397   -149.74359    127540.46   -34050.482    2570.4477    -36620.93    28.423652    241.75271 
    6450    135.15894   -274.63768    127602.04   -34033.944    2549.0415   -36582.985    28.589421    239.73944 
    6500    136.81268   -216.72101    127564.05   -34044.986    2580.2303   -36625.216    28.793472    242.67278 
    6550     132.4854   -246.85779    127590.72   -34102.217    2498.6197   -36600.837    29.025504    234.99723 
    6600    134.35132    47.118756    127650.67   -34090.511    2533.8102   -36624.321    29.413787    238.30693 
    6650    135.10937   -407.83623    127687.54   -34091.644    2548.1067   -36639.751    29.670466    239.65153 
    6700    132.81598   -329.09157    127597.78   -34089.311    2504.8542   -36594.166    29.823436     235.5836 
    6750    134.58205   -365.11447    127551.43   -34072.063    2538.1616   -36610.225    30.115419    238.71618 
    6800    135.73114    -213.5677    127644.87   -34072.498     2559.833   -36632.331    30.251945    240.75439 
    6850    132.64208   -238.97224    127675.01   -34071.324    2501.5746   -36572.899    30.478811    235.27515 
    6900    133.08614   -224.83473    127703.08   -34120.303    2509.9494   -36630.253    30.676866     236.0628 
    6950    133.60979    75.654421    127696.95   -34144.496    2519.8253   -36664.321    30.555996    236.99164 
    7000    131.37596   -466.41275    127697.93   -34121.326     2477.696   -36599.022    30.806036    233.02935 
    7050    133.39582    -182.7306    127600.29   -34123.243    2515.7898   -36639.033    30.836271     236.6121 
    7100    134.86823   -373.74898    127546.18   -34090.529    2543.5588   -36634.088    30.781474     239.2238 
    7150     132.0534   -190.65274    127564.89   -34135.919    2490.4724   -36626.392    30.969653    234.23097 
    7200    134.06869   -109.86997    127717.79   -34155.254    2528.4799   -36683.734    31.288598    237.80561 
    7250    134.86452   -501.06599    127694.29   -34167.129    2543.4889   -36710.618    31.375007    239.21722 
    7300     134.8743    -225.9445    127628.35   -34105.113    2543.6733   -36648.786    31.547169    239.23456 
    7350    138.30415   -235.39384    127644.13   -34087.383    2608.3589   -36695.742    31.710939     245.3183 
    7400    132.88066   -53.778628    127661.78   -34173.673    2506.0741   -36679.747    31.863924    235.69832 
    7450    133.90762   -278.43703    127584.42   -34133.188    2525.4421    -36658.63    32.149835     237.5199 
    7500    135.82953   -640.07265    127569.11   -34101.903    2561.6885   -36663.591    32.317457    240.92891 
    7550    135.28557   -332.82413    127513.12   -34099.681    2551.4297   -36651.111    32.371385    239.96406 
    7600    137.64198   -243.32384     127563.7   -34084.814    2595.8706   -36680.684     32.49575    244.14376 
    7650    133.15437   -210.07197     127597.4   -34136.625    2511.2362   -36647.861    32.810653    236.18382 
    7700    132.09122   -220.71093    127616.82   -34145.345    2491.1857    -36636.53    32.934228    234.29805 
    7750    133.47928    -65.14992    127678.82   -34123.024    2517.3638   -36640.388    33.099295    236.76013 
    7800    134.18208   -81.517954    127692.85   -34138.762    2530.6184    -36669.38    33.221515    238.00674 
    7850     136.3785   -123.82967    127626.43   -34152.143     2572.042   -36724.185      33.2005    241.90266 
    7900    131.92275   -230.40026    127648.49   -34167.931    2488.0084   -36655.939    33.414676    233.99923 
    7950    134.51454   -463.53832    127689.32   -34158.501    2536.8883   -36695.389    33.629533    238.59643 
    8000    135.50307     -225.802    127686.27   -34080.208    2555.5316   -36635.739    33.882261    240.34985 
    8050    136.25016   -180.85361    127620.77   -34084.752    2569.6215   -36654.374    34.030134    241.67501 
    8100    134.15127   -390.51542    127539.21   -34092.172    2530.0374    -36622.21    34.163768    237.95209 
    8150    135.06358   -508.64273    127477.46    -34107.54    2547.2431   -36654.783    34.339521     239.5703 
    8200     135.4901   -112.67888    127463.77   -34101.557    2555.2871   -36656.845    34.572471    240.32685 
    8250    137.66196   -232.12472    127492.61   -34030.073    2596.2474   -36626.321    34.909121     244.1792 
    8300    133.09365    -211.9559    127510.25   -34041.022     2510.091   -36551.113    35.116498    236.07612 
    8350    137.80264    8.2919281    127560.97   -34043.755    2598.9007   -36642.656     35.33715    244.42874 
    8400    134.22956    142.75335    127684.13   -34110.075    2531.5138   -36641.588    35.659306    238.09095 
    8450    134.19216   -82.108489    127746.25   -34115.913    2530.8084   -36646.722    35.849172    238.02461 
    8500      131.863   -363.87921    127829.63   -34090.483    2486.8815   -36577.365    35.911314    233.89324 
    8550    135.53384   -16.924379    127828.82   -34068.356    2556.1121   -36624.468    36.075842    240.40444 
    8600     135.3313   -354.44807    127852.77   -34069.691    2552.2921   -36621.983     36.34466    240.04517 
    8650    134.97438    68.868506    127792.15   -34038.732    2545.5608   -36584.293    36.500815    239.41208 
    8700    132.23123   -512.79512    127789.44    -34083.41    2493.8262   -36577.236    36.711022     234.5464 
    8750    140.30694   -673.88453    127729.08   -34005.394    2646.1307   -36651.525    36.842901    248.87076 
    8800    138.05165   -285.95428    127734.89   -34056.417    2603.5969   -36660.014    37.038609    244.87043 
    8850    135.44373   -170.29961    127780.93   -34115.164    2554.4126   -36669.577    37.313969     240.2446 
    8900    136.00763   -250.30165    127808.38   -34099.287    2565.0475   -36664.334     37.39453    241.24482 
    8950    134.63805   -246.89021    127757.81   -34089.801    2539.2177   -36629.018    37.716678    238.81551 
    9000    136.63798   -422.93862    127682.93   -34077.893    2576.9356   -36654.828    37.793846    242.36291 
    9050    132.10662   -55.923735     127666.7   -34098.235    2491.4761   -36589.711    37.808024    234.32537 
    9100    135.15385   -412.31305     127709.5   -34123.953    2548.9455   -36672.899    38.019304    239.73042 
    9150    133.51784   -292.53948    127703.63   -34166.483     2518.091   -36684.574    38.129867    236.82853 
    9200    132.85537    -28.42414    127641.16   -34190.289    2505.5971   -36695.886    38.119653    235.65347 
    9250    134.48055   -223.83986    127601.61   -34149.081    2536.2473   -36685.328    38.246752    238.53614 
    9300    135.38776   -348.16492    127596.88   -34125.028     2553.357   -36678.385    38.441375    240.14532 
    9350    134.61615   -140.41488    127619.85   -34068.115    2538.8047   -36606.919    38.549608    238.77667 
    9400     138.6884   -440.29681    127624.64   -34012.035    2615.6057   -36627.641    38.713046    245.99986 
    9450    136.67211   -558.52383    127494.39   -33995.765    2577.5794   -36573.344    38.981896    242.42345 
    9500    137.27579   -304.00778       127398   -34007.996    2588.9645   -36596.961    39.083471    243.49424 
    9550    136.84911   -349.14862    127340.71     -34034.6    2580.9175   -36615.518    39.273122    242.73741 
    9600    136.83653   -367.75661    127354.41   -34047.235    2580.6802   -36627.915    39.540212    242.71509 
    9650    137.34633   -410.63584    127406.69   -34037.643    2590.2947   -36627.938    39.649425    243.61934 
    9700    137.15491   -575.96136    127332.29   -34012.375    2586.6847    -36599.06    39.611129    243.27982 
    9750    137.40357   -243.63102    127339.18   -33973.902    2591.3744   -36565.277    39.776265    243.72089 
    9800    135.32209   -281.35301     127340.5   -34009.025    2552.1184   -36561.143    39.886479    240.02883 
    9850    138.00213   -264.35117    127359.08   -33945.915     2602.663   -36548.578    39.872882    244.78259 
    9900    135.29325   -345.65386    127325.33   -33989.968    2551.5747   -36541.543    40.145966    239.97769 
    9950     132.6217   -117.75472    127358.25   -34015.307    2501.1902   -36516.497    40.374815    235.23899 
   10000    134.90734   -270.73616    127401.82    -34029.56    2544.2965   -36573.856    40.676115    239.29317 
   10050    136.73367   -315.83073    127447.43   -34003.608    2578.7404   -36582.349    40.941078    242.53265 
   10100    133.33469   -480.92792    127397.69   -34059.149    2514.6369   -36573.786    41.029448    236.50366 
   10150    134.10895   -388.93178    127337.72   -34084.539    2529.2393   -36613.779    41.181701    237.87703 
   10200    136.02274   -397.27804    127412.61   -34024.924    2565.3325   -36590.256    41.411376    241.27162 
   10250    137.04535    -213.6278    127534.83   -33991.386    2584.6184   -36576.005    41.574816    243.08548 
   10300    134.12965   -526.17453    127541.31    -33999.85    2529.6295    -36529.48    41.684748    237.91373 
   10350    134.00115    -288.7711    127450.87   -33999.478    2527.2061   -36526.684    41.916249    237.68581 
   10400    132.91932   -248.87612    127409.21    -34020.87    2506.8032   -36527.673    42.085215     235.7669 
   10450    133.82585    -323.4456    127422.39   -34003.469       2523.9   -36527.369     42.45405    237.37487 
   10500    135.46345   -419.70808    127512.27   -33981.465    2554.7845   -36536.249    42.760244    240.27957 
   10550    135.26125   -231.91207    127472.42   -33987.997    2550.9711   -36538.968    42.794308    239.92093 
   10600    135.19235   -383.04888    127482.33   -34019.614    2549.6717   -36569.285    43.119909    239.79871 
   10650    135.37133   -175.06421     127478.5   -33971.642     2553.047   -36524.689    43.433571    240.11617 
   10700    134.88324   -527.27714    127441.38   -34008.841     2543.842   -36552.683    43.549346    239.25043 
   10750     134.3404   -112.43302     127458.5   -33999.595    2533.6042   -36533.199    43.764862    238.28756 
   10800    135.98769   -418.66045    127510.98   -34015.315    2564.6715   -36579.987    43.941338    241.20946 
   10850    138.37769   -312.86792    127441.96   -33970.266    2609.7457   -36580.012     44.11099    245.44873 
   10900    135.84223   -399.80285    127460.28   -33990.832    2561.9281   -36552.761     44.30496    240.95144 
   10950    135.03133   -370.53495    127480.99   -33943.953    2546.6349   -36490.588    44.601554     239.5131 
   11000    136.60842   -479.99791    127478.84   -33918.881    2576.3781   -36495.259    44.677234    242.31047 
   11050    137.04757   -195.83452    127502.99   -33949.582    2584.6604   -36534.242    44.894649    243.08943 
   11100     134.5247   -311.04773    127488.33   -34058.077      2537.08   -36595.157    44.970396    238.61446 
   11150    133.08642   -718.34355    127415.64   -34086.547    2509.9548   -36596.502    45.124666     236.0633 
   11200     132.1742   -506.47123    127377.09   -34096.054    2492.7505   -36588.805    45.268784    234.44523 
   11250    133.50476   -329.47412     127347.2   -34104.359    2517.8444   -36622.203    45.688558    236.80534 
   11300    130.54855   -357.16972    127353.76   -34133.657    2462.0914   -36595.748    45.886097    231.56172 
   11350    134.92958   -108.52732     127306.3   -34043.868    2544.7158   -36588.583    46.016526    239.33261 
   11400    136.20829   -72.092256    127239.42   -34044.984    2568.8318   -36613.815    46.163449    241.60074 
   11450     134.9097   -279.60629    127167.45    -34100.15    2544.3409   -36644.491    46.438263    239.29735 
   11500    133.80677   -287.57418    127141.33   -34087.149    2523.5402   -36610.689    46.667448    237.34103 
   11550    136.28071   -63.830131    127255.48    -34027.84    2570.1977   -36598.037    46.917141     241.7292 
   11600    133.17538   -246.03751    127233.47   -34013.419    2511.6324   -36525.052    47.088112    236.22109 
   11650    133.81175    -127.3115    127195.89   -34030.232    2523.6342   -36553.866    47.149885    237.34987 
   11700    134.33197   -446.28638    127109.25   -34059.402    2533.4452   -36592.847    47.439978     238.2726 
   11750    131.69117   -95.517813    127038.92   -34035.392    2483.6408   -36519.032    47.729335    233.58845 
   11800    134.11631     -218.779    127005.22   -34059.208    2529.3779   -36588.586    47.937062    237.89007 
   11850    133.72317   -92.250925    127031.37   -34062.491    2521.9634   -36584.454    48.240329    237.19273 
   11900    133.64333   -155.03334    126912.58   -34080.905    2520.4578   -36601.363    48.466058    237.05112 
   11950    136.11439    -67.93309     126931.8   -34048.863    2567.0609   -36615.924    48.814283    241.43418 
   12000    135.72681   -75.709052    127035.54   -34026.791    2559.7513   -36586.542    49.125835    240.74671 
   12050    134.62197   -382.78977    126987.47   -34059.349    2538.9145   -36598.264    49.294812    238.78699 
   12100     135.4277   -89.139643    126934.42   -34095.325    2554.1102   -36649.435    49.547127    240.21616 
   12150    133.10571    101.56976    126976.01   -34062.397    2510.3185   -36572.716    49.779363    236.09752 
   12200    131.99283    44.241127     127040.9   -34031.979      2489.33   -36521.309    50.106629    234.12353 
   12250    136.38211   -330.57986    127048.07   -34012.449    2572.1099   -36584.559    50.450782    241.90905 
   12300    137.73066   -145.93419     127076.7   -34040.732    2597.5431   -36638.275    50.850756    244.30106 
   12350    136.57511   -371.81736    127025.03    -34024.77    2575.7499    -36600.52    51.003499    242.25139 
   12400    133.41631   -304.41399    127040.25   -34060.617    2516.1762   -36576.793    51.133433    236.64844 
   12450    133.86611   -252.23409    126895.33   -34020.555    2524.6594   -36545.214    51.235989    237.44628 
   12500    132.50512   -346.87211       126812   -34033.479    2498.9916   -36532.471    51.414773    235.03221 
   12550    135.35779   -127.41499     126730.3   -33963.865    2552.7917   -36516.657    51.720963    240.09216 
   12600    135.10366   -425.62509    126756.24   -33952.959    2547.9989   -36500.958    52.000139    239.64139 
   12650     135.3771   -166.01904    126760.63   -33910.892    2553.1559   -36464.048     52.17413    240.12641 
   12700    136.04583    10.095956    126833.26   -33926.264    2565.7679   -36492.032    52.500016    241.31257 
   12750     136.6503   -140.63252    126812.79   -33987.763     2577.168   -36564.931    52.578311    242.38476 
   12800    134.41836   -122.40671    126802.46       -33978    2535.0745   -36513.074     52.69984    238.42584 
   12850    134.20295   -47.496752    126822.71   -34006.676    2531.0119   -36537.688    52.788999    238.04375 
   12900    132.68381    30.603259    126819.16   -33977.765    2502.3617   -36480.127    52.951279    235.34917 
   12950    134.18203   -242.22631    126823.22   -33967.941    2530.6173   -36498.558    53.074485    238.00664 
   13000     133.8192   -26.795901    126777.31   -33939.284    2523.7745   -36463.058    53.327542    237.36307 
   13050    133.71127    34.082208    126821.52   -33940.007    2521.7391   -36461.747    53.532304    237.17164 
   13100    137.27164    50.807525    126888.41   -33963.837    2588.8861   -36552.723    53.684767    243.48686 
   13150    135.83261   -368.60106    126993.85   -33983.501    2561.7467   -36545.248    54.062547    240.93438 
   13200    132.47687   -110.26204     127027.7   -33992.541    2498.4589       -36491    54.411749    234.98211 
   13250    134.70301    -215.6687    127040.27   -34007.848    2540.4429   -36548.291    54.659537    238.93074 
   13300    133.86395   -145.55985     127191.3   -33981.187    2524.6185   -36505.806    54.960334    237.44244 
   13350    137.00437    220.13558    127245.53   -33980.081    2583.8457   -36563.927    54.952954    243.01281 
   13400    133.80882   -142.43057    127311.12   -33977.669    2523.5789   -36501.248    55.205116    237.34467 
   13450    136.15343   -383.29761    127367.94   -34019.436    2567.7972   -36587.233    55.449897    241.50343 
   13500    134.44006   -237.21938    127425.94   -33998.563    2535.4837   -36534.047    55.680825    238.46432 
   13550    135.16055   -128.61964    127408.83   -33980.694    2549.0719   -36529.766      56.0987     239.7423 
   13600     135.3142   -257.30759    127399.23   -33982.133    2551.9697   -36534.103    56.449762    240.01484 
   13650     134.3823   -357.38945    127410.75   -33989.115    2534.3944   -36523.509     56.81798    238.36187 
   13700     138.3896   -30.743435    127346.87   -33945.814    2609.9705   -36555.784    56.966632    245.46987 
   13750    136.19759    -198.9997    127366.16   -33988.201    2568.6301   -36556.832     57.18059    241.58177 
   13800    133.82258   -304.51339    127428.21   -34006.515    2523.8384   -36530.353    57.347253    237.36907 
   13850    138.31609   -308.38423    127398.46   -34000.751     2608.584   -36609.335    57.415768    245.33947 
   13900     135.1465   -539.74157    127321.61   -34043.045     2548.807   -36591.852    57.729619    239.71739 
   13950    136.08608   -171.88123    127282.45   -34041.059     2566.527   -36607.586    57.839018    241.38397 
   14000    133.36256    -532.5646    127270.79   -34048.603    2515.1625   -36563.765    58.043647     236.5531 
   14050     132.6238   -381.22983    127289.45   -34047.317    2501.2299   -36548.547    58.199909    235.24272 
   14100    136.12005   -217.16918    127327.15    -34022.74    2567.1676   -36589.908    58.412795    241.44422 
   14150    135.75715   -464.37108    127382.11    -34019.07    2560.3235   -36579.393     58.48226    240.80052 
   14200    134.97851   -205.75263    127442.27   -34010.751    2545.6387    -36556.39    58.696266    239.41941 
   14250     133.6906   -220.57819    127463.11   -34011.703    2521.3493   -36533.053    58.811928    237.13497 
   14300    134.84586   -252.28346    127484.19   -34028.979    2543.1371   -36572.117    59.108341    239.18413 
   14350    134.38818    -236.8058    127448.54   -34046.199    2534.5053   -36580.704    59.367858     238.3723 
   14400    135.04534   -501.43345    127410.62   -34028.568    2546.8991   -36575.467    59.619447    239.53795 
   14450    133.85491   -464.93244    127323.69    -34021.21     2524.448   -36545.658    59.894782    237.42641 
   14500     135.9949   -236.01345    127428.46   -33948.576    2564.8074   -36513.383    60.064032    241.22224 
   14550    135.01585   -268.89933    127510.62   -33935.158     2546.343   -36481.501    60.373867    239.48565 
   14600    136.56786   -224.72578    127552.35   -33960.026    2575.6132   -36535.639    60.707046    242.23853 
   14650    137.05015    -306.1702    127606.13   -33973.375    2584.7089   -36558.084    61.062698    243.09399 
   14700    135.94302   -566.07084    127529.43   -34021.939     2563.829   -36585.768    61.305619    241.13022 
   14750    135.77553    112.11667    127509.58   -33994.738    2560.6703   -36555.409    61.529486    240.83314 
   14800    137.81591   -375.06587    127432.73   -33969.626    2599.1509   -36568.777    61.754329    244.45227 
   14850    135.72957   -325.68302    127386.71   -34012.946    2559.8035   -36572.749    61.927006    240.75162 
   14900     135.4611   -320.13814    127451.33   -33989.644    2554.7401   -36544.384    62.139035     240.2754 
   14950    134.46851    -221.5419    127415.74   -34011.259    2536.0203   -36547.279    62.262862    238.51479 
   15000    131.92142   -303.63691    127354.93   -34075.702    2487.9833   -36563.685    62.524565    233.99687 
   15050    133.74291    -221.1515    127349.34   -34057.443    2522.3358   -36579.778    62.910999    237.22775 
   15100    133.85602   -305.26103    127453.94   -34049.515     2524.469   -36573.984    63.310179    237.42838 
   15150    134.65021   -101.92635    127443.98   -34033.508    2539.4471   -36572.955    63.512715    238.83708 
   15200     130.9754   -210.38855    127483.83   -34036.579    2470.1417   -36506.721    63.779435    232.31885 
   15250    136.21772   -303.79149    127473.66   -34019.059    2569.0097   -36588.069    64.025283    241.61747 
   15300    136.05317   -347.49739    127410.67   -34012.708    2565.9063   -36578.614    64.246961    241.32559 
   15350    137.03238   -209.39025    127360.32   -33990.798    2584.3738   -36575.171    64.602244    243.06247 
   15400    136.57251    -402.0203     127333.4    -33960.83    2575.7008   -36536.531    64.880581    242.24677 
   15450    132.16107   -208.81494    127352.66   -34001.138    2492.5029   -36493.641     65.15869    234.42195 
   15500    134.30997   -166.50132    127342.85   -33987.748    2533.0304   -36520.778    65.152363    238.23359 
   15550    135.09085    -376.6989    127298.52    -33996.24    2547.7574   -36543.998    65.408082    239.61867 
   15600    134.02242   -287.04091    127277.91   -33991.407    2527.6073   -36519.014    65.676932    237.72354 
   15650    136.31677   -262.70786    127241.43   -33999.283    2570.8778   -36570.161    65.908906    241.79316 
   15700    134.38841   -483.66828    127243.42   -33983.683    2534.5097   -36518.193    65.879383    238.37272 
   15750    135.52043   -88.308251     127240.5   -33981.383     2555.859   -36537.242    66.161803    240.38064 
   15800    135.48143   -133.35954    127265.66   -34000.403    2555.1236   -36555.527    66.109978    240.31147 
   15850    136.46443    177.75857    127379.99   -33940.129    2573.6625   -36513.792    66.276144    242.05507 
   15900    134.53632   -71.555366    127515.64   -34024.311    2537.2992    -36561.61    66.432503    238.63507 
   15950    134.20003   -85.644005    127507.33   -34071.711    2530.9569   -36602.668    66.581748    238.03857 
   16000    136.52009   -302.57577    127491.12   -34072.456    2574.7123   -36647.168    66.940202    242.15381 
   16050    136.72624   -360.62418    127472.67   -34030.296    2578.6002   -36608.896    67.164164    242.51946 
   16100    133.35949    -201.1044    127441.51   -34118.984    2515.1046   -36634.089    67.266639    236.54765 
   16150    134.74878    -524.2217    127430.46   -34098.242     2541.306   -36639.549    67.555482    239.01192 
   16200    133.78976   -76.941849    127352.37   -34059.884    2523.2193   -36583.104    67.788232    237.31085 
   16250    135.89299    -173.7408    127382.28   -34048.305    2562.8853    -36611.19    68.192316    241.04147 
   16300    135.56479    -79.00606    127411.81   -33997.059    2556.6957   -36553.755    68.411161    240.45933 
   16350    137.64244    -161.5119     127491.8   -33949.444    2595.8793   -36545.323    68.795497    244.14458 
   16400    135.60226   -196.28784    127574.85   -33969.504    2557.4024   -36526.906    69.048921     240.5258 
   16450    137.41534   -118.99182    127576.58   -33947.582    2591.5963   -36539.178    69.286352    243.74176 
   16500     134.0335   -258.95335    127602.32   -33967.326    2527.8162   -36495.142    69.512799    237.74319 
   16550    135.23527    -233.7202    127652.46   -33925.382     2550.481   -36475.863    69.591229    239.87483 
   16600    136.42816    111.71854    127733.88   -33956.448    2572.9785   -36529.427    69.762948    241.99074 
   16650    135.17144   -118.92623    127825.52   -33950.874    2549.2773   -36500.152    69.907761    239.76162 
   16700    136.11499   -403.20061    127864.66   -33949.332    2567.0723   -36516.405    70.079992    241.43525 
   16750    134.93745   -422.78976     127837.6   -33990.393    2544.8643   -36535.258    70.491801    239.34657 
   16800    135.90254   -479.39684    127754.76   -34023.696    2563.0656   -36586.761    70.800879    241.05842 
   16850    133.85963   -194.99986    127713.01   -33985.922    2524.5371   -36510.459    70.745415    237.43478 
   16900    132.34188   -291.71605    127683.71   -33986.593    2495.9129   -36482.506    71.136536    234.74266 
   16950    133.75329   -300.01007    127692.58   -33997.084    2522.5316   -36519.616    71.616689    237.24617 
   17000    136.06007   -90.685118    127679.08   -33992.313    2566.0366    -36558.35    71.923148    241.33784 
   17050    136.94541   -285.82153     127577.2   -33954.256    2582.7337    -36536.99    71.822426    242.90822 
   17100    139.46948   -278.51051    127524.33    -33940.63    2630.3366   -36570.966    72.165806    247.38532 
   17150    134.57588   -16.751799    127572.88   -33937.214    2538.0452   -36475.259    72.231128    238.70523 
   17200     136.6314   -364.64824    127569.56   -33984.457    2576.8115   -36561.269    72.361692    242.35123 
   17250    137.14557   -159.11386    127524.65   -33951.603    2586.5086   -36538.111      72.8185    243.26325 
   17300    137.55735   -423.34967     127480.8   -33922.976    2594.2746    -36517.25    73.024674    243.99365 
   17350    137.45827   -310.83568    127474.81   -33943.186     2592.406   -36535.592    73.313766    243.81791 
   17400    135.98022   -209.51833    127504.32   -34006.312    2564.5305   -36570.842    73.474368     241.1962 
   17450    136.07571   -152.51735    127614.51   -33984.618    2566.3314   -36550.949    73.925233    241.36557 
   17500    134.09726   -270.98816    127639.26   -34021.059    2529.0187   -36550.078    74.117965    237.85629 
   17550    132.88882   -230.42776    127599.55   -34081.135     2506.228   -36587.363    74.399982     235.7128 
   17600    135.55582   -168.35465    127539.64   -34107.722    2556.5265   -36664.249    74.575085    240.44342 
   17650    135.14007   -270.18098    127537.38    -34100.51    2548.6857   -36649.196    74.929437    239.70598 
   17700    134.51291   -162.58068    127568.02   -34077.004    2536.8577   -36613.862    75.378981    238.59355 
   17750    134.83885   -105.94378    127593.93   -34064.119    2543.0048   -36607.124    75.459508    239.17168 
   17800    134.55451   -144.01055    127594.74   -34036.233    2537.6423   -36573.876    75.804733    238.66734 
   17850    134.04493   -391.35563    127545.97   -34018.119    2528.0319   -36546.151    76.069335    237.76347 
   17900    132.03035   -255.46006    127525.85   -34040.906    2490.0377   -36530.943    76.616875    234.19009 
   17950    134.33832   -109.69939    127537.32   -33996.065    2533.5651    -36529.63    77.167267    238.28387 
   18000    135.08531   -272.07503    127548.18   -33986.143    2547.6529   -36533.796    77.320947    239.60885 
   18050    139.82196   -295.12246    127505.27   -33955.712    2636.9841   -36592.696    77.403104    248.01052 
   18100    136.18475   -203.95712    127499.64   -34002.976     2568.388   -36571.364    77.614476    241.55899 
   18150    134.55459   -362.93145    127462.55   -33969.227    2537.6437    -36506.87     77.87909    238.66747 
   18200    137.04807   -314.04696    127525.44   -33981.845    2584.6697   -36566.515    77.937854     243.0903 
   18250    134.37214   -472.23793    127515.52   -33984.306    2534.2028   -36518.509     78.24207    238.34385 
   18300    135.97946   -316.43814    127522.11   -33964.457    2564.5161   -36528.973    78.386284    241.19485 
   18350    134.24106   -344.63001    127482.01   -33952.634    2531.7306   -36484.365    78.565033    238.11134 
   18400    139.66832    -500.1623    127450.34   -33929.222    2634.0866   -36563.308     78.87142    247.73801 
   18450    136.80524   -305.29246    127474.28   -33945.306      2580.09   -36525.396     78.83507    242.65959 
   18500    136.55361   -621.43442    127395.94   -33929.971    2575.3445   -36505.315    78.845641    242.21326 
   18550    138.10358   -432.50595    127372.27   -33959.803    2604.5763    -36564.38    78.797942    244.96254 
   18600    136.84958   -289.83208    127247.52   -34025.672    2580.9264   -36606.598    79.091866    242.73824 
   18650    134.75962   -526.07082    127140.84   -34021.999    2541.5105   -36563.509    79.364636    239.03115 
   18700    134.58065   -359.42343    127087.65   -34056.279    2538.1352   -36594.414    79.631302     238.7137 
   18750    133.19741   -141.09899    127065.89   -34027.165     2512.048   -36539.213    79.975932    236.26017 
   18800    133.22219   -43.757671    127169.66   -34076.871    2512.5152   -36589.386    79.992489    236.30412 
   18850    134.28019   -29.623283    127176.08   -34060.907    2532.4687   -36593.376    80.233276    238.18076 
   18900    132.98129   -309.65671    127127.28   -34034.127    2507.9719   -36542.099    80.507418    235.87682 
   18950    134.15687   -153.03692       127134   -34050.353    2530.1429   -36580.496    80.618376    237.96202 
   19000    134.24545    65.580184    127175.95   -34086.164    2531.8135   -36617.978     80.82452    238.11914 
   19050    130.56232   -71.033732    127298.53   -34092.939    2462.3512    -36555.29    80.992812    231.58615 
   19100    136.03665    -44.51878    127339.64   -34048.499    2565.5947   -36614.093    81.207297    241.29629 
   19150    135.98784   -370.92684    127342.92   -34053.213    2564.6742   -36617.887    81.354528    241.20972 
   19200    136.29764   -190.14568    127345.87   -34043.054    2570.5169   -36613.571    81.573668    241.75922 
   19250    136.50578    -353.8955    127436.13   -34061.158    2574.4423   -36635.601    81.774312    242.12842 
   19300    135.66347   -7.2724649    127416.88    -34026.81    2558.5568   -36585.367    82.085476    240.63437 
   19350    136.55114   -272.17835    127480.52   -34044.993    2575.2979   -36620.291    82.517267    242.20888 
   19400    131.92938   -175.14532     127428.2    -34055.16    2488.1334   -36543.293    82.884177    234.01099 
   19450    135.40734   -299.05159    127380.13   -34000.486    2553.7263   -36554.212    83.312718    240.18005 
   19500    136.40613   -248.47702    127342.09   -34000.295     2572.563   -36572.858    83.603258    241.95166 
   19550    133.65842   -402.79869    127323.01   -34046.977    2520.7423   -36567.719    83.985864    237.07788 
   19600    133.86667   -462.85206    127237.97   -34036.759    2524.6698   -36561.429    84.056226    237.44727 
   19650     133.9861   -103.43265    127176.49   -34088.472    2526.9223   -36615.394     84.28503    237.65912 
   19700    132.53736   -191.55629    127193.81    -34038.03    2499.5997   -36537.629    84.892757     235.0894 
   19750    132.33963   -319.37891    127214.47   -34078.736    2495.8706   -36574.607    85.098417    234.73868 
   19800    131.55273   -179.43701    127325.75   -34080.815      2481.03   -36561.845    85.124221    233.34291 
   19850    135.58164    -79.50027     127299.3   -34078.179    2557.0135   -36635.192    85.402922    240.48921 
   19900    132.87365   -75.904131    127272.16   -34095.539     2505.942   -36601.481     85.87847     235.6859 
   19950    136.55553   -211.84138    127351.13   -34016.869    2575.3806    -36592.25    86.510521    242.21666 
   20000    133.93073    12.301584     127436.6   -34060.779     2525.878   -36586.657    86.703871     237.5609 
   20050    130.23784   -463.70119    127544.38   -34032.943    2456.2317   -36489.174    86.933116    231.01061 
   20100    133.68834   -247.02313    127612.44   -34018.143    2521.3066    -36539.45    87.073314    237.13096 
   20150    135.17109   -154.41985    127689.02   -34025.438    2549.2708   -36574.709    87.173002    239.76101 
   20200    133.20217    -249.8369    127709.69   -33979.375    2512.1378   -36491.513    87.390015    236.26862 
   20250    135.08915   -204.64475    127707.47   -33999.863    2547.7254   -36547.588    87.702986    239.61566 
   20300    133.53715   -489.49361    127686.22   -33986.002    2518.4552   -36504.457    87.895396    236.86278 
   20350    134.81326   -382.48048    127575.96       -33949    2542.5222   -36491.522    87.947399     239.1263 
   20400    135.21245   -152.42932     127584.3   -33926.054    2550.0507   -36476.105    88.293072    239.83436 
   20450    135.88464    -496.0343    127554.91   -33955.967     2562.728   -36518.695    88.470962    241.02667 
   20500    136.31122    -300.4152    127488.14    -33995.78    2570.7731   -36566.553    88.828354    241.78332 
   20550    134.88988   -268.70066    127350.52   -34016.955    2543.9672   -36560.922    88.949788     239.2622 
   20600    136.26205   -401.31937    127317.62   -34053.974    2569.8458    -36623.82    89.006888     241.6961 
   20650    134.78321   -153.13435     127314.9     -34051.3    2541.9555   -36593.255    89.530304      239.073 
   20700    134.57648   -154.75181    127269.23    -34045.03    2538.0565   -36583.087    89.975827     238.7063 
   20750    132.97548   -167.18861    127218.22   -34047.892    2507.8623   -36555.754    90.271144    235.86651 
   20800    135.47754   -311.09298    127236.72   -33996.646    2555.0502   -36551.696    90.394278    240.30457 
   20850    136.14794   -155.30855    127207.43   -34013.194    2567.6937   -36580.888    90.660278     241.4937 
   20900    133.36071   -369.71646    127201.37   -33998.801    2515.1276   -36513.928    90.926113    236.54981 
   20950    137.20392   -154.43107    127251.04   -33971.449     2587.609   -36559.058     91.17837    243.36675 
   21000    136.13766    -266.2186    127284.14   -33958.941    2567.4999    -36526.44    91.369418    241.47547 
   21050    137.64449   -160.88891     127362.9   -33955.085    2595.9181   -36551.003    91.741172    244.14823 
   21100    136.35196   -429.90423    127404.01   -33961.561    2571.5414   -36533.103    91.969352    241.85558 
   21150     134.9995    -266.9119    127364.22   -33970.311    2546.0345   -36516.345    92.436716    239.45664 
   21200    136.68194   -334.81161    127383.83   -33939.719    2577.7646   -36517.483    92.752528    242.44088 
   21250     136.9293   -284.24707    127412.32     -33964.4    2582.4299    -36546.83    93.075724    242.87965 
   21300    132.58692   -371.94761    127434.24   -34031.368    2500.5342   -36531.902    93.085661     235.1773 
   21350    136.51461    -417.8397    127431.09   -34006.504    2574.6089   -36581.113    93.202438    242.14408 
   21400    136.47157   -399.29805    127390.88   -33974.527    2573.7972   -36548.324    93.428809    242.06774 
   21450    133.65523   -179.16861     127442.6   -34000.983    2520.6823   -36521.665      93.6494    237.07224 
   21500    136.57466   -176.75324    127454.97   -34017.624    2575.7415   -36593.365    93.708353     242.2506 
   21550    135.84784   -283.32959    127394.78   -34003.597     2562.034   -36565.631    93.670351     240.9614 
   21600    134.70823   -290.58106    127402.19   -34029.044    2540.5413   -36569.585    93.835978       238.94 
   21650    136.74487   -63.274686    127404.11    -34041.38    2578.9515   -36620.332     94.01343     242.5525 
   21700    139.43776   -265.52849    127347.17   -34034.368    2629.7383   -36664.107    93.956892    247.32904 
   21750    133.80992    4.3446065    127311.38    -34080.63    2523.5996    -36604.23    94.189508    237.34661 
   21800     134.8985   -152.14894    127307.34   -34079.471    2544.1297   -36623.601    94.604997    239.27748 
   21850    135.68126   -285.92825    127294.92   -34069.034    2558.8923   -36627.926    94.911253    240.66592 
   21900    136.84024    -199.8347    127291.44   -34062.387    2580.7502   -36643.137    95.203918    242.72167 
   21950    134.56518   -58.721418    127394.03   -34100.833    2537.8435   -36638.676    95.422132    238.68627 
   22000    133.13667    -154.3051    127467.42   -34095.318    2510.9023    -36606.22    95.562108    236.15242 
   22050    132.86391   -161.76292    127427.63   -34068.813    2505.7583   -36574.571    95.619266    235.66862 
   22100    135.59172   -100.46527    127459.61   -34024.219    2557.2036   -36581.422     95.57503    240.50709 
   22150    137.61144    -244.7919     127467.7   -33947.211    2595.2947   -36542.505    95.682007    244.08959 
   22200    136.69284    69.690101    127441.86    -33931.42    2577.9703   -36509.391    95.664577    242.46022 
   22250    139.35102   -143.91002    127465.91   -33930.389    2628.1023   -36558.491    95.854015    247.17518 
   22300    134.29487   -64.945056    127484.41   -34017.467    2532.7456   -36550.212    95.916144     238.2068 
   22350    135.58802    53.281097    127538.09   -34018.546    2557.1338   -36575.679    96.076683    240.50053 
   22400     137.4122   -255.25339    127556.91   -34014.089    2591.5372   -36605.626    96.267836     243.7362 
   22450     136.2736   -20.289417    127536.65   -34021.393    2570.0635   -36591.456    96.321901    241.71658 
   22500    138.44668   -104.74241    127580.56   -33960.065    2611.0469   -36571.112    96.596608     245.5711 
   22550    137.72821   -446.65202    127602.63   -34001.691     2597.497   -36599.188    96.703327    244.29672 
   22600    137.82541   -54.344472    127538.69   -34024.524    2599.3301   -36623.854    96.904524    244.46912 
   22650    136.13162   -250.14687    127556.21   -34010.906    2567.3859   -36578.292    97.126803    241.46475 
   22700     136.5791    -225.2205    127616.66   -34059.037    2575.8251   -36634.862    97.613656    242.25846 
   22750    134.14856   -302.98839    127594.18   -34046.039    2529.9863   -36576.025    97.862059    237.94728 
   22800    135.67377   -230.23251    127543.57   -34000.369    2558.7511    -36559.12    98.160155    240.65264 
   22850    135.47175   -425.74425    127425.11   -34020.241    2554.9411   -36575.182     98.40488    240.29431 
   22900    137.43613   -67.404466    127431.28    -34028.65    2591.9883   -36620.638     98.60636    243.77863 
   22950    136.61372     -107.432     127480.4   -34017.859    2576.4782   -36594.338    99.083522    242.31989 
   23000    138.36854   -363.90638    127506.32   -34016.188    2609.5732   -36625.761    99.441409     245.4325 
   23050    136.27939   -282.08399    127428.23    -34012.63    2570.1728   -36582.803     99.68441    241.72686 
   23100    135.04915   -262.98336    127437.04   -34045.513    2546.9709   -36592.484       100.15     239.5447 
   23150    137.02356   -34.737682     127574.4   -34024.683    2584.2075   -36608.891    100.20188    243.04684 
   23200     134.2636   -63.872725    127651.73   -34007.765    2532.1558   -36539.921    100.38818    238.15133 
   23250    139.65956   -428.52894    127715.84   -34051.153    2633.9214   -36685.075    100.66718    247.72247 
   23300    134.76221   -541.44883    127663.27   -34072.041    2541.5593     -36613.6    101.32309    239.03574 
   23350    134.65288   -125.41754    127648.43   -34058.495    2539.4975   -36597.992     101.0212    238.84182 
   23400    133.52689   -241.38461    127612.33   -34066.381    2518.2618   -36584.642    101.05467    236.84459 
   23450    135.15414   -432.06226    127663.19   -33994.564    2548.9511   -36543.516    101.43125    239.73094 
   23500    134.22035   -318.94721    127627.78   -34036.835    2531.3402   -36568.176    101.56305    238.07462 
   23550    138.23812   -256.36458    127672.12   -33983.385    2607.1136   -36590.499    101.85925    245.20117 
   23600    137.18309   -275.71578    127716.34   -33945.308    2587.2161   -36532.524    102.11466     243.3298 
   23650    137.20394   -440.47729    127780.76   -33951.559    2587.6093   -36539.168    102.24809    243.36678 
   23700    133.06194   -154.54886    127773.36   -34004.298    2509.4929   -36513.791    102.56486    236.01987 
   23750    129.73051   -444.12661    127698.75   -34093.765    2446.6636   -36540.429    102.77275    230.11072 
   23800    133.41482    -183.2312       127588   -34087.753    2516.1481   -36603.901    102.93987    236.64579 
   23850    131.49688   -239.76924    127542.99   -34075.061    2479.9767   -36555.038    103.25083    233.24384 
   23900    135.16003   -256.59445     127590.4   -34073.577    2549.0622   -36622.639    103.33807    239.74139 
   23950    133.99664   -104.18486    127544.78    -34065.91    2527.1211   -36593.031    103.68776    237.67781 
   24000    136.25157   -82.436938    127554.03   -34054.152    2569.6481     -36623.8    104.17827    241.67751 
   24050    135.84429   -231.21904    127516.67   -34055.197     2561.967   -36617.164    104.17174     240.9551 
   24100    134.11756    39.332417    127577.51   -34047.073    2529.4015   -36576.475    104.13551    237.89229 
   24150     133.4614   -168.93854    127613.63   -34042.942    2517.0266   -36559.969    104.40157    236.72841 
   24200      134.125   -185.86864    127595.76   -34047.902    2529.5419   -36577.444    104.51933    237.90549 
   24250    133.73978   -118.61376    127656.58    -34060.56    2522.2768   -36582.837    104.79709     237.2222 
   24300    136.38066    91.846936    127706.43   -34022.684    2572.0826   -36594.766    104.93623    241.90648 
   24350    137.88316    -206.8481    127735.09   -33972.528    2600.4191   -36572.947    104.97822    244.57155 
   24400     139.4765   -205.24074    127786.31    -33949.66     2630.469   -36580.129    105.14051    247.39777 
   24450    136.99225   -473.30328     127685.4   -33987.285    2583.6169   -36570.902    105.41748    242.99129 
   24500    135.83026   -338.21584    127660.16   -33960.699    2561.7023   -36522.401    105.69645     240.9302 
   24550    134.12491   -193.67317    127593.31   -33990.628    2529.5402   -36520.169     105.7362    237.90533 
   24600    135.19814   -350.55726    127556.16   -33987.489    2549.7809   -36537.269    105.89955    239.80898 
   24650    134.88638   -521.98156     127463.1   -33984.569    2543.9012    -36528.47    106.00651    239.25599 
   24700    135.91335   -95.315061    127414.16   -33994.079    2563.2694   -36557.348    106.42143    241.07759 
   24750    134.05324   -577.15709    127425.95    -34064.81    2528.1884   -36592.998    106.55331     237.7782 
   24800    134.73764   -265.46539    127410.45   -34049.513    2541.0959   -36590.609    106.71196    238.99216 
   24850    135.10912   -584.51114    127348.41    -34030.95     2548.102   -36579.051    106.70569    239.65108 
   24900    135.36439    -304.9068    127286.82   -34014.612    2552.9163   -36567.528    106.89077    240.10387 
   24950    135.47214   -67.956439    127290.32   -33959.158    2554.9484   -36514.106    107.23369    240.29499 
   25000    133.33688   -205.03371    127248.51    -33996.07    2514.6782   -36510.749    107.78817    236.50755 
   25050    133.43723    -253.6402    127179.92   -34015.664    2516.5708   -36532.234    107.90136    236.68555 
   25100    130.07486   -387.92743    127135.33   -34072.577     2453.158   -36525.735    108.27974    230.72152 
   25150    131.42044   -295.49415    127110.99   -34077.982     2478.535   -36556.517    108.71065    233.10825 
   25200    134.51629   -287.70673    127155.83   -34046.236    2536.9215   -36583.157    109.07973    238.59955 
   25250    133.42302      -140.37    127159.17   -34005.159    2516.3027   -36521.462    109.38325    236.66034 
   25300      133.717   -188.18941    127166.55   -34009.107    2521.8472   -36530.954    109.68568     237.1818 
   25350    135.08707    -124.0257     127200.3   -34036.927    2547.6862   -36584.613    109.89216    239.61197 
   25400    132.52039   -208.25399    127285.75   -34041.792    2499.2796   -36541.072    109.89419    235.05929 
   25450      137.316   -137.13451    127413.55   -33982.662    2589.7228   -36572.385    110.15369    243.56555 
   25500    133.56534    56.007517    127520.36   -33914.781    2518.9869   -36433.768    110.31285    236.91279 
   25550    140.15899   -392.65106    127533.91   -33887.339    2643.3403   -36530.679    110.68305    248.60833 
   25600    137.89369   -270.37733    127537.31   -33887.031    2600.6179   -36487.649     110.7646    244.59024 
   25650    136.61164   -338.83815    127475.78   -33925.422    2576.4389   -36501.861    111.03081    242.31619 
   25700    136.05294   -143.14528    127474.54   -33935.756    2565.9021   -36501.658    111.19968    241.32519 
   25750    136.49258   -288.48328    127509.38   -33946.947    2574.1934    -36521.14    111.27711      242.105 
   25800    137.16364   -385.77457    127525.11    -33976.29    2586.8493   -36563.139     111.3104     243.2953 
   25850    135.64347   -464.06624    127490.79   -33978.018    2558.1795   -36536.197     111.3766    240.59888 
   25900    137.37597   -262.23832    127518.08   -33942.517    2590.8537   -36533.371    111.63557    243.67192 
   25950    137.01132   -518.67841    127528.41   -33968.761    2583.9766   -36552.738    111.80002    243.02512 
   26000     136.6164   -375.58498    127488.33   -33986.599    2576.5286   -36563.128    111.83447    242.32463 
   26050    134.80947    -292.9806    127489.19   -33989.676    2542.4507   -36532.127    112.16275    239.11958 
   26100    137.19161   -328.91939    127545.04   -33949.032    2587.3769   -36536.409    112.08618    243.34492 
   26150    132.57428   -517.83122    127485.88   -34009.123    2500.2959   -36509.419    112.29576    235.15488 
   26200      135.794   -627.28403    127520.39   -34001.346    2561.0186   -36562.364    112.68503     240.8659 
   26250    133.95932   -466.97844    127462.87   -34054.938    2526.4172   -36581.355    112.59294    237.61161 
   26300    134.06194    -229.2274    127368.07   -34048.566    2528.3525   -36576.918    112.75939    237.79363 
   26350    132.19179   -381.90809    127373.57    -34096.31    2493.0823   -36589.392    113.02122    234.47643 
   26400    132.40129   -180.18097    127352.44   -34087.623    2497.0333   -36584.656    113.11052    234.84803 
   26450     133.7244   -63.084225    127431.97   -34067.356    2521.9868   -36589.342    113.34043    237.19493 
   26500    133.34581   -119.50166     127461.1   -34046.402    2514.8467   -36561.248     113.4747    236.52339 
   26550    135.62046   -466.46047    127569.86   -34006.576    2557.7456   -36564.321    113.75535    240.55807 
   26600    134.45049   -434.00479    127498.49   -34009.753    2535.6805   -36545.434    113.94049    238.48283 
   26650    136.53753   -95.958443    127446.88   -34017.351    2575.0412   -36592.392    114.09465    242.18474 
   26700    136.97255   -238.76857    127466.53   -34025.154    2583.2456     -36608.4    114.19451    242.95637 
   26750    135.58766    -232.7921    127468.64    -34015.91     2557.127   -36573.037    114.43037    240.49989 
   26800     134.7819   -315.92343     127479.1   -34037.505    2541.9308   -36579.436    114.39667    239.07068 
   26850    133.92408   -100.05023    127532.36   -34045.428    2525.7525    -36571.18    114.47099     237.5491 
   26900    130.64426   -331.15701     127465.8   -34063.828    2463.8965   -36527.724    114.59713    231.73148 
   26950    134.58726   -142.63177    127379.59    -34085.08      2538.26    -36623.34    114.74241    238.72543 
   27000    134.58521    -300.5053    127343.47   -34087.873    2538.2212   -36626.094    115.10833    238.72179 
   27050    134.79821   -16.068622    127218.59   -34099.405    2542.2382   -36641.644    115.17018    239.09959 
   27100    133.68312   -340.46792    127249.52    -34139.55    2521.2082   -36660.758    115.52189     237.1217 
   27150    133.45391   -262.66433    127224.49   -34145.062    2516.8853   -36661.947    115.49405    236.71513 
   27200    132.76553   -302.01214    127226.07   -34109.525    2503.9029   -36613.428    115.55371    235.49412 
   27250    132.06201   -156.07375    127249.93   -34174.071    2490.6348   -36664.706    115.81857    234.24624 
   27300    133.61589   -73.844056    127226.82   -34177.788    2519.9403   -36697.729    116.20261    237.00246 
   27350    135.36805   -26.699451     127291.3    -34176.69    2552.9853   -36729.675     116.4489    240.11036 
   27400     131.7406   -352.66353    127336.57   -34150.101     2484.573   -36634.674    116.79648    233.67613 
   27450    133.38038    -44.21489    127405.18   -34143.051    2515.4987   -36658.549    117.31753    236.58471 
   27500    134.86487   -196.54182    127397.76    -34110.59    2543.4956   -36654.086     117.2172    239.21785 
   27550    132.97546    -433.8771    127351.69   -34111.539     2507.862   -36619.401    117.48732    235.86647 
   27600    138.31708   -333.13102    127273.09   -34061.401    2608.6027   -36670.003     117.6839    245.34123 
   27650    134.28596   -333.47454    127321.59   -34093.255    2532.5776   -36625.832    117.84249      238.191 
   27700    136.72589   -356.64784     127303.8   -34065.193    2578.5935   -36643.787    117.97035    242.51883 
   27750    135.23873   -351.51753    127286.25    -34028.11    2550.5463   -36578.656    118.29145    239.88098 
   27800    138.12074   -578.30425    127328.71   -33992.548    2604.8998   -36597.448    118.28868    244.99296 
   27850    136.84897   -229.97778    127324.78   -33959.942    2580.9149   -36540.856      118.633    242.73716 
   27900    139.43507   -473.00614    127328.01   -33893.247    2629.6876   -36522.934    118.86075    247.32428 
   27950    140.32473   -433.76717    127278.39   -33909.753    2646.4663   -36556.219    118.76948    248.90233 
   28000    138.02785   -369.23262    127324.41   -33920.458     2603.148   -36523.606    119.05676     244.8282 
   28050    137.26946   -108.25362    127429.02   -33935.823     2588.845   -36524.669    119.05957      243.483 
   28100    135.37157   -210.68608     127492.6   -33976.962    2553.0517   -36530.014    118.99458    240.11661 
   28150    136.03787   -408.30399     127578.4   -33997.873    2565.6177   -36563.491    119.24506    241.29845 
   28200    138.68949   -289.16676    127673.21   -33942.624    2615.6263    -36558.25    119.21171     246.0018 
   28250    137.43553   -58.716934    127670.63   -33969.034    2591.9771   -36561.011    119.36016    243.77757 
   28300    138.30446   -288.98738     127719.9   -34034.654    2608.3648   -36643.018    119.41233    245.31885 
   28350    134.21292   -294.87357    127672.67   -34031.637       2531.2   -36562.837    119.37303    238.06144 
   28400    135.05432   -261.56039    127675.32   -34000.589    2547.0685   -36547.658    119.49364    239.55388 
   28450    133.37865   -530.70924    127634.59   -34024.869    2515.4659   -36540.335    119.47378    236.58164 
   28500    136.95706   -413.72507     127503.5   -34030.398    2582.9533   -36613.351    119.79001    242.92888 
   28550    136.14334   -461.58849    127428.13   -34013.686    2567.6068   -36581.292    120.07782    241.48553 
   28600    135.56038   -356.94302    127322.42   -34076.695    2556.6125   -36633.308    120.26036    240.45151 
   28650    133.12835   -216.48189    127246.98   -34052.846    2510.7455   -36563.591    120.25113    236.13768 
   28700    134.80415   -421.29559     127199.8   -34036.782    2542.3504   -36579.132    120.28034    239.11014 
   28750    134.11374   -317.38529    127165.21   -34058.872    2529.3295   -36588.201    120.54244    237.88552 
   28800    135.18608    168.92608    127182.36   -34027.471    2549.5533   -36577.025    120.81407    239.78758 
   28850    137.33821    -129.1401    127367.83   -34081.467    2590.1417   -36671.609    121.32368    243.60495 
   28900    137.17262   -124.66068    127385.79   -34060.689    2587.0187   -36647.707    121.30064    243.31123 
   28950    133.04875   -372.89235    127343.74   -34064.887    2509.2442   -36574.131    121.35604    235.99647 
   29000    132.94158   -11.630132    127294.37   -34065.257    2507.2231    -36572.48    121.45206    235.80639 
   29050    134.24653   -287.02213    127341.12   -34032.045    2531.8338   -36563.879    121.60381    238.12104 
   29100    135.60037   -313.36153    127259.02   -33957.334    2557.3668     -36514.7    121.37925    240.52244 
   29150    135.13174   -304.27935    127304.59    -33973.58    2548.5285   -36522.109    121.59583     239.6912 
   29200    135.09837   -573.01975    127304.34   -33915.838    2547.8992   -36463.737    121.50502    239.63201 
   29250    135.23713   -285.05587    127179.41   -33940.392    2550.5162   -36490.908    121.83703    239.87814 
   29300    138.74346   -202.19864    127237.36   -33923.896    2616.6441    -36540.54     121.8788    246.09752 
   29350    136.79039    -462.4563    127170.56   -33990.655    2579.8101   -36570.465    121.97565    242.63325 
   29400    134.89601   -92.779962    127132.76   -34017.662    2544.0829   -36561.745    122.01068    239.27308 
   29450    137.12686   -324.94706    127036.46   -34034.523    2586.1557   -36620.679    122.38855    243.23006 
   29500    133.46315   -291.41468    126973.12   -34023.776    2517.0597   -36540.836    122.71537    236.73153 
   29550     134.4311   -275.97937    126954.58   -34091.817    2535.3147   -36627.132    122.84365    238.44843 
   29600    136.34719   -50.518093     126953.6   -34102.312    2571.4515   -36673.764    123.07099    241.84713 
   29650    133.38425    -294.3661    126943.79   -34062.873    2515.5716   -36578.444    123.20312    236.59158 
   29700    133.56162   -117.73379    126931.74   -34047.416    2518.9167   -36566.333    123.33919    236.90619 
   29750    133.61855   -254.38266    127006.35   -34055.434    2519.9904   -36575.424    123.76884    237.00717 
   29800    134.30901   -256.03913    127043.26   -34077.626    2533.0122   -36610.638    124.17754    238.23188 
   29850    131.58478   -380.09524     126983.9   -34150.973    2481.6344   -36632.608     124.3834    233.39975 
   29900    130.24879   -40.807194    126978.57   -34137.842    2456.4382    -36594.28    124.37858    231.03002 
   29950    132.35859   -360.49988    126982.98   -34097.716    2496.2281   -36593.944    124.63856    234.77231 
   30000    134.85209   -427.49076    126918.46   -34036.457    2543.2545   -36579.711    124.82456    239.19518 
   30050    135.38141    120.52435    126970.42   -34031.011    2553.2372   -36584.249    125.03197    240.13405 
   30100    134.45144   -86.128821     127019.7   -34064.945    2535.6984   -36600.644    125.41207    238.48451 
   30150    132.59274   -206.89068    127076.76   -34078.774     2500.644   -36579.418    125.51734    235.18762 
   30200    133.16776   -121.27798    127060.14    -34088.13    2511.4887   -36599.619    125.71247    236.20758 
   30250     134.0157   -242.65663    127157.49   -34066.527    2527.4805   -36594.008    125.84932    237.71162 
   30300    134.23881   -278.47314    127188.52   -34042.136    2531.6883   -36573.824     125.8326    238.10736 
   30350    134.35307   -60.002251    127166.66     -34045.4    2533.8431   -36579.243    126.19255    238.31003 
   30400    132.72172   -275.24569    127252.22   -34013.371    2503.0765   -36516.448     126.4833     235.4164 
   30450     136.2758   -161.38344    127311.13   -34049.793     2570.105   -36619.898    126.74606    241.72048 
   30500    137.82613   -337.98706    127353.13    -34043.51    2599.3436   -36642.853    126.84522     244.4704 
   30550    133.54876    -302.1621    127397.01   -34065.949    2518.6742   -36584.623    127.09256    236.88338 
   30600    132.58438   -394.08626    127424.51   -34067.053    2500.4865   -36567.539     127.2417    235.17281 
   30650    135.07142   -188.51306     127460.9   -33971.911    2547.3909   -36519.302     127.3493     239.5842 
   30700    135.23155    -224.3951    127429.74   -33972.472     2550.411   -36522.883    127.77075    239.86825 
   30750    136.79561    -119.6071    127436.51   -33973.601    2579.9084   -36553.509    127.94585     242.6425 
   30800    134.74839   -240.57552     127403.7   -34021.017    2541.2987   -36562.315    128.26114    239.01123 
   30850    135.24906   -125.64649    127410.13   -34040.253    2550.7412   -36590.995    128.43608     239.8993 
   30900     136.5988   -134.53412    127461.84   -34043.561    2576.1966   -36619.757    128.72923    242.29341 
   30950    133.24135   -78.739356    127553.15   -34051.689    2512.8766   -36564.566    129.28701    236.33811 
   31000    131.93966    96.931396     127508.2   -34050.759    2488.3272   -36539.086    129.50007    234.02921 
   31050    132.66404   -336.52921    127577.01   -34066.486    2501.9888   -36568.475    129.59227     235.3141 
   31100     135.9717   -175.21671     127623.1   -34055.979    2564.3699   -36620.349    129.67593    241.18109 
   31150    138.68715   -113.36105    127656.26   -34005.808    2615.5821    -36621.39    129.85238    245.99765 
   31200    135.26863    -387.6784    127769.34   -34034.324    2551.1102   -36585.434    130.39082      239.934 
   31250    135.36581   -421.05573    127721.05   -34066.672     2552.943   -36619.615    130.82374    240.10638 
   31300    138.27084   -391.83727    127656.97   -34000.836    2607.7308   -36608.566    131.00119    245.25922 
   31350    139.15137   -270.76542    127709.73   -33973.202    2624.3371   -36597.539    130.85618    246.82105 
   31400    134.70179   -432.56508    127722.35   -34010.763    2540.4199   -36551.183      131.007    238.92858 
   31450    137.93548   -316.58454    127669.81   -33979.184    2601.4059    -36580.59    131.06183    244.66436 
   31500    136.11484   -710.74916    127600.55   -33982.908    2567.0694   -36549.977    131.12022    241.43498 
   31550    135.60137   -240.91394    127551.83   -33977.108    2557.3856   -36534.494    131.25146    240.52422 
   31600     137.9853   -158.09118    127531.53   -33990.307    2602.3456   -36592.652     131.4521    244.75274 
   31650    135.18303    -351.7214    127521.12   -34000.576    2549.4958   -36550.072    131.87508    239.78218 
   31700    131.06372   -210.04593    127472.12   -34059.981    2471.8073   -36531.788    132.17679    232.47551 
   31750    134.52013   -233.54872       127440   -34033.927    2536.9939   -36570.921    132.43687    238.60636 
   31800    133.22457   -284.71932    127396.14   -34017.741    2512.5601   -36530.301    132.65067    236.30834 
   31850    135.40451   -317.16075    127444.46   -33978.341    2553.6729   -36532.014    132.96122    240.17503 
   31900    138.66487   -322.86524    127472.86   -33917.866     2615.162   -36533.028    133.39941    245.95813 
   31950    137.62168    -70.33041    127479.56   -33940.771    2595.4878   -36536.259    133.75266    244.10776 
   32000    137.99791   -293.41786    127495.29   -33895.128    2602.5834   -36497.711    133.79091     244.7751 
   32050    136.72119   -363.14585    127516.84     -33909.8    2578.5049   -36488.305    134.37936     242.5105 
   32100    135.83243   -287.79517    127522.68   -33952.082    2561.7433   -36513.825    134.43032    240.93406 
   32150    133.95188   -289.83796     127421.5   -33971.096     2526.277   -36497.373    134.54767    237.59842 
   32200    137.77247   -120.19754    127431.33   -33944.313    2598.3317   -36542.645    135.01894    244.37523 
   32250    133.81904    -264.5634    127477.96   -33960.061    2523.7715   -36483.832    135.47333    237.36278 
   32300    134.38016   -363.12098    127406.79   -33928.469     2534.354   -36462.823     135.7388    238.35808 
   32350    137.77716   -563.17115    127385.24   -33936.639    2598.4201    -36535.06    136.12379    244.38354 
   32400    133.67281   -43.231293    127260.81   -33992.179    2521.0138   -36513.193    136.28202    237.10341 
   32450    135.53356   -333.45758    127237.09   -33958.134    2556.1067   -36514.241    136.46515    240.40394 
   32500    137.39058   -39.756326     127248.5   -33930.648    2591.1294   -36521.778    136.47667    243.69784 
   32550    136.00988   -453.76556    127220.44   -33957.042    2565.0899   -36522.132    136.65698    241.24881 
   32600    136.28418   -261.51064    127206.51   -33983.917    2570.2631   -36554.181     137.0195    241.73536 
   32650    135.18613   -159.94978    127277.32   -34010.964    2549.5544   -36560.519    136.99354    239.78768 
   32700    134.52681   -278.82422    127296.86   -34082.506    2537.1198   -36619.626    137.01898     238.6182 
   32750    134.80691   -35.176001    127364.04   -34016.324    2542.4024   -36558.726    137.33855    239.11503 
   32800      132.688   -116.01066    127453.12   -34078.123    2502.4406   -36580.564    137.52802    235.35659 
   32850    133.23936    109.21852     127484.6   -34089.276    2512.8391   -36602.115     137.8094    236.33458 
   32900    130.59151   -28.635839    127650.66   -34139.413    2462.9017   -36602.314    138.12714    231.63792 
   32950    132.06565   -32.555789    127717.93   -34131.549    2490.7033   -36622.253    138.52767    234.25269 
   33000    134.20143   -435.44365    127772.21   -34062.599    2530.9834   -36593.583     138.6051    238.04106 
   33050    132.33122   -398.89088    127790.62   -34084.331    2495.7119   -36580.043    138.39274    234.72375 
   33100    135.01847   -15.404213    127870.35   -34021.338    2546.3923   -36567.731    138.84813    239.49029 
   33150    133.89778    -263.6708    127954.36   -34003.827    2525.2565   -36529.084    139.22129    237.50245 
   33200     134.4166   -196.58065    128022.67   -33996.991    2535.0414   -36532.032    139.18163    238.42272 
   33250    139.02578   -284.28383    128079.75   -33954.786    2621.9685   -36576.755    139.32019    246.59829 
   33300    135.61432   -343.10918    128050.74   -33988.688    2557.6298   -36546.318     139.4753    240.54718 
   33350    137.13002   -297.08118    127980.96   -34034.711    2586.2154   -36620.926    139.93302    243.23568 
   33400       136.98   -201.94988    128044.23   -34039.836    2583.3861   -36623.222     140.0955    242.96958 
   33450    134.00647   -275.60098    127943.04   -34068.168    2527.3065   -36595.474     140.2663    237.69525 
   33500    134.17316   -340.01437    127986.86   -34127.973    2530.4501   -36658.423    140.65202     237.9909 
   33550    136.29852    -242.4156    128012.62   -34063.557    2570.5335   -36634.091     140.6235    241.76078 
   33600    132.06543   -402.35653    127903.48   -34087.234    2490.6991   -36577.933    140.58907     234.2523 
   33650    135.25341   -479.31919    127841.13   -34105.998    2550.8232   -36656.821    140.68183    239.90701 
   33700    134.06862   -231.47132    127791.25   -34086.871    2528.4786    -36615.35    140.56316    237.80549 
   33750    134.72876   -121.77132    127773.31   -34064.363    2540.9285   -36605.291     140.5437    238.97641 
   33800    132.41946    -600.3749     127714.3    -34081.68     2497.376   -36579.056     140.8966    234.88026 
   33850    134.92755   -321.36322    127650.99   -34097.984    2544.6777   -36642.661    141.05171    239.32902 
   33900    136.62962   -444.98862    127731.54   -34112.132    2576.7779    -36688.91    141.26493    242.34808 
   33950    133.09165   -557.66871    127731.26   -34099.223    2510.0533   -36609.276    141.56042    236.07257 
[...]
   92000    136.79012   -387.24425    127653.93   -33974.831    2579.8048   -36554.636    375.07201    242.63276 
   92050    135.56638   -243.59202    127603.97   -33979.293    2556.7257   -36536.019    374.99781    240.46215 
   92100    133.87281   -216.15433    127598.99   -34004.814    2524.7857     -36529.6    375.09056    237.45817 
   92150    136.72707   -298.97223     127585.9   -33948.291    2578.6158   -36526.907    375.20457    242.52093 
   92200    138.75071   -172.49564    127528.82   -33950.322    2616.7808   -36567.103    375.43134    246.11038 
   92250    138.57247   -286.89569    127460.95   -33925.646    2613.4194   -36539.065    375.86376    245.79424 
   92300    138.73694    -381.8544    127528.73    -33967.93    2616.5211   -36584.451    375.64709    246.08596 
   92350    134.93351   -333.87797    127435.82   -33984.495      2544.79   -36529.285    376.09481    239.33959 
   92400    136.27693   -395.71251    127441.99   -33996.383    2570.1264    -36566.51    376.67641    241.72249 
   92450    132.96024   -138.57336    127386.71    -34016.49    2507.5749   -36524.065    376.49612    235.83948 
   92500    134.91472   -325.08424    127315.21   -34042.692    2544.4357   -36587.128    376.51366    239.30626 
   92550    136.06142   -403.02329    127351.61    -34048.53    2566.0619   -36614.592    376.72338    241.34023 
   92600    138.17979   -312.18021    127288.57   -34062.202    2606.0136   -36668.216    376.86821    245.09771 
   92650    134.80125   -258.49934    127232.62    -34046.06    2542.2957   -36588.355    376.64342      239.105 
   92700    136.75349   -164.93057    127305.39   -34024.517    2579.1141   -36603.631    376.65502     242.5678 
   92750    135.44667   -371.94174     127346.8   -34019.591     2554.468   -36574.059    376.25596    240.24981 
   92800    135.25841   -234.18449    127419.94     -33965.8    2550.9176   -36516.718    376.58437    239.91589 
   92850    133.09873    -122.3213     127441.8   -34004.501    2510.1868   -36514.688    376.69237    236.08513 
   92900    134.15195   -365.89903    127391.54   -34035.892    2530.0501   -36565.942    377.59955    237.95329 
   92950    133.30014   -411.50918    127277.03   -34004.292    2513.9854   -36518.278    377.77615    236.44239 
   93000    135.94312   -497.48524    127219.19   -33984.663    2563.8308   -36548.493    377.82002    241.13039 
   93050    137.60674   -339.10122    127219.44   -33916.677     2595.206   -36511.883     377.3984    244.08125 
   93100    140.84505   -194.81818     127206.3   -33941.863    2656.2792   -36598.143    377.59962    249.82524 
   93150    135.42568    62.489875    127253.12   -34019.627    2554.0721   -36573.699    377.73578    240.21258 
   93200     132.6187    27.173158    127325.48   -34026.268    2501.1336   -36527.402    377.82305    235.23367 
   93250    135.00172   -204.00963    127430.13   -34012.154    2546.0764    -36558.23    378.59813    239.46058 
   93300    134.95147   -504.42913    127448.26   -34046.085    2545.1288   -36591.213    379.38451    239.37145 
   93350    134.96402   -383.80888    127326.87    -34053.21    2545.3654   -36598.575    379.78852     239.3937 
   93400     136.0727   -117.26265     127385.5   -34064.397    2566.2747   -36630.672    379.92064    241.36024 
   93450      134.848   -78.694555    127421.24   -34040.885    2543.1773   -36584.063    379.64574    239.18791 
   93500    134.14675   -33.696407    127440.48   -34086.831    2529.9521   -36616.783    380.20409    237.94407 
   93550    134.39235   -143.41274    127426.35   -34096.885    2534.5841   -36631.469    380.66618    238.37971 
   93600     135.6013   -267.95553    127428.14   -34047.118    2557.3843   -36604.502     381.0385    240.52409 
   93650    134.22821   -121.94324    127497.28   -34062.772    2531.4884    -36594.26    380.70864    238.08856 
   93700     136.5377    -171.5128    127495.18   -34045.576    2575.0443    -36620.62    381.13881    242.18503 
   93750    137.33312   -276.47173    127542.56   -34027.059    2590.0457   -36617.105    381.50008    243.59593 
   93800    137.13975   -291.50081    127563.49   -34072.321    2586.3988    -36658.72    381.46517    243.25293 
   93850    134.50556    67.209369    127591.37   -34105.226    2536.7191   -36641.945    381.98282    238.58052 
   93900    133.21014   -556.28888    127591.52   -34150.529    2512.2879   -36662.817    382.39358    236.28274 
   93950    134.67143   -483.80162    127477.52   -34164.387    2539.8473   -36704.234    382.30818    238.87472 
   94000    134.02246    -363.3395    127449.66   -34122.868    2527.6081   -36650.476    382.51287    237.72361 
   94050    133.64642   -254.43514     127406.9   -34119.863     2520.516   -36640.379    382.82555     237.0566 
   94100    135.31403   -344.54199    127332.41   -34102.846    2551.9665   -36654.813    382.81192    240.01455 
   94150    135.65697   -139.41689    127352.01   -34095.494    2558.4343   -36653.928    383.12277    240.62284 
   94200    134.77852   -543.77189    127397.75   -34058.858    2541.8669   -36600.725    383.32547    239.06467 
   94250    135.99997   -144.23022     127374.2   -34097.512     2564.903   -36662.415    382.89204    241.23123 
   94300    134.06945   -496.85814       127369   -34131.832    2528.4943   -36660.326    383.33923    237.80696 
   94350    135.84376   -351.29912    127360.15   -34188.924     2561.957    -36750.88    383.68025    240.95416 
   94400    132.11713   -727.11222     127269.2   -34186.225    2491.6743   -36677.899    383.99568    234.34401 
   94450    133.91418   -222.77909    127235.26   -34183.928    2525.5659   -36709.494    384.23722    237.53155 
   94500    132.04444   -185.74609    127305.82   -34155.272    2490.3034   -36645.576    384.26732    234.21508 
   94550    136.74994   -175.41974    127389.33   -34102.415    2579.0471   -36681.462    384.71635     242.5615 
   94600    133.85024   -490.93514    127304.62   -34077.728      2524.36   -36602.088    384.63014    237.41813 
   94650     138.5116   -334.11349    127244.41   -34025.293    2612.2713   -36637.564    384.72174    245.68626 
   94700    134.92099   -221.03265    127232.78   -34024.881    2544.5538   -36569.435    385.05701    239.31737 
   94750    135.94979   -337.27684    127242.82   -34004.746    2563.9567   -36568.702    385.24062    241.14223 
   94800     137.5631   -195.59186    127253.86   -34014.405    2594.3831   -36608.788    385.61771    244.00386 
   94850     138.2223   -483.69114    127177.74   -34012.673    2606.8152   -36619.489    385.84362    245.17311 
   94900    135.26785   -533.54268    127203.17   -34022.271    2551.0956   -36573.366    385.91901    239.93263 
   94950    135.93125   -362.46681    127149.81   -34073.882     2563.607   -36637.489    386.09074    241.10934 
   95000    136.17379    -407.7755    127102.32   -34089.651    2568.1813   -36657.832    385.89425    241.53956 
   95050    134.31923   -57.474267    127099.73   -34086.867    2533.2049   -36620.072    386.12822       238.25 
   95100    138.51654   -223.45485     127167.1   -34085.819    2612.3645   -36698.183    385.98494    245.69503 
   95150    133.42597   -329.58136    127173.91   -34125.085    2516.3584   -36641.443    386.00906    236.66557 
   95200    135.04579   -352.91692    127183.99   -34068.938    2546.9076   -36615.846    386.52758    239.53875 
   95250    135.28083   -59.368229     127252.7   -34085.421    2551.3404   -36636.762    386.94363    239.95566 
   95300    132.90659   -196.43388    127399.32   -34055.761    2506.5632   -36562.324     387.5066    235.74433 
   95350    134.29802     139.8475    127527.52   -34061.867    2532.8049   -36594.672    387.78099    238.21238 
   95400     135.2483   -375.81947    127649.95    -34087.47    2550.7269   -36638.197      388.354    239.89796 
   95450    134.21352   -361.20554    127582.21   -34102.169    2531.2113    -36633.38    388.69562     238.0625 
   95500    135.15408   -286.20338    127580.48   -34074.253    2548.9499   -36623.203    389.01521    239.73083 
   95550    136.65466   -110.40583    127564.61   -34042.604    2577.2501   -36619.854    389.17558    242.39249 
   95600    134.88379   -66.288608    127559.61   -34048.032    2543.8524   -36591.884    389.91394     239.2514 
   95650    136.94069   -204.91739     127417.9   -34041.617    2582.6447   -36624.262    389.67263    242.89985 
   95700    136.89282   -204.30072     127441.6    -34058.49    2581.7418   -36640.232     389.6394    242.81494 
   95750    135.03308   -139.56022    127486.02   -34078.124    2546.6679   -36624.792    389.87596    239.51621 
   95800    134.53806   -379.12802    127457.09   -34047.766     2537.332   -36585.098    390.12229    238.63815 
   95850    136.26221   -363.80034    127427.23   -34046.926    2569.8488   -36616.775    390.80877    241.69639 
   95900    135.47339   -231.69873    127398.18   -34072.217    2554.9719   -36627.189    391.04874     240.2972 
   95950    137.07512    -329.5354    127468.34   -34096.689    2585.1799   -36681.868      391.001    243.13829 
   96000    135.84294   -368.39728    127451.97   -34107.012    2561.9414   -36668.954    391.09681     240.9527 
   96050    136.28568   -255.87119    127456.13   -34081.053    2570.2915   -36651.344    391.15883    241.73802 
   96100    135.89282   -71.930416    127479.97     -34051.7    2562.8822   -36614.582    391.03508    241.04118 
   96150    132.36621   -90.294768    127419.96   -34089.817    2496.3719   -36586.189    391.52379    234.78582 
   96200    135.11948   -213.65496    127433.32   -34079.888    2548.2974   -36628.185    392.07914    239.66946 
   96250    135.33373   -292.21852    127444.61   -34060.705    2552.3379   -36613.043    392.10521    240.04948 
   96300    135.17404   -365.23885    127432.25   -34084.689    2549.3264   -36634.015    392.53115    239.76624 
   96350    136.66215    76.850805    127575.04   -34051.603    2577.3914   -36628.994    392.51738    242.40578 
   96400    133.99203   -242.79475    127598.07   -34063.531    2527.0342   -36590.566    392.47077    237.66964 
   96450    134.94567   -62.302764    127631.45   -34082.507    2545.0193   -36627.526    392.38148    239.36116 
   96500    137.42253   -120.88362    127604.25   -34046.634     2591.732   -36638.366    392.33344    243.75452 
   96550    136.89982   -161.45892    127549.64   -34096.809    2581.8739   -36678.683    392.26163    242.82736 
   96600    137.27196   -121.24258    127532.72    -34118.74    2588.8922   -36707.632    392.20198    243.48743 
   96650    135.37939   -347.33026    127599.54   -34183.142    2553.1991   -36736.341    392.92925    240.13047 
   96700    135.69623   -99.197551    127689.19   -34103.958    2559.1746   -36663.133    393.17785    240.69247 
   96750    133.60453    -145.8931    127778.61   -34138.647    2519.7259   -36658.373    393.45915    236.98229 
   96800    132.45276    89.416922    127864.93   -34138.392    2498.0042   -36636.396    393.05256    234.93934 
   96850    137.55497     -141.455    127914.48   -34148.333    2594.2297   -36742.563    393.20668    243.98943 
   96900    133.87737   -435.71185    127983.06   -34136.648    2524.8718   -36661.519    393.89736    237.46626 
   96950    136.78794   -237.68822     128023.5   -34108.855    2579.7639   -36688.619     394.0217    242.62891 
   97000    136.34889   -387.98946    128003.65   -34147.399    2571.4834   -36718.883    394.71334    241.85013 
   97050    136.01723   -271.55948    127906.95   -34111.597    2565.2286   -36676.825    394.50967    241.26185 
   97100    137.32322   -60.121123    127938.45   -34107.553     2589.859   -36697.412    394.90578    243.57836 
   97150    134.39457   -121.89769    127997.24    -34156.28    2534.6258   -36690.906    394.81457    238.38364 
   97200    134.67336   -517.28937     127987.6   -34149.075    2539.8837   -36688.959    394.77856    238.87815 
   97250    133.66823    -400.7536    128043.23    -34147.34    2520.9273   -36668.268     395.1342    237.09528 
   97300    137.53609   -258.32328     128002.1   -34152.629    2593.8736   -36746.502    394.81976    243.95594 
   97350    134.28075   -335.96515    128004.59   -34149.685    2532.4792   -36682.165    395.27477    238.18175 
   97400    133.53164   -317.77444    127946.36   -34162.838    2518.3513    -36681.19    395.30561    236.85301 
   97450     133.4368   -355.22042     127962.4   -34159.069    2516.5628   -36675.632    395.30018    236.68479 
   97500    133.80245   -544.74924    127984.72   -34143.712    2523.4588   -36667.171    395.53919    237.33337 
   97550    135.22744   -372.04206    127959.13   -34155.293    2550.3333   -36705.626     395.4491    239.86094 
   97600    132.86656   -213.24909    127879.18   -34149.582    2505.8082    -36655.39    395.37401    235.67332 
   97650    133.54385    47.343586    127866.27   -34166.705    2518.5817   -36685.287    395.42192    236.87467 
   97700    132.38394   -438.37609    127918.63   -34118.909    2496.7063   -36615.615    395.80479    234.81727 
   97750    134.04565   -291.78206    127871.05   -34104.805    2528.0453    -36632.85    396.29735    237.76474 
   97800    133.90635   -336.34107    127899.76   -34074.051    2525.4183   -36599.469    396.26242    237.51766 
   97850    138.03259   -197.29824     127828.6   -34080.675    2603.2373   -36683.912    396.16355    244.83661 
   97900    132.76731   -1.0178731    127799.56   -34093.099    2503.9364   -36597.036    396.24042    235.49728 
   97950    136.80166   -164.41997       127786   -34097.772    2580.0226   -36677.795    396.18323    242.65325 
   98000    136.09789   -66.691417    127846.96   -34050.491    2566.7497    -36617.24    396.40061    241.40491 
   98050    135.73975   -88.636659    127944.96     -34056.6    2559.9954   -36616.595    396.74686    240.76967 
   98100    135.40232   -272.78193    127957.58    -34092.73    2553.6316   -36646.361    397.17094    240.17115 
   98150    135.82711    -397.8318    127909.98    -34124.49    2561.6429   -36686.133    398.24396    240.92462 
   98200    132.85758   -124.68688    127895.67   -34125.209    2505.6389   -36630.848      397.949    235.65739 
   98250    132.04491   -321.17647       127850   -34149.184    2490.3122   -36639.496    398.21769    234.21591 
   98300    134.84348   -201.93774    127775.46   -34146.716    2543.0921   -36689.808    398.10698     239.1799 
   98350    132.05831   -152.42304    127785.16   -34144.172     2490.565   -36634.737    398.10527    234.23968 
   98400    134.47786    -84.96583    127714.56   -34098.524    2536.1967   -36634.721    398.17261    238.53138 
   98450    134.96559   -22.246638    127696.09   -34117.091    2545.3951   -36662.486    398.48192    239.39649 
   98500    134.74964    -137.8393    127622.89   -34151.336    2541.3223   -36692.658    398.50419    239.01345 
   98550     134.8107    56.093962     127577.7   -34136.892    2542.4739   -36679.366    398.45445    239.12175 
   98600    136.85645    57.223887     127611.3   -34053.054    2581.0558    -36634.11     398.6347    242.75041 
   98650    133.85462   -205.21566    127644.41   -34104.148    2524.4426    -36628.59    398.60962     237.4259 
   98700    134.67115   -160.80013    127585.39   -34136.947     2539.842   -36676.789    398.94598    238.87423 
   98750    135.29955   -30.693617     127600.2   -34105.939    2551.6934   -36657.633    399.54014    239.98886 
   98800    135.79056   -59.337594    127596.63   -34123.779    2560.9537   -36684.733    399.68214     240.8598 
   98850    133.33527    -172.6012       127594   -34153.812     2514.648    -36668.46    399.61035     236.5047 
   98900    133.31857   -207.26402    127608.16   -34138.985    2514.3329   -36653.318    399.65849    236.47508 
   98950    135.50402   -294.45813    127573.11   -34144.089    2555.5496   -36699.639    399.82865    240.35153 
   99000    134.23491   -245.29885    127491.26   -34194.117    2531.6147   -36725.731    399.73836    238.10044 
   99050    132.95658   -58.716984    127499.49   -34187.539     2507.506   -36695.045    399.85203      235.833 
   99100    134.86867   -525.23729    127452.05   -34136.282    2543.5671   -36679.849    399.51077    239.22457 
   99150    136.25082   -55.450129    127496.08   -34100.415    2569.6339   -36670.049    399.97788    241.67618 
   99200    134.25785    -172.5188    127564.25   -34129.903    2532.0474    -36661.95    400.41753    238.14114 
   99250    133.38771    -179.6739     127668.5   -34094.935    2515.6369   -36610.572    400.57389    236.59772 
   99300    135.28352   -258.76093    127712.81   -34122.273    2551.3911   -36673.664    400.70095    239.96042 
   99350    135.20822     108.0351    127820.73   -34088.801     2549.971   -36638.772    400.73728    239.82686 
   99400     137.0159    70.006134    127931.42   -34072.232     2584.063   -36656.295    400.69468    243.03325 
   99450    132.85505   -292.03669    127925.49   -34127.035     2505.591   -36632.626     401.2687    235.65289 
   99500    130.14801   -477.50162    127871.28   -34208.835    2454.5375   -36663.373    401.39252    230.85126 
   99550    133.58076   -392.32908    127794.54   -34155.706    2519.2777   -36674.983    401.01951    236.94013 
   99600    131.39438   -259.48719    127742.37   -34170.253    2478.0435   -36648.296    400.65744    233.06202 
   99650     133.4285   -369.11429    127632.95   -34175.923    2516.4061   -36692.329    400.75513    236.67006 
   99700     133.9566   -237.66931    127592.11   -34157.393    2526.3659   -36683.759    401.28996    237.60679 
   99750    134.88371   -185.96526    127641.25   -34146.665    2543.8508   -36690.516    401.53632    239.25125 
   99800    132.73373   -127.67117    127732.93   -34148.531    2503.3031   -36651.834    402.06401    235.43771 
   99850    131.64679   -180.66045    127702.77   -34122.573    2482.8039   -36605.377    402.40626    233.50974 
   99900    137.70315   -253.25431    127666.19    -34040.53    2597.0242   -36637.554    402.10994    244.25226 
   99950    136.84569   -194.11067    127627.39    -34054.05    2580.8529   -36634.903     402.1382    242.73133 
  100000    133.94638   -23.326291    127759.23   -34035.924    2526.1732   -36562.097    402.08035    237.58866 
Loop time of 96.0314 on 64 procs for 100000 steps with 6328 atoms

Performance: 449.853 ns/day, 0.053 hours/ns, 1041.326 timesteps/s
99.5% CPU use with 64 MPI tasks x no OpenMP threads

MPI task timing breakdown:
Section |  min time  |  avg time  |  max time  |%varavg| %total
---------------------------------------------------------------
Pair    | 18.036     | 39.608     | 63.919     | 337.5 | 41.25
Neigh   | 0.89501    | 1.8778     | 4.1334     |  78.6 |  1.96
Comm    | 16.897     | 40.624     | 64.349     | 318.5 | 42.30
Output  | 0.21071    | 0.21329    | 0.22851    |   0.5 |  0.22
Modify  | 9.7225     | 12.31      | 17.734     |  84.5 | 12.82
Other   |            | 1.398      |            |       |  1.46

Nlocal:    98.875 ave 171 max 59 min
Histogram: 30 2 0 9 7 0 0 0 9 7
Nghost:    767.125 ave 1076 max 486 min
Histogram: 32 0 0 0 0 0 0 0 15 17
Neighs:    0 ave 0 max 0 min
Histogram: 64 0 0 0 0 0 0 0 0 0
FullNghs:  8126.53 ave 18993 max 2282 min
Histogram: 32 0 0 1 15 0 0 0 3 13

Total # of neighbors = 520098
Ave neighs/atom = 82.1899
Neighbor list builds = 6014
Dangerous builds = 0

write_data		${DIR}/data.eq-${NAME}-${TEMP}
write_data		run_17/data.eq-${NAME}-${TEMP}
write_data		run_17/data.eq-het_freeze_17-${TEMP}
write_data		run_17/data.eq-het_freeze_17-240
undump          1

reset_timestep  0

unfix           2
unfix           3
unfix           4


################################################
#######         Run Simulation         #########
################################################

log				${DIR}/log.run_${NAME}
log				run_17/log.run_${NAME}
log				run_17/log.run_het_freeze_17
