
# Create simulation box and atoms

read_data data.ML_graphite_m1000atm_250K
  orthogonal box = (0 0 1.04861) to (49.22 49.0196 38.9514)
  5 by 4 by 4 MPI processor grid
  reading atoms ...
  5031 atoms
  reading velocities ...
  5031 velocities
group water type 1
2271 atoms in group water
group graphite type 2
2760 atoms in group graphite

# Define potential

pair_style sw
pair_coeff * * MLC_e.sw mW C


# Fix graphite atoms in place

fix 5 graphite setforce 0.0 0.0 0.0
velocity graphite set 0.0 0.0 0.0


# Equilibration of molecular water

# Add velocity/set timestep

velocity	    water create ${TEMP} ${SEED} rot yes dist gaussian
velocity	    water create 250 ${SEED} rot yes dist gaussian
velocity	    water create 250 17803 rot yes dist gaussian
timestep	    5.0

# Define output

compute			1 water msd
compute			3 water temp
thermo	    	50
thermo_style	custom step temp press vol etotal ke pe c_1[4] c_3

# Neighbor lists

neigh_modify    delay 0 every 1 check yes

# Set fixes

fix             1 water momentum 10 linear 1 1 1 rescale
fix             2 water nve
fix             3 water temp/csvr ${TEMP} ${TEMP} 500.0 ${SEED}
fix             3 water temp/csvr 250 ${TEMP} 500.0 ${SEED}
fix             3 water temp/csvr 250 250 500.0 ${SEED}
fix             3 water temp/csvr 250 250 500.0 17803
fix             4 water press/berendsen z ${PRES} ${PRES} 1000.0 modulus 20000
fix             4 water press/berendsen z -1000 ${PRES} 1000.0 modulus 20000
fix             4 water press/berendsen z -1000 -1000 1000.0 modulus 20000

# Run 0.5 ns equilibration

dump		    1 all atom 2000 ${DIR}/eq.${NAME}-${TEMP}.dump
dump		    1 all atom 2000 run_12/eq.${NAME}-${TEMP}.dump
dump		    1 all atom 2000 run_12/eq.het_freeze_12-${TEMP}.dump
dump		    1 all atom 2000 run_12/eq.het_freeze_12-250.dump

reset_timestep  0

run	            100000
Neighbor list info ...
  update every 1 steps, delay 0 steps, check yes
  max neighbors/atom: 2000, page size: 100000
  master list distance cutoff = 6.67472
  ghost atom cutoff = 6.67472
  binsize = 3.33736, bins = 15 15 12
  1 neighbor lists, perpetual/occasional/extra = 1 0 0
  (1) pair sw, perpetual
      attributes: full, newton on
      pair build: full/bin/atomonly
      stencil: full/bin/3d
      bin: standard
Per MPI rank memory allocation (min/avg/max) = 4.069 | 4.188 | 4.476 Mbytes
Step Temp Press Volume TotEng KinEng PotEng c_1[4] c_3 
       0    112.82306   -1433.2777    91449.793   -21655.009    1691.6097   -23346.618            0          250 
      50    111.14189    -1517.531    91507.869   -21689.074    1666.4031   -23355.477   0.49995842    246.27476 
     100    112.68691   -1411.3898    91474.715   -21631.629    1689.5683   -23321.197   0.81099961    249.69831 
     150    114.49174   -1257.9923    91437.624   -21634.361     1716.629    -23350.99   0.97315918    253.69756 
     200    112.82747   -1650.8234     91397.95   -21650.366    1691.6757   -23342.041    1.1999127    250.00976 
     250    116.00458   -1357.9746    91251.393   -21619.166    1739.3117   -23358.478    1.3964451    257.04979 
     300    113.22418   -1338.3992    91225.605     -21621.6    1697.6239   -23319.224    1.6074676    250.88883 
     350    112.77576    -1639.645    91136.807   -21616.611    1690.9004   -23307.511    1.8474866    249.89518 
     400    111.32741   -1600.5445    91139.025   -21636.569    1669.1846   -23305.753    2.0755036    246.68584 
     450    109.67201   -1753.6285    91098.998   -21666.903    1644.3644   -23311.268    2.3852819     243.0177 
     500    111.12041   -1373.1988    90994.757   -21646.259    1666.0811    -23312.34    2.5070841    246.22717 
     550     112.1083   -1078.4593    90907.965   -21679.408    1680.8929     -23360.3    2.6727245    248.41618 
     600    116.61375   -1171.0894    90929.583   -21684.102    1748.4452   -23432.547    2.8787448    258.39962 
     650    113.90392   -1290.4491    90973.206   -21596.568    1707.8155   -23304.383     3.018509    252.39502 
     700    114.49399   -1110.8205    91041.129   -21604.196    1716.6627   -23320.859    3.1614856    253.70253 
     750    116.24124   -1141.8464    91057.387    -21616.57      1742.86    -23359.43    3.2604762    257.57419 
     800    113.81309   -968.99291    91198.771   -21635.285    1706.4536   -23341.738    3.4051672    252.19375 
     850    114.99391   -1245.3308    91273.834   -21592.997    1724.1582   -23317.155    3.5584359    254.81029 
     900    112.89958   -1213.7362    91279.744   -21622.498     1692.757   -23315.256    3.7203195    250.16956 
     950    111.85546   -1539.0324    91279.225   -21658.374    1677.1019   -23335.476    3.9524676    247.85592 
    1000    113.73982   -1319.6321    91211.332   -21653.975    1705.3551   -23359.331    4.1392034     252.0314 
    1050    111.86039   -1389.4501    91182.533   -21682.685    1677.1758   -23359.861    4.3657085    247.86685 
    1100      112.339   -1209.2038     91245.86   -21674.012     1684.352   -23358.364    4.5878725    248.92739 
    1150    114.23735   -1154.6046    91274.349   -21666.783    1712.8148   -23379.598    4.7496647    253.13386 
    1200     113.4508   -1240.2037    91312.919   -21661.285    1701.0217   -23362.306    4.8873621    251.39099 
    1250    114.98194   -1510.4013    91230.213   -21630.579    1723.9787   -23354.558    5.0567244    254.78376 
    1300    113.70596   -1301.3735    91140.939   -21665.448    1704.8474   -23370.295     5.145738    251.95637 
    1350      112.201   -1280.7309    91062.726   -21671.314    1682.2828   -23353.597    5.2231544    248.62159 
    1400    112.30514   -1357.5235    91096.028   -21671.099    1683.8442   -23354.943    5.3756511    248.85236 
    1450    109.45204   -1669.3783    91061.279   -21683.168    1641.0663   -23324.234     5.543944    242.53028 
    1500    112.00838   -1655.9382    90993.539   -21685.715    1679.3947    -23365.11    5.7621288    248.19477 
    1550    111.79945   -1451.0578     90907.81   -21632.127    1676.2622   -23308.389    5.9552703    247.73182 
    1600     115.1275   -1382.3279    90909.852   -21617.968    1726.1612    -23344.13    6.1582702    255.10631 
    1650    117.12993   -1329.7316    90942.748   -21609.288    1756.1847   -23365.472    6.4182394    259.54342 
    1700    114.14485   -1296.5435     91010.73   -21570.246     1711.428   -23281.674    6.6299796    252.92891 
    1750    113.81802   -1315.1204    91038.968   -21588.504    1706.5276   -23295.031    6.8393432    252.20469 
    1800    115.38382   -1238.2698    91035.648   -21577.451    1730.0044   -23307.456    6.8968973    255.67428 
    1850    117.04402   -1145.2214    91116.044   -21546.027    1754.8965   -23300.924     7.046579    259.35305 
    1900    112.97111   -1560.2508    91126.343   -21588.389    1693.8295   -23282.218    7.1435037    250.32806 
    1950    113.81247   -1402.3473    91090.375   -21626.993    1706.4444   -23333.437    7.3038127    252.19239 
    2000    116.53235   -1335.9966     91073.78   -21603.702    1747.2248   -23350.927    7.4998374    258.21926 
    2050    115.22323   -1598.7966    91050.559   -21577.849    1727.5966   -23305.445    7.8453009    255.31843 
    2100    114.93068   -1532.4594    90998.053   -21561.091    1723.2102   -23284.301    8.1729619    254.67018 
    2150    115.40712   -1346.8862     90982.82   -21580.194    1730.3538   -23310.548    8.4575868    255.72592 
    2200     112.4988   -1076.3854    91028.935   -21601.713    1686.7479   -23288.461     8.653278    249.28148 
    2250    113.71161   -1285.7488    91138.139    -21603.11    1704.9322   -23308.043    8.8212516     251.9689 
    2300     114.0579    -1278.216    91144.894   -21603.901    1710.1243   -23314.025    8.9066474    252.73623 
    2350    114.10502   -1372.0634    91133.276   -21576.876    1710.8308   -23287.707    9.0830295    252.84065 
    2400    112.46327   -1261.3103     91196.77   -21602.363    1686.2152   -23288.578    9.2969742    249.20276 
    2450    113.06858   -1542.0912    91200.876       -21657    1695.2908   -23352.291    9.4286127    250.54403 
    2500    111.23658   -1361.2154    91149.038   -21639.599    1667.8228   -23307.422    9.4988531    246.48457 
    2550    109.53984   -1391.1564    91223.942   -21635.702    1642.3829   -23278.085    9.6126893    242.72485 
    2600     113.2963   -1647.7214    91123.298    -21704.91    1698.7051   -23403.615    9.8152121    251.04862 
    2650    113.30752    -1436.155    91088.004   -21696.546    1698.8734    -23395.42    10.006372    251.07348 
    2700    111.10795   -1659.5704    91030.204   -21719.077    1665.8941   -23384.971    10.338022    246.19954 
    2750    110.21134   -1313.4354    91009.482   -21686.727    1652.4509   -23339.178    10.515653    244.21279 
    2800    113.70399   -1395.7449    91070.941   -21649.263    1704.8179   -23354.081    10.679043    251.95202 
    2850    115.48281   -1437.7187    91105.667   -21647.252    1731.4886   -23378.741    10.858367    255.89363 
    2900    113.60297   -1387.2911     91098.71    -21627.82    1703.3033   -23331.123    11.043873    251.72817 
    2950    113.11973   -1291.6912     91120.25   -21646.676    1696.0578   -23342.733    11.268934    250.65737 
    3000    113.67036   -1271.5585    91167.736   -21646.333    1704.3136   -23350.646    11.402282    251.87749 
    3050    112.23432   -1287.1295    91171.028   -21679.757    1682.7824   -23362.539    11.680141    248.69542 
    3100    111.25065   -1652.9354    91096.801   -21691.107    1668.0337    -23359.14    11.857238    246.51575 
    3150    109.65907    -1201.501    91101.839   -21666.498    1644.1704   -23310.669    11.873479    242.98903 
    3200    112.30913   -1073.5136     91091.54     -21653.9    1683.9041   -23337.805    12.173738    248.86121 
    3250    114.82486   -1203.4186    91104.596   -21647.336    1721.6236    -23368.96    12.286711     254.4357 
    3300    116.54605   -1434.0607     91067.75   -21647.233    1747.4302   -23394.664    12.567661    258.24961 
    3350    115.17515   -969.45259    91103.296   -21643.903    1726.8757   -23370.779    12.883038     255.2119 
    3400    112.25191   -1235.2253    91186.669   -21646.487    1683.0462   -23329.533    13.134718    248.73441 
    3450    112.00189   -1291.8179    91187.636   -21649.796    1679.2974   -23329.093    13.550639    248.18039 
    3500     114.0175   -1307.3426    91244.299   -21574.754    1709.5184   -23284.273    13.817522     252.6467 
    3550    111.94515   -1438.8805    91185.227   -21602.089    1678.4467   -23280.536    14.044976    248.05466 
    3600    114.74072   -1566.3666    91080.295   -21609.982     1720.362   -23330.344    14.116751    254.24926 
    3650    112.33285   -1495.8656    91036.884   -21590.507    1684.2597   -23274.767     14.36856    248.91376 
    3700    111.74709   -1471.4412    91054.595   -21600.198    1675.4772   -23275.675    14.578998    247.61581 
    3750     112.7048   -1211.7441    91028.795   -21659.246    1689.8365   -23349.082    14.701024    249.73794 
    3800    114.27845   -1125.6813    91123.268   -21655.304     1713.431   -23368.735    14.962316    253.22494 
    3850    111.43933   -1041.2108      91181.4    -21629.86    1670.8628   -23300.723    15.212598    246.93385 
    3900    113.68657   -1228.7418    91247.531    -21599.85    1704.5567   -23304.407     15.50226    251.91342 
    3950    112.88764   -1440.6476    91179.106   -21575.918    1692.5779   -23268.496    15.643594    250.14309 
    4000    113.64563   -1141.8611    91183.934   -21572.069    1703.9429   -23276.012    15.577338     251.8227 
    4050    113.69322   -1398.0663    91144.147   -21575.797    1704.6563   -23280.453    15.641013    251.92814 
    4100    111.10274    -1415.498    91126.787   -21593.836    1665.8161   -23259.652    15.759445    246.18801 
    4150    116.34955   -1267.6953    91052.892   -21551.281    1744.4841   -23295.765    15.825228    257.81421 
    4200    111.48668   -1107.6473    91114.991   -21583.088    1671.5726   -23254.661    16.072657    247.03876 
    4250    115.52446   -1230.0483    91090.181   -21568.556    1732.1131   -23300.669    16.202477    255.98593 
    4300    114.85431   -1255.9325    91052.628    -21544.33    1722.0652   -23266.395    16.458839    254.50097 
    4350    112.13251   -1104.8249    91037.204   -21580.403     1681.256   -23261.659    16.422095    248.46985 
    4400    113.56937   -1421.1189    91054.215   -21546.824    1702.7995   -23249.623    16.648916    251.65372 
    4450    114.03388   -1221.4919    91123.336   -21563.893    1709.7641   -23273.657     17.04101      252.683 
    4500    116.77179   -1372.2676    91139.981   -21584.757    1750.8149   -23335.571    17.359928    258.74982 
    4550    112.46505   -1365.3299    91214.272   -21595.959    1686.2418   -23282.201    17.623771    249.20669 
    4600    111.11521   -1583.5245    91204.836   -21622.409    1666.0031   -23288.412     17.90888    246.21564 
    4650    112.78591   -1219.7497    91245.994   -21603.924    1691.0526   -23294.976     18.13971    249.91767 
    4700    112.59713   -1291.7597    91254.386   -21607.997    1688.2222   -23296.219    18.356465    249.49937 
    4750    113.07996    -1418.542    91268.372   -21598.727    1695.4615   -23294.189    18.694804    250.56925 
    4800     115.3548   -1313.0217    91221.365   -21637.296    1729.5693   -23366.865    18.757806    255.60998 
    4850    114.00432   -1184.3755    91174.027   -21607.539    1709.3209   -23316.859    18.876869    252.61751 
    4900    114.12942   -1435.2286    91189.613   -21624.317    1711.1965   -23335.513    19.137749     252.8947 
    4950    112.35666    -1206.483    91212.038   -21629.449    1684.6167   -23314.066    19.156976    248.96651 
    5000    112.60848   -895.68665    91266.194   -21641.644    1688.3923   -23330.037    19.307013    249.52451 
    5050    111.50878   -1404.2547    91343.311    -21702.62     1671.904   -23374.524     19.29611    247.08773 
    5100     111.2792   -1434.5797    91320.576   -21698.838    1668.4618   -23367.299    19.453261    246.57902 
    5150    112.16014   -1377.6132     91250.47   -21699.626    1681.6702   -23381.296    19.680334    248.53106 
    5200    111.91868   -1410.6703    91226.802   -21711.844    1678.0499   -23389.894    19.855845    247.99602 
    5250    114.65061   -1134.7986    91219.101   -21673.094    1719.0111   -23392.105    20.081456     254.0496 
    5300    112.04513   -1299.9191    91199.493   -21677.691    1679.9458   -23357.637    20.344993    248.27621 
    5350     114.0092   -1388.1388    91214.656   -21634.005    1709.3941   -23343.399     20.41082    252.62832 
    5400    112.59676   -1322.1433    91244.529   -21629.575    1688.2167   -23317.792    20.673531    249.49856 
    5450     112.2694   -1346.4538    91240.119   -21631.628    1683.3084   -23314.937    20.759022    248.77316 
    5500    114.13235   -1348.9313    91308.639   -21586.027    1711.2406   -23297.267    20.800462    252.90121 
    5550    113.15458   -1133.1946    91261.462   -21624.349    1696.5804   -23320.929    20.930155     250.7346 
    5600    109.14417   -1200.4725    91288.161   -21639.519    1636.4503    -23275.97    21.074526    241.84809 
    5650    114.89452   -1510.2259     91319.45   -21615.185     1722.668   -23337.853    21.238969    254.59005 
    5700    112.61993   -1186.8623    91294.569    -21661.87    1688.5641   -23350.435    21.357567     249.5499 
    5750    115.64591   -1467.7622    91308.117   -21625.212     1733.934   -23359.146     21.58324    256.25503 
    5800    111.41637   -1508.3795    91284.852   -21636.598    1670.5185   -23307.117    21.968698    246.88297 
    5850    113.29095   -1252.2201    91252.669   -21634.662     1698.625   -23333.287    22.119943    251.03677 
    5900    115.25176     -1324.74    91246.546   -21619.513    1728.0243   -23347.537    22.243874    255.38164 
    5950    112.73771   -1508.6348    91283.867   -21609.087    1690.3299   -23299.417    22.418571    249.81086 
    6000     115.2851   -997.83649    91344.949   -21562.596    1728.5242    -23291.12    22.580215    255.45552 
    6050     115.8642   -1129.1263    91384.025    -21573.44    1737.2069   -23310.647    22.720692    256.73873 
    6100    115.37447   -1341.3631    91397.861   -21560.061    1729.8641   -23289.925    22.955082    255.65355 
    6150    114.21378    -1316.603    91406.823    -21572.93    1712.4614   -23285.391    23.265683    253.08164 
    6200    115.95206   -1265.5304    91404.408   -21553.125    1738.5242   -23291.649    23.335894    256.93342 
    6250    113.97363    -1279.851    91415.086   -21546.899    1708.8607    -23255.76    23.272113    252.54949 
    6300     114.7871   -1136.0172    91448.845   -21545.924    1721.0574   -23266.982    23.470423    254.35202 
    6350    118.06201   -1011.8939    91509.717   -21579.941    1770.1598   -23350.101    23.733001    261.60878 
    6400    113.58128   -1383.3343    91477.378   -21618.531    1702.9781   -23321.509    23.928863    251.68011 
    6450    114.12788   -1372.3422    91460.009   -21663.707    1711.1734    -23374.88    24.138102    252.89129 
    6500    113.85412   -1511.7341    91425.706   -21655.074    1707.0689   -23362.143    24.277701    252.28469 
    6550    112.34897   -1304.2411    91411.851   -21692.238    1684.5014   -23376.739    24.357844    248.94948 
    6600    111.57816   -1357.6825    91397.863   -21703.623    1672.9444   -23376.567    24.511437    247.24148 
    6650    115.27706   -1106.2375    91339.674   -21682.763    1728.4037   -23411.167    24.644665    255.43772 
    6700    112.56599   -1035.7806    91314.742   -21696.017    1687.7552   -23383.772    24.919511    249.43036 
    6750     116.0286   -1046.3701    91304.734   -21723.333    1739.6719   -23463.005    25.041658    257.10302 
    6800    112.04294   -1280.9388    91308.978   -21695.144     1679.913   -23375.057    25.102413    248.27136 
    6850    115.94824   -1436.6844    91305.327   -21692.858     1738.467   -23431.325    25.292798    256.92495 
    6900    109.94129   -1198.7927    91303.519   -21687.178    1648.4019    -23335.58    25.350551     243.6144 
    6950    112.55436   -1429.6701    91332.193   -21662.146     1687.581   -23349.727     25.39804     249.4046 
    7000    110.16794   -1502.8899    91246.956   -21670.195    1651.8001   -23321.995    25.527507    244.11661 
    7050    115.27047   -1190.6036    91251.982   -21626.775    1728.3049    -23355.08    25.634927    255.42312 
    7100    114.45752   -963.58705    91309.296   -21597.267    1716.1159   -23313.382    25.915536    253.62172 
    7150    113.52771   -1193.7059    91382.221   -21643.314    1702.1748   -23345.488    26.294362    251.56139 
    7200    113.23583   -1063.5013    91346.538   -21669.069    1697.7985   -23366.867    26.625688    250.91463 
    7250    115.29283   -1013.5801    91461.296   -21634.307    1728.6401   -23362.947    26.790829    255.47266 
    7300    113.57974   -1387.5981    91490.352   -21612.961    1702.9549   -23315.916    26.984153    251.67669 
    7350    113.59944    -1220.568    91425.214   -21662.443    1703.2503   -23365.693    27.151725    251.72034 
    7400    112.55524   -1218.8141    91443.352   -21677.271    1687.5942   -23364.865    27.137078    249.40655 
    7450    112.24445   -1530.5388    91444.573   -21680.182    1682.9343   -23363.117    27.108229    248.71788 
    7500    112.78466   -1298.3455    91371.118   -21680.737    1691.0339   -23371.771     27.19785     249.9149 
    7550    110.10462   -1217.5434    91284.061   -21673.565    1650.8508   -23324.416    27.242204    243.97631 
    7600    111.56763   -1223.3195     91278.39   -21686.699    1672.7865   -23359.485    27.369638    247.21815 
    7650    113.01605   -1297.9712    91264.477   -21720.662    1694.5033   -23415.165     27.62016    250.42765 
    7700    111.95406   -1240.4169    91237.215   -21721.416    1678.5803   -23399.997    27.697598    248.07441 
    7750    113.10373   -1516.3534    91217.253   -21754.022    1695.8179    -23449.84    27.869162    250.62193 
    7800    110.76111    -1354.085     91190.88    -21762.68    1660.6939   -23423.373    28.137839      245.431 
    7850    112.00368   -1520.1264    91155.694   -21756.649    1679.3244   -23435.973    28.241527    248.18438 
    7900    109.30284   -1323.0426    91121.724   -21772.538    1638.8294   -23411.368    28.200383    242.19969 
    7950    112.37057    -1344.742    91080.181   -21740.359    1684.8253   -23425.184     28.30465    248.99734 
    8000    112.55993   -1396.3082    91054.764   -21699.077    1687.6644   -23386.742    28.405442    249.41693 
    8050    112.44205   -1752.9171    90915.223   -21732.882     1685.897   -23418.779    28.406079    249.15573 
    8100    113.15364   -1445.2848    90817.941   -21711.485    1696.5662   -23408.051    28.633584    250.73251 
    8150    111.90922   -1589.6509    90693.589   -21719.432     1677.908    -23397.34    28.742028    247.97506 
    8200    111.96605   -1258.1887    90609.894   -21734.002    1678.7601   -23412.762    28.830708    248.10098 
    8250    111.17446   -1307.8402    90635.984   -21697.027    1666.8915   -23363.919    28.966162    246.34693 
    8300    112.07207   -1093.2625    90679.826   -21720.812    1680.3497   -23401.161    29.133445     248.3359 
    8350    113.62484   -1351.5351    90753.551     -21703.2    1703.6311   -23406.831    29.500963    251.77663 
    8400    115.19734   -1405.4778    90791.822   -21692.429    1727.2084   -23419.638    29.882101    255.26107 
    8450    111.55265   -1176.2109    90826.457   -21677.864    1672.5618   -23350.426    30.032942    247.18495 
    8500    114.69224   -1290.0239      90835.9   -21659.325    1719.6352    -23378.96    30.286928    254.14184 
    8550    111.51286   -1443.9051    90834.602   -21668.588    1671.9652   -23340.553    30.413102    247.09678 
    8600    110.75661   -1351.4043    90862.864   -21687.471    1660.6264   -23348.097    30.602823    245.42103 
    8650     110.1844   -1779.8528    90790.227   -21686.042     1652.047   -23338.089    30.765273    244.15309 
    8700    109.90059   -1552.0855    90763.868   -21697.193    1647.7917   -23344.984    30.970627    243.52421 
    8750    117.69153   -1119.7667    90783.823   -21681.772     1764.605   -23446.377    30.950378    260.78785 
    8800    113.09207   -1507.9476    90747.244   -21698.482     1695.643   -23394.125    31.143017    250.59608 
    8850    111.18922   -1349.5441    90762.105   -21666.864    1667.1127   -23333.977    31.342793    246.37963 
    8900    112.90309   -1250.5457    90770.524    -21681.54    1692.8095   -23374.349     31.54125    250.17732 
    8950    112.14249   -1417.2132    90820.597   -21681.895    1681.4055   -23363.301    31.908101    248.49194 
    9000    113.96102   -1392.2836    90879.406   -21710.485    1708.6716   -23419.157    32.124926    252.52155 
    9050    109.78339   -1380.3187      90902.9   -21724.425    1646.0345   -23370.459     32.27591    243.26452 
    9100    110.56148   -1390.5083    90902.877   -21729.649    1657.7008   -23387.349    32.397766    244.98866 
    9150    109.81093   -1293.9173    90902.673   -21717.686    1646.4475   -23364.134    32.497614    243.32555 
    9200    110.34211   -1242.2634    90906.574   -21690.974    1654.4117   -23345.386    32.789122    244.50257 
    9250    110.83668   -1621.7102    90912.404    -21710.45     1661.827   -23372.277    32.807964    245.59846 
    9300    110.70887    -1609.464    90880.114   -21711.112    1659.9106   -23371.023    32.979924    245.31525 
    9350    110.87909   -1439.1035    90920.682   -21727.537    1662.4628       -23390    33.093892    245.69243 
    9400    114.25165    -1175.927    90934.515    -21693.49    1713.0292    -23406.52    33.281592    253.16555 
    9450    113.44663   -1252.7544    90966.007   -21695.731    1700.9592    -23396.69    33.403388    251.38174 
    9500    110.56744   -1543.4816    90913.948   -21749.695    1657.7901   -23407.485    33.634607    245.00186 
    9550    114.11505   -1209.3768     90870.71   -21729.653    1710.9812   -23440.634    33.781436    252.86287 
    9600    110.97973   -1560.6571    90830.932   -21720.301    1663.9717   -23384.273    33.933334    245.91543 
    9650    113.61367   -1389.1832    90755.032   -21739.518    1703.4637   -23442.981    34.094951    251.75189 
    9700    110.47632   -1159.0769    90800.938   -21730.987    1656.4239   -23387.411    34.364107    244.79996 
    9750    112.25542    -1164.979    90787.019   -21733.716    1683.0987   -23416.815    34.448198    248.74218 
    9800    113.21141   -1494.0569    90699.225   -21782.372    1697.4325   -23479.804    34.309376    250.86054 
    9850    111.71002   -1257.3159    90683.434   -21789.242    1674.9214   -23464.164    34.348389    247.53366 
    9900    108.60384   -1159.5372    90772.046   -21775.038    1628.3488   -23403.387    34.250044    240.65079 
    9950    109.87736   -1215.7001    90826.895    -21738.24    1647.4434   -23385.683    34.420689    243.47274 
   10000    112.69704   -1377.5418    90890.562   -21764.877    1689.7201   -23454.597    34.572773    249.72074 
   10050    111.20104   -1255.0931    90886.174   -21741.471    1667.2899   -23408.761    34.630972    246.40582 
   10100    111.77184   -1055.4751    91003.336   -21724.235    1675.8483   -23400.083     34.90325    247.67065 
   10150    111.21051   -1110.5274    91048.921   -21751.481     1667.432   -23418.913    35.307574    246.42682 
   10200    111.37439   -1250.4945    91004.012     -21733.7     1669.889   -23403.589    35.483617    246.78994 
   10250    110.67154   -1149.7254    90935.895    -21742.38     1659.351   -23401.731     35.42822    245.23254 
   10300    114.80437   -1380.3332    90959.266   -21723.235    1721.3164   -23444.551    35.277425    254.39029 
   10350    112.53692   -1290.6339    90920.986   -21707.786    1687.3194   -23395.106    35.448458    249.36594 
   10400    113.14502   -1187.6332    90910.579   -21751.374     1696.437   -23447.811    35.528229    250.71342 
   10450    112.27681   -1197.5931    90951.388   -21746.088    1683.4196   -23429.508    35.903409    248.78959 
   10500    109.27565   -1725.7128    91032.855   -21760.756    1638.4217   -23399.178    36.219701    242.13943 
   10550    110.72645   -1378.4224    90991.541   -21780.139    1660.1742   -23440.313    36.367236    245.35421 
   10600    109.08915   -1133.9461    91022.339   -21794.038    1635.6254   -23429.664    36.598388    241.72619 
   10650    108.85783   -1233.5944     91059.29   -21788.421     1632.157   -23420.578    36.590981     241.2136 
   10700    112.56576   -1219.8457    91052.619   -21799.921    1687.7518   -23487.673    36.884065    249.42985 
   10750    110.46701   -1376.8564    90966.695   -21785.617    1656.2843   -23441.902    37.297715    244.77932 
   10800    107.16934   -935.43338    91000.568   -21789.189    1606.8408   -23396.029    37.545323    237.47215 
   10850    112.01077   -1223.5889    91017.903    -21805.78    1679.4306    -23485.21    37.562097    248.20008 
   10900    111.39092   -1130.5293    91040.245   -21808.424    1670.1369   -23478.561     37.38844    246.82657 
   10950    110.65416   -1417.2522    90978.366    -21802.94    1659.0903   -23462.031    37.713954    245.19402 
   11000     112.3317   -1302.1307    90955.866   -21757.569    1684.2425   -23441.812    38.085226    248.91121 
   11050    107.86849    -1157.579    90930.697   -21758.129    1617.3235   -23375.452     38.21282    239.02138 
   11100    112.72485   -938.35472     90966.74   -21708.843    1690.1372    -23398.98    38.251923    249.78238 
   11150    112.00378    -839.0788    91027.898   -21727.042    1679.3258   -23406.368    38.517155    248.18458 
   11200    112.33705   -1240.8288    91097.063    -21750.17    1684.3227   -23434.493    38.818154    248.92306 
   11250    111.63605   -1087.6606    91075.064   -21785.922    1673.8123   -23459.734    39.032972    247.36975 
   11300    112.86016   -1084.5424    91039.619   -21808.233     1692.166   -23500.399    39.264647    250.08222 
   11350    110.10394     -1358.79    91045.528   -21802.346    1650.8406   -23453.187    39.288916     243.9748 
   11400    108.90679   -1282.4148    91036.551    -21790.97    1632.8912   -23423.861    39.396386     241.3221 
   11450    111.39414   -1036.4258    91067.227   -21766.659    1670.1852   -23436.844    39.599513     246.8337 
   11500    109.72817   -1357.9822     91053.55   -21788.045    1645.2065   -23433.252    39.741959    243.14215 
   11550    108.54563   -1302.2303    91049.312   -21802.265    1627.4761   -23429.741     40.19152    240.52181 
   11600    111.88165   -1312.2175    90993.305    -21811.03    1677.4947   -23488.525    40.295353    247.91397 
   11650    112.17605   -1077.6757    90950.393    -21762.36    1681.9088   -23444.269    40.327775    248.56632 
   11700    112.34425   -1340.1884    90942.059   -21754.013    1684.4307   -23438.444    40.394321    248.93902 
   11750    114.27251   -1151.6403    90938.107   -21703.627     1713.342   -23416.969     40.33307    253.21177 
   11800    111.77261   -1102.3354    90969.692   -21666.582    1675.8597   -23342.442    40.058076    247.67234 
   11850    117.58483   -1081.5849    90960.799   -21604.811    1763.0051   -23367.816    40.078734     260.5514 
   11900    112.05227   -1160.9464    90970.581   -21615.091    1680.0528   -23295.144    40.167143    248.29203 
   11950    115.78113   -1423.2668    90962.602   -21629.097    1735.9614   -23365.059    40.326928    256.55466 
   12000    113.79024   -1233.2203    90954.709   -21642.337     1706.111   -23348.448    40.625417    252.14312 
   12050    115.04402    -1034.223     91000.29   -21631.755    1724.9095   -23356.664    40.994535    254.92132 
   12100    113.85811   -1369.5563    91031.507   -21625.973    1707.1286   -23333.101    41.300697    252.29351 
   12150    115.11961   -847.08675    91096.747   -21619.726    1726.0429   -23345.769    41.471377    255.08882 
   12200    115.67774   -784.96302    91149.728   -21630.399    1734.4112    -23364.81    41.478377    256.32556 
   12250     114.3543   -1165.9163    91168.151   -21657.517    1714.5684   -23372.086     41.53456    253.39302 
   12300    112.40282   -1293.2325    91179.083   -21672.994    1685.3089   -23358.303    41.959041    249.06881 
   12350    113.62266   -1170.2389    91191.804   -21708.646    1703.5984   -23412.245    42.237302    251.77179 
   12400    112.89538    -1635.779    91140.201   -21685.178     1692.694   -23377.872    42.560251    250.16025 
   12450    113.89351   -1164.2214    91181.365    -21660.41    1707.6595   -23368.069    42.935433    252.37197 
   12500    110.94198    -1224.725     91202.86   -21678.457    1663.4057   -23341.863    43.154282    245.83178 
   12550    114.20151   -1397.0685    91174.709   -21696.601    1712.2774   -23408.879    43.581836    253.05445 
   12600    112.60834   -1380.5987    91106.422   -21722.189    1688.3902   -23410.579    43.520225     249.5242 
   12650    112.77452   -1174.1739    91137.809   -21737.762    1690.8819   -23428.644    43.529655    249.89244 
   12700    112.30718   -1155.0514      91174.5    -21721.39    1683.8748   -23405.265    43.696141    248.85687 
   12750    112.33401   -1345.4094    91168.302   -21749.521    1684.2771   -23433.798    43.790286    248.91633 
   12800     112.6375   -1129.3946    91167.947   -21771.863    1688.8275    -23460.69    43.958953    249.58882 
   12850    110.65062   -1344.7799    91164.934   -21761.666    1659.0373   -23420.703    44.234826    245.18619 
   12900    111.36526   -1245.5463      91123.8   -21743.107    1669.7522   -23412.859    44.501836    246.76972 
   12950    115.53455   -1080.2508    91131.824   -21709.306    1732.2643    -23441.57    44.659633    256.00827 
   13000    109.23596   -1320.7778    91095.942   -21751.642    1637.8266   -23389.468    44.728344    242.05148 
   13050    112.49031   -1253.3577    91090.583   -21699.754    1686.6206   -23386.375    45.248591    249.26267 
   13100    113.54384   -1486.0036     91152.83   -21710.256    1702.4167   -23412.673    45.208611    251.59715 
   13150    113.16589   -1501.2289     91056.03   -21700.584    1696.7498   -23397.334    45.447588    250.75965 
   13200    111.38003   -1347.7044    91122.692   -21739.743    1669.9736   -23409.716    45.653418    246.80244 
   13250    112.15096   -1432.8599    91129.702   -21719.466    1681.5326   -23400.999    45.778328    248.51072 
   13300     113.6986   -1284.1724    91154.274   -21734.584     1704.737   -23439.321     46.06279    251.94007 
   13350    113.04146   -1383.8721    91198.059    -21743.42    1694.8843   -23438.305    46.112698    250.48394 
   13400    111.18892   -1002.8732    91228.186   -21779.361    1667.1082   -23446.469     46.21438    246.37896 
   13450    112.29455   -1384.7821     91239.93    -21748.49    1683.6855   -23432.176    46.436003     248.8289 
   13500    114.56835   -1251.3212    91185.246   -21727.761    1717.7776   -23445.539    46.527787    253.86731 
   13550    111.80035    -1420.094    91181.558   -21784.268    1676.2757   -23460.544     46.62146    247.73381 
   13600    111.21118   -1290.2885    91206.826   -21809.338     1667.442    -23476.78    46.748061     246.4283 
   13650    112.79041   -1247.9755     91227.92   -21784.129    1691.1201   -23475.249     46.93733    249.92765 
   13700    112.25394   -1182.7979     91215.22   -21773.249    1683.0766   -23456.326    47.072038    248.73891 
   13750    111.89321   -1574.6209    91206.971   -21769.278     1677.668   -23446.946    47.340979    247.93959 
   13800    112.27862   -1429.8994    91116.559   -21721.902    1683.4466   -23405.349      47.5523    248.79359 
   13850    114.24858   -1319.0354    91045.255   -21694.971    1712.9832   -23407.954    47.936966    253.15875 
   13900    113.97652   -954.80468    91029.423   -21667.562     1708.904   -23376.466    48.172366     252.5559 
   13950    113.77262   -1327.4075    91086.281   -21701.844    1705.8469   -23407.691    48.566758    252.10409 
   14000    112.43049    -1122.484    91102.471    -21687.43    1685.7237   -23373.154    48.674146    249.13012 
   14050    112.16333   -1190.6568    91076.344   -21713.176    1681.7181   -23394.894    48.817915    248.53814 
   14100    113.97493   -1194.9668    91056.205   -21716.498    1708.8802   -23425.378    48.754346    252.55238 
   14150    111.54645   -1385.9389     91026.14   -21703.957    1672.4688   -23376.426    49.182145     247.1712 
   14200    112.16611   -1137.7197    90975.445   -21705.751    1681.7596   -23387.511    49.001908    248.54428 
   14250    110.46965   -1076.7913    91072.338   -21723.269    1656.3239   -23379.593    49.061136    244.78517 
   14300    112.82977    -1164.059    91052.846   -21727.826    1691.7103   -23419.536      49.1707    250.01486 
   14350    113.00011   -1342.2954    91113.579   -21689.522    1694.2643   -23383.787    49.516263    250.39232 
   14400    112.59663   -1249.4838    91125.721   -21662.358    1688.2147   -23350.573    49.538956    249.49826 
   14450    116.81671   -1237.4338    91184.059   -21614.301    1751.4884   -23365.789    50.007039    258.84937 
   14500    115.69333   -1697.3099    91182.819   -21620.372     1734.645   -23355.017    50.133259    256.36011 
   14550    113.73085   -1384.3449    91147.557   -21604.285    1705.2206   -23309.506    50.157154    252.01153 
   14600    117.02116   -1110.0613    91169.119   -21600.627    1754.5538   -23355.181    50.179102     259.3024 
   14650     115.6387   -1427.8329    91140.403   -21598.198     1733.826   -23332.024    50.484746    256.23907 
   14700    112.95138   -1632.7254    91118.031    -21600.42    1693.5337   -23293.953    50.823821    250.28434 
   14750    112.64759   -1124.7274    91111.097   -21595.563    1688.9787   -23284.541    51.112644    249.61117 
   14800    115.01173   -1465.1941    91121.193   -21622.974    1724.4255     -23347.4    51.373966    254.84978 
   14850     110.4809   -1337.9167    91129.812   -21644.375    1656.4925   -23300.868    51.320362    244.81009 
   14900    113.09603   -1001.3833    91205.589    -21677.32    1695.7025   -23373.023    51.478564    250.60487 
   14950    114.84599   -1102.1467    91326.729   -21669.439    1721.9404    -23391.38    51.825618    254.48251 
   15000    112.85105   -1134.2764    91389.584   -21637.591    1692.0293    -23329.62    52.052654    250.06201 
   15050     114.1803   -1866.9305    91374.018   -21642.385    1711.9595   -23354.344    52.128414    253.00745 
   15100      111.829   -1265.0005    91374.563    -21681.67    1676.7053   -23358.375    52.199868     247.7973 
   15150    113.16247   -1459.3885    91370.753   -21694.595    1696.6986   -23391.294    52.416161    250.75208 
   15200    109.84036   -1284.7444    91285.933   -21662.924    1646.8886   -23309.812    52.721516    243.39075 
   15250    115.31958    -1253.435    91320.761   -21665.816    1729.0412   -23394.857     52.82913    255.53193 
   15300    114.91183   -1662.1055    91320.994   -21684.398    1722.9276   -23407.326      53.0027    254.62842 
   15350    116.10702   -1283.0849    91371.977   -21665.659    1740.8476   -23406.507    52.942425    257.27678 
   15400    110.80151   -1204.8844    91424.338   -21695.572    1661.2996   -23356.871    53.136031    245.52053 
   15450    113.84598   -1561.4641    91434.144   -21691.763    1706.9468    -23398.71    53.233047    252.26664 
   15500    114.07367   -1361.6554    91394.822    -21690.52    1710.3607    -23400.88    53.540931    252.77118 
   15550    111.94836    -1246.276    91399.934    -21669.78    1678.4949   -23348.275    53.780898    248.06179 
   15600    113.40115   -1286.6751    91368.571   -21684.724    1700.2772   -23385.001    54.118375    251.28096 
   15650     113.2824   -1367.3921    91394.632    -21703.75    1698.4968   -23402.247    54.263881    251.01783 
   15700    110.62343   -1329.0277    91353.075   -21719.953    1658.6295   -23378.582    54.277489    245.12592 
   15750    110.97322   -1135.2622    91380.365   -21740.895    1663.8742   -23404.769    54.545823    245.90102 
   15800    111.96862   -1382.5378    91366.889   -21762.962    1678.7987    -23441.76    54.744105    248.10668 
   15850    110.77428   -1486.8533    91300.804   -21720.411    1660.8913   -23381.302    54.573255    245.46018 
   15900    111.87676   -1391.6399    91268.853    -21707.26    1677.4214   -23384.681    54.561388    247.90313 
   15950    113.79863   -1585.7182    91299.219   -21717.014    1706.2369   -23423.251    54.707762    252.16172 
   16000    114.88554   -1404.7228    91316.473   -21658.718    1722.5335   -23381.251      54.7108    254.57017 
   16050    111.35795   -1097.9045    91311.793   -21695.948    1669.6426   -23365.591    54.780267    246.75352 
   16100    112.44373   -1230.8364    91291.968   -21695.432    1685.9223   -23381.354    55.162462    249.15946 
   16150    115.74494   -1027.7521    91414.065   -21674.596    1735.4188   -23410.015    55.510117    256.47448 
   16200    110.83899   -1497.9152     91398.68   -21688.779    1661.8616   -23350.641    55.643814    245.60358 
   16250    111.54422    -1388.367    91340.365   -21690.843    1672.4354   -23363.278    55.780679    247.16626 
   16300    113.67661   -1404.4233    91335.447   -21648.997    1704.4073   -23353.404     56.00455    251.89133 
   16350    115.95626   -942.66172    91316.497   -21653.468    1738.5872   -23392.056    56.181999    256.94273 
   16400    114.00357   -1345.5967    91299.362   -21659.655    1709.3096   -23368.965    56.372793    252.61584 
   16450    112.73875   -1070.0594    91265.431     -21665.1    1690.3455   -23355.445    56.138433    249.81317 
   16500    110.69124   -1547.1928    91282.812   -21690.278    1659.6463   -23349.925    56.403816    245.27619 
   16550    111.93971   -1461.0057    91262.508   -21694.956    1678.3652   -23373.321    56.602761    248.04262 
   16600    113.76886   -1075.8296     91251.36   -21690.658    1705.7905   -23396.448    56.771833    252.09575 
   16650    112.23541   -1255.5726    91282.432   -21695.545    1682.7987   -23378.344     56.99472    248.69784 
   16700    113.59862   -1327.5707     91289.18   -21705.631     1703.238   -23408.869     57.06296    251.71852 
   16750     113.9864   -1325.0019    91289.704   -21697.638    1709.0522    -23406.69    56.916754    252.57779 
   16800    111.57097   -1518.0897    91275.877   -21655.722    1672.8365   -23328.558    57.293327    247.22554 
   16850    114.90885   -1276.8925    91256.537   -21647.056     1722.883   -23369.939    57.668622    254.62182 
   16900    113.88717   -1118.9292    91216.274   -21672.731    1707.5643   -23380.296    57.807625     252.3579 
   16950    113.69984   -1287.0431    91264.042   -21665.756    1704.7557   -23370.512    57.859556    251.94282 
   17000    112.67225    -1230.498    91247.377   -21706.829    1689.3485   -23396.177    57.792155    249.66582 
   17050    113.85647   -1492.0642    91257.031   -21707.774    1707.1041   -23414.878    58.137066    252.28988 
   17100    114.97014   -1536.8648    91240.242   -21677.251    1723.8019   -23401.053    58.285744    254.75762 
   17150    112.55924   -1351.5395    91170.103   -21656.579    1687.6541   -23344.233    58.206814     249.4154 
   17200     116.7891   -1700.8045     91148.92     -21674.9    1751.0744   -23425.974    58.372097    258.78818 
   17250    112.20106   -1078.4943    91153.651   -21686.693    1682.2837   -23368.977    58.609793    248.62173 
   17300    112.14072   -1282.3367    91126.493   -21720.021    1681.3791     -23401.4    58.656691    248.48803 
   17350    112.56824   -1569.5914    91014.694   -21713.148     1687.789   -23400.937    58.654891    249.43535 
   17400     113.2488   -1287.4698    90971.377   -21685.995     1697.993   -23383.988    58.809996    250.94338 
   17450    114.77598   -1118.9214    90983.754   -21724.487    1720.8908   -23445.378    58.804623     254.3274 
   17500    114.30596   -1261.7921    91083.244     -21706.7    1713.8436   -23420.543    58.718736     253.2859 
   17550    113.05618   -1224.0826    91137.993   -21688.521     1695.105   -23383.626    59.104454    250.51656 
   17600    110.51432   -1228.4024    91193.022   -21697.983    1656.9937   -23354.976    59.519416    244.88416 
   17650    115.12573   -1338.6823    91161.949   -21716.582    1726.1347   -23442.717     59.91934    255.10239 
   17700    109.32887   -1379.2339    91191.318   -21733.736    1639.2197   -23372.956     60.25771    242.25737 
   17750    113.83542   -1086.2724    91281.119   -21688.666    1706.7885   -23395.455    60.425182    252.24324 
   17800    114.17203   -1262.7675    91331.496   -21668.522    1711.8354   -23380.357    60.656871    252.98911 
   17850    115.61819    -1318.015    91386.506   -21620.747    1733.5184   -23354.265    61.177458    256.19361 
   17900    113.57944   -1481.2348     91393.95   -21636.034    1702.9504   -23338.985     61.22474    251.67602 
   17950    113.78974   -1373.3982    91329.206   -21621.798    1706.1035   -23327.901    61.561313    252.14202 
   18000    114.10292   -1371.4392    91312.357   -21641.779    1710.7992   -23352.578    61.757443    252.83598 
   18050     116.5289    -1242.743    91290.508   -21633.072    1747.1731   -23380.245    62.043909    258.21162 
   18100    113.19672   -1120.5552    91278.809   -21664.598    1697.2121    -23361.81    61.990625    250.82796 
   18150    113.05818   -1352.4335    91286.188   -21651.309    1695.1349   -23346.444    62.349923    250.52098 
   18200    112.91728   -1086.8981    91269.578   -21651.037    1693.0224   -23344.059    62.623234    250.20878 
   18250    111.34512   -1235.3916    91227.581   -21686.092    1669.4502   -23355.543    62.438076    246.72509 
   18300    111.88962   -1331.1327    91148.724   -21747.622    1677.6142   -23425.236    62.536552    247.93163 
   18350    112.14444   -1100.0849    91164.471   -21764.183    1681.4348   -23445.618    62.839871    248.49628 
   18400    112.20475   -1420.2265    91184.417   -21736.092    1682.3391   -23418.431    62.904733    248.62991 
   18450    115.16518   -1536.4296    91137.565   -21695.168    1726.7261   -23421.894    63.060426     255.1898 
   18500    111.52154   -1201.8946    91129.909   -21716.442    1672.0954   -23388.537    63.319218    247.11601 
   18550    114.72965   -1266.4151    91107.386   -21713.699    1720.1961   -23433.895    63.318188    254.22473 
   18600    116.39791   -999.86963    91067.444   -21706.387    1745.2091   -23451.596    63.119079    257.92136 
   18650    113.35032   -1026.8261    91078.662   -21723.067    1699.5152   -23422.582     63.24507    251.16833 
   18700    114.02121   -1408.2561    91117.973    -21726.33    1709.5741   -23435.904    63.515084    252.65492 
   18750    114.56962   -1377.5592    91123.827    -21673.88    1717.7967   -23391.677    63.798294    253.87013 
   18800    113.43302   -1279.8883    91100.862   -21699.687    1700.7551   -23400.442    63.818967    251.35158 
   18850    113.11173   -1186.1215    91138.075    -21721.31    1695.9379   -23417.247    63.676377    250.63966 
   18900    112.80014   -1422.3292    91073.067   -21692.756     1691.266   -23384.022    63.875509     249.9492 
   18950    112.51682   -1117.3089    91069.458   -21695.807    1687.0181   -23382.825    64.206579    249.32142 
   19000    114.25308   -1324.9495    91087.346   -21689.092    1713.0506   -23402.143    64.459523    253.16871 
   19050    115.71618   -1276.9797    91189.641   -21647.172    1734.9876    -23382.16    64.784966    256.41074 
   19100    112.68973   -1048.2162    91235.087   -21656.803    1689.6107   -23346.414    64.928788    249.70456 
   19150    111.92445   -1473.4858    91270.893   -21636.685    1678.1363   -23314.822    64.927739     248.0088 
   19200    118.04492   -1261.2799    91260.676    -21633.76    1769.9036   -23403.663    65.257749    261.57091 
   19250    114.13029   -1095.5869    91188.182   -21641.278    1711.2096   -23352.487    65.241656    252.89663 
   19300    113.70108   -1332.4589    91132.993   -21650.584    1704.7742   -23355.358    65.351157    251.94556 
   19350     116.9796   -1192.3386    91144.681   -21631.987    1753.9306   -23385.918    65.341068    259.21029 
   19400    113.81741   -1281.5715    91124.959   -21592.505    1706.5185   -23299.024    65.496394    252.20334 
   19450    116.49471   -1329.7155    91102.563   -21623.574    1746.6604   -23370.234    65.780122    258.13585 
   19500     116.1397   -1410.5123     91118.24   -21593.045    1741.3376   -23334.382    65.813186     257.3492 
   19550    115.41914   -998.10793    91149.853   -21606.981     1730.534   -23337.515    66.051993    255.75255 
   19600    115.59191   -1177.4401    91278.233    -21635.11    1733.1244   -23368.234    66.240655    256.13538 
   19650    114.56048   -1177.2798    91254.756   -21642.381    1717.6597   -23360.041    66.342639    253.84988 
   19700    114.77046   -1176.6561    91228.671   -21641.574     1720.808   -23362.383    66.193798    254.31517 
   19750    113.88978   -1245.6548    91251.349   -21657.695    1707.6035   -23365.299    66.598999     252.3637 
   19800    114.18028   -1165.8887    91297.035   -21664.989    1711.9591   -23376.948    66.731259     253.0074 
   19850    110.95888    -1276.098     91352.62   -21666.761    1663.6592    -23330.42    67.233892    245.86924 
   19900    116.11427     -1540.96    91369.964   -21651.866    1740.9563   -23392.822    67.386463    257.29285 
   19950    115.05495   -1310.7292    91279.382   -21640.195    1725.0734   -23365.268    67.822888    254.94554 
   20000    113.08087   -1010.0276    91245.107   -21627.939    1695.4751   -23323.414    68.007524    250.57127 
   20050    114.28822   -999.10302    91331.317   -21676.715    1713.5776   -23390.292    68.123257    253.24659 
   20100    113.87388   -1299.0397     91396.41   -21683.139    1707.3651   -23390.504    67.930257    252.32847 
   20150    112.67688   -1277.0646    91473.752   -21694.257    1689.4179   -23383.675    68.186816    249.67608 
   20200    112.91306   -1110.4423    91557.695   -21719.834     1692.959   -23412.793    68.605742    250.19942 
   20250    109.86506   -1261.0769    91584.509    -21757.32     1647.259   -23404.579     68.83419    243.44548 
   20300    112.41498   -1349.2048    91611.155   -21769.114    1685.4911   -23454.605    68.863068    249.09575 
   20350      110.987   -1424.8199    91635.419   -21780.415    1664.0808   -23444.496    68.996634    245.93155 
   20400    111.37653   -1470.2897    91621.824    -21755.97    1669.9212   -23425.891    69.091308     246.7947 
   20450    107.58394   -1476.4438    91499.473   -21784.179    1613.0571   -23397.237    69.160161    238.39084 
   20500    107.42559   -1356.8864    91445.282   -21780.017    1610.6829     -23390.7    69.568438    238.03997 
   20550    112.22901   -1373.1771    91471.387   -21727.039    1682.7028   -23409.742    69.863492    248.68366 
   20600    109.58646   -1178.2021    91536.071   -21717.132    1643.0818   -23360.214    69.962347    242.82815 
   20650     113.0325   -1227.3816    91514.745   -21735.297    1694.7499   -23430.047    70.140398    250.46409 
   20700    111.88764   -1323.6409    91511.744   -21718.933    1677.5845   -23396.518     70.18641    247.92724 
   20750    113.91277    -1125.464    91547.496   -21679.465    1707.9482   -23387.413    70.332951    252.41464 
   20800    111.98305    -1270.027    91618.616   -21683.421     1679.015   -23362.436    70.409657    248.13865 
   20850     110.9662   -1591.6568    91589.281   -21665.257    1663.7688   -23329.026    70.573526    245.88545 
   20900    111.89491   -1518.6359    91516.832   -21644.779    1677.6934   -23322.473    70.568668    247.94334 
   20950    110.53914   -1273.6743    91455.568   -21675.783    1657.3658   -23333.149    70.785176    244.93915 
   21000    113.41784   -1421.2819     91415.75   -21659.605    1700.5275   -23360.132    70.922813    251.31795 
   21050    113.52348   -1381.3791    91430.727   -21610.047    1702.1114   -23312.159    71.101759    251.55203 
   21100    116.04268   -1402.3726    91441.216   -21615.431     1739.883   -23355.314    71.619806    257.13423 
   21150     114.3551    -1638.131    91370.973   -21624.732    1714.5802   -23339.312    71.920213    253.39478 
   21200    113.70381   -1312.5069    91379.796   -21629.459    1704.8152   -23334.274    72.187427    251.95162 
   21250     114.0469   -1616.1207    91297.061   -21630.878    1709.9593   -23340.837    72.314372    252.71186 
   21300    112.91651   -1462.2067    91222.224   -21669.694    1693.0108   -23362.705    72.465089    250.20707 
   21350    113.62356   -1267.1859    91174.207    -21645.28     1703.612   -23348.892    72.692916    251.77379 
   21400    116.20143   -1316.8956      91171.2   -21628.858    1742.2631   -23371.121    72.918832    257.48598 
   21450    114.37459   -1425.9102    91196.109   -21681.111    1714.8725   -23395.984    73.102514    253.43797 
   21500    112.74194   -1315.6201    91162.027   -21721.508    1690.3935   -23411.901    73.311117    249.82025 
   21550    110.60347   -1488.2542    91169.985    -21727.59    1658.3303   -23385.921    73.649635     245.0817 
   21600    112.26224   -1195.7814    91225.251   -21698.441     1683.201   -23381.642    73.673361    248.75729 
   21650    113.14015   -1118.8358    91246.364   -21698.365    1696.3639   -23394.729    73.752198    250.70262 
   21700    111.51328   -1135.0601    91284.982   -21709.146    1671.9715   -23381.117    73.807846     247.0977 
   21750    109.57658   -1479.5911     91231.17   -21699.436    1642.9337    -23342.37    73.594686    242.80626 
   21800    110.10769   -1521.4526    91287.383   -21730.315    1650.8968   -23381.212    73.698352    243.98311 
   21850    112.70346   -1562.3819    91272.415   -21707.569    1689.8165   -23397.385    73.940205    249.73499 
   21900    112.94641   -1159.9076    91250.408   -21710.711    1693.4591    -23404.17    73.929051    250.27332 
   21950    110.07131   -1502.9564     91230.42   -21747.177    1650.3514   -23397.529    73.998021    243.90251 
   22000    113.61422   -1184.5767    91199.769   -21739.542    1703.4719   -23443.014    74.177198     251.7531 
   22050    109.16399   -1646.6649    91181.059   -21698.773    1636.7475    -23335.52     74.49705    241.89202 
   22100    110.66611   -1202.3852     91118.98   -21699.269    1659.2695   -23358.539    74.926734    245.22049 
   22150    111.82203   -1170.5835    91133.025   -21717.064    1676.6007   -23393.665    75.252622    247.78185 
   22200    111.65389   -1187.2159    91164.639   -21704.565    1674.0797   -23378.645    75.345239    247.40928 
   22250    112.57413   -1316.8219     91165.06   -21708.428    1687.8773   -23396.305    75.372804     249.4484 
   22300    110.87007   -1451.4679    91216.105   -21737.518    1662.3275   -23399.845    75.688118    245.67244 
   22350    109.33306   -1426.1161     91153.29   -21725.288    1639.2824    -23364.57    75.665039    242.26664 
   22400    114.59135    -1366.615    91187.393   -21673.566    1718.1225   -23391.688    75.695399    253.91828 
   22450    113.24906   -1237.7184    91166.159   -21694.334    1697.9968   -23392.331    75.979902    250.94394 
   22500    111.44104   -1365.1302    91185.997   -21738.302    1670.8885    -23409.19    76.082816    246.93764 
   22550    113.21519   -1271.0986    91232.271   -21766.629     1697.489   -23464.118    76.122187     250.8689 
   22600    111.01253   -1159.9235    91224.435   -21709.888    1664.4636   -23374.351       76.274    245.98813 
   22650    114.86137   -1068.3593    91248.623   -21700.147     1722.171   -23422.318    76.489965     254.5166 
   22700    114.20762   -1392.5541    91286.397   -21766.273    1712.3691   -23478.642    76.522496    253.06799 
   22750    114.07812   -1245.2974    91286.198   -21766.134    1710.4274   -23476.561    76.726299    252.78103 
   22800    111.05757   -1396.7829    91272.582   -21779.391    1665.1389    -23444.53     77.02176    246.08793 
   22850    112.91026    -1135.586    91298.063   -21743.007    1692.9171   -23435.924    76.906786    250.19322 
   22900    112.41754   -1335.2292    91337.327   -21793.693    1685.5295   -23479.223    76.814233    249.10142 
   22950    112.73818   -1114.1539    91324.498    -21726.87    1690.3371   -23417.207    76.951667    249.81192 
   23000    113.32228   -1127.0774    91350.599   -21727.591    1699.0948   -23426.686    77.289814     251.1062 
   23050    113.01558    -1336.308    91409.256     -21736.7    1694.4962   -23431.196    77.664712    250.42659 
   23100    111.76852   -1234.9581    91435.377   -21780.867    1675.7985   -23456.665     77.73574    247.66329 
   23150    112.07465   -951.43611    91487.984    -21776.26    1680.3884   -23456.648    77.651415    248.34162 
   23200     111.9249   -1336.7101     91513.78   -21777.362    1678.1431   -23455.506     77.64633     248.0098 
   23250    109.39605    -1540.443    91570.929    -21802.69    1640.2269   -23442.917    77.613277    242.40623 
   23300    110.21626   -1539.2188    91512.159   -21777.019    1652.5247   -23429.543     77.66438     244.2237 
   23350    111.99939   -1222.3514    91452.275    -21801.68    1679.2599    -23480.94    77.539659    248.17485 
   23400    112.49835   -1205.6024    91489.719   -21784.297    1686.7411   -23471.038    77.766597    249.28048 
   23450    112.77069   -1242.8351    91510.875   -21763.396    1690.8244    -23454.22    78.033942    249.88394 
   23500    112.67545   -1229.4041     91510.33   -21766.217    1689.3965   -23455.613    78.328155    249.67292 
   23550    112.54937   -1150.0414     91385.42   -21755.391    1687.5061   -23442.897    78.544472    249.39353 
   23600    112.51923   -1500.6974    91279.868   -21788.074    1687.0542   -23475.128    78.863528    249.32675 
   23650    109.71935    -1361.923     91205.49   -21790.639    1645.0743   -23435.713    79.074261    243.12261 
   23700     110.4367   -1408.1547    91155.202    -21786.77    1655.8299     -23442.6    79.360083    244.71216 
   23750    108.33017   -1484.9525    91198.279   -21802.567    1624.2456   -23426.813    79.654195    240.04438 
   23800    109.38902   -1070.4796    91162.482   -21787.694    1640.1215   -23427.816    79.624834    242.39065 
   23850    110.51463   -1233.9531    91139.703   -21774.828    1656.9984   -23431.826    79.829038    244.88485 
   23900    110.07153   -1134.9865    91201.572   -21773.079    1650.3546   -23423.434    80.240692    243.90298 
   23950    111.45845   -1149.5847    91249.084   -21763.993    1671.1494   -23435.142    80.132189    246.97621 
   24000    112.93093   -1428.2298    91274.045   -21759.204    1693.2271   -23452.432    80.404411    250.23903 
   24050    109.98427   -1204.5871    91265.067   -21739.953    1649.0464   -23388.999    80.425518    243.70964 
   24100    111.31033   -1195.0006    91262.057   -21716.457    1668.9286   -23385.386    80.360054    246.64801 
   24150    114.51928   -1221.2257    91250.985   -21722.614     1717.042   -23439.656    80.545234    253.75859 
   24200    112.84807   -978.69485    91299.844   -21692.664    1691.9847   -23384.649    80.720226    250.05541 
   24250    113.06618   -1367.4013    91294.501   -21694.251    1695.2549   -23389.506    81.023156    250.53872 
   24300    112.40308   -1483.3725    91175.426   -21674.892    1685.3127   -23360.204     81.45362    249.06938 
   24350    111.49777   -1578.3493    91035.014   -21701.624    1671.7389   -23373.363    81.579599    247.06334 
   24400    115.13385   -1499.7188    90982.749   -21702.658    1726.2565   -23428.914    81.966512    255.12038 
   24450    113.23717   -1468.0189    90962.614   -21690.084    1697.8187   -23387.903    82.156175    250.91761 
   24500    111.62686   -1326.9508    90940.741   -21704.143    1673.6745   -23377.817    82.432233    247.34938 
   24550    113.45787   -1595.5031    90854.208   -21662.084    1701.1277   -23363.212    82.507686    251.40665 
   24600    115.46073   -1319.4852    90814.616   -21685.118    1731.1575   -23416.275    82.685259     255.8447 
   24650    112.89061     -1373.46    90833.157   -21679.271    1692.6225   -23371.894    83.209645    250.14969 
   24700    113.14927   -1283.7785    90814.765   -21723.779    1696.5007   -23420.279    83.300507    250.72282 
   24750    112.53759   -1096.7776    90824.907   -21700.924    1687.3296   -23388.254    83.272086    249.36744 
   24800    109.41092   -1246.1335    90832.697   -21737.497    1640.4498   -23377.947    83.433954    242.43918 
   24850    114.93223   -1309.0634    90779.347   -21733.493    1723.2335   -23456.726    83.797506    254.67363 
   24900    115.45471   -1053.4404     90926.82   -21676.265    1731.0673   -23407.332    83.954632    255.83136 
   24950    112.22318   -1279.9623    90967.635   -21681.778    1682.6154   -23364.394    84.240219    248.67074 
   25000    112.12898   -1409.6148     90911.57   -21652.125     1681.203   -23333.328    84.458893    248.46202 
   25050    112.82846   -1421.1846    90925.911   -21666.164    1691.6906   -23357.854    84.778078    250.01196 
   25100    116.41467   -1377.4062    90909.675   -21717.483    1745.4604   -23462.943    84.864443    257.95849 
   25150    110.83055   -1088.5961    90968.183   -21757.839     1661.735   -23419.574    84.942333    245.58487 
   25200    110.87114   -1337.4922    91092.205   -21738.343    1662.3437   -23400.687    84.961394    245.67482 
   25250    115.80454   -1293.8791    91053.039   -21699.231    1736.3124   -23435.543     85.10742    256.60654 
   25300    114.54604   -1556.7558    91014.064   -21687.865    1717.4431   -23405.308    85.549724    253.81787 
   25350    114.86432   -1438.8444    90962.155   -21674.588    1722.2153   -23396.803    85.559656    254.52314 
   25400    113.82275   -1285.0647    90960.041   -21655.278    1706.5984   -23361.876    85.606363    252.21516 
   25450    112.60126   -1486.8159    90946.535   -21680.492    1688.2841   -23368.777    85.824007    249.50852 
   25500    112.35058   -1287.9495    90905.905   -21648.704    1684.5256    -23333.23    85.974387    248.95305 
   25550     114.0102   -1228.8721    90943.112   -21637.093     1709.409   -23346.502     86.20456    252.63053 
   25600    115.51793   -1434.9881    90939.375   -21665.979    1732.0152   -23397.994    86.100223    255.97146 
   25650    113.70292   -1279.4178    90940.465   -21673.295    1704.8019   -23378.097    86.367868    251.94965 
   25700    113.54405   -1072.8173    90934.673   -21677.959    1702.4199   -23380.379     86.48196    251.59762 
   25750    110.63559   -1280.2738    90934.575   -21656.503    1658.8118   -23315.314    86.599764    245.15286 
   25800    114.38215   -1617.6834    90843.057   -21675.464    1714.9859    -23390.45    86.819529    253.45473 
   25850    110.15426   -1254.2557    90833.887   -21689.631    1651.5951   -23341.226    86.954073    244.08632 
   25900    113.05372    -1201.015    90886.435   -21636.754    1695.0681   -23331.823      87.2907    250.51112 
   25950     113.3609   -1271.6588    90892.108   -21594.289    1699.6738   -23293.963     87.34984    251.19177 
   26000    114.28447    -1459.187    90853.303   -21560.257    1713.5213   -23273.778    87.189275    253.23828 
   26050    113.38301   -1475.0151     90799.86    -21561.67    1700.0053   -23261.675    87.138017    251.24077 
   26100    112.77168    -1209.769    90756.711     -21567.5    1690.8392   -23258.339    87.399712    249.88614 
   26150    116.37958    -1490.865    90685.775   -21523.332    1744.9343   -23268.266     87.50663    257.88075 
   26200    112.94889   -974.35903    90685.433   -21558.623    1693.4964   -23252.119    87.806191    250.27883 
   26250    113.88287   -1285.6619    90695.202   -21572.897       1707.5   -23280.397    87.948365     252.3484 
   26300    112.23292   -1196.7747    90715.292    -21602.17    1682.7614   -23284.931    88.308104    248.69232 
   26350    114.20626    -1244.568    90688.433   -21653.241    1712.3487    -23365.59    88.287183    253.06498 
   26400    114.35595   -1300.5272     90666.29   -21660.235     1714.593   -23374.828    88.612292    253.39667 
   26450      113.865   -1236.8766    90703.427    -21630.44     1707.232   -23337.672    89.134874    252.30879 
   26500    114.88899    -1101.128    90755.582   -21618.991    1722.5852   -23341.576    89.329229    254.57781 
   26550    116.82946   -1224.8425    90679.539   -21615.076    1751.6795   -23366.756    89.537734     258.8776 
   26600    115.03851   -1168.0958    90741.145    -21626.54    1724.8269   -23351.367    89.557198    254.90911 
   26650    113.86909   -1187.2307    90707.939   -21609.994    1707.2933   -23317.288    89.719529    252.31784 
   26700    115.74898   -1215.6882    90701.083   -21636.278    1735.4793   -23371.758    89.622332    256.48342 
   26750     114.1441   -1061.2365    90672.918   -21674.059    1711.4166   -23385.476    89.713962    252.92723 
   26800    114.06476   -873.26686    90714.963   -21689.875    1710.2271   -23400.102    90.125166    252.75144 
   26850    112.88592   -607.91088    90791.652   -21669.734    1692.5521   -23362.286    90.085817    250.13928 
   26900    116.09269   -1161.2335    90797.807   -21681.365    1740.6328   -23421.998    90.262581    257.24504 
   26950    111.49923   -993.98058    90852.893   -21724.233    1671.7609   -23395.993    90.349794    247.06658 
   27000    114.06402   -1180.4708    90884.209   -21732.223     1710.216   -23442.439    90.451147    252.74979 
   27050    116.15862   -1259.5589    90934.792   -21726.159    1741.6213    -23467.78    90.590623    257.39112 
   27100    112.61981   -1341.8098    90918.458   -21716.312    1688.5623   -23404.874    90.796389    249.54962 
   27150    115.86466   -1433.8739    90905.883    -21681.93    1737.2139   -23419.143    91.118778    256.73976 
   27200    113.40089   -1538.5149    90902.943   -21683.961    1700.2734   -23384.234    91.351724    251.28039 
   27250    113.40706    -1418.844    90891.914   -21761.613    1700.3658   -23461.979    91.567903    251.29405 
   27300    114.05632   -1293.1702    90839.211   -21755.824    1710.1005   -23465.924    91.493469    252.73272 
   27350    114.19846   -1078.0691    90872.303   -21763.642    1712.2316   -23475.873     91.70998    253.04768 
   27400    111.84818   -1420.3789    90882.351   -21767.853    1676.9928   -23444.845    91.728457    247.83979 
   27450    114.50819   -1095.9505    90881.219    -21709.28    1716.8756   -23426.156    91.429821      253.734 
   27500    113.25766   -1164.5377    90923.246   -21702.894    1698.1259   -23401.019    91.615049    250.96301 
   27550    107.92577   -1169.1211     90918.21   -21739.878    1618.1823    -23358.06    91.815067     239.1483 
   27600    111.38788   -1458.0325    90927.395    -21744.18    1670.0913   -23414.271    91.934341    246.81983 
   27650    112.17933   -1401.5233    90934.958   -21727.688    1681.9579   -23409.646    92.166488    248.57357 
   27700     110.4841   -1339.9762    90889.226   -21746.787    1656.5405   -23403.328    92.354755    244.81719 
   27750    112.13562   -1035.1327    90876.721   -21720.621    1681.3025   -23401.924    92.020292    248.47672 
   27800    112.47393   -981.90789    90942.889   -21743.085     1686.375    -23429.46    92.238134    249.22637 
   27850    112.01456   -1132.6071    90928.072   -21745.576    1679.4875   -23425.064    92.235663    248.20848 
   27900    114.12423   -1222.6453    90957.387   -21703.042    1711.1187   -23414.161    91.788422    252.88319 
   27950     113.3004   -1217.0598    91044.259   -21693.624    1698.7667    -23392.39     91.63691    251.05772 
   28000    113.74974   -1034.1574     91035.59   -21710.975    1705.5039   -23416.479    91.927896     252.0534 
   28050    116.71427   -1100.0277    91088.014   -21713.491    1749.9525   -23463.443    92.222427    258.62237 
   28100     113.9299   -1047.0438    91062.681   -21680.855    1708.2051    -23389.06    92.237304     252.4526 
   28150    110.66754   -1140.4833    91122.469   -21713.407     1659.291   -23372.698    92.372321    245.22367 
   28200    115.97149   -1066.7298    91147.872   -21698.604    1738.8155    -23437.42    92.443721    256.97646 
   28250    116.34901   -1076.2576    91179.315   -21681.539    1744.4759   -23426.015     92.39758    257.81301 
   28300    115.79565   -1275.4815    91131.117   -21669.948    1736.1791   -23406.127    92.352539    256.58683 
   28350    113.71275   -1439.7592    91137.641   -21702.309    1704.9493   -23407.258    92.702642    251.97143 
   28400    111.38098   -1401.7526    91127.068   -21708.214    1669.9878   -23378.202    92.936586    246.80454 
   28450    115.69191   -1234.3746    91103.197   -21691.947    1734.6237   -23426.571    92.924777    256.35696 
   28500    115.47018   -1623.6464    91105.644    -21674.21    1731.2992   -23405.509    93.134835    255.86564 
   28550    116.20773   -1273.7688    91079.785   -21651.908    1742.3577   -23394.265    93.139031    257.49996 
   28600    116.62251   -1151.8518    91063.711   -21657.652    1748.5767   -23406.229    92.853661    258.41905 
   28650    117.32963   -1098.7632    91106.519   -21637.959    1759.1789   -23397.138    93.171453    259.98593 
   28700    113.12182   -1085.5451    91092.999   -21668.929    1696.0891   -23365.018    93.156303      250.662 
   28750    115.01348   -1253.3883      91166.3   -21677.746    1724.4517   -23402.198    93.646873    254.85366 
   28800    114.50667    -1000.071    91219.838   -21663.779    1716.8528   -23380.632    93.948004    253.73064 
   28850    117.52001   -1198.0785    91269.131   -21717.983    1762.0333   -23480.016    94.611798    260.40778 
   28900    113.95048   -1184.6464    91265.819   -21732.369    1708.5136   -23440.882    94.589867    252.49819 
   28950     114.0902   -1074.3454    91267.268   -21716.725    1710.6085   -23427.334    94.958158     252.8078 
   29000    113.98696   -1343.7528    91331.361   -21751.381    1709.0607   -23460.442    95.213616    252.57904 
   29050    113.39572   -1385.1295    91333.733   -21742.707    1700.1958   -23442.903    95.305189    251.26893 
   29100      112.991   -1071.4222    91242.961    -21771.02    1694.1277   -23465.147    95.165823    250.37213 
   29150    114.13842   -980.25914    91288.927   -21772.366    1711.3316   -23483.697    95.096891    252.91466 
   29200    112.65793   -1274.0767    91330.212   -21786.155    1689.1337   -23475.289    95.055405    249.63408 
   29250    110.76363   -1158.2164    91344.593   -21777.682    1660.7317   -23438.413    95.166925    245.43659 
   29300    114.95334   -1113.9531    91366.451   -21725.874    1723.5499   -23449.423    95.264106    254.72039 
   29350    112.32017   -1382.0422     91369.63   -21765.306    1684.0696   -23449.376    95.898688    248.88566 
   29400    112.19773   -1309.8232    91297.529   -21748.814    1682.2338   -23431.048    96.436198    248.61435 
   29450    113.48974   -1258.1518    91282.428   -21734.134    1701.6056   -23435.739    96.436857    251.47727 
   29500    113.19707   -1085.2974    91215.312   -21737.521    1697.2174   -23434.739    96.697866    250.82875 
   29550    111.95812   -1349.5249    91226.675   -21765.247    1678.6412   -23443.888    96.971609     248.0834 
   29600    111.33815   -1409.2002    91196.822   -21773.134    1669.3457   -23442.479     97.36048    246.70964 
   29650    111.03371   -1137.5994     91163.68   -21777.316    1664.7812   -23442.098    97.382697    246.03506 
   29700    112.66339   -1507.8463    91159.887   -21761.339    1689.2157   -23450.555    97.522362     249.6462 
   29750     112.9203   -1299.3828    91153.388   -21749.201    1693.0677   -23442.268    97.718647    250.21547 
   29800    111.06755   -1086.7106    91181.168   -21750.207    1665.2885   -23415.496    97.718591    246.11003 
   29850    109.92748   -1197.6568    91256.644   -21783.172    1648.1948   -23431.367     97.99122    243.58379 
   29900     112.5553   -1298.0764    91281.136   -21765.211     1687.595   -23452.806    98.000463    249.40668 
   29950     111.7105   -1266.2291    91226.353   -21768.455    1674.9285   -23443.384    98.184503    247.53472 
   30000     110.9871   -1216.6903    91209.629   -21795.037    1664.0823   -23459.119    98.410802    245.93177 
   30050    110.31116   -1477.5953    91162.571   -21815.497    1653.9475   -23469.444    98.412827    244.43397 
   30100    111.51569   -1392.0051    91068.197   -21836.618    1672.0076   -23508.626    98.451224    247.10304 
   30150    110.50488   -1451.7464    90946.396   -21824.194    1656.8521   -23481.047    98.564407    244.86324 
   30200    112.43764   -1355.5506    90839.978   -21870.057    1685.8308   -23555.888    98.543282    249.14595 
   30250    107.77762   -1378.9965    90791.001   -21893.823    1615.9611   -23509.784    98.148713    238.82002 
   30300    110.79699   -1127.5958    90767.477   -21852.526    1661.2318   -23513.758    98.120445     245.5105 
   30350    108.67275   -1164.9363    90757.988   -21816.281    1629.3821   -23445.663    98.398373    240.80349 
   30400    112.70428    -1149.927    90797.578   -21776.332    1689.8287   -23466.161     98.62097    249.73679 
   30450     111.1831   -861.86442    90852.638   -21767.836    1667.0209   -23434.857    98.661102    246.36607 
   30500    114.75401   -1036.0253    90881.254   -21752.239    1720.5613     -23472.8    98.527992    254.27871 
   30550    111.88689   -1130.4259    90892.504   -21785.835    1677.5733   -23463.408    99.042177    247.92558 
   30600    112.77646   -1160.9756    90964.828   -21776.022     1690.911   -23466.933    99.030951    249.89673 
   30650    112.84596   -1479.5294    91005.309   -21772.852     1691.953   -23464.805    99.073366    250.05074 
   30700    112.91619   -1198.4129    91042.515   -21784.025     1693.006   -23477.031    98.857326    250.20635 
   30750    111.93562   -1166.5333    91070.177   -21818.879    1678.3038   -23497.183    98.925599    248.03355 
   30800    109.17308   -1426.8136    91057.503   -21830.796    1636.8838    -23467.68    98.988025    241.91216 
   30850    108.15559   -1240.0552    91001.939    -21803.74    1621.6281   -23425.368    99.115684    239.65754 
   30900    109.35278   -1310.8908    91009.515   -21791.442    1639.5782    -23431.02    99.377669    242.31035 
   30950    114.78017   -1120.7053    91004.108   -21772.567    1720.9536   -23493.521    99.578791    254.33668 
   31000    113.27961   -1041.9805    91049.899   -21739.588    1698.4549   -23438.042    99.923686    251.01164 
   31050    110.95165   -884.98073    91038.086   -21733.361    1663.5507   -23396.912    99.982458    245.85321 
   31100    111.33714   -1271.1059    91039.157   -21721.808    1669.3306   -23391.138    100.07119    246.70741 
   31150    114.48231   -1308.3259    90971.093   -21740.333    1716.4875   -23456.821    100.32483    253.67665 
   31200     113.0642   -1109.4719    90943.447   -21746.608    1695.2253   -23441.833    100.27455    250.53434 
   31250    114.66057   -1121.9466    90971.922   -21762.522    1719.1603   -23481.682    100.80806    254.07165 
   31300    113.55982   -1092.4524     90992.31   -21755.062    1702.6562   -23457.719     101.1823    251.63255 
   31350    113.26488   -1156.5033    90997.692   -21763.924     1698.234   -23462.158    101.35466      250.979 
   31400    114.19261   -1151.6217    91023.035    -21826.21     1712.144   -23538.354    101.91124    253.03473 
   31450    107.80653   -1642.1927    90955.647   -21853.779    1616.3945   -23470.174    102.05185    238.88408 
   31500    108.51842   -1410.9303     90906.96    -21823.07    1627.0682   -23450.138    101.94145    240.46153 
   31550    109.87765    -1375.642    90886.704   -21858.968    1647.4477   -23506.415    101.99278    243.47338 
   31600    111.20409     -1303.64     90863.86   -21807.866    1667.3357   -23475.201    101.91562    246.41259 
   31650    109.61803    -1295.547    90843.939   -21781.736    1643.5552   -23425.291    102.10039    242.89811 
   31700    112.25922   -1203.3759    90793.795   -21761.799    1683.1558   -23444.955    102.03472    248.75061 
   31750    115.33149   -1027.9296    90804.076   -21742.569    1729.2198   -23471.789    102.23364    255.55833 
   31800    113.93705   -1237.7352    90928.706   -21746.308    1708.3123   -23454.621    102.49867    252.46845 
   31850    114.25496   -1131.6618    90912.038   -21704.658    1713.0789   -23417.737    102.30934    253.17289 
   31900    111.50307   -1291.8648    90864.042   -21713.197    1671.8184   -23385.016     102.8818    247.07508 
   31950    115.89435   -1117.9048    90823.405   -21678.464    1737.6591   -23416.123    102.89833    256.80555 
   32000     114.4291   -1178.9528    90831.773   -21703.327    1715.6898   -23419.017    102.74245    253.55875 
   32050    116.44537   -1306.4934    90838.037   -21716.374    1745.9208   -23462.295    103.05072    258.02653 
   32100    109.94974   -1348.7635    90835.758   -21721.146    1648.5286   -23369.675    103.36034    243.63311 
   32150    109.90234   -1275.5297    90882.373   -21765.273    1647.8179   -23413.091    103.69658    243.52809 
   32200    109.86791   -1189.9914    90916.119   -21759.489    1647.3016   -23406.791    104.23177    243.45179 
   32250    113.68049   -922.30526    90997.597   -21730.642    1704.4656   -23435.108    104.26518    251.89995 
   32300    113.70305   -1305.8615    90989.493   -21712.919    1704.8037   -23417.722     104.2398    251.94992 
   32350    113.67249   -1346.2174    91009.159   -21687.959    1704.3455   -23392.304    104.21996     251.8822 
   32400    115.57161   -1275.5015    91058.449   -21746.423      1732.82   -23479.243    104.12715     256.0904 
   32450    112.46024   -1392.9497    91048.179   -21769.509    1686.1698   -23455.679    104.33325    249.19605 
   32500    112.40792   -1010.0349    91122.891    -21732.03    1685.3853   -23417.415    104.57043    249.08011 
   32550    113.02073   -933.16276    91130.165   -21719.903    1694.5735   -23414.476    104.42396    250.43801 
   32600      112.118   -1017.0965    91167.255   -21765.326    1681.0384   -23446.364    104.54188    248.43768 
   32650    110.48619    -1387.775     91202.47   -21761.188    1656.5718    -23417.76    104.62432    244.82181 
   32700    113.45167   -1225.2201    91275.427   -21735.911    1701.0347   -23436.946    104.73997     251.3929 
   32750    113.53297   -1152.4464    91293.689    -21729.87    1702.2537   -23432.124    104.98832    251.57306 
   32800    110.51485   -1336.0512      91320.2   -21785.188    1657.0016   -23442.189    105.30947    244.88532 
   32850     113.1022   -1164.7169    91329.766   -21753.653     1695.795   -23449.448     105.3238    250.61854 
   32900    107.66788   -1257.8917    91303.145   -21778.866    1614.3156   -23393.182    105.34973    238.57685 
   32950    110.91804   -1244.2463    91294.389   -21719.541    1663.0468   -23382.588    105.35776    245.77874 
   33000    108.65767   -1272.0139    91290.632   -21759.788     1629.156   -23388.944     105.5009    240.77008 
   33050     111.8261   -1466.3735    91278.484   -21806.201    1676.6617   -23482.863    105.78147    247.79087 
   33100     111.5595   -1320.9547    91243.595    -21789.37    1672.6645   -23462.035     105.8767    247.20012 
   33150    110.87416   -1227.0182    91124.329   -21793.826    1662.3888   -23456.215    106.36634     245.6815 
   33200      114.701   -1453.9275    91111.328   -21741.679    1719.7665   -23461.446    106.39512    254.16124 
   33250    109.50482   -1023.8084    91123.941   -21719.194    1641.8577   -23361.052    106.75907    242.64724 
   33300    113.82987   -1362.9856    91172.575   -21725.881    1706.7053   -23432.586    107.16841    252.23095 
   33350    116.12701   -1183.7513    91196.696   -21726.021    1741.1473   -23467.168    107.16852    257.32108 
   33400    112.20637   -1667.5816    91144.861   -21739.385    1682.3634   -23421.748    107.26222    248.63351 
   33450    111.46521   -1344.0517    91117.582   -21753.032    1671.2508   -23424.283    107.36372     246.9912 
   33500    112.65851   -1185.6513    91134.348   -21761.092    1689.1425   -23450.234    107.04515    249.63537 
   33550    110.66412    -1305.642    91125.279   -21724.068    1659.2396   -23383.307    107.43776    245.21608 
   33600    112.37996   -1290.2859    91230.032   -21703.728     1684.966   -23388.694    107.62854    249.01814 
   33650    114.76709   -1221.4977    91221.456   -21675.274    1720.7574   -23396.032    107.71405    254.30769 
   33700    117.40779    -1116.801    91260.672   -21650.125    1760.3507   -23410.475    107.68134    260.15911 
   33750    114.96169   -1365.9888    91266.671   -21663.429    1723.6752   -23387.104    107.80165     254.7389 
   33800    110.13128   -1253.1059    91287.387   -21708.828    1651.2506   -23360.079    107.77814     244.0354 
   33850    110.98796   -1400.5373     91293.09   -21722.809    1664.0951   -23386.904    108.00843    245.93367 
   33900    112.34465   -1443.2058    91288.657    -21750.03    1684.4367   -23434.466    108.42997    248.93991 
   33950    113.05336   -1187.6604    91263.823   -21743.737    1695.0627   -23438.799    108.60534    250.51032 
[...]
   92000    112.95016   -1200.4561    90712.844   -21727.379    1693.5154   -23420.894     292.4647    250.28164 
   92050    110.51874   -1509.2453    90738.283   -21731.287    1657.0599   -23388.347    292.35636    244.89395 
   92100    111.12619   -1394.5122     90757.52   -21755.058    1666.1677   -23421.225    291.91836    246.23997 
   92150    112.79776   -1218.0939    90752.039   -21692.929    1691.2303    -23384.16    292.25944    249.94393 
   92200    110.60095   -1405.6273    90799.408   -21683.837    1658.2925    -23342.13    292.56566    245.07612 
   92250    113.04323   -1392.3799    90833.902   -21733.714    1694.9108   -23428.625    292.39742    250.48786 
   92300    109.71471    -1424.786    90816.266   -21738.863    1645.0047   -23383.868    292.37457    243.11233 
   92350    109.26364   -1346.2486    90812.226   -21766.814    1638.2416   -23405.055    292.94461    242.11282 
   92400    110.00058   -1318.7105    90829.087   -21716.221     1649.291   -23365.512    292.80944    243.74579 
   92450     112.4262   -1329.7408    90903.803   -21652.047    1685.6594   -23337.706    293.43411    249.12062 
   92500    112.93539   -966.28096    90876.893   -21694.142    1693.2938   -23387.435    293.52866     250.2489 
   92550    111.84759   -1315.7437    90879.191    -21671.08    1676.9839   -23348.064    293.88766    247.83848 
   92600    116.77505   -1194.0085    90863.939   -21692.643    1750.8637   -23443.507    294.29686    258.75705 
   92650    111.74958   -1361.2978    90880.913   -21701.685    1675.5145     -23377.2    293.69368    247.62131 
   92700    111.17343   -1203.8221    90919.117   -21697.135     1666.876   -23364.011     293.9985    246.34465 
   92750    112.08352   -1236.4035    90987.634   -21733.144    1680.5214   -23413.665    293.67944    248.36128 
   92800    110.98896    -1353.424    90982.232   -21738.125    1664.1102   -23402.235    294.08837    245.93589 
   92850    108.77785   -1321.7948    90888.985   -21735.128     1630.958   -23366.085    294.46722    241.03639 
   92900    112.48229   -1397.5636    90927.967    -21714.02    1686.5004    -23400.52    294.84338    249.24491 
   92950    110.24573   -1278.2489    90900.003   -21690.876    1652.9665   -23343.842    295.19861    244.28899 
   93000    112.80094   -1079.5763    90943.982    -21697.21     1691.278   -23388.488    294.94003    249.95097 
   93050     111.6909   -984.12258    90935.317   -21737.166    1674.6347     -23411.8    295.38382     247.4913 
   93100    109.43247   -1009.6263    90970.516   -21741.828     1640.773   -23382.601     296.6413    242.48693 
   93150    111.05142   -1115.7541    90941.184   -21758.915    1665.0466   -23423.961    296.29828    246.07429 
   93200    113.65828   -1016.0987    91008.382   -21706.834    1704.1326   -23410.966    296.07353    251.85073 
   93250    110.84163    -1087.266    91002.721    -21743.95    1661.9012   -23405.851    296.86319    245.60944 
   93300    113.51304    -1026.763    91072.145   -21755.365    1701.9549   -23457.319    296.95842     251.5289 
   93350    113.40681   -1200.5811    91131.209   -21778.554    1700.3621   -23478.916    297.17598     251.2935 
   93400    111.47029   -1192.4153    91166.021   -21744.119    1671.3269   -23415.445    296.75629    247.00244 
   93450    112.46794   -1531.0177    91160.763   -21724.304    1686.2851   -23410.589    297.28213    249.21309 
   93500    113.76945   -1432.9463    91139.648   -21698.788    1705.7994   -23404.587    297.81368    252.09707 
   93550    111.96421   -1622.8923    91107.701   -21718.137    1678.7325    -23396.87    297.90562     248.0969 
   93600    113.53101   -1500.6275    91086.448   -21678.185    1702.2243   -23380.409    297.67944    251.56871 
   93650    114.09051   -1442.7734    91099.636   -21685.187    1710.6132     -23395.8    297.83734    252.80849 
   93700     110.2005   -1112.4117    91115.366   -21736.116    1652.2884   -23388.405    298.02293    244.18878 
   93750    112.29932   -1234.5059    91158.035   -21738.919     1683.757   -23422.676    297.96259    248.83946 
   93800      114.949   -1143.7652    91186.987   -21675.689    1723.4849   -23399.174    297.64763    254.71077 
   93850    114.98758   -1020.4466    91273.027   -21690.928    1724.0634   -23414.992    297.78368    254.79628 
   93900    112.06335   -1290.3272    91226.837   -21735.145     1680.219   -23415.364    297.35155    248.31658 
   93950    111.18698   -1439.4496    91157.017   -21755.586    1667.0792   -23422.666    297.12899    246.37468 
   94000    113.79899   -1175.4286    91200.894   -21731.888    1706.2423   -23438.131    297.74517    252.16253 
   94050    112.93822   -1054.2861    91298.383   -21703.744    1693.3363    -23397.08    298.11641    250.25516 
   94100    111.25944   -1618.4312    91304.473   -21783.317    1668.1656   -23451.483     297.7673    246.53524 
   94150     110.7058   -1444.9588     91253.16   -21793.696    1659.8647   -23453.561    298.01459    245.30846 
   94200    110.38468   -1420.4261    91164.361   -21827.241      1655.05   -23482.291    298.40611     244.5969 
   94250    111.44968   -1168.5231    91140.011   -21829.191    1671.0179   -23500.209    298.29296    246.95678 
   94300    109.99528   -1220.0879    91151.958   -21847.595    1649.2114   -23496.806    298.03765    243.73403 
   94350    111.60624   -1470.1227    91144.545   -21861.129    1673.3653   -23534.494    298.49705    247.30369 
   94400    108.25607   -1389.7568     91113.65   -21857.193    1623.1346   -23480.327     298.5504    239.88018 
   94450    109.06755   -1098.1646    91115.836   -21853.997    1635.3015   -23489.299    298.82357    241.67831 
   94500    112.00395   -1262.6905    91122.045   -21795.561    1679.3284    -23474.89    299.07063    248.18497 
   94550    113.00983   -1387.9958     91117.49   -21781.253    1694.4099   -23475.663    299.38684    250.41384 
   94600    111.86313   -1339.5437    91052.149   -21784.586     1677.217   -23461.803    299.64323    247.87293 
   94650    110.30912   -1531.2686     91003.57   -21779.526     1653.917   -23433.443    299.26113    244.42946 
   94700    112.49381   -912.36688    91013.144    -21766.74    1686.6731   -23453.413    299.89991    249.27043 
   94750    111.11709   -1174.3622    91015.686   -21786.541    1666.0312   -23452.572    300.42878     246.2198 
   94800    111.20945   -1010.5365    91102.577   -21765.681    1667.4161   -23433.097    300.45764    246.42448 
   94850    111.85871   -1142.2064    91207.447   -21765.781    1677.1507   -23442.932    300.28309    247.86312 
   94900    111.01629   -1191.1347    91366.787   -21741.542    1664.5199   -23406.062    300.06115    245.99645 
   94950    115.76253   -1268.0828    91374.019   -21740.216    1735.6826   -23475.899    300.33336    256.51345 
   95000     111.2231   -1418.2608    91376.141    -21757.53    1667.6207   -23425.151    300.03033    246.45471 
   95050    113.85066   -1317.6008    91339.738   -21745.376     1707.017   -23452.392    299.95596    252.27701 
   95100    111.18934   -1498.7363    91372.013   -21778.497    1667.1146   -23445.612    300.16965    246.37991 
   95150    112.76395   -1516.2358     91357.49   -21747.469    1690.7233   -23438.192    299.69563    249.86901 
   95200    113.84397   -1389.1218    91288.844   -21730.663    1706.9167    -23437.58    299.35296    252.26219 
   95250    108.77801   -1134.6215    91285.579   -21782.137    1630.9604   -23413.097    299.04253    241.03674 
   95300     112.4461   -1046.1917    91356.975   -21761.704    1685.9577   -23447.662    299.00726     249.1647 
   95350    110.92295   -1189.4372    91386.363    -21749.76    1663.1204   -23412.881    299.43726    245.78962 
   95400    113.97117   -1525.0771    91362.985   -21728.571    1708.8238   -23437.395     299.4228    252.54404 
   95450    109.33432   -1297.4281    91344.117   -21729.639    1639.3013    -23368.94    299.59259    242.26944 
   95500    111.63421   -1368.4275    91312.614   -21761.756    1673.7847   -23435.541    299.63304    247.36568 
   95550    108.14189   -1325.6444    91349.723   -21777.096    1621.4227   -23398.519    300.01694    239.62719 
   95600    110.16829   -1357.9063    91271.751   -21757.871    1651.8054   -23409.677     299.9888    244.11739 
   95650    110.84258   -1442.4296    91260.102   -21744.194    1661.9154    -23406.11    300.42118    245.61152 
   95700    114.00527   -1237.9901    91274.346   -21766.673    1709.3351   -23476.008    300.08993    252.61961 
   95750    109.20044   -1789.9214    91221.925   -21770.529     1637.294   -23407.823    299.83106    241.97277 
   95800    113.72791   -1390.1445    91167.304    -21746.49    1705.1765   -23451.666    299.42859    252.00501 
   95850     111.1709     -1317.45    91205.259   -21747.875    1666.8381   -23414.714    299.71896    246.33905 
   95900    114.02515   -1307.7367    91215.732   -21739.478    1709.6332   -23449.112     300.3424    252.66366 
   95950    110.86175   -1348.9049    91281.315   -21752.409    1662.2028   -23414.611    300.25954    245.65401 
   96000    114.54581   -1304.2771    91281.072   -21734.857    1717.4396   -23452.296    300.68113    253.81736 
   96050    111.04607   -1243.3288     91259.48    -21748.75    1664.9664   -23413.717    301.40505    246.06244 
   96100    113.85517    -1469.658    91207.154   -21737.275    1707.0846   -23444.359    301.87131      252.287 
   96150    111.59765    -1221.687    91196.583   -21726.822    1673.2365   -23400.058    301.50139    247.28466 
   96200     110.5407   -1120.6304     91308.29   -21707.051    1657.3892    -23364.44    301.82029    244.94262 
   96250     111.3874   -1224.7865    91333.587    -21733.25    1670.0842   -23403.334    301.37138    246.81878 
   96300    111.37389   -1215.9957    91377.819   -21720.419    1669.8816   -23390.301    301.98046    246.78885 
   96350    112.72947    -1451.112    91433.594   -21732.368    1690.2065   -23422.574    302.37974    249.79262 
   96400     110.8962   -1281.1634    91461.511   -21745.715    1662.7194   -23408.434    303.50215    245.73036 
   96450    114.22312    -1231.519    91440.427   -21699.649    1712.6014    -23412.25    303.19503    253.10233 
   96500    116.01355   -1310.3558    91458.174   -21693.418    1739.4462   -23432.864    303.50171    257.06967 
   96550     117.5435   -1558.7053    91382.497   -21667.462    1762.3855   -23429.848    303.07123    260.45983 
   96600    115.62133   -1574.5823    91310.375   -21659.002    1733.5655   -23392.568    302.71344    256.20057 
   96650    112.90853    -1461.177    91286.173   -21653.407    1692.8912   -23346.298    303.16075    250.18939 
   96700    115.52478   -1021.5306    91284.553   -21648.677    1732.1178   -23380.794    303.12033    255.98662 
   96750    112.68941   -1397.3865     91291.42   -21686.255    1689.6058   -23375.861    303.08366    249.70384 
   96800    114.44405   -1373.4681    91237.611   -21642.098    1715.9139   -23358.012    303.21744    253.59187 
   96850    115.53779   -1142.4273    91192.479   -21631.754    1732.3128   -23364.066    303.37414    256.01545 
   96900    113.38289   -1403.7369    91242.858   -21640.842    1700.0035   -23340.846     303.2839    251.24051 
   96950    114.75616   -1187.2255    91201.769   -21655.798    1720.5935   -23376.391    303.39499    254.28346 
   97000    114.32465   -1019.3614    91274.129   -21666.002    1714.1237   -23380.126    303.64953    253.32731 
   97050    113.36182   -1193.3509    91302.727   -21695.765    1699.6876   -23395.452    303.92088    251.19382 
   97100    113.00688   -1245.8188    91345.852   -21702.078    1694.3657   -23396.443     304.3909    250.40731 
   97150    112.32044   -1508.2252    91386.723   -21692.545    1684.0737   -23376.619    304.67327    248.88627 
   97200    114.89801   -1350.1626    91393.099   -21649.462    1722.7204   -23372.182     305.3516    254.59779 
   97250    114.64659   -1545.7462    91382.585   -21644.426    1718.9507   -23363.377    305.60137    254.04068 
   97300     109.4936   -1658.4932    91321.185   -21692.743    1641.6896   -23334.433    305.79336    242.62239 
   97350    113.37882   -1405.3016    91294.125   -21697.144    1699.9425   -23397.087    305.81702    251.23149 
   97400    109.85897   -1396.4396    91224.351   -21711.185    1647.1677   -23358.353      305.357    243.43199 
   97450    112.39254   -1221.4935    91200.532   -21675.444    1685.1546   -23360.598    305.54215    249.04602 
   97500     114.3964    -1176.982    91258.469   -21678.874    1715.1994   -23394.073    305.87211    253.48629 
   97550    113.04691    -1221.617    91257.148   -21696.482     1694.966   -23391.448    306.24504    250.49603 
   97600     111.7086   -1229.1297    91282.635    -21731.33       1674.9    -23406.23    306.53804     247.5305 
   97650    112.46499   -1361.9002    91321.262    -21759.34     1686.241   -23445.581    306.60865    249.20657 
   97700    113.67249    -1482.406    91388.241   -21706.064    1704.3456    -23410.41      306.434    251.88221 
   97750    112.99296   -1513.3961    91336.562   -21682.967     1694.157   -23377.124      306.547    250.37646 
   97800    117.13786   -1324.3347    91375.387   -21703.742    1756.3036   -23460.046    306.70113    259.56099 
   97850     114.0843   -1160.2212     91383.56   -21752.908      1710.52   -23463.428    305.94117    252.79472 
   97900    110.76833   -1213.0899    91347.616   -21796.212    1660.8022   -23457.015    306.03277    245.44701 
   97950    111.02957   -1238.3784    91356.168   -21805.049     1664.719   -23469.768    306.28212    246.02587 
   98000    113.89765   -1476.6108    91333.647   -21755.522    1707.7215   -23463.243    306.48107    252.38113 
   98050    109.63975   -1097.2517     91325.58   -21782.551    1643.8808   -23426.432    306.90904    242.94623 
   98100    112.54196     -1289.32    91323.337   -21757.892     1687.395   -23445.287    307.16834    249.37711 
   98150    111.77729   -1220.9782    91363.643    -21814.08    1675.9299    -23490.01      307.578    247.68271 
   98200    111.57914   -1469.4323     91419.87   -21788.432    1672.9589   -23461.391    308.13159    247.24364 
   98250    113.53212   -1494.1556    91393.588   -21768.135    1702.2409   -23470.376    308.30974    251.57117 
   98300    113.46342   -1524.9883    91439.131   -21767.167    1701.2109   -23468.378     308.3291    251.41895 
   98350    111.94619    -1491.629    91414.714    -21756.39    1678.4624   -23434.852    308.29076    248.05698 
   98400    110.41728   -1420.5923    91338.134   -21739.713    1655.5387   -23395.252    308.79412    244.66914 
   98450    116.31749   -1607.9674    91301.622   -21687.744    1744.0034   -23431.747     309.2489    257.74316 
   98500    115.46417   -1158.6396    91256.392   -21689.772    1731.2091   -23420.981    309.18592    255.85233 
   98550    113.35837   -1498.8548    91267.897   -21675.624    1699.6358    -23375.26    309.25411    251.18616 
   98600    115.87428   -1421.6103    91316.239    -21669.67    1737.3581   -23407.028    309.54561    256.76107 
   98650    113.73244   -1140.8518    91404.776   -21634.025    1705.2444    -23339.27    309.32985    252.01505 
   98700    117.97171   -1322.7242    91445.338   -21620.141    1768.8058   -23388.947    309.29577    261.40868 
   98750    115.46992   -1602.6072     91440.59   -21670.596    1731.2953   -23401.891    309.59329    255.86506 
   98800    113.65292   -1683.8292      91383.2   -21671.094    1704.0521   -23375.146    309.22458    251.83884 
   98850     113.6928   -1606.0475    91280.282   -21666.846    1704.6502   -23371.496     309.2011    251.92723 
   98900     115.3895   -1339.6893    91235.182   -21632.022    1730.0895   -23362.111    309.41199    255.68686 
   98950    114.10505   -1321.2606    91257.335   -21648.927    1710.8312   -23359.758    309.12541    252.84071 
   99000    112.34279      -1211.5    91209.384    -21621.58    1684.4087   -23305.989    309.43423    248.93578 
   99050    112.67429    -1250.853    91228.842   -21628.266    1689.3792   -23317.645    309.43822    249.67035 
   99100    111.19864   -1349.1942    91205.015   -21602.422    1667.2539   -23269.676    309.57106     246.4005 
   99150    112.10572   -1213.2327    91220.309   -21643.269    1680.8543   -23324.123    309.79459    248.41048 
   99200    112.26263   -1269.7081    91222.754   -21642.874    1683.2069   -23326.081    309.77481    248.75817 
   99250    111.23466   -1128.2545    91256.125    -21646.86     1667.794   -23314.654    310.13708    246.48032 
   99300    116.23445   -1237.1855    91276.794   -21629.473    1742.7583   -23372.231    310.11547    257.55916 
   99350    115.23864   -1647.2654    91296.457   -21638.136    1727.8276   -23365.964    310.00109    255.35258 
   99400    111.87672   -1269.3896    91245.277   -21702.597    1677.4207   -23380.018    310.37893    247.90303 
   99450    112.28332   -861.74791    91277.443   -21706.815     1683.517   -23390.332    310.41227      248.804 
   99500     109.8006   -1230.9268    91321.822   -21712.792    1646.2925   -23359.084    310.30778    243.30266 
   99550    111.67239   -986.30058    91369.855   -21644.323    1674.3571    -23318.68    310.57662    247.45027 
   99600    114.44012   -1452.2217    91435.594   -21653.275     1715.855    -23369.13    310.69831    253.58316 
   99650     116.3454   -1362.0683    91353.634   -21575.049    1744.4218    -23319.47    311.43321      257.805 
   99700     112.4599   -1056.1111    91387.308    -21597.02    1686.1647   -23283.185    311.31196    249.19529 
   99750    114.91379   -1070.3665    91414.554   -21630.468    1722.9569   -23353.425    311.87621    254.63275 
   99800    115.31401   -1295.9731      91404.2    -21592.75    1728.9576   -23321.708    311.92096    255.51958 
   99850    114.01751   -945.19367    91456.411   -21633.608    1709.5186   -23343.127     311.6059    252.64673 
   99900    112.97525   -1198.6025    91496.104   -21625.886    1693.8916   -23319.777    312.17405    250.33724 
   99950    114.98695    -1203.204    91457.121   -21619.976     1724.054    -23344.03    312.14036    254.79488 
  100000    113.86773   -1213.8916    91461.518    -21626.99     1707.273   -23334.263    312.56897    252.31485 
Loop time of 43.0315 on 80 procs for 100000 steps with 5031 atoms

Performance: 1003.916 ns/day, 0.024 hours/ns, 2323.880 timesteps/s
100.0% CPU use with 80 MPI tasks x no OpenMP threads

MPI task timing breakdown:
Section |  min time  |  avg time  |  max time  |%varavg| %total
---------------------------------------------------------------
Pair    | 5.9171     | 17.619     | 24.633     | 171.7 | 40.94
Neigh   | 0.48658    | 1.2541     | 3.3754     |  95.3 |  2.91
Comm    | 10.623     | 17.198     | 28.636     | 164.5 | 39.96
Output  | 0.13669    | 0.14045    | 0.30969    |   5.1 |  0.33
Modify  | 3.9854     | 5.9114     | 7.4537     |  40.5 | 13.74
Other   |            | 0.909      |            |       |  2.11

Nlocal:    62.8875 ave 145 max 30 min
Histogram: 53 7 0 0 0 0 0 0 5 15
Nghost:    669.138 ave 831 max 384 min
Histogram: 20 0 0 0 0 0 0 36 4 20
Neighs:    0 ave 0 max 0 min
Histogram: 80 0 0 0 0 0 0 0 0 0
FullNghs:  5895.5 ave 18822 max 1114 min
Histogram: 60 0 0 0 0 0 0 0 1 19

Total # of neighbors = 471640
Ave neighs/atom = 93.7468
Neighbor list builds = 5949
Dangerous builds = 0

write_data		${DIR}/data.eq-${NAME}-${TEMP}
write_data		run_12/data.eq-${NAME}-${TEMP}
write_data		run_12/data.eq-het_freeze_12-${TEMP}
write_data		run_12/data.eq-het_freeze_12-250
undump          1

reset_timestep  0

unfix           2
unfix           3
unfix           4


################################################
#######         Run Simulation         #########
################################################

log				${DIR}/log.run_${NAME}
log				run_12/log.run_${NAME}
log				run_12/log.run_het_freeze_12
