LAMMPS data file via write_data, version 16 Mar 2018, timestep = 8000000

4545 atoms
2 atom types

0.0000000000000000e+00 4.9219999999999999e+01 xlo xhi
0.0000000000000000e+00 4.9019635930410494e+01 ylo yhi
9.2809600523503022e-01 3.2707243781284326e+01 zlo zhi

Masses

1 18.015
2 12.01

Atoms # atomic

91 2 0.0000000000000000e+00 2.8417180249513345e+00 2.5125494746706600e+00 0 0 0
93 2 0.0000000000000000e+00 0.0000000000000000e+00 2.5125494746706600e+00 0 0 0
95 2 1.2305000000000001e+00 7.1042950623783474e-01 2.5125494746706600e+00 0 0 0
102 2 1.2305000000000001e+00 2.1312885187134998e+00 2.5125494746706600e+00 0 0 0
104 2 2.4610000000000003e+00 2.8417180249513345e+00 2.5125494746706600e+00 0 0 0
106 2 2.4610000000000003e+00 0.0000000000000000e+00 2.5125494746706600e+00 0 0 0
108 2 3.6915000000000004e+00 7.1042950623783474e-01 2.5125494746706600e+00 0 0 0
123 2 3.6914999999999996e+00 2.1312885187134998e+00 2.5125494746706600e+00 0 0 0
125 2 4.9220000000000006e+00 2.8417180249513332e+00 2.5125494746706600e+00 0 0 0
127 2 4.9220000000000006e+00 0.0000000000000000e+00 2.5125494746706600e+00 0 0 0
129 2 6.1524999999999999e+00 7.1042950623783407e-01 2.5125494746706600e+00 0 0 0
152 2 6.1524999999999999e+00 2.1312885187134989e+00 2.5125494746706600e+00 0 0 0
154 2 7.3829999999999991e+00 2.8417180249513345e+00 2.5125494746706600e+00 0 0 0
156 2 7.3829999999999991e+00 0.0000000000000000e+00 2.5125494746706600e+00 0 0 0
158 2 8.6134999999999984e+00 7.1042950623783407e-01 2.5125494746706600e+00 0 0 0
189 2 8.6134999999999984e+00 2.1312885187135002e+00 2.5125494746706600e+00 0 0 0
191 2 9.8440000000000012e+00 2.8417180249513332e+00 2.5125494746706600e+00 0 0 0
193 2 9.8440000000000012e+00 0.0000000000000000e+00 2.5125494746706600e+00 0 0 0
195 2 1.1074500000000002e+01 7.1042950623783330e-01 2.5125494746706600e+00 0 0 0
234 2 1.1074500000000002e+01 2.1312885187135002e+00 2.5125494746706600e+00 0 0 0
98 2 0.0000000000000000e+00 4.2625770374269996e+00 2.5125494746706600e+00 0 0 0
100 2 1.2305000000000001e+00 4.9730065436648339e+00 2.5125494746706600e+00 0 0 0
115 2 1.2305000000000001e+00 6.3938655561404980e+00 2.5125494746706600e+00 0 0 0
119 2 2.4610000000000003e+00 4.2625770374269996e+00 2.5125494746706600e+00 0 0 0
121 2 3.6914999999999996e+00 4.9730065436648339e+00 2.5125494746706600e+00 0 0 0
144 2 3.6914999999999996e+00 6.3938655561404980e+00 2.5125494746706600e+00 0 0 0
96 2 0.0000000000000000e+00 7.1042950623783341e+00 2.5125494746706600e+00 0 0 0
117 2 2.4610000000000003e+00 7.1042950623783341e+00 2.5125494746706600e+00 0 0 0
148 2 4.9220000000000006e+00 4.2625770374269978e+00 2.5125494746706600e+00 0 0 0
150 2 6.1524999999999999e+00 4.9730065436648339e+00 2.5125494746706600e+00 0 0 0
181 2 6.1524999999999999e+00 6.3938655561404980e+00 2.5125494746706600e+00 0 0 0
185 2 7.3829999999999991e+00 4.2625770374269996e+00 2.5125494746706600e+00 0 0 0
146 2 4.9220000000000006e+00 7.1042950623783341e+00 2.5125494746706600e+00 0 0 0
183 2 7.3830000000000009e+00 7.1042950623783341e+00 2.5125494746706600e+00 0 0 0
187 2 8.6135000000000002e+00 4.9730065436648339e+00 2.5125494746706600e+00 0 0 0
226 2 8.6135000000000002e+00 6.3938655561404980e+00 2.5125494746706600e+00 0 0 0
230 2 9.8440000000000012e+00 4.2625770374270004e+00 2.5125494746706600e+00 0 0 0
232 2 1.1074500000000002e+01 4.9730065436648339e+00 2.5125494746706600e+00 0 0 0
273 2 1.1074500000000002e+01 6.3938655561404980e+00 2.5125494746706600e+00 0 0 0
228 2 9.8440000000000012e+00 7.1042950623783341e+00 2.5125494746706600e+00 0 0 0
111 2 0.0000000000000000e+00 8.5251540748539991e+00 2.5125494746706600e+00 0 0 0
113 2 1.2305000000000001e+00 9.2355835810918343e+00 2.5125494746706600e+00 0 0 0
140 2 2.4610000000000003e+00 8.5251540748539991e+00 2.5125494746706600e+00 0 0 0
142 2 3.6915000000000004e+00 9.2355835810918343e+00 2.5125494746706600e+00 0 0 0
109 2 0.0000000000000000e+00 1.1366872099805333e+01 2.5125494746706600e+00 0 0 0
136 2 1.2305000000000001e+00 1.0656442593567498e+01 2.5125494746706600e+00 0 0 0
138 2 2.4610000000000003e+00 1.1366872099805333e+01 2.5125494746706600e+00 0 0 0
173 2 3.6914999999999996e+00 1.0656442593567499e+01 2.5125494746706600e+00 0 0 0
177 2 4.9220000000000006e+00 8.5251540748539991e+00 2.5125494746706600e+00 0 0 0
179 2 6.1524999999999999e+00 9.2355835810918343e+00 2.5125494746706600e+00 0 0 0
222 2 7.3830000000000009e+00 8.5251540748539991e+00 2.5125494746706600e+00 0 0 0
175 2 4.9220000000000006e+00 1.1366872099805333e+01 2.5125494746706600e+00 0 0 0
218 2 6.1524999999999999e+00 1.0656442593567499e+01 2.5125494746706600e+00 0 0 0
220 2 7.3829999999999991e+00 1.1366872099805333e+01 2.5125494746706600e+00 0 0 0
224 2 8.6134999999999984e+00 9.2355835810918343e+00 2.5125494746706600e+00 0 0 0
269 2 9.8440000000000012e+00 8.5251540748539956e+00 2.5125494746706600e+00 0 0 0
271 2 1.1074500000000002e+01 9.2355835810918343e+00 2.5125494746706600e+00 0 0 0
265 2 8.6134999999999984e+00 1.0656442593567498e+01 2.5125494746706600e+00 0 0 0
267 2 9.8440000000000012e+00 1.1366872099805333e+01 2.5125494746706600e+00 0 0 0
312 2 1.1074500000000002e+01 1.0656442593567498e+01 2.5125494746706600e+00 0 0 0
314 2 1.2304999999999998e+01 1.1366872099805333e+01 2.5125494746706600e+00 0 0 0
92 2 0.0000000000000000e+00 1.4208590124756650e+00 5.6814564135468189e+00 0 0 0
94 2 0.0000000000000000e+00 0.0000000000000000e+00 5.6814564135468189e+00 0 0 0
103 2 1.2305000000000001e+00 2.1312885187134998e+00 5.6814564135468189e+00 0 0 0
105 2 2.4610000000000003e+00 1.4208590124756650e+00 5.6814564135468189e+00 0 0 0
107 2 2.4610000000000003e+00 0.0000000000000000e+00 5.6814564135468189e+00 0 0 0
124 2 3.6914999999999996e+00 2.1312885187134998e+00 5.6814564135468189e+00 0 0 0
420 2 0.0000000000000000e+00 2.8417180249513345e+00 8.8503633524220717e+00 0 0 0
421 2 0.0000000000000000e+00 0.0000000000000000e+00 8.8503633524220717e+00 0 0 0
422 2 1.2305000000000001e+00 7.1042950623783474e-01 8.8503633524220717e+00 0 0 0
426 2 1.2305000000000001e+00 2.1312885187134998e+00 8.8503633524220717e+00 0 0 0
427 2 2.4610000000000003e+00 2.8417180249513345e+00 8.8503633524220717e+00 0 0 0
428 2 2.4610000000000003e+00 0.0000000000000000e+00 8.8503633524220717e+00 0 0 0
429 2 3.6915000000000004e+00 7.1042950623783474e-01 8.8503633524220717e+00 0 0 0
437 2 3.6914999999999996e+00 2.1312885187134998e+00 8.8503633524220717e+00 0 0 0
101 2 1.2305000000000001e+00 3.5521475311891644e+00 5.6814564135468189e+00 0 0 0
122 2 3.6914999999999996e+00 3.5521475311891644e+00 5.6814564135468189e+00 0 0 0
126 2 4.9220000000000006e+00 1.4208590124756650e+00 5.6814564135468189e+00 0 0 0
128 2 4.9220000000000006e+00 0.0000000000000000e+00 5.6814564135468189e+00 0 0 0
153 2 6.1524999999999999e+00 2.1312885187134989e+00 5.6814564135468189e+00 0 0 0
155 2 7.3829999999999991e+00 1.4208590124756659e+00 5.6814564135468189e+00 0 0 0
157 2 7.3829999999999991e+00 0.0000000000000000e+00 5.6814564135468189e+00 0 0 0
438 2 4.9220000000000006e+00 2.8417180249513332e+00 8.8503633524220717e+00 0 0 0
439 2 4.9220000000000006e+00 0.0000000000000000e+00 8.8503633524220717e+00 0 0 0
440 2 6.1524999999999999e+00 7.1042950623783407e-01 8.8503633524220717e+00 0 0 0
452 2 6.1524999999999999e+00 2.1312885187134989e+00 8.8503633524220717e+00 0 0 0
453 2 7.3829999999999991e+00 2.8417180249513345e+00 8.8503633524220717e+00 0 0 0
454 2 7.3829999999999991e+00 0.0000000000000000e+00 8.8503633524220717e+00 0 0 0
151 2 6.1524999999999999e+00 3.5521475311891644e+00 5.6814564135468189e+00 0 0 0
190 2 8.6134999999999984e+00 2.1312885187135002e+00 5.6814564135468189e+00 0 0 0
192 2 9.8440000000000012e+00 1.4208590124756659e+00 5.6814564135468189e+00 0 0 0
194 2 9.8440000000000012e+00 0.0000000000000000e+00 5.6814564135468189e+00 0 0 0
235 2 1.1074500000000002e+01 2.1312885187135002e+00 5.6814564135468189e+00 0 0 0
455 2 8.6134999999999984e+00 7.1042950623783407e-01 8.8503633524220717e+00 0 0 0
471 2 8.6134999999999984e+00 2.1312885187135002e+00 8.8503633524220717e+00 0 0 0
472 2 9.8440000000000012e+00 2.8417180249513332e+00 8.8503633524220717e+00 0 0 0
473 2 9.8440000000000012e+00 0.0000000000000000e+00 8.8503633524220717e+00 0 0 0
474 2 1.1074500000000002e+01 7.1042950623783330e-01 8.8503633524220717e+00 0 0 0
494 2 1.1074500000000002e+01 2.1312885187135002e+00 8.8503633524220717e+00 0 0 0
188 2 8.6134999999999984e+00 3.5521475311891657e+00 5.6814564135468189e+00 0 0 0
233 2 1.1074500000000002e+01 3.5521475311891644e+00 5.6814564135468189e+00 0 0 0
97 2 0.0000000000000000e+00 5.6834360499026637e+00 5.6814564135468189e+00 0 0 0
99 2 0.0000000000000000e+00 4.2625770374269996e+00 5.6814564135468189e+00 0 0 0
116 2 1.2305000000000001e+00 6.3938655561404980e+00 5.6814564135468189e+00 0 0 0
118 2 2.4610000000000003e+00 5.6834360499026637e+00 5.6814564135468189e+00 0 0 0
120 2 2.4610000000000003e+00 4.2625770374269996e+00 5.6814564135468189e+00 0 0 0
145 2 3.6914999999999996e+00 6.3938655561404980e+00 5.6814564135468189e+00 0 0 0
424 2 0.0000000000000000e+00 4.2625770374269996e+00 8.8503633524220717e+00 0 0 0
425 2 1.2305000000000001e+00 4.9730065436648339e+00 8.8503633524220717e+00 0 0 0
433 2 1.2305000000000001e+00 6.3938655561404980e+00 8.8503633524220717e+00 0 0 0
435 2 2.4610000000000003e+00 4.2625770374269996e+00 8.8503633524220717e+00 0 0 0
436 2 3.6914999999999996e+00 4.9730065436648339e+00 8.8503633524220717e+00 0 0 0
448 2 3.6914999999999996e+00 6.3938655561404980e+00 8.8503633524220717e+00 0 0 0
114 2 1.2305000000000001e+00 7.8147245686161639e+00 5.6814564135468189e+00 0 0 0
143 2 3.6914999999999996e+00 7.8147245686161639e+00 5.6814564135468189e+00 0 0 0
423 2 0.0000000000000000e+00 7.1042950623783341e+00 8.8503633524220717e+00 0 0 0
434 2 2.4610000000000003e+00 7.1042950623783341e+00 8.8503633524220717e+00 0 0 0
147 2 4.9220000000000006e+00 5.6834360499026637e+00 5.6814564135468189e+00 0 0 0
149 2 4.9220000000000006e+00 4.2625770374269978e+00 5.6814564135468189e+00 0 0 0
182 2 6.1524999999999999e+00 6.3938655561404980e+00 5.6814564135468189e+00 0 0 0
184 2 7.3829999999999991e+00 5.6834360499026637e+00 5.6814564135468189e+00 0 0 0
186 2 7.3829999999999991e+00 4.2625770374269996e+00 5.6814564135468189e+00 0 0 0
450 2 4.9220000000000006e+00 4.2625770374269978e+00 8.8503633524220717e+00 0 0 0
451 2 6.1524999999999999e+00 4.9730065436648339e+00 8.8503633524220717e+00 0 0 0
467 2 6.1524999999999999e+00 6.3938655561404980e+00 8.8503633524220717e+00 0 0 0
469 2 7.3829999999999991e+00 4.2625770374269996e+00 8.8503633524220717e+00 0 0 0
180 2 6.1524999999999999e+00 7.8147245686161639e+00 5.6814564135468189e+00 0 0 0
449 2 4.9220000000000006e+00 7.1042950623783341e+00 8.8503633524220717e+00 0 0 0
468 2 7.3830000000000009e+00 7.1042950623783341e+00 8.8503633524220717e+00 0 0 0
227 2 8.6135000000000002e+00 6.3938655561404980e+00 5.6814564135468189e+00 0 0 0
229 2 9.8440000000000012e+00 5.6834360499026637e+00 5.6814564135468189e+00 0 0 0
231 2 9.8440000000000012e+00 4.2625770374270004e+00 5.6814564135468189e+00 0 0 0
274 2 1.1074500000000002e+01 6.3938655561404980e+00 5.6814564135468189e+00 0 0 0
470 2 8.6135000000000002e+00 4.9730065436648339e+00 8.8503633524220717e+00 0 0 0
490 2 8.6135000000000002e+00 6.3938655561404980e+00 8.8503633524220717e+00 0 0 0
492 2 9.8440000000000012e+00 4.2625770374270004e+00 8.8503633524220717e+00 0 0 0
493 2 1.1074500000000002e+01 4.9730065436648339e+00 8.8503633524220717e+00 0 0 0
514 2 1.1074500000000002e+01 6.3938655561404980e+00 8.8503633524220717e+00 0 0 0
225 2 8.6135000000000002e+00 7.8147245686161639e+00 5.6814564135468189e+00 0 0 0
272 2 1.1074500000000002e+01 7.8147245686161639e+00 5.6814564135468189e+00 0 0 0
491 2 9.8440000000000012e+00 7.1042950623783341e+00 8.8503633524220717e+00 0 0 0
110 2 0.0000000000000000e+00 9.9460130873296642e+00 5.6814564135468189e+00 0 0 0
112 2 0.0000000000000000e+00 8.5251540748539991e+00 5.6814564135468189e+00 0 0 0
139 2 2.4610000000000003e+00 9.9460130873296642e+00 5.6814564135468189e+00 0 0 0
141 2 2.4610000000000003e+00 8.5251540748539991e+00 5.6814564135468189e+00 0 0 0
431 2 0.0000000000000000e+00 8.5251540748539991e+00 8.8503633524220717e+00 0 0 0
432 2 1.2305000000000001e+00 9.2355835810918343e+00 8.8503633524220717e+00 0 0 0
446 2 2.4610000000000003e+00 8.5251540748539991e+00 8.8503633524220717e+00 0 0 0
447 2 3.6915000000000004e+00 9.2355835810918343e+00 8.8503633524220717e+00 0 0 0
135 2 1.2305000000000001e+00 1.2077301606043163e+01 5.6814564135468189e+00 0 0 0
137 2 1.2305000000000001e+00 1.0656442593567498e+01 5.6814564135468189e+00 0 0 0
172 2 3.6914999999999996e+00 1.2077301606043163e+01 5.6814564135468189e+00 0 0 0
174 2 3.6914999999999996e+00 1.0656442593567499e+01 5.6814564135468189e+00 0 0 0
430 2 0.0000000000000000e+00 1.1366872099805333e+01 8.8503633524220717e+00 0 0 0
444 2 1.2305000000000001e+00 1.0656442593567498e+01 8.8503633524220717e+00 0 0 0
445 2 2.4610000000000003e+00 1.1366872099805333e+01 8.8503633524220717e+00 0 0 0
463 2 3.6914999999999996e+00 1.0656442593567499e+01 8.8503633524220717e+00 0 0 0
176 2 4.9220000000000006e+00 9.9460130873296642e+00 5.6814564135468189e+00 0 0 0
178 2 4.9220000000000006e+00 8.5251540748539991e+00 5.6814564135468189e+00 0 0 0
221 2 7.3830000000000009e+00 9.9460130873296642e+00 5.6814564135468189e+00 0 0 0
223 2 7.3830000000000009e+00 8.5251540748539991e+00 5.6814564135468189e+00 0 0 0
465 2 4.9220000000000006e+00 8.5251540748539991e+00 8.8503633524220717e+00 0 0 0
466 2 6.1524999999999999e+00 9.2355835810918343e+00 8.8503633524220717e+00 0 0 0
488 2 7.3830000000000009e+00 8.5251540748539991e+00 8.8503633524220717e+00 0 0 0
217 2 6.1524999999999999e+00 1.2077301606043163e+01 5.6814564135468189e+00 0 0 0
219 2 6.1524999999999999e+00 1.0656442593567499e+01 5.6814564135468189e+00 0 0 0
464 2 4.9220000000000006e+00 1.1366872099805333e+01 8.8503633524220717e+00 0 0 0
486 2 6.1524999999999999e+00 1.0656442593567499e+01 8.8503633524220717e+00 0 0 0
487 2 7.3829999999999991e+00 1.1366872099805333e+01 8.8503633524220717e+00 0 0 0
268 2 9.8440000000000012e+00 9.9460130873296642e+00 5.6814564135468189e+00 0 0 0
270 2 9.8440000000000012e+00 8.5251540748539956e+00 5.6814564135468189e+00 0 0 0
489 2 8.6134999999999984e+00 9.2355835810918343e+00 8.8503633524220717e+00 0 0 0
512 2 9.8440000000000012e+00 8.5251540748539956e+00 8.8503633524220717e+00 0 0 0
513 2 1.1074500000000002e+01 9.2355835810918343e+00 8.8503633524220717e+00 0 0 0
264 2 8.6135000000000002e+00 1.2077301606043163e+01 5.6814564135468189e+00 0 0 0
266 2 8.6134999999999984e+00 1.0656442593567498e+01 5.6814564135468189e+00 0 0 0
311 2 1.1074500000000002e+01 1.2077301606043163e+01 5.6814564135468189e+00 0 0 0
313 2 1.1074500000000002e+01 1.0656442593567498e+01 5.6814564135468189e+00 0 0 0
510 2 8.6134999999999984e+00 1.0656442593567498e+01 8.8503633524220717e+00 0 0 0
511 2 9.8440000000000012e+00 1.1366872099805333e+01 8.8503633524220717e+00 0 0 0
534 2 1.1074500000000002e+01 1.0656442593567498e+01 8.8503633524220717e+00 0 0 0
535 2 1.2304999999999998e+01 1.1366872099805333e+01 8.8503633524220717e+00 0 0 0
3663 1 3.5399866517009890e+00 3.0220684658386987e+00 1.1914039045023534e+01 0 0 0
1444 1 2.1306507573227020e+00 6.3940106396493135e-01 1.1189176153149770e+01 -4 1 0
3611 1 6.3504144648753149e+00 2.5058279902113072e+00 1.1746004734813262e+01 6 -3 0
1535 1 7.5321981650887073e+00 1.5381308399220334e-01 1.1766175523939426e+01 1 -2 0
1493 1 1.1563190838617041e+01 2.3541409338320674e+00 1.1557961364204361e+01 -4 3 -1
598 1 2.5783027326189578e+00 5.4995662152486133e+00 1.1190951380378195e+01 1 3 -1
843 1 3.8829408666522442e+00 7.8084047252669233e+00 1.2174666817667234e+01 4 0 0
2209 1 7.8753847982410994e+00 4.8899796762592755e+00 1.1695912695450323e+01 3 0 -1
2242 1 6.6090893763697141e+00 7.3486976250837248e+00 1.1754660555865762e+01 4 0 -1
3754 1 1.0569071981681224e+01 4.8662347537800015e+00 1.1252394491715497e+01 -3 -3 -1
4499 1 1.2142863826701335e+01 7.2189193259472093e+00 1.1508162551202808e+01 -1 1 -2
2322 1 2.6642874296896304e+00 1.0009188144154871e+01 1.1180415305304770e+01 3 3 0
1585 1 2.6862800465252690e-02 1.0252582942685418e+01 1.1665230000871498e+01 2 1 0
1547 1 7.8264270822491975e+00 9.9797804594632815e+00 1.1643319262364107e+01 2 5 -1
2990 1 1.0606366423796457e+01 9.8865068122812048e+00 1.1312868541420547e+01 -2 -2 -1
3815 1 3.7227471200631972e+00 2.8928839537663404e+00 1.4536350180370583e+01 4 -4 0
3000 1 2.1258443087172605e+00 5.2662450105759440e-01 1.5333294436449886e+01 2 1 -1
4350 1 6.6181398784583925e+00 2.7946366390124111e+00 1.4980174098513114e+01 2 1 0
2158 1 7.4135145204882766e+00 5.4152048023745373e-03 1.4659450349821938e+01 -5 0 -1
3628 1 1.1779651220124842e+01 2.2591013583260149e+00 1.4515368443906379e+01 -4 0 0
1529 1 2.4074407834285134e+00 5.1165954638405600e+00 1.5413848187503371e+01 -1 0 0
1615 1 4.1598403060948472e+00 7.2721279228946427e+00 1.4749852883667479e+01 4 1 0
2132 1 8.1136670681575573e+00 4.9202786033081756e+00 1.4364138018053612e+01 -3 -2 0
3833 1 6.9259198519551202e+00 7.7441227125763996e+00 1.4781398284172017e+01 0 -6 0
1550 1 1.2287769856076370e+01 7.4262638356941046e+00 1.4290839957899040e+01 -1 -1 0
51 1 1.0976589156241049e+01 4.9575486256656358e+00 1.4115804133896809e+01 0 -1 0
3867 1 2.4637603669237840e+00 9.8476356713488293e+00 1.5320216688460770e+01 2 4 0
1541 1 8.2641749398778579e+00 1.0320852457523417e+01 1.4225829355477822e+01 3 -1 0
68 1 1.0951100800607454e+01 9.6920367873826940e+00 1.5294096575356864e+01 -1 -1 0
33 1 2.7689882100709835e+00 2.3979234534093359e+00 1.9233896691153245e+01 2 8 -1
1525 1 1.9359496036881112e+00 1.3114719358234250e-01 1.8313997554735131e+01 -4 2 0
3063 1 5.5252990731137714e+00 2.7354722103153364e+00 1.9683551138280297e+01 2 5 0
689 1 7.4001237060706311e+00 2.5600703132711495e+00 1.7610837109770426e+01 3 1 0
1586 1 1.1597841776446016e+01 3.4491040154289343e-01 1.7082631948863540e+01 3 -3 0
803 1 8.9377819685200137e+00 3.9941642072925143e-01 1.8086406947543907e+01 -3 -10 0
1567 1 9.2999255398870826e+00 7.4115984998412499e-01 2.0721882652154818e+01 3 3 0
2924 1 1.9941582746637068e+00 4.7249915189842593e+00 1.8129747711594778e+01 -1 3 0
696 1 3.3663585643582183e+00 7.2189584191415141e+00 1.8511141183056509e+01 -1 2 -1
3736 1 5.8670784696078613e+00 7.4625325864069270e+00 1.9324345265264657e+01 0 -5 0
1451 1 7.8847639943935688e+00 7.5192874673846006e+00 1.7411817675833305e+01 -2 -2 0
1545 1 1.1689286378036790e+01 5.3657506805424351e+00 1.7070083226558850e+01 -4 -2 -1
3842 1 8.9375126593583154e+00 5.0205038184121040e+00 1.7811583593813275e+01 1 4 0
3070 1 9.0236724810920705e+00 5.1237877202434046e+00 2.0718145072919278e+01 1 -1 1
47 1 1.9730078169880467e+00 9.6610730410056593e+00 1.8204790359577384e+01 -1 -1 -1
2885 1 2.8904440650482837e+00 1.1959666050383094e+01 1.9465522061548441e+01 -3 0 -1
1466 1 5.6848937564120527e+00 1.1651190893913235e+01 2.0093735198088691e+01 4 3 0
1469 1 7.6505583373761255e+00 1.1912637061337382e+01 1.7588718972964376e+01 -2 0 0
634 1 9.0095481238443913e+00 9.6558452642117469e+00 1.8467667317659693e+01 -3 -3 0
760 1 1.1426881933998528e+01 9.9013901200433416e+00 1.7717216078240838e+01 1 0 1
2878 1 3.0271184426720499e+00 4.5437928788509824e-01 2.3706650760089293e+01 1 -1 0
3884 1 2.6653721841938660e+00 2.4217088658661199e+00 2.1852852125789198e+01 1 -1 0
4476 1 2.3243503105969410e-01 3.2426643762005414e+00 2.2574107514850638e+01 4 3 0
67 1 5.8641900207647808e+00 5.4506938633598911e-01 2.4021265188311368e+01 -2 -5 0
2980 1 6.2487033964558991e+00 5.5459889504751891e-01 2.1219599916533511e+01 5 3 0
2876 1 1.0396886071888243e+01 3.0792082106858167e+00 2.1816097446543591e+01 -2 0 -1
1396 1 1.0193351299825576e+01 3.0837496725657685e+00 2.4444601302936519e+01 5 2 0
733 1 3.2095898009751629e+00 6.7520892272861763e+00 2.1614799857038111e+01 -1 0 -1
2977 1 3.5803806627468688e+00 4.7077022255657655e+00 2.3364000918048138e+01 4 -4 0
4383 1 5.6993977123119666e-01 7.4391736408991562e+00 2.2560633330011687e+01 2 1 0
2206 1 6.1720688197392244e+00 5.1932926478721733e+00 2.0992104910660402e+01 -1 3 0
763 1 6.4009710586444157e+00 5.4308889639541986e+00 2.4045743973724989e+01 0 2 0
2205 1 1.0149370992564362e+01 7.3503988870600461e+00 2.1661738070930991e+01 0 0 0
4353 1 1.0014330446148529e+01 7.3213116223081220e+00 2.4633260942269438e+01 4 -2 0
1639 1 3.6406278702367317e-02 1.1955295347111404e+01 2.2820641751019828e+01 -2 -5 0
2860 1 3.6047906281141251e+00 8.9272946359532011e+00 2.3598968108080602e+01 4 1 0
2979 1 2.2147255537970700e+00 1.1125278804153494e+01 2.4496130733877806e+01 0 -5 0
4374 1 6.2505950071440219e+00 9.1980321837621393e+00 2.1554716685908552e+01 2 2 0
3016 1 6.3964004268210468e+00 9.3103046127099702e+00 2.4297848814601632e+01 2 2 1
2385 1 1.0375128952740697e+01 1.1737888678697495e+01 2.2041045722545388e+01 0 -2 0
1537 1 8.8737055382756083e+00 9.6740247977577347e+00 2.1258986405491857e+01 3 0 0
668 1 2.1882505181979511e-01 2.7525479388614196e+00 2.5275478876561738e+01 5 -3 0
3625 1 2.5775738916738504e+00 3.6661574482455134e-01 2.8694066046430322e+01 -4 -3 0
2911 1 1.4923210947457954e+00 3.2877523114821822e-01 2.5907362554100491e+01 5 0 -1
2987 1 7.2026447187952609e+00 2.9002960553350587e+00 2.4903553346188119e+01 0 -5 0
3789 1 6.4636967043179423e+00 3.0470664047029064e+00 2.7587286161826629e+01 -1 -1 0
4454 1 7.7011985521829791e+00 6.4880315484870965e-01 2.8473060430517862e+01 1 1 0
724 1 1.0962730006667494e+01 5.5734458450843194e-01 2.5474146176637294e+01 4 3 -1
2325 1 1.0771926579315251e+01 9.8983154200651158e-01 2.8424379836441943e+01 2 -2 -1
3660 1 1.2109517822875759e+01 3.4767372794615561e+00 2.8507908207596788e+01 -3 7 -1
4446 1 3.2415285271343841e-01 7.3886149520692825e+00 2.5150290509531914e+01 -1 2 0
2130 1 2.0089725832336258e+00 5.4004499567583704e+00 2.5877343133886388e+01 5 2 0
3698 1 2.5414653370031068e+00 5.3631114998414624e+00 2.8552324957591441e+01 4 5 0
4504 1 3.5828449883077771e+00 8.0824366226002784e+00 2.8442416949556403e+01 0 0 -1
1546 1 4.1488255589567062e+00 7.2268179397605481e+00 2.5854976193093940e+01 -3 -1 1
4355 1 7.5248279114056000e+00 7.2935403754941426e+00 2.6008060562905563e+01 -1 -1 -1
647 1 7.6850557876426597e+00 5.2675764536401957e+00 2.8691270866875399e+01 -2 1 0
1489 1 6.2013926372780173e+00 7.9075182816142080e+00 2.8561740809559353e+01 -1 1 0
739 1 1.1295254163879106e+01 5.0061208771126235e+00 2.5805316286714231e+01 -3 2 0
2883 1 1.0258481723317614e+01 6.1030736935195744e+00 2.8519606447576848e+01 5 -4 -1
2154 1 2.1786112570760245e+00 1.0505094791346968e+01 2.8727193707635035e+01 2 4 0
1482 1 4.3534127953744706e-01 1.0105912238516783e+01 2.6066821192051432e+01 -1 -2 0
2283 1 7.1816119130236462e+00 1.0466572537350345e+01 2.8568947707396482e+01 4 4 -1
1457 1 7.6660715860808324e+00 1.1191354698609363e+01 2.5599074951661677e+01 4 -6 0
2358 1 1.0253284024908076e+01 1.1610941206493047e+01 2.5006349770002323e+01 3 -3 1
3155 1 1.1821766758499859e+01 8.6242329063087872e+00 2.8442435971473643e+01 1 -3 -1
4376 1 1.1365021554461292e+01 9.1095060745356538e+00 2.5839980633119147e+01 1 -4 0
679 1 3.9509680720680351e+00 2.9745804756789807e+00 2.8794504002805514e+01 1 -1 1
1582 1 2.5501833879286906e+00 3.2762309480126511e-01 3.1438375125820766e+01 -4 3 0
4500 1 3.6847463802516254e+00 2.9011935085363199e+00 3.1654364211152902e+01 3 -1 0
3854 1 7.9161197430372026e+00 7.4152888331039790e-01 3.1398628310085282e+01 1 1 0
2241 1 6.5850286025936304e+00 3.0820505033604664e+00 3.1688745241292274e+01 4 -3 -1
3776 1 1.0634721778567103e+01 1.0633609230613172e+00 3.1547906374858844e+01 4 1 0
2285 1 1.1778713990223508e+01 3.5272671816924137e+00 3.1311810565282816e+01 -1 1 0
680 1 2.0049684949121112e+00 5.1211013185841141e+00 3.1680363718777976e+01 -2 4 -1
38 1 3.2577152714999316e+00 7.7653118461066182e+00 3.1295947240127600e+01 1 -2 0
4439 1 6.0013752692110165e+00 7.8983959240047215e+00 3.1551988605608770e+01 -1 2 0
3892 1 7.6670201112599132e+00 5.7353569977965195e+00 3.1946616471412728e+01 2 4 0
3012 1 1.0290194114360434e+01 6.1205841697021821e+00 3.1151368265756904e+01 4 -2 0
3839 1 1.9636813355818470e+00 1.0218609498358758e+01 3.1891059669493785e+01 1 -1 0
2141 1 7.0097514301243873e+00 1.0616634769885360e+01 3.1528510154729361e+01 3 2 0
2284 1 9.7290450094357404e+00 1.0819305462184078e+01 3.1833960184382580e+01 2 3 -1
630 1 1.1260552149241539e+01 8.4276528120122300e+00 3.1408574140432183e+01 2 0 0
4421 1 9.9733875528547493e+00 1.0861410700634908e+01 2.9010242937737932e+01 0 -1 -1
132 2 0.0000000000000000e+00 1.2787731112280996e+01 2.5125494746706600e+00 0 0 0
134 2 1.2305000000000001e+00 1.3498160618518829e+01 2.5125494746706600e+00 0 0 0
169 2 2.4610000000000003e+00 1.2787731112280996e+01 2.5125494746706600e+00 0 0 0
171 2 3.6915000000000004e+00 1.3498160618518829e+01 2.5125494746706600e+00 0 0 0
130 2 0.0000000000000000e+00 1.5629449137232333e+01 2.5125494746706600e+00 0 0 0
165 2 1.2305000000000001e+00 1.4919019630994494e+01 2.5125494746706600e+00 0 0 0
167 2 2.4610000000000003e+00 1.5629449137232328e+01 2.5125494746706600e+00 0 0 0
210 2 3.6915000000000004e+00 1.4919019630994494e+01 2.5125494746706600e+00 0 0 0
214 2 4.9220000000000006e+00 1.2787731112280996e+01 2.5125494746706600e+00 0 0 0
216 2 6.1524999999999990e+00 1.3498160618518829e+01 2.5125494746706600e+00 0 0 0
261 2 7.3829999999999991e+00 1.2787731112280996e+01 2.5125494746706600e+00 0 0 0
212 2 4.9220000000000006e+00 1.5629449137232333e+01 2.5125494746706600e+00 0 0 0
257 2 6.1524999999999990e+00 1.4919019630994494e+01 2.5125494746706600e+00 0 0 0
259 2 7.3829999999999991e+00 1.5629449137232333e+01 2.5125494746706600e+00 0 0 0
263 2 8.6135000000000002e+00 1.3498160618518835e+01 2.5125494746706600e+00 0 0 0
308 2 9.8440000000000012e+00 1.2787731112280996e+01 2.5125494746706600e+00 0 0 0
310 2 1.1074500000000002e+01 1.3498160618518829e+01 2.5125494746706600e+00 0 0 0
304 2 8.6135000000000002e+00 1.4919019630994494e+01 2.5125494746706600e+00 0 0 0
306 2 9.8440000000000012e+00 1.5629449137232328e+01 2.5125494746706600e+00 0 0 0
346 2 1.1074500000000002e+01 1.4919019630994494e+01 2.5125494746706600e+00 0 0 0
161 2 0.0000000000000000e+00 1.7050308149707998e+01 2.5125494746706600e+00 0 0 0
206 2 2.4610000000000003e+00 1.7050308149707998e+01 2.5125494746706600e+00 0 0 0
159 2 0.0000000000000000e+00 1.9892026174659328e+01 2.5125494746706600e+00 0 0 0
163 2 1.2305000000000001e+00 1.7760737655945832e+01 2.5125494746706600e+00 0 0 0
202 2 1.2305000000000001e+00 1.9181596668421495e+01 2.5125494746706600e+00 0 0 0
204 2 2.4610000000000003e+00 1.9892026174659328e+01 2.5125494746706600e+00 0 0 0
208 2 3.6914999999999996e+00 1.7760737655945832e+01 2.5125494746706600e+00 0 0 0
249 2 3.6914999999999996e+00 1.9181596668421495e+01 2.5125494746706600e+00 0 0 0
253 2 4.9220000000000006e+00 1.7050308149707998e+01 2.5125494746706600e+00 0 0 0
300 2 7.3830000000000009e+00 1.7050308149707998e+01 2.5125494746706600e+00 0 0 0
251 2 4.9220000000000006e+00 1.9892026174659328e+01 2.5125494746706600e+00 0 0 0
255 2 6.1524999999999999e+00 1.7760737655945832e+01 2.5125494746706600e+00 0 0 0
296 2 6.1524999999999999e+00 1.9181596668421495e+01 2.5125494746706600e+00 0 0 0
298 2 7.3829999999999991e+00 1.9892026174659328e+01 2.5125494746706600e+00 0 0 0
342 2 9.8440000000000012e+00 1.7050308149707998e+01 2.5125494746706600e+00 0 0 0
376 2 1.2304999999999998e+01 1.7050308149707998e+01 2.5125494746706600e+00 0 0 0
302 2 8.6134999999999984e+00 1.7760737655945832e+01 2.5125494746706600e+00 0 0 0
338 2 8.6135000000000002e+00 1.9181596668421495e+01 2.5125494746706600e+00 0 0 0
340 2 9.8440000000000012e+00 1.9892026174659335e+01 2.5125494746706600e+00 0 0 0
344 2 1.1074500000000002e+01 1.7760737655945835e+01 2.5125494746706600e+00 0 0 0
372 2 1.1074500000000002e+01 1.9181596668421495e+01 2.5125494746706600e+00 0 0 0
196 2 0.0000000000000000e+00 2.4154603212086325e+01 2.5125494746706600e+00 0 0 0
198 2 0.0000000000000000e+00 2.1312885187134999e+01 2.5125494746706600e+00 0 0 0
200 2 1.2304999999999993e+00 2.2023314693372832e+01 2.5125494746706600e+00 0 0 0
241 2 1.2304999999999993e+00 2.3444173705848499e+01 2.5125494746706600e+00 0 0 0
243 2 2.4610000000000003e+00 2.4154603212086325e+01 2.5125494746706600e+00 0 0 0
245 2 2.4610000000000003e+00 2.1312885187134995e+01 2.5125494746706600e+00 0 0 0
247 2 3.6914999999999996e+00 2.2023314693372832e+01 2.5125494746706600e+00 0 0 0
288 2 3.6915000000000004e+00 2.3444173705848499e+01 2.5125494746706600e+00 0 0 0
290 2 4.9220000000000006e+00 2.4154603212086325e+01 2.5125494746706600e+00 0 0 0
292 2 4.9220000000000006e+00 2.1312885187134995e+01 2.5125494746706600e+00 0 0 0
294 2 6.1524999999999990e+00 2.2023314693372832e+01 2.5125494746706600e+00 0 0 0
330 2 6.1524999999999999e+00 2.3444173705848499e+01 2.5125494746706600e+00 0 0 0
332 2 7.3830000000000009e+00 2.4154603212086336e+01 2.5125494746706600e+00 0 0 0
334 2 7.3829999999999991e+00 2.1312885187134999e+01 2.5125494746706600e+00 0 0 0
336 2 8.6135000000000002e+00 2.2023314693372832e+01 2.5125494746706600e+00 0 0 0
364 2 8.6134999999999984e+00 2.3444173705848499e+01 2.5125494746706600e+00 0 0 0
366 2 9.8440000000000012e+00 2.4154603212086336e+01 2.5125494746706600e+00 0 0 0
368 2 9.8440000000000012e+00 2.1312885187134999e+01 2.5125494746706600e+00 0 0 0
370 2 1.1074500000000002e+01 2.2023314693372832e+01 2.5125494746706600e+00 0 0 0
390 2 1.1074500000000002e+01 2.3444173705848499e+01 2.5125494746706600e+00 0 0 0
133 2 0.0000000000000000e+00 1.2787731112280996e+01 5.6814564135468189e+00 0 0 0
170 2 2.4610000000000003e+00 1.2787731112280996e+01 5.6814564135468189e+00 0 0 0
442 2 0.0000000000000000e+00 1.2787731112280996e+01 8.8503633524220717e+00 0 0 0
443 2 1.2305000000000001e+00 1.3498160618518829e+01 8.8503633524220717e+00 0 0 0
461 2 2.4610000000000003e+00 1.2787731112280996e+01 8.8503633524220717e+00 0 0 0
462 2 3.6915000000000004e+00 1.3498160618518829e+01 8.8503633524220717e+00 0 0 0
131 2 0.0000000000000000e+00 1.4208590124756663e+01 5.6814564135468189e+00 0 0 0
166 2 1.2305000000000001e+00 1.4919019630994494e+01 5.6814564135468189e+00 0 0 0