LAMMPS data file via write_data, version 16 Mar 2018, timestep = 100000

4545 atoms
2 atom types

0.0000000000000000e+00 4.9219999999999999e+01 xlo xhi
0.0000000000000000e+00 4.9019635930410494e+01 ylo yhi
1.7271214419928729e+00 3.1908218344529907e+01 zlo zhi

Masses

1 18.015
2 12.01

Atoms # atomic

91 2 0.0000000000000000e+00 2.8417180249513345e+00 3.2318988525020709e+00 0 0 0
93 2 0.0000000000000000e+00 0.0000000000000000e+00 3.2318988525020709e+00 0 0 0
95 2 1.2305000000000001e+00 7.1042950623783474e-01 3.2318988525020709e+00 0 0 0
102 2 1.2305000000000001e+00 2.1312885187134998e+00 3.2318988525020709e+00 0 0 0
104 2 2.4610000000000003e+00 2.8417180249513345e+00 3.2318988525020709e+00 0 0 0
106 2 2.4610000000000003e+00 0.0000000000000000e+00 3.2318988525020709e+00 0 0 0
108 2 3.6915000000000004e+00 7.1042950623783474e-01 3.2318988525020709e+00 0 0 0
123 2 3.6914999999999996e+00 2.1312885187134998e+00 3.2318988525020709e+00 0 0 0
125 2 4.9220000000000006e+00 2.8417180249513332e+00 3.2318988525020709e+00 0 0 0
127 2 4.9220000000000006e+00 0.0000000000000000e+00 3.2318988525020709e+00 0 0 0
129 2 6.1524999999999999e+00 7.1042950623783407e-01 3.2318988525020709e+00 0 0 0
152 2 6.1524999999999999e+00 2.1312885187134989e+00 3.2318988525020709e+00 0 0 0
154 2 7.3829999999999991e+00 2.8417180249513345e+00 3.2318988525020709e+00 0 0 0
156 2 7.3829999999999991e+00 0.0000000000000000e+00 3.2318988525020709e+00 0 0 0
158 2 8.6134999999999984e+00 7.1042950623783407e-01 3.2318988525020709e+00 0 0 0
189 2 8.6134999999999984e+00 2.1312885187135002e+00 3.2318988525020709e+00 0 0 0
191 2 9.8440000000000012e+00 2.8417180249513332e+00 3.2318988525020709e+00 0 0 0
193 2 9.8440000000000012e+00 0.0000000000000000e+00 3.2318988525020709e+00 0 0 0
195 2 1.1074500000000002e+01 7.1042950623783330e-01 3.2318988525020709e+00 0 0 0
234 2 1.1074500000000002e+01 2.1312885187135002e+00 3.2318988525020709e+00 0 0 0
98 2 0.0000000000000000e+00 4.2625770374269996e+00 3.2318988525020709e+00 0 0 0
100 2 1.2305000000000001e+00 4.9730065436648339e+00 3.2318988525020709e+00 0 0 0
115 2 1.2305000000000001e+00 6.3938655561404980e+00 3.2318988525020709e+00 0 0 0
119 2 2.4610000000000003e+00 4.2625770374269996e+00 3.2318988525020709e+00 0 0 0
121 2 3.6914999999999996e+00 4.9730065436648339e+00 3.2318988525020709e+00 0 0 0
144 2 3.6914999999999996e+00 6.3938655561404980e+00 3.2318988525020709e+00 0 0 0
96 2 0.0000000000000000e+00 7.1042950623783341e+00 3.2318988525020709e+00 0 0 0
117 2 2.4610000000000003e+00 7.1042950623783341e+00 3.2318988525020709e+00 0 0 0
148 2 4.9220000000000006e+00 4.2625770374269978e+00 3.2318988525020709e+00 0 0 0
150 2 6.1524999999999999e+00 4.9730065436648339e+00 3.2318988525020709e+00 0 0 0
181 2 6.1524999999999999e+00 6.3938655561404980e+00 3.2318988525020709e+00 0 0 0
185 2 7.3829999999999991e+00 4.2625770374269996e+00 3.2318988525020709e+00 0 0 0
146 2 4.9220000000000006e+00 7.1042950623783341e+00 3.2318988525020709e+00 0 0 0
183 2 7.3830000000000009e+00 7.1042950623783341e+00 3.2318988525020709e+00 0 0 0
187 2 8.6135000000000002e+00 4.9730065436648339e+00 3.2318988525020709e+00 0 0 0
226 2 8.6135000000000002e+00 6.3938655561404980e+00 3.2318988525020709e+00 0 0 0
230 2 9.8440000000000012e+00 4.2625770374270004e+00 3.2318988525020709e+00 0 0 0
232 2 1.1074500000000002e+01 4.9730065436648339e+00 3.2318988525020709e+00 0 0 0
273 2 1.1074500000000002e+01 6.3938655561404980e+00 3.2318988525020709e+00 0 0 0
228 2 9.8440000000000012e+00 7.1042950623783341e+00 3.2318988525020709e+00 0 0 0
111 2 0.0000000000000000e+00 8.5251540748539991e+00 3.2318988525020709e+00 0 0 0
113 2 1.2305000000000001e+00 9.2355835810918343e+00 3.2318988525020709e+00 0 0 0
140 2 2.4610000000000003e+00 8.5251540748539991e+00 3.2318988525020709e+00 0 0 0
142 2 3.6915000000000004e+00 9.2355835810918343e+00 3.2318988525020709e+00 0 0 0
109 2 0.0000000000000000e+00 1.1366872099805333e+01 3.2318988525020709e+00 0 0 0
136 2 1.2305000000000001e+00 1.0656442593567498e+01 3.2318988525020709e+00 0 0 0
138 2 2.4610000000000003e+00 1.1366872099805333e+01 3.2318988525020709e+00 0 0 0
173 2 3.6914999999999996e+00 1.0656442593567499e+01 3.2318988525020709e+00 0 0 0
177 2 4.9220000000000006e+00 8.5251540748539991e+00 3.2318988525020709e+00 0 0 0
179 2 6.1524999999999999e+00 9.2355835810918343e+00 3.2318988525020709e+00 0 0 0
222 2 7.3830000000000009e+00 8.5251540748539991e+00 3.2318988525020709e+00 0 0 0
175 2 4.9220000000000006e+00 1.1366872099805333e+01 3.2318988525020709e+00 0 0 0
218 2 6.1524999999999999e+00 1.0656442593567499e+01 3.2318988525020709e+00 0 0 0
220 2 7.3829999999999991e+00 1.1366872099805333e+01 3.2318988525020709e+00 0 0 0
224 2 8.6134999999999984e+00 9.2355835810918343e+00 3.2318988525020709e+00 0 0 0
269 2 9.8440000000000012e+00 8.5251540748539956e+00 3.2318988525020709e+00 0 0 0
271 2 1.1074500000000002e+01 9.2355835810918343e+00 3.2318988525020709e+00 0 0 0
265 2 8.6134999999999984e+00 1.0656442593567498e+01 3.2318988525020709e+00 0 0 0
267 2 9.8440000000000012e+00 1.1366872099805333e+01 3.2318988525020709e+00 0 0 0
312 2 1.1074500000000002e+01 1.0656442593567498e+01 3.2318988525020709e+00 0 0 0
314 2 1.2304999999999998e+01 1.1366872099805333e+01 3.2318988525020709e+00 0 0 0
92 2 0.0000000000000000e+00 1.4208590124756650e+00 6.2414536735198736e+00 0 0 0
94 2 0.0000000000000000e+00 0.0000000000000000e+00 6.2414536735198736e+00 0 0 0
103 2 1.2305000000000001e+00 2.1312885187134998e+00 6.2414536735198736e+00 0 0 0
105 2 2.4610000000000003e+00 1.4208590124756650e+00 6.2414536735198736e+00 0 0 0
107 2 2.4610000000000003e+00 0.0000000000000000e+00 6.2414536735198736e+00 0 0 0
124 2 3.6914999999999996e+00 2.1312885187134998e+00 6.2414536735198736e+00 0 0 0
420 2 0.0000000000000000e+00 2.8417180249513345e+00 9.2510084945387412e+00 0 0 0
421 2 0.0000000000000000e+00 0.0000000000000000e+00 9.2510084945387412e+00 0 0 0
422 2 1.2305000000000001e+00 7.1042950623783474e-01 9.2510084945387412e+00 0 0 0
426 2 1.2305000000000001e+00 2.1312885187134998e+00 9.2510084945387412e+00 0 0 0
427 2 2.4610000000000003e+00 2.8417180249513345e+00 9.2510084945387412e+00 0 0 0
428 2 2.4610000000000003e+00 0.0000000000000000e+00 9.2510084945387412e+00 0 0 0
429 2 3.6915000000000004e+00 7.1042950623783474e-01 9.2510084945387412e+00 0 0 0
437 2 3.6914999999999996e+00 2.1312885187134998e+00 9.2510084945387412e+00 0 0 0
101 2 1.2305000000000001e+00 3.5521475311891644e+00 6.2414536735198736e+00 0 0 0
122 2 3.6914999999999996e+00 3.5521475311891644e+00 6.2414536735198736e+00 0 0 0
126 2 4.9220000000000006e+00 1.4208590124756650e+00 6.2414536735198736e+00 0 0 0
128 2 4.9220000000000006e+00 0.0000000000000000e+00 6.2414536735198736e+00 0 0 0
153 2 6.1524999999999999e+00 2.1312885187134989e+00 6.2414536735198736e+00 0 0 0
155 2 7.3829999999999991e+00 1.4208590124756659e+00 6.2414536735198736e+00 0 0 0
157 2 7.3829999999999991e+00 0.0000000000000000e+00 6.2414536735198736e+00 0 0 0
438 2 4.9220000000000006e+00 2.8417180249513332e+00 9.2510084945387412e+00 0 0 0
439 2 4.9220000000000006e+00 0.0000000000000000e+00 9.2510084945387412e+00 0 0 0
440 2 6.1524999999999999e+00 7.1042950623783407e-01 9.2510084945387412e+00 0 0 0
452 2 6.1524999999999999e+00 2.1312885187134989e+00 9.2510084945387412e+00 0 0 0
453 2 7.3829999999999991e+00 2.8417180249513345e+00 9.2510084945387412e+00 0 0 0
454 2 7.3829999999999991e+00 0.0000000000000000e+00 9.2510084945387412e+00 0 0 0
151 2 6.1524999999999999e+00 3.5521475311891644e+00 6.2414536735198736e+00 0 0 0
190 2 8.6134999999999984e+00 2.1312885187135002e+00 6.2414536735198736e+00 0 0 0
192 2 9.8440000000000012e+00 1.4208590124756659e+00 6.2414536735198736e+00 0 0 0
194 2 9.8440000000000012e+00 0.0000000000000000e+00 6.2414536735198736e+00 0 0 0
235 2 1.1074500000000002e+01 2.1312885187135002e+00 6.2414536735198736e+00 0 0 0
455 2 8.6134999999999984e+00 7.1042950623783407e-01 9.2510084945387412e+00 0 0 0
471 2 8.6134999999999984e+00 2.1312885187135002e+00 9.2510084945387412e+00 0 0 0
472 2 9.8440000000000012e+00 2.8417180249513332e+00 9.2510084945387412e+00 0 0 0
473 2 9.8440000000000012e+00 0.0000000000000000e+00 9.2510084945387412e+00 0 0 0
474 2 1.1074500000000002e+01 7.1042950623783330e-01 9.2510084945387412e+00 0 0 0
494 2 1.1074500000000002e+01 2.1312885187135002e+00 9.2510084945387412e+00 0 0 0
188 2 8.6134999999999984e+00 3.5521475311891657e+00 6.2414536735198736e+00 0 0 0
233 2 1.1074500000000002e+01 3.5521475311891644e+00 6.2414536735198736e+00 0 0 0
97 2 0.0000000000000000e+00 5.6834360499026637e+00 6.2414536735198736e+00 0 0 0
99 2 0.0000000000000000e+00 4.2625770374269996e+00 6.2414536735198736e+00 0 0 0
116 2 1.2305000000000001e+00 6.3938655561404980e+00 6.2414536735198736e+00 0 0 0
118 2 2.4610000000000003e+00 5.6834360499026637e+00 6.2414536735198736e+00 0 0 0
120 2 2.4610000000000003e+00 4.2625770374269996e+00 6.2414536735198736e+00 0 0 0
145 2 3.6914999999999996e+00 6.3938655561404980e+00 6.2414536735198736e+00 0 0 0
424 2 0.0000000000000000e+00 4.2625770374269996e+00 9.2510084945387412e+00 0 0 0
425 2 1.2305000000000001e+00 4.9730065436648339e+00 9.2510084945387412e+00 0 0 0
433 2 1.2305000000000001e+00 6.3938655561404980e+00 9.2510084945387412e+00 0 0 0
435 2 2.4610000000000003e+00 4.2625770374269996e+00 9.2510084945387412e+00 0 0 0
436 2 3.6914999999999996e+00 4.9730065436648339e+00 9.2510084945387412e+00 0 0 0
448 2 3.6914999999999996e+00 6.3938655561404980e+00 9.2510084945387412e+00 0 0 0
114 2 1.2305000000000001e+00 7.8147245686161639e+00 6.2414536735198736e+00 0 0 0
143 2 3.6914999999999996e+00 7.8147245686161639e+00 6.2414536735198736e+00 0 0 0
423 2 0.0000000000000000e+00 7.1042950623783341e+00 9.2510084945387412e+00 0 0 0
434 2 2.4610000000000003e+00 7.1042950623783341e+00 9.2510084945387412e+00 0 0 0
147 2 4.9220000000000006e+00 5.6834360499026637e+00 6.2414536735198736e+00 0 0 0
149 2 4.9220000000000006e+00 4.2625770374269978e+00 6.2414536735198736e+00 0 0 0
182 2 6.1524999999999999e+00 6.3938655561404980e+00 6.2414536735198736e+00 0 0 0
184 2 7.3829999999999991e+00 5.6834360499026637e+00 6.2414536735198736e+00 0 0 0
186 2 7.3829999999999991e+00 4.2625770374269996e+00 6.2414536735198736e+00 0 0 0
450 2 4.9220000000000006e+00 4.2625770374269978e+00 9.2510084945387412e+00 0 0 0
451 2 6.1524999999999999e+00 4.9730065436648339e+00 9.2510084945387412e+00 0 0 0
467 2 6.1524999999999999e+00 6.3938655561404980e+00 9.2510084945387412e+00 0 0 0
469 2 7.3829999999999991e+00 4.2625770374269996e+00 9.2510084945387412e+00 0 0 0
180 2 6.1524999999999999e+00 7.8147245686161639e+00 6.2414536735198736e+00 0 0 0
449 2 4.9220000000000006e+00 7.1042950623783341e+00 9.2510084945387412e+00 0 0 0
468 2 7.3830000000000009e+00 7.1042950623783341e+00 9.2510084945387412e+00 0 0 0
227 2 8.6135000000000002e+00 6.3938655561404980e+00 6.2414536735198736e+00 0 0 0
229 2 9.8440000000000012e+00 5.6834360499026637e+00 6.2414536735198736e+00 0 0 0
231 2 9.8440000000000012e+00 4.2625770374270004e+00 6.2414536735198736e+00 0 0 0
274 2 1.1074500000000002e+01 6.3938655561404980e+00 6.2414536735198736e+00 0 0 0
470 2 8.6135000000000002e+00 4.9730065436648339e+00 9.2510084945387412e+00 0 0 0
490 2 8.6135000000000002e+00 6.3938655561404980e+00 9.2510084945387412e+00 0 0 0
492 2 9.8440000000000012e+00 4.2625770374270004e+00 9.2510084945387412e+00 0 0 0
493 2 1.1074500000000002e+01 4.9730065436648339e+00 9.2510084945387412e+00 0 0 0
514 2 1.1074500000000002e+01 6.3938655561404980e+00 9.2510084945387412e+00 0 0 0
225 2 8.6135000000000002e+00 7.8147245686161639e+00 6.2414536735198736e+00 0 0 0
272 2 1.1074500000000002e+01 7.8147245686161639e+00 6.2414536735198736e+00 0 0 0
491 2 9.8440000000000012e+00 7.1042950623783341e+00 9.2510084945387412e+00 0 0 0
110 2 0.0000000000000000e+00 9.9460130873296642e+00 6.2414536735198736e+00 0 0 0
112 2 0.0000000000000000e+00 8.5251540748539991e+00 6.2414536735198736e+00 0 0 0
139 2 2.4610000000000003e+00 9.9460130873296642e+00 6.2414536735198736e+00 0 0 0
141 2 2.4610000000000003e+00 8.5251540748539991e+00 6.2414536735198736e+00 0 0 0
431 2 0.0000000000000000e+00 8.5251540748539991e+00 9.2510084945387412e+00 0 0 0
432 2 1.2305000000000001e+00 9.2355835810918343e+00 9.2510084945387412e+00 0 0 0
446 2 2.4610000000000003e+00 8.5251540748539991e+00 9.2510084945387412e+00 0 0 0
447 2 3.6915000000000004e+00 9.2355835810918343e+00 9.2510084945387412e+00 0 0 0
135 2 1.2305000000000001e+00 1.2077301606043163e+01 6.2414536735198736e+00 0 0 0
137 2 1.2305000000000001e+00 1.0656442593567498e+01 6.2414536735198736e+00 0 0 0
172 2 3.6914999999999996e+00 1.2077301606043163e+01 6.2414536735198736e+00 0 0 0
174 2 3.6914999999999996e+00 1.0656442593567499e+01 6.2414536735198736e+00 0 0 0
430 2 0.0000000000000000e+00 1.1366872099805333e+01 9.2510084945387412e+00 0 0 0
444 2 1.2305000000000001e+00 1.0656442593567498e+01 9.2510084945387412e+00 0 0 0
445 2 2.4610000000000003e+00 1.1366872099805333e+01 9.2510084945387412e+00 0 0 0
463 2 3.6914999999999996e+00 1.0656442593567499e+01 9.2510084945387412e+00 0 0 0
176 2 4.9220000000000006e+00 9.9460130873296642e+00 6.2414536735198736e+00 0 0 0
178 2 4.9220000000000006e+00 8.5251540748539991e+00 6.2414536735198736e+00 0 0 0
221 2 7.3830000000000009e+00 9.9460130873296642e+00 6.2414536735198736e+00 0 0 0
223 2 7.3830000000000009e+00 8.5251540748539991e+00 6.2414536735198736e+00 0 0 0
465 2 4.9220000000000006e+00 8.5251540748539991e+00 9.2510084945387412e+00 0 0 0
466 2 6.1524999999999999e+00 9.2355835810918343e+00 9.2510084945387412e+00 0 0 0
488 2 7.3830000000000009e+00 8.5251540748539991e+00 9.2510084945387412e+00 0 0 0
217 2 6.1524999999999999e+00 1.2077301606043163e+01 6.2414536735198736e+00 0 0 0
219 2 6.1524999999999999e+00 1.0656442593567499e+01 6.2414536735198736e+00 0 0 0
464 2 4.9220000000000006e+00 1.1366872099805333e+01 9.2510084945387412e+00 0 0 0
486 2 6.1524999999999999e+00 1.0656442593567499e+01 9.2510084945387412e+00 0 0 0
487 2 7.3829999999999991e+00 1.1366872099805333e+01 9.2510084945387412e+00 0 0 0
268 2 9.8440000000000012e+00 9.9460130873296642e+00 6.2414536735198736e+00 0 0 0
270 2 9.8440000000000012e+00 8.5251540748539956e+00 6.2414536735198736e+00 0 0 0
489 2 8.6134999999999984e+00 9.2355835810918343e+00 9.2510084945387412e+00 0 0 0
512 2 9.8440000000000012e+00 8.5251540748539956e+00 9.2510084945387412e+00 0 0 0
513 2 1.1074500000000002e+01 9.2355835810918343e+00 9.2510084945387412e+00 0 0 0
264 2 8.6135000000000002e+00 1.2077301606043163e+01 6.2414536735198736e+00 0 0 0
266 2 8.6134999999999984e+00 1.0656442593567498e+01 6.2414536735198736e+00 0 0 0
311 2 1.1074500000000002e+01 1.2077301606043163e+01 6.2414536735198736e+00 0 0 0
313 2 1.1074500000000002e+01 1.0656442593567498e+01 6.2414536735198736e+00 0 0 0
510 2 8.6134999999999984e+00 1.0656442593567498e+01 9.2510084945387412e+00 0 0 0
511 2 9.8440000000000012e+00 1.1366872099805333e+01 9.2510084945387412e+00 0 0 0
534 2 1.1074500000000002e+01 1.0656442593567498e+01 9.2510084945387412e+00 0 0 0
535 2 1.2304999999999998e+01 1.1366872099805333e+01 9.2510084945387412e+00 0 0 0
2184 1 3.0530268412465000e+00 1.6698782044017551e+00 1.1666493772371584e+01 0 0 -1
2372 1 1.1417711273030053e+01 2.6867630382985735e-01 1.3221254747276459e+01 0 1 -1
2987 1 7.2977529723165970e+00 6.8689595859238983e-01 1.3148713487700050e+01 0 1 0
2259 1 9.7674684234341012e+00 3.3262646059602159e+00 1.1631366727504039e+01 0 2 1
795 1 7.0617524149277182e+00 4.1428326760555212e+00 1.2260927384471781e+01 1 1 0
1580 1 1.9805181320329495e+00 4.4971778558165187e+00 1.1893099261806958e+01 1 0 0
1419 1 4.5264295980769322e+00 6.1141625590738542e+00 1.2034071766788209e+01 1 0 0
3842 1 8.6168494966338240e+00 6.4216436024208230e+00 1.2840539971717961e+01 2 0 0
2878 1 1.1444690187140820e+01 1.0377287736490798e+01 1.1878110580093809e+01 2 1 0
3669 1 1.6622105973781270e-01 6.5396605862149402e+00 1.1608722149599766e+01 1 0 0
2179 1 4.4301958976827143e+00 9.1848296549885493e+00 1.1808017846637833e+01 1 1 0
4532 1 7.1201260265783644e+00 8.4283011066371039e+00 1.1635925110793311e+01 0 0 0
3691 1 4.0932831770936087e+00 3.9273744667971724e+00 1.6460351444873293e+01 0 0 0
36 1 1.1536986266294308e-01 1.6925444241380145e+00 1.1761817007416065e+01 0 0 1
2368 1 6.4741960622324095e+00 1.0949562470439734e+01 1.4613934912631400e+01 1 0 0
4501 1 4.7607227188829375e+00 8.7993960679838708e+00 1.4767477522162769e+01 1 0 0
1455 1 1.7347189209745901e+00 2.5564130661326683e+00 1.5539246092708591e+01 0 1 0
662 1 3.5551866879715115e-02 1.0917960339897640e+01 1.5193009812200852e+01 0 1 0
1382 1 6.6513269889604132e+00 3.1479667150130353e+00 1.4764577634957178e+01 -1 -1 0
3060 1 8.8967824111588580e+00 4.1885839329389771e+00 1.5836561507876624e+01 0 0 -1
9 1 1.0912519864041158e+01 3.1057610322437856e+00 1.4122747550477758e+01 0 0 1
35 1 1.9332882961663809e+00 8.7695486173616644e+00 1.4967828477258955e+01 -1 0 1
704 1 9.7540187775513623e+00 1.0380955320275953e+01 1.4917313185795557e+01 1 1 -1
3058 1 2.8553493713672164e+00 5.6284783669607545e+00 1.4528167696211137e+01 0 0 0
1432 1 5.8396983899976371e+00 6.3976061509272624e+00 1.4934609265714196e+01 0 1 -1
2389 1 8.8493968353483368e+00 6.9212727907428748e+00 1.5734713324433882e+01 0 0 -1
3019 1 1.4726078090594412e+00 9.0187400880773687e+00 1.2050786111705410e+01 0 0 0
2947 1 1.1651914309179377e+01 7.1877973269610684e-01 1.6161554371268572e+01 0 1 0
695 1 8.6529767949834877e+00 1.0994426717836287e+01 1.2148132410400439e+01 0 0 -1
4504 1 1.1785718618807067e+01 7.2180367021452767e+00 1.5839483354110646e+01 1 0 -1
2316 1 2.9419774787795951e+00 7.4163762497072919e-02 1.4201932707990647e+01 0 1 -2
4539 1 1.0855348878574015e+01 7.6053753723557564e+00 1.2041840779776521e+01 1 0 0
2336 1 5.1969997967814185e+00 1.1941191328599217e+01 1.2185695556416638e+01 2 1 0
3659 1 9.2688146486372052e+00 5.1354750042255115e-01 1.1388743182038519e+01 -1 2 0
4381 1 3.0475623504885792e+00 1.0577736175317060e+01 2.2346168826655919e+01 1 0 0
2219 1 8.7580072415559336e+00 1.0673963412069629e+01 3.0900690580784463e+01 1 0 -1
3616 1 6.4136353517621441e+00 3.0426880667325635e+00 1.8149379314465214e+01 1 2 0
3891 1 4.2543941877055236e+00 2.5288191167614111e+00 1.9760507710213005e+01 0 0 0
828 1 1.7163874373778809e+00 3.8043171386137096e+00 2.1052039974618943e+01 0 0 0
664 1 8.3310787662754624e+00 8.9752438962341810e+00 1.7667850671974325e+01 0 0 0
3109 1 3.6134397116861103e-02 5.2813624849411740e+00 2.7960591659560230e+01 -1 1 0
2211 1 2.5413094640699585e+00 5.0431143138593706e+00 1.8484296735394032e+01 0 0 0
3047 1 8.3563364569844989e+00 5.1220203681712935e+00 1.8863503684586398e+01 0 0 -1
3071 1 1.0736833680539213e+01 9.7264021803791429e+00 1.9129592590379957e+01 1 0 0
1646 1 9.0521200522350220e+00 7.5870843651992228e+00 2.0441440611149424e+01 0 0 0
1488 1 1.2784560714614284e+00 1.2195891189511785e+01 2.4416868955984249e+01 2 0 0
3001 1 2.8115844844487659e+00 8.0798970251903590e+00 2.0625703745252196e+01 0 0 0
1651 1 4.1325860643270351e+00 1.1244796614952799e+01 3.0765192950017479e+01 0 1 1
2160 1 5.6976676949469303e+00 8.2741683856783084e+00 1.9925925087007371e+01 1 0 0
3023 1 3.3607605615851250e+00 2.7148557452652846e+00 2.5036694538673530e+01 0 1 0
3000 1 3.5761402736430754e+00 1.1690893019539695e+01 2.8110923216790773e+01 1 0 -1
625 1 9.9260635681139249e+00 8.7640491207256788e-01 2.4391989062048573e+01 0 0 0
4348 1 9.0370349062860065e+00 1.2144576187603555e+01 2.5312259860221957e+01 1 0 0
3149 1 5.5293555939879919e+00 1.0314650336933964e+01 2.3220482037659998e+01 1 -1 -1
1416 1 4.4668575671249986e+00 3.8430867005029294e+00 2.2384010426965631e+01 1 0 -1
744 1 2.2112692459250289e+00 5.3068846382255530e-01 1.9811010199987614e+01 0 -1 -1
3638 1 1.1434440377242970e+01 3.1281198492403672e+00 2.0787987635363628e+01 1 0 -1
586 1 5.6776327462987008e-01 3.6288803016923419e+00 2.4328717113245624e+01 0 0 0
2883 1 2.3930704028626740e-01 8.9059213370307404e+00 1.8924865989379484e+01 1 0 -1
656 1 2.6100986323339757e+00 6.1558847969913817e+00 2.2614546744510164e+01 1 0 0
37 1 6.8594227676007735e+00 6.0306967965048068e+00 2.1776254748545007e+01 0 0 1
3016 1 8.0051661444574780e+00 3.3687446373902818e+00 2.1314062089106308e+01 0 1 1
3150 1 8.0569353590351636e+00 5.9861513886835098e+00 2.4309901881260608e+01 2 0 1
1533 1 1.0297515640111703e+01 7.2402725641670589e+00 2.2828517580911566e+01 0 0 0
3655 1 3.7663650875403589e+00 2.2458216648874809e+00 3.0415734583804017e+01 1 0 0
2145 1 9.3557126491614362e+00 1.4903726135409658e+00 1.9262491257491675e+01 1 1 -1
1593 1 1.1661078508232391e+01 9.9822260789821584e+00 3.1084135595192414e+01 -1 1 0
868 1 7.6296950168348898e+00 1.0391179065033057e+01 2.1238872626962895e+01 1 0 0
3618 1 1.0715738879227878e+01 1.0312369070805859e+01 2.1857539271681340e+01 1 0 -1
4358 1 1.1755231869049437e+01 9.2265760549437843e+00 2.4637741869815848e+01 1 1 0
2980 1 3.4511721514869733e+00 7.1272374382838521e-01 2.7500353118374264e+01 1 1 0
1495 1 8.3255889638550933e+00 1.3289308103030459e+00 2.6607961617421232e+01 0 1 0
3717 1 8.6402013684048462e-01 1.2875115791507901e+00 2.2545663168969014e+01 0 1 -1
1437 1 4.4716307570788167e+00 1.5462481089315649e-01 2.4041802648902916e+01 0 0 0
696 1 9.8295471561412462e-01 7.7162411751989621e+00 2.6416669727091438e+01 1 0 -1
810 1 3.7392562647292182e-01 1.5050978062194460e+00 1.7881127655736435e+01 1 0 0
4340 1 2.8562171604468185e+00 8.1100476500504293e+00 1.7616496900293825e+01 0 1 0
3639 1 6.6041930764431909e+00 2.9715575593048880e+00 2.4301785208285651e+01 0 0 0
1541 1 5.5407570078442712e+00 6.1930726768950546e+00 1.8222385057921223e+01 0 0 0
3079 1 2.9487690999634331e+00 4.0360467513126874e+00 2.8196384571987352e+01 0 0 0
3620 1 5.9322070023725546e+00 2.2637669529625972e+00 2.7491190880914857e+01 0 1 0
1414 1 4.8870816791752008e+00 4.9243535365069153e+00 2.6462801663358071e+01 1 0 0
3114 1 4.0412927977600237e+00 7.2916292991434917e+00 2.5107755440673571e+01 0 0 -1
3076 1 6.5229251388596570e+00 8.6165497686692465e+00 2.7588447179902985e+01 1 0 -1
2397 1 7.0804032016224703e+00 5.9984261886546335e+00 2.8124975965663516e+01 0 0 0
3097 1 9.9345185757103316e+00 8.0652089087602832e+00 2.8860235676532852e+01 1 1 0
4368 1 1.1114032025110991e+01 5.1586750515750817e+00 2.5315960919783429e+01 -1 1 0
2408 1 9.9898704571395900e+00 5.3629858671096491e+00 2.7998347572635218e+01 1 -1 0
1354 1 3.4605530728676568e+00 8.9303957203951629e+00 2.7634933928714993e+01 0 0 0
2236 1 1.0875310828892374e+01 2.8610761505696987e+00 1.7471035915187628e+01 -1 0 0
1598 1 6.5678674235537589e+00 8.2581844656069876e+00 2.4836749370657927e+01 0 -1 0
2394 1 1.0301880463376028e+01 9.9086543806478460e+00 2.6657973501348629e+01 1 0 0
2206 1 8.1837340807364836e+00 1.1006252103067522e+01 2.8335599044194758e+01 0 1 0
1553 1 1.4922610176845323e+00 1.0488876147212245e+01 3.0843756091076756e+01 0 1 0
2986 1 4.1954541835927933e-01 2.1840211641592622e+00 3.1028352299045196e+01 1 0 -1
2886 1 5.6696400012730166e+00 9.9682891867413552e+00 1.7760158791581183e+01 1 0 0
3859 1 6.3958671931522142e+00 2.5766906800524616e+00 3.0340253996903108e+01 1 0 0
2268 1 9.3692521041086820e+00 1.9905122624691349e+00 3.0565191931024081e+01 0 0 -1
2139 1 1.0480735262524442e+01 2.6267044472879983e+00 2.7950183146838512e+01 2 0 0
58 1 1.6890178598549205e-01 1.0052784676838591e+01 2.8214276563094785e+01 2 1 1
75 1 1.0597554130796356e+01 4.5701584609330359e+00 3.0924151693439967e+01 1 -1 0
1373 1 2.6063919473557884e+00 8.0410115426478264e+00 3.0308522102979090e+01 0 -1 0
3675 1 3.4819008070786102e+00 5.3108246234029748e+00 3.0970022582494593e+01 1 0 0
1512 1 5.5239841948590742e+00 9.0701594583635003e+00 3.0270597450421413e+01 1 1 -2
4517 1 6.4111920694173241e+00 5.4734162464643532e+00 3.0794498073018424e+01 1 0 -1
3634 1 7.8224556990317673e+00 7.8741833909066585e+00 3.1058461783267632e+01 0 0 0
1585 1 1.0003280134154650e+01 3.3328271258541635e+00 2.3387224066691061e+01 0 0 0
1521 1 5.9827101100046898e+00 1.2012388731817127e+00 2.1573482126485608e+01 0 1 0
3633 1 3.2578312507459950e-01 1.1693031924064428e+01 1.9405804592333062e+01 1 0 0
726 1 6.4274879341398000e-02 6.5802538184536088e+00 2.3666016201609033e+01 0 0 -1
3894 1 4.2123714011780355e-01 5.3071610714264859e+00 3.0594760309792605e+01 0 -1 0
1529 1 1.1970394176693917e+01 7.3088417888984329e+00 3.0910296624487572e+01 0 1 0
3062 1 9.3970920822486215e-01 1.3100911714181158e+00 2.8478544390805524e+01 0 0 -1
4449 1 2.6488792527226526e+00 1.1178947689219710e+01 1.7428979698116372e+01 0 0 0
2904 1 1.2221780873426161e+01 8.3404348798046324e-01 2.2529699924846973e+01 0 1 0
596 1 1.2100913465869228e+01 5.8037880184005273e+00 2.1380936317512095e+01 0 1 0
2214 1 1.9669360326184368e-01 9.0934820101022318e+00 2.2028118897696345e+01 0 -1 0
132 2 0.0000000000000000e+00 1.2787731112280996e+01 3.2318988525020709e+00 0 0 0
134 2 1.2305000000000001e+00 1.3498160618518829e+01 3.2318988525020709e+00 0 0 0
169 2 2.4610000000000003e+00 1.2787731112280996e+01 3.2318988525020709e+00 0 0 0
171 2 3.6915000000000004e+00 1.3498160618518829e+01 3.2318988525020709e+00 0 0 0
130 2 0.0000000000000000e+00 1.5629449137232333e+01 3.2318988525020709e+00 0 0 0
165 2 1.2305000000000001e+00 1.4919019630994494e+01 3.2318988525020709e+00 0 0 0
167 2 2.4610000000000003e+00 1.5629449137232328e+01 3.2318988525020709e+00 0 0 0
210 2 3.6915000000000004e+00 1.4919019630994494e+01 3.2318988525020709e+00 0 0 0
214 2 4.9220000000000006e+00 1.2787731112280996e+01 3.2318988525020709e+00 0 0 0
216 2 6.1524999999999990e+00 1.3498160618518829e+01 3.2318988525020709e+00 0 0 0
261 2 7.3829999999999991e+00 1.2787731112280996e+01 3.2318988525020709e+00 0 0 0
212 2 4.9220000000000006e+00 1.5629449137232333e+01 3.2318988525020709e+00 0 0 0
257 2 6.1524999999999990e+00 1.4919019630994494e+01 3.2318988525020709e+00 0 0 0
259 2 7.3829999999999991e+00 1.5629449137232333e+01 3.2318988525020709e+00 0 0 0
263 2 8.6135000000000002e+00 1.3498160618518835e+01 3.2318988525020709e+00 0 0 0
308 2 9.8440000000000012e+00 1.2787731112280996e+01 3.2318988525020709e+00 0 0 0
310 2 1.1074500000000002e+01 1.3498160618518829e+01 3.2318988525020709e+00 0 0 0
304 2 8.6135000000000002e+00 1.4919019630994494e+01 3.2318988525020709e+00 0 0 0
306 2 9.8440000000000012e+00 1.5629449137232328e+01 3.2318988525020709e+00 0 0 0
346 2 1.1074500000000002e+01 1.4919019630994494e+01 3.2318988525020709e+00 0 0 0
161 2 0.0000000000000000e+00 1.7050308149707998e+01 3.2318988525020709e+00 0 0 0
206 2 2.4610000000000003e+00 1.7050308149707998e+01 3.2318988525020709e+00 0 0 0
159 2 0.0000000000000000e+00 1.9892026174659328e+01 3.2318988525020709e+00 0 0 0
163 2 1.2305000000000001e+00 1.7760737655945832e+01 3.2318988525020709e+00 0 0 0
202 2 1.2305000000000001e+00 1.9181596668421495e+01 3.2318988525020709e+00 0 0 0
204 2 2.4610000000000003e+00 1.9892026174659328e+01 3.2318988525020709e+00 0 0 0
208 2 3.6914999999999996e+00 1.7760737655945832e+01 3.2318988525020709e+00 0 0 0
249 2 3.6914999999999996e+00 1.9181596668421495e+01 3.2318988525020709e+00 0 0 0
253 2 4.9220000000000006e+00 1.7050308149707998e+01 3.2318988525020709e+00 0 0 0
300 2 7.3830000000000009e+00 1.7050308149707998e+01 3.2318988525020709e+00 0 0 0
251 2 4.9220000000000006e+00 1.9892026174659328e+01 3.2318988525020709e+00 0 0 0
255 2 6.1524999999999999e+00 1.7760737655945832e+01 3.2318988525020709e+00 0 0 0
296 2 6.1524999999999999e+00 1.9181596668421495e+01 3.2318988525020709e+00 0 0 0
298 2 7.3829999999999991e+00 1.9892026174659328e+01 3.2318988525020709e+00 0 0 0
342 2 9.8440000000000012e+00 1.7050308149707998e+01 3.2318988525020709e+00 0 0 0
376 2 1.2304999999999998e+01 1.7050308149707998e+01 3.2318988525020709e+00 0 0 0
302 2 8.6134999999999984e+00 1.7760737655945832e+01 3.2318988525020709e+00 0 0 0
338 2 8.6135000000000002e+00 1.9181596668421495e+01 3.2318988525020709e+00 0 0 0
340 2 9.8440000000000012e+00 1.9892026174659335e+01 3.2318988525020709e+00 0 0 0
344 2 1.1074500000000002e+01 1.7760737655945835e+01 3.2318988525020709e+00 0 0 0
372 2 1.1074500000000002e+01 1.9181596668421495e+01 3.2318988525020709e+00 0 0 0
196 2 0.0000000000000000e+00 2.4154603212086325e+01 3.2318988525020709e+00 0 0 0
198 2 0.0000000000000000e+00 2.1312885187134999e+01 3.2318988525020709e+00 0 0 0
200 2 1.2304999999999993e+00 2.2023314693372832e+01 3.2318988525020709e+00 0 0 0
241 2 1.2304999999999993e+00 2.3444173705848499e+01 3.2318988525020709e+00 0 0 0
243 2 2.4610000000000003e+00 2.4154603212086325e+01 3.2318988525020709e+00 0 0 0
245 2 2.4610000000000003e+00 2.1312885187134995e+01 3.2318988525020709e+00 0 0 0
247 2 3.6914999999999996e+00 2.2023314693372832e+01 3.2318988525020709e+00 0 0 0
288 2 3.6915000000000004e+00 2.3444173705848499e+01 3.2318988525020709e+00 0 0 0
290 2 4.9220000000000006e+00 2.4154603212086325e+01 3.2318988525020709e+00 0 0 0
292 2 4.9220000000000006e+00 2.1312885187134995e+01 3.2318988525020709e+00 0 0 0
294 2 6.1524999999999990e+00 2.2023314693372832e+01 3.2318988525020709e+00 0 0 0
330 2 6.1524999999999999e+00 2.3444173705848499e+01 3.2318988525020709e+00 0 0 0
332 2 7.3830000000000009e+00 2.4154603212086336e+01 3.2318988525020709e+00 0 0 0
334 2 7.3829999999999991e+00 2.1312885187134999e+01 3.2318988525020709e+00 0 0 0
336 2 8.6135000000000002e+00 2.2023314693372832e+01 3.2318988525020709e+00 0 0 0
364 2 8.6134999999999984e+00 2.3444173705848499e+01 3.2318988525020709e+00 0 0 0
366 2 9.8440000000000012e+00 2.4154603212086336e+01 3.2318988525020709e+00 0 0 0
368 2 9.8440000000000012e+00 2.1312885187134999e+01 3.2318988525020709e+00 0 0 0
370 2 1.1074500000000002e+01 2.2023314693372832e+01 3.2318988525020709e+00 0 0 0
390 2 1.1074500000000002e+01 2.3444173705848499e+01 3.2318988525020709e+00 0 0 0
133 2 0.0000000000000000e+00 1.2787731112280996e+01 6.2414536735198736e+00 0 0 0
170 2 2.4610000000000003e+00 1.2787731112280996e+01 6.2414536735198736e+00 0 0 0
442 2 0.0000000000000000e+00 1.2787731112280996e+01 9.2510084945387412e+00 0 0 0
443 2 1.2305000000000001e+00 1.3498160618518829e+01 9.2510084945387412e+00 0 0 0
461 2 2.4610000000000003e+00 1.2787731112280996e+01 9.2510084945387412e+00 0 0 0