
# Create simulation box and atoms

read_data data.ML_graphite_1atm_240K
  orthogonal box = (0 0 1.76685) to (49.22 49.0196 31.8685)
  4 by 4 by 2 MPI processor grid
  reading atoms ...
  4545 atoms
  reading velocities ...
  4545 velocities
group water type 1
1785 atoms in group water
group graphite type 2
2760 atoms in group graphite

# Define potential

pair_style sw
pair_coeff * * MLC_e.sw mW C


# Fix graphite atoms in place

fix 5 graphite setforce 0.0 0.0 0.0
velocity graphite set 0.0 0.0 0.0


# Equilibration of molecular water

# Add velocity/set timestep

velocity	    water create ${TEMP} ${SEED} rot yes dist gaussian
velocity	    water create 240 ${SEED} rot yes dist gaussian
velocity	    water create 240 31312 rot yes dist gaussian
timestep	    5.0

# Define output

compute			1 water msd
compute			3 water temp
thermo	    	50
thermo_style	custom step temp press vol etotal ke pe c_1[4] c_3

# Neighbor lists

neigh_modify    delay 0 every 1 check yes

# Set fixes

fix             1 water momentum 10 linear 1 1 1 rescale
fix             2 water nve
fix             3 water temp/csvr ${TEMP} ${TEMP} 500.0 ${SEED}
fix             3 water temp/csvr 240 ${TEMP} 500.0 ${SEED}
fix             3 water temp/csvr 240 240 500.0 ${SEED}
fix             3 water temp/csvr 240 240 500.0 31312
fix             4 water press/berendsen z ${PRES} ${PRES} 1000.0 modulus 20000
fix             4 water press/berendsen z 1 ${PRES} 1000.0 modulus 20000
fix             4 water press/berendsen z 1 1 1000.0 modulus 20000

# Run 0.5 ns equilibration

dump		    1 all atom 2000 ${DIR}/eq.${NAME}-${TEMP}.dump
dump		    1 all atom 2000 run_5/eq.${NAME}-${TEMP}.dump
dump		    1 all atom 2000 run_5/eq.het_freeze_5-${TEMP}.dump
dump		    1 all atom 2000 run_5/eq.het_freeze_5-240.dump

reset_timestep  0

run	            100000
Neighbor list info ...
  update every 1 steps, delay 0 steps, check yes
  max neighbors/atom: 2000, page size: 100000
  master list distance cutoff = 6.67472
  ghost atom cutoff = 6.67472
  binsize = 3.33736, bins = 15 15 10
  1 neighbor lists, perpetual/occasional/extra = 1 0 0
  (1) pair sw, perpetual
      attributes: full, newton on
      pair build: full/bin/atomonly
      stencil: full/bin/3d
      bin: standard
Per MPI rank memory allocation (min/avg/max) = 4.115 | 4.302 | 4.489 Mbytes
Step Temp Press Volume TotEng KinEng PotEng c_1[4] c_3 
       0    94.225352   -657.89738    72627.636   -17236.286    1276.2636    -18512.55            0          240 
      50     96.90778   -400.57373    72664.851    -17219.16    1312.5966   -18531.756   0.51811571    246.83237 
     100    94.237421   -333.69946    72661.056   -17187.469    1276.4271   -18463.896   0.87003218    240.03074 
     150    92.704167   -412.88106    72659.953   -17212.381    1255.6595    -18468.04    1.1206176    236.12541 
     200    96.747775   -239.70537    72711.858    -17229.39    1310.4293    -18539.82    1.3874881    246.42483 
     250    97.572786   -402.35098    72742.883   -17222.316    1321.6039    -18543.92    1.6793558     248.5262 
     300    95.606374   -503.15754    72781.146   -17238.865    1294.9693   -18533.834    1.8922878    243.51758 
     350    94.175355   -752.82093    72799.251   -17264.846    1275.5864   -18540.433    2.1297325    239.87265 
     400    91.824753    -635.0171    72751.984   -17226.796     1243.748   -18470.544    2.3858047    233.88547 
     450    93.448666   -508.33189    72702.635   -17270.559    1265.7436   -18536.303    2.6478345    238.02171 
     500    94.367994   -491.36715    72709.187   -17250.828    1278.1957   -18529.024    2.8970884    240.36332 
     550    92.366192   -281.24704    72714.308   -17263.366    1251.0817   -18514.448    3.0737626    235.26456 
     600    92.704735   -472.30791     72740.67   -17280.085    1255.6672   -18535.753    3.2526869    236.12686 
     650    96.618432   -434.57894    72757.495   -17253.244    1308.6774   -18561.921    3.3999268    246.09538 
     700    91.508806   -206.80685    72740.618   -17272.543    1239.4686   -18512.011    3.5830823    233.08073 
     750    94.188875   -568.51102    72723.985   -17252.271    1275.7696   -18528.041    3.7078284    239.90709 
     800    94.979245   -461.68327    72686.826   -17250.384     1286.475   -18536.859    3.7986552    241.92023 
     850     94.49097   -536.15323    72622.907   -17266.201    1279.8614   -18546.062     3.986335    240.67655 
     900    93.356852   -407.87785    72620.412    -17272.68       1264.5    -18537.18    4.2016816    237.78786 
     950    93.145659   -677.44811    72574.267   -17277.597    1261.6394   -18539.236    4.5309973    237.24993 
    1000    91.315352   -259.53136    72585.235   -17295.703    1236.8483   -18532.551     4.813505    232.58798 
    1050    93.449266   -416.49717    72638.359   -17264.224    1265.7517   -18529.976    4.9928206    238.02324 
    1100    95.912083   -470.75333    72606.823   -17236.938    1299.1101   -18536.048    5.1772543    244.29625 
    1150    96.189603   -22.454262    72647.204   -17228.134     1302.869   -18531.003    5.4344581    245.00311 
    1200    95.338969   -292.90061    72661.249   -17240.957    1291.3474   -18532.305    5.6714564    242.83648 
    1250    93.819253   -226.09204    72651.411   -17296.964    1270.7631   -18567.727    5.9386586    238.96563 
    1300    93.714582   -162.22107    72680.288   -17312.777    1269.3454   -18582.122     6.174981    238.69903 
    1350    91.364901   -132.71326    72721.344   -17334.614    1237.5194   -18572.134    6.3320523    232.71419 
    1400     91.08877   -124.88798    72745.162   -17312.688    1233.7792   -18546.467    6.4438906    232.01086 
    1450    91.160016   -170.30044    72800.565    -17265.11    1234.7443   -18499.854    6.6816135    232.19233 
    1500    93.658671   -94.468438     72846.48   -17235.619     1268.588   -18504.207    7.0072265    238.55662 
    1550    96.320857   -225.07707    72923.562   -17243.307    1304.6468   -18547.953    7.2303739    245.33743 
    1600    94.549481   -74.634877     72941.73    -17229.89    1280.6539   -18510.544    7.5073816    240.82558 
    1650    91.820353   -312.07978    72961.887    -17233.74    1243.6884   -18477.429     7.784525    233.87426 
    1700    93.884728   -241.02502    72970.727   -17245.882      1271.65   -18517.532    7.9508486     239.1324 
    1750    94.412293   -90.968562     73032.75   -17246.406    1278.7957   -18525.201    8.2109752    240.47615 
    1800    95.946943   -566.79331    73031.919   -17243.308    1299.5822    -18542.89    8.4851951    244.38504 
    1850     91.44736   -515.72951    72958.387   -17245.756    1238.6363   -18484.392    8.6653744    232.92422 
    1900    90.918844   -361.13724    72966.281   -17288.078    1231.4776   -18519.555    8.8917665    231.57804 
    1950    95.164433   -591.19766    72966.974   -17258.653    1288.9833   -18547.636    9.0285758    242.39192 
    2000    93.768598   -400.48618    73051.753   -17235.227     1270.077   -18505.304    9.1552364    238.83661 
    2050    92.091128   -223.08108    73156.177   -17198.966     1247.356   -18446.322    9.4016094    234.56395 
    2100    93.457359   -405.39662    73148.239   -17227.068    1265.8613   -18492.929    9.6180323    238.04386 
    2150      95.3429   -510.28375    73106.465     -17226.7    1291.4006     -18518.1    10.012775    242.84649 
    2200     96.62783    -836.1722    73040.553   -17244.776    1308.8047   -18553.581    10.312743    246.11931 
    2250     93.93551   -413.34249    73068.255   -17242.405    1272.3378   -18514.743     10.57881    239.26175 
    2300    93.374201   -367.76187    73097.032   -17215.756     1264.735   -18480.491     10.65273    237.83205 
    2350    93.363197   -462.57147    73150.575   -17213.359    1264.5859   -18477.945    10.801446    237.80402 
    2400    95.520795   -574.80689    73173.651   -17243.739    1293.8102   -18537.549    11.028857     243.2996 
    2450    92.177949   -927.46159    73119.423   -17276.289     1248.532   -18524.821    11.266688    234.78509 
    2500    92.789031   -293.06332    73068.257   -17284.322    1256.8089   -18541.131    11.407419    236.34157 
    2550    92.257075   -77.699041    73062.715   -17293.325    1249.6037   -18542.928    11.569449    234.98663 
    2600    90.978306   -387.14335    73052.692   -17269.628     1232.283   -18501.911    11.718212     231.7295 
    2650    91.795476   -125.89938    73026.536   -17242.298    1243.3514    -18485.65    11.933118     233.8109 
    2700    93.313117   -478.10967    73105.251   -17240.223    1263.9076   -18504.131    12.075421    237.67646 
    2750    93.664311   -172.59157    73157.481   -17237.076    1268.6644    -18505.74    12.127196    238.57098 
    2800    93.325633   -873.84597    73149.084   -17260.889    1264.0771   -18524.966    12.207859    237.70834 
    2850    90.923888   -408.11273     73110.04   -17247.905     1231.546   -18479.451     12.35587    231.59089 
    2900    93.007012   -601.49184    73022.163    -17290.35    1259.7615   -18550.111    12.553034    236.89678 
    2950    91.753172   -512.59336    72998.249   -17284.352    1242.7784   -18527.131    12.917684    233.70315 
    3000     93.67497   -209.25859     72933.93    -17272.21    1268.8088   -18541.019    13.096397    238.59813 
    3050    92.202841   -670.64052    72868.491   -17322.037    1248.8691   -18570.907     13.23616    234.84849 
    3100    91.531008   -457.26346    72830.575   -17297.799    1239.7693   -18537.568    13.342459    233.13728 
    3150    94.877024   -589.75234    72827.009   -17260.636    1285.0904   -18545.727    13.489176    241.65986 
    3200     94.82603   -814.95806    72778.202   -17266.878    1284.3997   -18551.278    13.679774    241.52998 
    3250    96.799755   -695.08648    72685.548   -17279.345    1311.1334   -18590.478    13.640498    246.55722 
    3300    94.710384   -248.59711     72694.16   -17265.934    1282.8333   -18548.768    13.802765    241.23542 
    3350    93.172698    -632.2475     72694.88   -17246.914    1262.0056   -18508.919    13.886541     237.3188 
    3400    93.118031   -312.69533    72670.859   -17268.188    1261.2652   -18529.453    14.097628    237.17956 
    3450    96.601742   -452.50901    72643.514   -17291.904    1308.4514   -18600.356    14.175126    246.05287 
    3500    95.179359    -519.9302    72547.415    -17301.33    1289.1855   -18590.516    14.344644    242.42994 
    3550     93.93589   -753.78508    72548.007   -17318.258    1272.3429   -18590.601    14.617408    239.26272 
    3600    94.329744    -361.3395    72594.881   -17341.139    1277.6776   -18618.817    14.950107     240.2659 
    3650    93.931659   -301.38934     72637.83   -17296.233    1272.2856   -18568.519    15.294751    239.25194 
    3700    91.469353   -655.08947    72605.301   -17298.719    1238.9342   -18537.653    15.582446    232.98024 
    3750    92.357932   -364.08616     72652.61   -17297.979    1250.9698   -18548.948    15.782675    235.24352 
    3800    93.350065   -699.38728    72675.528   -17306.174     1264.408   -18570.582    15.969854    237.77057 
    3850     93.18306   -284.29869    72689.456   -17284.051     1262.146   -18546.197    16.052006    237.34519 
    3900    90.762649   -280.48163    72711.851   -17273.974     1229.362   -18503.336    16.099915     231.1802 
    3950    94.569988   -486.85697    72755.346   -17309.524    1280.9317   -18590.456     16.26402    240.87782 
    4000    94.118397   -293.33268    72713.207   -17313.915    1274.8149    -18588.73    16.360485    239.72758 
    4050    92.008957   -91.669526    72694.875   -17348.448     1246.243   -18594.691    16.757064    234.35465 
    4100     89.41181   -425.66951    72739.377   -17368.889    1211.0652   -18579.954    17.102071     227.7395 
    4150    91.957479   -429.67923    72724.128   -17314.845    1245.5457   -18560.391    17.395078    234.22353 
    4200    92.693367   -763.85387    72675.909   -17304.509    1255.5132   -18560.023    17.516868     236.0979 
    4250    93.193799   -525.44751    72648.672   -17302.001    1262.2914   -18564.292    17.607349    237.37255 
    4300    95.338082   -248.51086    72710.195   -17295.752    1291.3353   -18587.087    17.850314    242.83422 
    4350    92.032924   -460.52357     72661.16   -17283.294    1246.5676   -18529.862    18.071197     234.4157 
    4400    90.370197   -455.48274    72661.621   -17311.754    1224.0463     -18535.8    18.367637    230.18059 
    4450    89.919428   -620.45005    72665.001   -17290.258    1217.9408   -18508.199    18.466533    229.03245 
    4500    90.871022   -92.363572    72672.124   -17276.307    1230.8299   -18507.137    18.651947    231.45623 
    4550    93.082064   -575.19777    72716.676   -17260.997     1260.778   -18521.775    19.095194    237.08795 
    4600    91.888124   -485.50909    72708.603   -17245.161    1244.6063   -18489.768    19.392094    234.04688 
    4650    95.286436   -343.10389    72663.355   -17259.367    1290.6358   -18550.003    19.838194    242.70267 
    4700    94.251854    13.092489    72706.245   -17243.913    1276.6226   -18520.536    20.183017     240.0675 
    4750    94.506285   -402.47295    72730.396   -17200.473    1280.0688   -18480.541    20.509484    240.71556 
    4800    93.412672   -306.65093    72737.791   -17247.204     1265.256    -18512.46    20.661895    237.93003 
    4850    94.402004    -85.15547    72749.481   -17242.854    1278.6563   -18521.511    20.769872    240.44995 
    4900    93.241497   -276.02494    72767.164   -17209.423    1262.9375   -18472.361    20.945303    237.49404 
    4950    95.280204   -175.26728     72842.06    -17228.48    1290.5514   -18519.031    21.136476     242.6868 
    5000    94.856147   -273.49793    72860.643   -17240.914    1284.8076   -18525.721    21.329199    241.60669 
    5050    95.887556   -307.16694    72849.093   -17234.241    1298.7779   -18533.019    21.469686    244.23377 
    5100    93.076588   -719.04467    72804.524   -17267.731    1260.7039   -18528.435    21.872051      237.074 
    5150    94.406565   -438.12722    72770.296   -17259.157    1278.7181   -18537.875    21.923467    240.46156 
    5200    95.026866   -660.15324    72743.039   -17254.241      1287.12   -18541.361    22.092837    242.04153 
    5250    93.157834   -367.19915     72693.57   -17278.738    1261.8043   -18540.542    22.190342    237.28094 
    5300    93.157268   -253.31824     72715.31   -17312.796    1261.7966   -18574.593    22.396703     237.2795 
    5350    94.187902   -585.54596    72773.197   -17288.989    1275.7564   -18564.745     22.51443    239.90461 
    5400    94.102556   -307.95978     72849.29   -17268.645    1274.6004   -18543.246    22.740395    239.68723 
    5450    93.827004   -517.99738    72905.866    -17266.48    1270.8681   -18537.348    22.927874    238.98537 
    5500    95.272311   -497.48835    72908.395   -17264.327    1290.4445   -18554.772    23.043602    242.66669 
    5550    94.473791   -469.16865    72883.823   -17256.295    1279.6287   -18535.923    23.232004    240.63279 
    5600    91.590741   -537.66868    72851.523   -17249.229    1240.5783   -18489.807    23.530494    233.28942 
    5650    97.148621   -864.15804    72806.504   -17234.674    1315.8587   -18550.533    23.570595    247.44582 
    5700    95.414687   -53.111524    72848.431   -17216.512    1292.3729   -18508.885    23.711383    243.02934 
    5750    98.656693   -468.98592    72895.213   -17181.298    1336.2853   -18517.583    23.959835      251.287 
    5800    97.283284   -702.78424    72936.278   -17166.157    1317.6827    -18483.84    24.248626    247.78881 
    5850    98.078631   -518.78763    72889.033   -17160.871    1328.4555   -18489.327     24.58667    249.81463 
    5900     97.91822   -444.95991    72883.354   -17190.351    1326.2828   -18516.634    24.941035    249.40605 
    5950    91.362072   -449.31313    72881.559   -17218.655    1237.4811   -18456.136    25.206187    232.70698 
    6000    94.227745   -600.28155    72920.171   -17227.551     1276.296   -18503.847    25.559202    240.00609 
    6050    95.261017   -521.84446    72850.768    -17270.09    1290.2915   -18560.381     25.68559    242.63793 
    6100    96.860756   -408.27342    72838.532   -17192.404    1311.9596   -18504.364     25.64689     246.7126 
    6150    93.990421   -669.63467    72802.192   -17214.248    1273.0815   -18487.329    25.910431    239.40161 
    6200    95.583321   -543.18438    72726.717   -17200.565    1294.6571   -18495.222    26.094584    243.45886 
    6250    94.008443    -617.1461    72673.938   -17228.346    1273.3256   -18501.672    26.401361    239.44751 
    6300    94.588858   -180.77293    72680.388   -17230.634    1281.1872   -18511.821    26.781062    240.92588 
    6350    94.966842   -503.40471    72671.402   -17204.437     1286.307   -18490.744    27.195947    241.88864 
    6400    92.903431   -450.99093    72651.345   -17231.241    1258.3585     -18489.6    27.301319    236.63295 
    6450    95.574751   -559.48504     72684.32   -17226.033     1294.541   -18520.574    27.447211    243.43704 
    6500    92.386482   -547.52757    72699.223   -17225.569    1251.3565   -18476.926    27.928051    235.31624 
    6550    92.645805   -667.52908     72658.22   -17213.113     1254.869   -18467.982    28.213143    235.97676 
    6600    93.062906    -736.4427    72640.889    -17209.85    1260.5185   -18470.368    28.266912    237.03915 
    6650    95.516694    -392.4971    72579.596   -17185.096    1293.7546   -18478.851    28.114531    243.28916 
    6700    97.812872   -70.056292    72643.131   -17201.356    1324.8559   -18526.212    28.105351    249.13772 
    6750    94.651539   -386.93522    72674.313   -17231.675    1282.0362   -18513.711     28.55051    241.08553 
    6800    94.542214   -257.33952    72746.209   -17226.941    1280.5555   -18507.496    28.733263    240.80707 
    6850     91.48743   -483.90795    72727.356   -17230.199     1239.179   -18469.378    28.852538    233.02628 
    6900    92.503495   -321.90299    72684.811   -17245.927    1252.9414   -18498.869    28.950523    235.61428 
    6950    91.219828    21.742444    72689.674   -17247.107    1235.5544   -18482.661    29.261557    232.34468 
    7000    96.217174   -501.30359     72707.63   -17197.915    1303.2425   -18501.158    29.354538    245.07334 
    7050    94.047001   -208.01698    72783.773   -17194.079    1273.8479   -18467.927    29.647168    239.54573 
    7100    93.869596   -208.25757    72728.929    -17206.18     1271.445   -18477.625    29.925615    239.09386 
    7150    93.401736   -224.04107    72738.956   -17257.132    1265.1079    -18522.24    30.290602    237.90218 
    7200    95.333407   -684.84423    72720.546   -17241.194     1291.272   -18532.466    30.482922    242.82231 
    7250    94.934769   -197.19958    72775.921   -17221.843    1285.8725   -18507.715    30.380692    241.80695 
    7300    96.413704   -618.77288    72760.845   -17213.684    1305.9044   -18519.589    30.515925    245.57392 
    7350    93.334343   -632.24835    72761.601   -17240.797    1264.1951   -18504.992     30.59836    237.73052 
    7400    95.087409   -257.84056    72734.571   -17250.674      1287.94   -18538.614    30.896839    242.19573 
    7450    92.925559   -202.62101    72796.586   -17271.941    1258.6582   -18530.599    31.086607    236.68932 
    7500     94.51705   -374.03368    72825.001   -17253.585    1280.2146     -18533.8    31.550848    240.74298 
    7550    96.216879   -664.92032    72853.456   -17232.302    1303.2385   -18535.541    31.925496    245.07259 
    7600    95.309574   -386.14172    72841.343   -17238.133    1290.9492   -18529.083    31.946531    242.76161 
    7650    93.635633   -360.10977    72882.232    -17261.54     1268.276   -18529.816    31.997144    238.49793 
    7700    95.059274   -375.77861    72856.748   -17233.832    1287.5589   -18521.391    32.237035    242.12407 
    7750    95.006949   -402.15831    72868.982   -17235.398    1286.8502   -18522.248    32.262748    241.99079 
    7800    97.856058   -454.54202    72872.407   -17210.033    1325.4408   -18535.474    32.512145    249.24772 
    7850    94.192932   -562.12607    72873.182   -17226.927    1275.8245   -18502.752     32.83917    239.91742 
    7900    95.620044   -506.56949    72858.106   -17214.021    1295.1545   -18509.175    33.067585     243.5524 
    7950    94.917576   -587.14378    72833.146   -17246.075    1285.6397   -18531.715     33.52597    241.76315 
    8000    92.452383   -441.21449    72820.452   -17242.939    1252.2491   -18495.189    33.723226     235.4841 
    8050    93.714039   -387.40461    72818.779    -17224.58     1269.338   -18493.918    33.786003    238.69764 
    8100    94.341566   -104.95496    72872.184   -17238.594    1277.8377   -18516.432      33.9473    240.29601 
    8150    95.418758   -121.46985    72914.482   -17199.607    1292.4281   -18492.035    34.145553    243.03971 
    8200    94.313328   -9.8316532    72957.021   -17205.157    1277.4552   -18482.613    34.280383    240.22408 
    8250    97.577064   -355.56128    73028.096   -17204.358    1321.6619   -18526.019    34.635023     248.5371 
    8300    96.450102   -195.09363     73109.69   -17203.052    1306.3974   -18509.449    34.871113    245.66663 
    8350    96.707787   -831.85811    73129.597   -17199.806    1309.8877   -18509.693    35.158809    246.32297 
    8400    94.653234   -605.34646    73043.347   -17208.634    1282.0592   -18490.693    35.395354    241.08985 
    8450    96.063629    -550.1825    73003.855   -17227.274    1301.1627   -18528.437    35.836843    244.68225 
    8500    96.507265   -705.46305     72977.34   -17212.812    1307.1717   -18519.983    36.142819    245.81223 
    8550     95.83125   -955.32668     72889.75   -17160.621    1298.0152   -18458.636    36.199366    244.09036 
    8600    96.602581   -628.15018    72830.154   -17194.407    1308.4627   -18502.869    36.058117      246.055 
    8650    95.944873   -551.50992    72845.457   -17244.072    1299.5542   -18543.627    36.225471    244.37977 
    8700    93.119513   -83.466615    72822.663   -17243.654    1261.2853    -18504.94     36.21685    237.18333 
    8750    93.730513   -686.39562    72834.172   -17218.305    1269.5611   -18487.866      36.4965     238.7396 
    8800    96.554969   -731.77907    72844.651   -17228.351    1307.8178   -18536.169    36.639319    245.93373 
    8850    96.431236   -407.99439    72813.597   -17221.112    1306.1419   -18527.254    36.872497    245.61857 
    8900     94.51685   -660.48441    72829.403   -17255.214    1280.2119   -18535.426    36.930164    240.74247 
    8950    95.151895   -521.91077    72823.737   -17201.682    1288.8135   -18490.495    37.010446    242.35998 
    9000    94.949814   -397.70951    72859.432   -17153.345    1286.0763   -18439.421    37.141392    241.84527 
    9050     94.97689   -174.67876    72881.227   -17137.677    1286.4431    -18424.12    37.476208    241.91423 
    9100    96.457914   -346.63442     72974.43    -17186.87    1306.5032   -18493.373    37.820178    245.68652 
    9150    95.157125   -223.68571    72999.452   -17182.879    1288.8843   -18471.763    37.935799    242.37331 
    9200    94.680006   -484.59278    73018.181   -17198.395    1282.4218   -18480.817    37.859857    241.15804 
    9250    95.400847   -66.383644    73053.187    -17178.14    1292.1855   -18470.326    38.208743    242.99408 
    9300    96.191372   -419.20394    73108.225    -17181.46     1302.893   -18484.353     38.47974    245.00762 
    9350     96.22199   -627.29987    73069.765   -17196.079    1303.3077   -18499.386    38.764294    245.08561 
    9400    95.171884   -586.58845    73015.234   -17179.745    1289.0842   -18468.829    38.797835     242.4109 
    9450    96.341141   -703.62431    72883.904   -17190.124    1304.9216   -18495.046    39.066078    245.38909 
    9500    93.113647   -352.40016    72833.266   -17240.164    1261.2058    -18501.37    39.328588    237.16839 
    9550    96.563472    -159.8787    72875.465   -17241.773     1307.933   -18549.706    39.616772    245.95539 
    9600    95.884266   -627.26281    72867.744   -17245.416    1298.7333   -18544.149    39.703031    244.22539 
    9650    93.657603   -223.85153    72859.077   -17260.886    1268.5736    -18529.46    39.890617    238.55389 
    9700    92.552853   -332.03161    72805.506   -17264.734      1253.61   -18518.344     39.88523       235.74 
    9750    93.787563   -487.60287    72832.668   -17264.216    1270.3339   -18534.549    40.223318    238.88491 
    9800    94.873926   -219.05179    72831.209   -17261.384    1285.0484   -18546.432    40.679049    241.65197 
    9850    93.676785   -789.80188    72782.831   -17303.644    1268.8334   -18572.477    40.871544    238.60275 
    9900    93.063622   -120.04624    72730.811   -17298.334    1260.5282   -18558.862    41.002784    237.04098 
    9950    92.664502   -156.61542    72791.413   -17294.688    1255.1222    -18549.81    41.414037    236.02438 
   10000    93.237679   -545.24384    72752.893   -17281.972    1262.8858   -18544.858    41.816347    237.48431 
   10050    92.940935   -607.25338    72732.256   -17264.141    1258.8665   -18523.008     42.02697    236.72848 
   10100    92.670721   -621.84041    72703.205   -17274.832    1255.2065   -18530.039     42.16793    236.04022 
   10150    98.195168   -490.43681    72682.591     -17248.9     1330.034   -18578.934    42.570172    250.11146 
   10200    94.597629   -102.25308    72678.296   -17236.366     1281.306   -18517.672    42.631929    240.94822 
   10250    93.842123   -577.26558    72705.285   -17275.738    1271.0729   -18546.811    42.567817    239.02388 
   10300    94.734061   -97.249013    72705.348   -17301.548     1283.154   -18584.702    42.938956    241.29572 
   10350    94.308037   -496.39465    72700.744   -17270.911    1277.3836   -18548.295    43.279505    240.21061 
   10400     94.33004   -295.75757    72751.528   -17282.213    1277.6816   -18559.894    43.553585    240.26665 
   10450    93.503615   -124.33436    72686.803   -17276.955    1266.4878   -18543.443    43.904926    238.16167 
   10500     93.49298   -379.91833     72679.57    -17267.61    1266.3438   -18533.954    43.903446    238.13459 
   10550    96.134549   -956.13329    72617.711    -17187.38    1302.1233   -18489.504     44.23343    244.86289 
   10600    94.173943   -536.57334    72564.994   -17212.936    1275.5673   -18488.504    44.329021    239.86906 
   10650    95.120578   -627.98238    72545.085    -17220.82    1288.3893    -18509.21     44.40173    242.28022 
   10700    94.378733   -303.12746    72538.685   -17213.272    1278.3411   -18491.613    44.523127    240.39067 
   10750    94.957911   -172.39239    72553.738   -17218.671     1286.186   -18504.857    44.861169    241.86589 
   10800    95.919526   -655.73176    72569.123    -17228.51    1299.2109   -18527.721    44.917531    244.31521 
   10850    91.799687   -480.61394    72550.739   -17274.384    1243.4085   -18517.792    45.172019    233.82162 
   10900    93.276024   -362.10371    72553.347   -17254.002    1263.4052   -18517.407    45.666803    237.58198 
   10950    92.014825   -444.10207    72582.287   -17275.606    1246.3225   -18521.929    45.657133     234.3696 
   11000     93.34991   -484.47888    72646.673   -17272.518    1264.4059   -18536.924    46.003461    237.77017 
   11050    95.267586    -254.5179    72672.659    -17247.29    1290.3805    -18537.67    45.976529    242.65466 
   11100    96.349263   -902.45383    72692.332   -17248.867    1305.0316   -18553.899    45.972888    245.40978 
   11150    95.617741    -876.7668    72642.336   -17227.651    1295.1233   -18522.774    46.331169    243.54653 
   11200    96.529095   -558.19416    72548.759   -17224.705    1307.4674   -18532.173    46.533694    245.86783 
   11250    91.186874   -621.59139    72474.013   -17264.961    1235.1081   -18500.069    46.821853    232.26074 
   11300    93.044768   -424.83525    72399.293   -17254.135    1260.2729   -18514.408    46.915081    236.99295 
   11350    92.039853   -711.33169    72375.585    -17259.59    1246.6615   -18506.251    47.118729    234.43335 
   11400    97.164439   -564.92154    72399.131   -17196.409     1316.073   -18512.482    47.467986    247.48611 
   11450    96.649109   -467.21434    72414.936   -17199.073    1309.0929   -18508.166    47.474687    246.17352 
   11500    96.869881   -372.90106     72412.11   -17200.567    1312.0833    -18512.65    47.853698    246.73584 
   11550     96.58491   -269.17739    72428.016   -17194.784    1308.2234   -18503.007    48.252272       246.01 
   11600    95.269582   -173.60462    72496.936   -17191.976    1290.4075   -18482.383     48.46702    242.65974 
   11650    97.307527     -289.545    72490.227   -17211.186    1318.0111   -18529.197    48.614689    247.85056 
   11700    91.680396   -692.22495    72444.258   -17227.964    1241.7927   -18469.756    48.691917    233.51778 
   11750      93.2202    -399.2582    72387.641   -17239.918     1262.649   -18502.567    48.749527    237.43979 
   11800    94.824549   -514.18657    72395.373   -17216.147    1284.3796   -18500.527    48.670092    241.52621 
   11850    90.488489   -199.43106    72374.001   -17239.043    1225.6486   -18464.692    48.978285    230.48189 
   11900    95.111709    -437.5583    72383.074   -17239.298    1288.2692   -18527.567    49.516237    242.25763 
   11950    95.023792   -263.34423     72350.42   -17247.028    1287.0783   -18534.107    49.726372     242.0337 
   12000    91.894536    -454.8661    72359.888   -17267.776    1244.6932   -18512.469    49.906243    234.06321 
   12050    94.483705   -506.78862    72415.828   -17272.289     1279.763   -18552.052    50.383266    240.65805 
   12100    93.306997   -482.74961    72421.227   -17282.051    1263.8247   -18545.875    50.602798    237.66087 
   12150     95.81131   -300.37078    72417.044   -17242.322    1297.7451   -18540.067    50.772129    244.03957 
   12200    92.335876   -412.73905     72436.37   -17273.742    1250.6711   -18524.413    50.799334    235.18734 
   12250    93.713455   -280.67969    72425.304   -17249.502    1269.3301   -18518.832    51.115754    238.69615 
   12300    93.943665   -299.89745    72446.353   -17243.135    1272.4482   -18515.583    51.253737    239.28252 
   12350    96.964135   -421.39083    72525.132   -17214.047    1313.3599   -18527.407    51.486026    246.97591 
   12400    91.254371   -299.18179    72543.921   -17271.957    1236.0223    -18507.98    51.715656    232.43266 
   12450    95.100731    -395.5019    72596.823   -17230.719    1288.1205    -18518.84    51.997244    242.22967 
   12500    90.639954   -671.36387    72621.483   -17228.583    1227.7001   -18456.283    52.167468    230.86768 
   12550    95.171923   -709.48655    72608.576   -17234.053    1289.0847   -18523.138    52.330014      242.411 
   12600    94.999214    -382.0461    72611.425   -17188.971    1286.7454   -18475.717    52.527745    241.97109 
   12650    95.356611   -429.72987    72604.314   -17198.228    1291.5863   -18489.814    52.736307    242.88141 
   12700     97.54684   -202.63379    72614.328    -17220.64    1321.2525   -18541.892    53.069713    248.46011 
   12750    93.109117   -279.38301    72657.349   -17240.652    1261.1444   -18501.796    53.049649    237.15685 
   12800    95.126189   -293.20621    72700.722   -17257.936    1288.4653   -18546.401     53.04512    242.29451 
   12850    92.928595   -365.32474    72711.235   -17227.513    1258.6993   -18486.212    53.382048    236.69705 
   12900    93.169455   -553.73311     72735.03   -17216.488    1261.9617    -18478.45    53.529292    237.31054 
   12950    94.085605   -435.37676    72766.236   -17196.364    1274.3708   -18470.735    53.688529    239.64405 
   13000     91.71448   -315.27609     72825.29   -17232.245    1242.2544   -18474.499    53.670147    233.60459 
   13050    93.919666   -478.60214    72886.089   -17257.292    1272.1232   -18529.415    53.732275    239.22139 
   13100     94.85027   -479.63753    72875.738   -17249.457     1284.728   -18534.185    54.120964    241.59172 
   13150    95.684835   -243.09348     72844.91   -17231.032     1296.032   -18527.064    54.292176    243.71743 
   13200    94.455669    -344.9752    72830.015   -17244.235    1279.3832   -18523.619    54.565959    240.58664 
   13250    96.703337   -603.30329    72786.801   -17213.131    1309.8274   -18522.958    54.660704    246.31164 
   13300    95.092905   -575.69796    72742.003   -17208.163    1288.0145   -18496.177    55.007252    242.20973 
   13350    93.968273   -427.83798    72682.166    -17207.77    1272.7815   -18480.552    55.285327     239.3452 
   13400    95.247548   -793.25528    72651.985   -17205.307    1290.1091   -18495.416    55.648313    242.60362 
   13450    93.956858   -659.55071     72640.18   -17232.505    1272.6269   -18505.132    55.677309    239.31612 
   13500    96.181566   -215.87143    72640.467   -17252.888    1302.7602   -18555.648       55.711    244.98264 
   13550    96.915757    -457.9896    72705.642   -17229.499    1312.7046   -18542.204     56.02313    246.85269 
   13600    93.011252   -345.89952    72711.632   -17249.956    1259.8189   -18509.775      56.3739    236.90758 
   13650     95.17667   -638.98554     72726.65   -17261.365     1289.149   -18550.514    56.423341    242.42309 
   13700    94.996759   -509.95277    72762.917   -17226.212    1286.7122   -18512.924    56.688732    241.96484 
   13750    97.535425   -553.91807     72764.15   -17207.932    1321.0979    -18529.03    57.117966    248.43104 
   13800    94.804856   -368.85771    72764.315   -17195.943    1284.1129   -18480.056    57.222549    241.47605 
   13850    95.099025   -408.78274    72761.932   -17221.354    1288.0974   -18509.452    57.306182    242.22532 
   13900    95.741437   -254.09304    72776.114   -17184.382    1296.7987   -18481.181    57.382241     243.8616 
   13950    95.186838   -736.07875    72797.136   -17255.625    1289.2868   -18544.912    57.624542    242.44899 
   14000    94.940917   -246.68885    72828.556   -17246.542    1285.9558   -18532.497    57.538149     241.8226 
   14050    96.834735   -514.18175    72870.119    -17221.79    1311.6072   -18533.397    57.595561    246.64632 
   14100    95.207597    -662.9682    72888.447   -17245.798    1289.5679   -18535.366      57.9094    242.50186 
   14150    93.284727   -725.28459    72866.677   -17280.254     1263.523   -18543.777    57.904144    237.60415 
   14200    93.270232   -256.00242    72853.936    -17301.09    1263.3267   -18564.416    58.465233    237.56723 
   14250    95.800646    40.404188    72921.102   -17286.708    1297.6007   -18584.309     58.57007    244.01241 
   14300    94.629091   -184.74567    73012.169   -17285.966    1281.7322   -18567.698    58.628533    241.02836 
   14350    93.358922   -523.96647    73055.599   -17294.234     1264.528   -18558.762    58.808448    237.79313 
   14400    94.207181     -295.551    73142.425    -17306.82    1276.0175   -18582.838    58.791765    239.95372 
   14450     92.73541   -424.63254    73128.947    -17315.41    1256.0827   -18571.493    58.843904    236.20499 
   14500    90.639145   -572.38247    73137.291   -17334.378    1227.6892   -18562.067    59.084503    230.86563 
   14550    94.405242   -454.96876    73147.206   -17306.193    1278.7002   -18584.894    59.063103    240.45819 
   14600    94.479733   -839.59585    73106.623   -17278.688    1279.7092   -18558.398     59.37673    240.64793 
   14650    95.122017    -340.3402     73083.77   -17276.579    1288.4088   -18564.988     59.31897    242.28388 
   14700    95.147175   -716.85152    73042.915   -17240.712    1288.7495   -18529.462    59.477008    242.34796 
   14750    96.907894   -646.30897     72983.84   -17236.955    1312.5981   -18549.553    59.439261    246.83266 
   14800     94.31068   -504.81469    72928.326   -17270.801    1277.4194    -18548.22    59.751299    240.21734 
   14850    94.784509   -604.19831    72905.223   -17260.374    1283.8373   -18544.212    59.849963    241.42422 
   14900    94.186046   -386.93655    72899.806   -17280.341    1275.7312   -18556.072     60.42659    239.89988 
   14950    92.179465   -523.42816    72854.918   -17296.616    1248.5525   -18545.168    60.782764    234.78895 
   15000    91.634358   -579.58116    72791.736   -17343.564    1241.1691   -18584.733    60.786244    233.40052 
   15050    92.012175   -386.10081    72831.013   -17318.952    1246.2866   -18565.239    61.086438    234.36285 
   15100    93.216183   -43.325318    72860.588    -17273.29    1262.5946   -18535.884    61.465965    237.42956 
   15150     92.70599   -509.90324    72846.377   -17281.148    1255.6842   -18536.832     61.37497    236.13005 
   15200    91.604422   -449.27792    72780.186   -17283.375    1240.7636   -18524.139    61.847571    233.32427 
   15250    94.799245   -375.11278    72762.183   -17254.182    1284.0369   -18538.219    62.011606    241.46175 
   15300    92.820418   -331.99328    72805.535   -17243.963    1257.2341   -18501.197    62.247705    236.42151 
   15350    98.133687   -422.46075    72808.049   -17193.667    1329.2012   -18522.868    62.520335    249.95486 
   15400    94.514835   -627.32333    72857.927   -17206.568    1280.1846   -18486.752     62.79551    240.73734 
   15450    96.297996    199.33914    72886.757    -17199.22    1304.3372   -18503.557    62.910079     245.2792 
   15500    94.721782   -568.93025    72892.446   -17233.691    1282.9877   -18516.678    62.862791    241.26445 
   15550    92.644945   -478.71836    72904.037   -17263.641    1254.8573   -18518.498    63.125754    235.97457 
   15600    92.391903    -552.5961    72847.761   -17251.859    1251.4299   -18503.289    63.296701    235.33005 
   15650     94.80205   -376.48488    72812.553   -17287.201    1284.0749   -18571.276    63.463719     241.4689 
   15700    93.961583   -381.61809     72752.17   -17286.462    1272.6909   -18559.153    63.529188    239.32816 
   15750    93.609875   -547.86221    72749.816     -17282.7    1267.9271   -18550.627    63.567975    238.43233 
   15800    94.401228   -385.56159    72745.922   -17269.009    1278.6458   -18547.655    63.980833    240.44797 
   15850    89.009009   -436.18247    72786.128    -17294.39    1205.6093   -18499.999     64.88049    226.71353 
   15900    92.640154   -118.74396    72761.904    -17314.37    1254.7924   -18569.163     64.96529    235.96237 
   15950     92.53852   -177.76892    72773.298   -17344.512    1253.4158   -18597.928     65.31069     235.7035 
   16000    91.497737   -195.27808    72820.431   -17353.861    1239.3186   -18593.179     65.63082    233.05253 
   16050    92.344199    -132.2586    72981.903   -17339.121    1250.7838   -18589.905    65.677334    235.20854 
   16100    92.613982   -342.84454    73061.225   -17350.269    1254.4379   -18604.706    65.674035     235.8957 
   16150    92.250038   -481.83372    73062.342   -17317.108    1249.5084   -18566.616    65.675846    234.96871 
   16200    94.058162   -567.93662    73050.215   -17321.828    1273.9991   -18595.827    65.855786    239.57415 
   16250    94.311499   -180.69454    73089.056   -17276.666    1277.4305   -18554.097    66.047063    240.21942 
   16300    94.164282   -128.61727    73132.712   -17280.034    1275.4364    -18555.47    66.026949    239.84445 
   16350    93.840911   -355.67966    73144.568   -17286.339    1271.0565   -18557.396    66.087275     239.0208 
   16400    94.181611   -499.52738    73079.947   -17300.137    1275.6712   -18575.808      66.0223    239.88859 
   16450    92.841725   -36.320674    73070.308    -17334.93    1257.5227   -18592.453    66.144434    236.47578 
   16500    95.899961   -339.62767    73110.891   -17303.029    1298.9459   -18601.975    66.241196    244.26537 
   16550    93.302357   -327.65941    73096.133   -17319.174    1263.7618   -18582.936    66.462743    237.64905 
   16600     92.99172   -536.34687     73107.08   -17339.051    1259.5543   -18598.605    66.162869    236.85783 
   16650     90.84244   -585.50147    73096.241   -17353.019    1230.4428   -18583.462    66.305536    231.38343 
   16700    91.653732   -461.78373    73059.477   -17347.455    1241.4316   -18588.887    66.380178    233.44987 
   16750    93.043182   -554.72007     73062.96   -17290.873    1260.2514   -18551.125    66.515957    236.98891 
   16800    97.895762    -330.9668    73092.346   -17251.041    1325.9786    -18577.02    66.696574    249.34885 
   16850    98.464385   -615.89404    73052.066   -17268.875    1333.6805   -18602.556    66.729641    250.79718 
   16900    94.918687   -397.23589    73018.819   -17263.359    1285.6547   -18549.014    66.937493    241.76598 
   16950    92.213435   -463.98775    72971.079   -17300.834    1249.0126   -18549.847    66.991895    234.87548 
   17000    95.398629   -322.94742    72947.411   -17310.329    1292.1554   -18602.485    67.319205    242.98844 
   17050    92.728352   -233.49809    72956.832   -17329.184    1255.9871   -18585.171    67.491665    236.18701 
   17100    94.762049   -527.72278    72976.943   -17336.934    1283.5331   -18620.467    67.621043    241.36701 
   17150     94.38083   -681.50617    73038.632   -17356.593    1278.3695   -18634.963    67.880933    240.39602 
   17200    92.955821   -277.84917    73038.921   -17376.235    1259.0681   -18635.303    67.875242     236.7664 
   17250    91.679623   -257.40311    73035.628   -17361.431    1241.7822   -18603.213    68.117717    233.51581 
   17300    92.376672   -40.938801    73053.995   -17340.315    1251.2236   -18591.539    68.118192    235.29125 
   17350    92.879347   -187.91347    73106.293    -17319.25    1258.0323   -18577.283    68.401717    236.57161 
   17400     94.81552   -335.79622    73140.422   -17328.932    1284.2573   -18613.189    68.505253    241.50321 
   17450    91.786757   -591.29797    73136.332   -17334.105    1243.2334   -18577.339    68.670801    233.78869 
   17500    96.004085   -263.54497    73163.212   -17304.338    1300.3562   -18604.694    68.496818    244.53058 
   17550     96.88296   -624.88871    73171.111   -17288.342    1312.2604   -18600.602     68.25804    246.76915 
   17600    93.823197   -497.33311    73236.524   -17295.887    1270.8165   -18566.703    68.490962    238.97568 
   17650    93.992602   -338.86285    73257.977   -17259.527    1273.1111   -18532.639    68.779065    239.40717 
   17700    93.817818   -462.28519     73260.71   -17309.814    1270.7437   -18580.557     68.42382    238.96198 
   17750    95.122772     -462.331     73283.17   -17310.649     1288.419   -18599.068    68.683781     242.2858 
   17800    97.417629    -582.2428    73206.639   -17280.554    1319.5024   -18600.056     68.85889      248.131 
   17850    95.420212   -707.02023    73184.435    -17292.13    1292.4478   -18584.578    69.243779    243.04341 
   17900    96.524814   -437.32999    73192.456   -17298.661    1307.4094    -18606.07    69.306396    245.85693 
   17950    96.936965   -720.41958    73258.333   -17277.881    1312.9919   -18590.873     69.60697    246.90671 
   18000    93.432449   -664.20259    73239.631   -17318.539    1265.5239   -18584.063    69.602344    237.98041 
   18050    94.621231   -283.39322    73245.789   -17308.242    1281.6257   -18589.868    69.760679    241.00834 
   18100    94.339853   -564.62922    73293.033   -17311.252    1277.8145   -18589.066    70.041835    240.29164 
   18150    92.145071   -773.64384    73315.575   -17318.986    1248.0866   -18567.073    70.248751    234.70135 
   18200     95.46461   -744.16496    73308.389   -17301.838    1293.0491   -18594.887    70.630848     243.1565 
   18250    93.214965   -833.51818    73279.396   -17305.827    1262.5781   -18568.405    70.831449    237.42646 
   18300    93.918446   -694.98493    73258.922   -17311.247    1272.1067   -18583.354    70.759434    239.21828 
   18350    94.242154   -757.61968    73267.698   -17320.337    1276.4912   -18596.828    70.597968     240.0428 
   18400    95.854305   -582.41042    73331.165    -17325.15    1298.3275   -18623.478    70.554159    244.14908 
   18450    92.706028   -470.43101    73381.369   -17331.917    1255.6847   -18587.602    70.915294    236.13015 
   18500    93.813865   -356.93254     73396.49   -17323.027    1270.6901   -18593.717    71.278046    238.95191 
   18550     92.58145   -247.36467    73410.473   -17347.186    1253.9973   -18601.184    71.258376    235.81284 
   18600    91.467719   -552.86987    73423.491   -17356.004     1238.912   -18594.916    71.715352    232.97607 
   18650    89.305023   -170.39999    73411.082   -17366.591    1209.6187    -18576.21    71.686358     227.4675 
   18700    89.228538   -574.51143    73385.382   -17364.624    1208.5828   -18573.207    71.751961    227.27269 
   18750    92.786138   -565.32179    73390.953   -17372.007    1256.7698   -18628.776    71.868876     236.3342 
   18800    92.502592   -267.33003    73444.943   -17368.693    1252.9292   -18621.622    72.284253    235.61198 
   18850    92.511198   -361.16141    73438.149   -17358.366    1253.0458   -18611.411    72.500268     235.6339 
   18900    92.788564   -532.76717    73410.858   -17361.961    1256.8026   -18618.764    72.466949    236.34038 
   18950    92.761274   -393.55838    73359.712   -17349.025     1256.433   -18605.458    72.539316    236.27087 
   19000    94.913733   -279.38035    73368.087   -17283.944    1285.5876   -18569.532    72.607331    241.75336 
   19050    93.748388   -503.44727     73280.23   -17291.677    1269.8032   -18561.481    72.733849    238.78513 
   19100    94.678399    -284.1978    73206.785   -17320.818    1282.4001   -18603.218    72.950654    241.15395 
   19150    95.142583   -461.90364    73217.095   -17299.503    1288.6873    -18588.19    73.356572    242.33627 
   19200    92.676082   -766.59781    73170.394   -17290.377    1255.2791   -18545.656    73.652798    236.05388 
   19250    97.070857   -345.59826    73165.689   -17261.006    1314.8054   -18575.811    74.049643    247.24774 
   19300     95.36647   -350.21957    73191.725   -17271.918    1291.7198   -18563.637    74.126617    242.90652 
   19350    96.247344    -537.8288    73200.418   -17255.833    1303.6511   -18559.484    74.296377    245.15019 
   19400    93.412049    -348.3289    73188.563   -17299.701    1265.2476   -18564.948    74.563466    237.92845 
   19450    93.189999   -694.70995    73228.608   -17339.004      1262.24   -18601.244    75.114526    237.36287 
   19500    93.505693   -534.82169    73201.301   -17360.386     1266.516   -18626.902    75.249654    238.16697 
   19550    91.188988    -570.3591     73161.97   -17365.554    1235.1367   -18600.691    75.648779    232.26612 
   19600     93.67669   -140.45283    73149.415   -17350.745    1268.8321   -18619.577     75.99175    238.60251 
   19650    92.561643    -252.0342    73166.952   -17321.595     1253.729   -18575.324    76.211101    235.76239 
   19700    93.295954   -329.33478    73191.072   -17327.466    1263.6751   -18591.141     76.13514    237.63274 
   19750    93.814998   -185.15826    73178.729   -17342.918    1270.7055   -18613.623    76.021278    238.95479 
   19800    93.793059   -69.785481    73229.182   -17370.605    1270.4083   -18641.014    76.262715    238.89891 
   19850    91.853007   -335.23352    73321.435   -17366.361    1244.1307   -18610.492    76.548777    233.95743 
   19900    93.248507   -504.53802    73263.567   -17375.755    1263.0325   -18638.788    76.641427    237.51189 
   19950    93.786567   -920.15863    73237.704   -17379.039    1270.3204    -18649.36    76.795411    238.88238 
   20000    93.687656   -520.44836      73206.2   -17343.525    1268.9806   -18612.505    76.761006    238.63044 
   20050    94.043582   -600.42841    73135.348   -17307.873    1273.8016   -18581.674    77.278218    239.53702 
   20100    93.902403   -750.50935    73099.772   -17332.688    1271.8893   -18604.578     77.50454    239.17742 
   20150    93.256045   -534.34631    73042.903   -17345.889    1263.1346   -18609.024    77.713868    237.53109 
   20200    91.310857   -546.02759    73026.219   -17324.609    1236.7874   -18561.396    77.949985    232.57653 
   20250     94.76319   -427.78708    73089.225   -17299.822    1283.5485    -18583.37    78.090134    241.36992 
   20300     92.74149   -469.11924    73120.316   -17310.412     1256.165   -18566.577    78.068619    236.22048 
   20350    92.279627    -423.3378    73114.691   -17297.275    1249.9092   -18547.184     78.33281    235.04407 
   20400    94.586891   -513.12182    73123.613   -17325.533    1281.1606   -18606.694    78.484803    240.92087 
   20450    95.948109   -832.80602    73070.024   -17315.811     1299.598   -18615.409    78.286702    244.38801 
   20500    92.578733   -471.65354    72972.037   -17315.811    1253.9605   -18569.771    78.608295    235.80592 
   20550    93.640649   -105.84718    72904.037   -17275.864    1268.3439   -18544.208    78.920867    238.51071 
   20600    96.117569   -300.61979    72883.086   -17280.152    1301.8933   -18582.046     79.12154    244.81964 
   20650    95.892667   -395.23278    72873.619   -17272.748    1298.8471   -18571.595    79.287736    244.24679 
   20700    94.046448   -394.45982    72918.127    -17294.33    1273.8404    -18568.17    79.538464    239.54432 
   20750    97.335951   -429.05038    72964.718    -17279.75    1318.3961   -18598.146    79.874496    247.92296 
   20800    94.351219   -420.31188    72923.902   -17310.677    1277.9685   -18588.645    79.873419    240.32059 
   20850    92.845704    -553.9424    72945.258   -17307.908    1257.5766   -18565.485    80.103449    236.48592 
   20900    96.197066   -622.49911    72865.394   -17291.663    1302.9701   -18594.633    80.309345    245.02212 
   20950    93.214797   -408.05298    72869.801   -17282.505    1262.5759    -18545.08    80.755538    237.42603 
   21000    92.470005   -517.29845    72847.304   -17319.148    1252.4878   -18571.636    80.561599    235.52898 
   21050    94.074453   -195.52209    72817.748    -17270.88    1274.2197   -18545.099    80.758021    239.61565 
   21100    93.699846    -260.1237    72846.865   -17276.525    1269.1457   -18545.671     81.14788    238.66149 
   21150    92.905948   -445.84683    72834.891   -17320.813    1258.3926   -18579.205    81.446833    236.63937 
   21200    93.842915   -501.33821    72800.203   -17312.403    1271.0836   -18583.487    81.550706     239.0259 
   21250    92.542319   -201.73958    72756.338    -17305.06    1253.4673   -18558.527    81.671449    235.71317 
   21300    93.677481   -828.33598    72763.364   -17308.675    1268.8428   -18577.518    81.821072    238.60452 
   21350    95.556408   -468.65178    72777.464   -17319.998    1294.2925   -18614.291    82.213958    243.39031 
   21400    93.084243   -352.71588    72806.973   -17316.315    1260.8075   -18577.122    82.394563     237.0935 
   21450    93.373237   -356.85508    72809.327   -17282.316    1264.7219   -18547.038    82.532207    237.82959 
   21500    95.179418   -25.463109    72845.903   -17253.209    1289.1863   -18542.395    82.656483    242.43009 
   21550    96.412939   -401.87647     72853.85   -17211.467    1305.8941   -18517.361    82.539495    245.57197 
   21600    94.612168   -551.32286    72872.763   -17248.818     1281.503   -18530.321    82.265781    240.98525 
   21650    94.087826   -604.42272    72835.879   -17218.424    1274.4009   -18492.825    82.408606    239.64971 
   21700    90.556886   -391.85277    72904.812   -17226.851     1226.575   -18453.426    82.690619     230.6561 
   21750    92.821054    -737.0202    72906.474   -17206.169    1257.2427   -18463.411    82.854803    236.42313 
   21800    93.249772   -433.78158    72785.387   -17187.475    1263.0496   -18450.525    83.372306    237.51511 
   21850    96.377094    -494.1922    72761.616   -17177.796    1305.4085   -18483.205    83.206269    245.48067 
   21900    94.796862   -340.05467    72720.649   -17186.016    1284.0046   -18470.021    83.430831    241.45568 
   21950    91.695862   -454.79088    72699.461   -17227.722    1242.0022   -18469.724    83.386539    233.55717 
   22000    92.969093   -934.58629    72683.371   -17253.293    1259.2479   -18512.541     83.29061     236.8002 
   22050    92.517105    -755.3058     72657.82   -17287.299    1253.1258   -18540.425    83.518366    235.64895 
   22100    91.707187   -756.40955    72634.767   -17272.041    1242.1556   -18514.196    83.586449    233.58602 
   22150    89.544528   -579.60795    72639.291   -17298.725    1212.8628   -18511.588    83.624554    228.07754 
   22200    94.606696   -215.68865    72722.095   -17281.721    1281.4289   -18563.149    84.145492    240.97132 
   22250    97.203023   -404.11817    72745.956   -17211.744    1316.5956   -18528.339    84.304729    247.58438 
   22300    95.082876   -77.733771    72779.776   -17204.693    1287.8786   -18492.572    84.445664    242.18419 
   22350    94.608856   -646.46567    72788.172   -17207.679    1281.4581   -18489.137    84.501785    240.97682 
   22400     98.27742   -1042.6581    72778.177    -17193.77    1331.1481   -18524.918    84.480082    250.32096 
   22450    93.621476   -599.51669    72771.817    -17219.53    1268.0843   -18487.615    84.868013    238.46188 
   22500    94.901835     -743.814    72718.173    -17204.84    1285.4265   -18490.266    84.876499    241.72306 
   22550    92.543368   -269.59466    72627.298   -17212.664    1253.4815   -18466.145    84.833832    235.71584 
   22600    93.748889    -654.5107    72572.867   -17245.708      1269.81   -18515.518    84.995124    238.78641 
   22650    95.055478   -608.56551    72541.763   -17239.001    1287.5075   -18526.508    85.045735     242.1144 
   22700    96.212724   -144.61125    72552.476   -17208.746    1303.1822   -18511.928    85.164429      245.062 
   22750    94.844979    -832.6989    72634.597   -17179.951    1284.6563   -18464.607    85.119627    241.57824 
   22800    95.889494   -541.77746     72599.89   -17209.606    1298.8041    -18508.41    85.301068    244.23871 
   22850    93.671849   -440.77315     72589.78    -17226.15    1268.7665   -18494.917    85.293952    238.59018 
   22900    95.831984   -593.46028    72585.446   -17241.351    1298.0251   -18539.377    85.304342    244.09223 
   22950    91.403191   -379.00258     72632.06    -17270.82     1238.038   -18508.858    85.439656    232.81172 
   23000    93.066417   -491.10536    72613.372   -17275.054    1260.5661    -18535.62     85.54136    237.04809 
   23050    94.720337    -911.8456    72612.419   -17244.295    1282.9681   -18527.263    85.746448    241.26077 
   23100     95.49537   -622.25043    72576.127   -17234.753    1293.4658   -18528.218    85.857447    243.23484 
   23150    94.305609   -559.90669    72538.159   -17250.316    1277.3507   -18527.667     86.21677    240.20442 
   23200    96.568056    -218.8933     72587.86   -17216.031    1307.9951   -18524.026    86.038436    245.96707 
   23250    96.176898   -364.15904    72676.579   -17179.464    1302.6969   -18482.161    86.273732    244.97075 
   23300    98.674831   -191.96173    72685.736   -17203.562    1336.5309   -18540.093    86.540207     251.3332 
   23350    98.203525   -272.06812    72687.374   -17198.004    1330.1472   -18528.151    86.696715    250.13275 
   23400    95.842127   -295.98735    72701.447   -17215.651    1298.1625   -18513.813    87.266739    244.11806 
   23450    95.145084   -302.38923     72718.66   -17199.459    1288.7212    -18488.18    87.565437    242.34264 
   23500    95.075993   -334.52239    72756.753   -17220.889    1287.7854   -18508.674    87.552128    242.16666 
   23550    92.379348    -511.6764    72811.442    -17246.49    1251.2599    -18497.75    87.717566    235.29807 
   23600    92.418809   -580.55292    72850.182   -17256.162    1251.7944   -18507.957    87.792652    235.39858 
   23650    93.661884   -510.85343    72879.656   -17249.737    1268.6316   -18518.368    88.270435     238.5648 
   23700    94.675064   -454.58487    72923.298   -17220.554    1282.3549   -18502.909      88.8634    241.14545 
   23750    93.667659   -417.88888    72880.745    -17228.95    1268.7098    -18497.66    89.049098    238.57951 
   23800    95.218034    188.85121    72885.308   -17223.253    1289.7093   -18512.962    89.601256    242.52845 
   23850    94.988591   -676.31339    72951.096    -17233.73    1286.6016   -18520.332    90.108158    241.94404 
   23900    92.968033   -706.85542    72940.132   -17249.673    1259.2335   -18508.906    90.369026     236.7975 
   23950    93.197394   -335.14413    72896.587    -17246.94    1262.3401    -18509.28    90.546447     237.3817 
   24000    90.940153   -659.50064    72938.672   -17265.158    1231.7663   -18496.925    90.543945    231.63232 
   24050     93.67627   -423.86134    72925.395   -17279.551    1268.8264   -18548.378    90.711946    238.60144 
   24100    91.514766   -350.68402    72997.641   -17315.088    1239.5493   -18554.638    90.717461    233.09591 
   24150    93.104659   -503.08397    73008.093   -17341.597    1261.0841   -18602.681    90.869874     237.1455 
   24200    91.468614   -264.72248    73054.298    -17352.15    1238.9242   -18591.074    90.941783    232.97835 
   24250    92.681625   -749.38092    73062.849   -17312.403    1255.3542   -18567.757    91.109437      236.068 
   24300    93.588795   -371.84994    73044.885   -17287.988    1267.6416    -18555.63    91.178758    238.37863 
   24350    95.554563   -552.61687    73057.779    -17247.48    1294.2675   -18541.747    91.778912    243.38561 
   24400     96.20582   -331.38215    73048.908    -17266.83    1303.0887   -18569.919    91.538277    245.04442 
   24450      93.5269   -267.62676    73097.381   -17288.924    1266.8032   -18555.727    91.544101    238.22098 
   24500    95.290111   -338.04211    73093.362   -17274.876    1290.6856   -18565.561    91.817122    242.71203 
   24550     93.63486   -565.65411    73140.491   -17302.993    1268.2655   -18571.259    92.154637    238.49597 
   24600    96.076293   -106.18845     73207.42   -17307.015    1301.3343    -18608.35    92.513556    244.71451 
   24650    93.448578   -806.90812    73217.596   -17313.778    1265.7424    -18579.52    92.732038    238.02149 
   24700    91.290668   -614.34093    73140.112   -17299.512    1236.5139   -18536.025    92.886374    232.52511 
   24750     92.79516   -279.41534    73156.715   -17307.659     1256.892   -18564.551    93.295893    236.35718 
   24800    90.323502   -617.28674    73222.939   -17316.424    1223.4139   -18539.838    93.343611    230.06166 
   24850    94.009846   -735.06342     73184.03   -17286.871    1273.3446   -18560.216    93.287359    239.45109 
   24900    93.991178   -72.272535    73196.404   -17298.063    1273.0918   -18571.154    93.149692    239.40354 
   24950    94.299903   -233.30026    73259.475    -17311.15    1277.2734   -18588.424    93.276466    240.18989 
   25000    92.899365   -246.15176    73274.417   -17309.827    1258.3034    -18568.13    93.309291     236.6226 
   25050    93.723787    -435.6781    73265.163   -17267.886      1269.47   -18537.356    93.681936    238.72247 
   25100    94.490336   -793.57577    73172.172   -17269.784    1279.8528   -18549.636    94.137595    240.67494 
   25150    95.694684   -368.98938    73097.157   -17297.415    1296.1654    -18593.58    94.061367    243.74251 
   25200    93.272356    -250.4161    73058.041    -17293.03    1263.3555   -18556.385    94.315125    237.57264 
   25250    93.876429    -525.1232    73081.202   -17312.118    1271.5375   -18583.655    94.251852    239.11126 
   25300    92.795041   -514.01372    73058.924   -17347.944    1256.8904   -18604.834     94.66782    236.35688 
   25350    92.251954   -142.03669    73005.857   -17331.163    1249.5343   -18580.697    94.817455    234.97359 
   25400    94.348792   -156.43311    73029.315   -17329.566    1277.9356   -18607.501    94.803638    240.31441 
   25450    92.103754   -633.34261    73001.614   -17354.656     1247.527   -18602.183     94.91875    234.59611 
   25500    92.142048   -582.33336    72993.827   -17346.165    1248.0457   -18594.211    94.871236    234.69365 
   25550    92.649385   -254.59582    72982.265   -17348.477    1254.9175   -18603.395    95.040208    235.98588 
   25600    90.459567    173.05743    73017.005   -17343.562    1225.2568   -18568.819    95.379609    230.40822 
   25650     93.91588   -319.26257    73049.761   -17286.043    1272.0719   -18558.115    95.772638    239.21175 
   25700    96.789771   -652.25027    73037.345   -17287.118    1310.9982   -18598.116    95.523274    246.53179 
   25750    91.575993   -580.75491    73041.749   -17296.796    1240.3786   -18537.174    95.370501    233.25186 
   25800    91.508412   -585.83153    73026.445   -17305.322    1239.4632   -18544.785    95.767114    233.07972 
   25850    92.982385   -572.38502    73069.011   -17318.575    1259.4279   -18578.003    95.786932    236.83406 
   25900    94.057023   -302.65314    73040.625   -17335.485    1273.9836   -18609.468    95.636179    239.57125 
   25950    91.404443   -379.45598    73066.016   -17302.691     1238.055   -18540.746    95.610937     232.8149 
   26000    93.758936   -258.09483    73058.244    -17293.69    1269.9461   -18563.636     95.56445      238.812 
   26050     91.91805   -532.81597    73065.563   -17294.976    1245.0117   -18539.988     95.83473    234.12311 
   26100    91.620728   -584.89901    73091.235   -17332.997    1240.9845   -18573.982    95.646838     233.3658 
   26150    89.351114    -792.5917    73094.162   -17384.415     1210.243   -18594.658    95.957547     227.5849 
   26200    88.543688   -485.11629    73056.663   -17398.871    1199.3066   -18598.178    96.223881    225.52832 
   26250    92.605648   -540.46796    73006.346   -17382.411    1254.3251   -18636.736    96.208902    235.87448 
   26300    91.948909   -523.62224    72996.038   -17342.575    1245.4297   -18588.005    96.863641    234.20171 
   26350    91.050922   -430.77126    73060.744   -17335.353    1233.2666    -18568.62    97.431396    231.91446 
   26400    91.452261   -578.44393    73064.167    -17305.64    1238.7027   -18544.343    97.430136     232.9367 
   26450    95.581391   -548.27344    73050.439   -17294.789    1294.6309    -18589.42    97.585047    243.45395 
   26500    94.829319   -396.23005     73037.26   -17277.893    1284.4442   -18562.337    97.758021    241.53835 
   26550     93.12175   -289.82232    73043.342   -17276.431    1261.3156   -18537.747      98.2405    237.18903 
   26600    92.656975    -353.7726    73034.247    -17291.99    1255.0203    -18547.01    98.217418    236.00521 
   26650    91.239919   -448.69516    72998.055   -17255.849    1235.8265   -18491.676    98.427516    232.39585 
   26700    93.391207   -309.54349     72989.37   -17242.984    1264.9653    -18507.95     98.71026    237.87536 
   26750    96.480973   -290.96132    73010.907   -17218.356    1306.8156   -18525.171    98.982381    245.74526 
   26800    92.521046   -552.54032    73048.062   -17225.622    1253.1791   -18478.801    99.219087    235.65899 
   26850    97.228716   -364.80707    73043.608   -17228.781    1316.9436   -18545.725    99.390192    247.64982 
   26900     93.54008   -339.78485    73018.656   -17250.937    1266.9818   -18517.919    99.622709    238.25455 
   26950    91.636904    123.35468    73093.466    -17265.67    1241.2036   -18506.873    99.595509      233.407 
   27000    95.083141   -304.71885    73097.858   -17237.214    1287.8822   -18525.096    99.920317    242.18486 
   27050    96.186794   -249.47665    73084.722   -17182.864     1302.831   -18485.695      100.123    244.99596 
   27100    96.841391   -739.77893    73041.524    -17203.64    1311.6974   -18515.337    100.25986    246.66328 
   27150    96.807164   -353.56409    73023.605   -17202.225    1311.2338   -18513.458    100.30057     246.5761 
   27200    96.351445   -902.02568    72975.277   -17226.741    1305.0611   -18531.802    100.85234    245.41534 
   27250    95.360835   -619.57204    72976.296    -17254.77    1291.6435   -18546.413    100.87443    242.89217 
   27300    92.149118   -524.86479    73023.245    -17243.04    1248.1415   -18491.182    101.13248    234.71165 
   27350    95.502024   -275.44964    73049.899   -17215.169    1293.5559   -18508.725    101.51212    243.25179 
   27400    94.563646   -388.49215     73032.78   -17222.598    1280.8458   -18503.444    101.53444    240.86166 
   27450    93.630696   -601.22209    73027.524   -17241.212    1268.2091   -18509.421    101.81688    238.48536 
   27500    94.177078    -465.4062    72992.784   -17234.213    1275.6098   -18509.823    101.58032    239.87704 
   27550    92.925298   -494.13905    72976.549   -17200.358    1258.6547   -18459.013    101.86484    236.68865 
   27600    95.039506    -360.6552     72911.42   -17194.512    1287.2912   -18481.803    101.80906    242.07372 
   27650    93.493759   -518.46967    72927.984   -17215.591    1266.3544   -18481.945    102.11522    238.13657 
   27700    93.058621   -675.52891    72899.132   -17236.278    1260.4605   -18496.738    101.91596    237.02824 
   27750    94.925568   -452.05907    72871.831   -17258.449    1285.7479   -18544.197     102.0437    241.78351 
   27800    94.723566   -458.93874    72889.177   -17248.388    1283.0118     -18531.4     102.0768    241.26899 
   27850    93.800885   -435.80903    72911.804   -17252.978    1270.5143   -18523.492    102.52427    238.91885 
   27900    93.400124   -252.84923     72910.91   -17218.189    1265.0861   -18483.275    102.88489    237.89807 
   27950    93.700074    -728.2541    72911.796   -17209.069    1269.1488   -18478.218    103.35776    238.66207 
   28000    94.652287   -598.69727    72830.001   -17222.706    1282.0464   -18504.752    103.85992    241.08744 
   28050    96.249696   -408.13609    72823.365   -17207.708     1303.683   -18511.391     104.1429    245.15618 
   28100    97.161718   -210.53334    72826.741   -17199.703    1316.0361   -18515.739    104.64087    247.47917 
   28150     94.07728   -32.718815    72919.922   -17192.696     1274.258   -18466.954    104.82065    239.62285 
   28200    96.705273   -357.42016    72923.581    -17216.31    1309.8537   -18526.164    105.14577    246.31657 
   28250      96.4836   -394.72987     72939.45   -17218.878    1306.8511   -18525.729     105.2156    245.75195 
   28300    95.509702   -341.37481    72992.571   -17219.413    1293.6599   -18513.073    105.39465    243.27135 
   28350    93.926446   -378.15524     73057.31   -17245.703     1272.215   -18517.918    105.40852    239.23866 
   28400    97.669836   -529.18909     73105.59   -17231.522    1322.9185    -18554.44    105.52193    248.77339 
   28450    93.654681   -156.49698    73149.083   -17201.135     1268.534   -18469.669    105.57541    238.54645 
   28500    95.382512   -548.93252    73140.455   -17198.943    1291.9371    -18490.88      105.879    242.94738 
   28550    94.979153   -588.10342    73110.411   -17194.265    1286.4737   -18480.739    106.14601    241.91999 
   28600    97.498988   -634.46108    73045.928   -17212.733    1320.6044   -18533.337    106.29457    248.33823 
   28650    95.747466   -768.24087    72967.622   -17206.621    1296.8804   -18503.502    106.68392    243.87695 
   28700    96.658147   -495.80375    72932.689   -17208.602    1309.2154   -18517.818    107.02667    246.19654 
   28750    97.744807   -756.62464      72901.9    -17183.29    1323.9339   -18507.224    107.08562    248.96435 
   28800    95.878568   -199.08721    72900.285   -17188.497    1298.6561   -18487.153    107.56232    244.21088 
   28850    97.333466   -465.61764    72959.023   -17201.942    1318.3624   -18520.305     107.9438    247.91663 
   28900    95.150028   -201.88273    72988.878   -17198.201    1288.7882    -18486.99     108.0636    242.35523 
   28950    94.834492   -449.95475    73069.765   -17185.608    1284.5143   -18470.122    108.45616    241.55153 
   29000    98.293155   -816.91001    73083.007   -17197.344    1331.3612   -18528.705    108.54397    250.36104 
   29050    93.415267    -290.4342    73081.188   -17217.414    1265.2912   -18482.705    108.80412    237.93664 
   29100    95.877309    -333.3856    73059.429   -17236.419    1298.6391   -18535.058    108.67523    244.20767 
   29150    93.467296   -179.59129    73047.048   -17210.159    1265.9959   -18476.155    108.74612    238.06917 
   29200    94.742385   -477.10702      73025.1   -17200.237    1283.2667   -18483.504    109.10547    241.31693 
   29250    96.614943   -778.43405    72996.213   -17212.158    1308.6302   -18520.788    109.09695    246.08649 
   29300    97.543584   -738.12564    72915.578   -17197.511    1321.2084    -18518.72    109.30938    248.45182 
   29350    95.945018   -898.99316    72828.148   -17207.362    1299.5562   -18506.919     109.5232    244.38014 
   29400    94.536627   -717.29689    72717.907   -17204.735    1280.4798   -18485.215    109.81295    240.79284 
   29450    94.539474   -620.81791    72623.753    -17213.08    1280.5183   -18493.599    109.78953     240.8001 
   29500    96.127605   -705.40974    72591.099   -17210.807    1302.0293   -18512.836    110.11434     244.8452 
   29550    96.694175   -211.71085    72605.483   -17212.383    1309.7033   -18522.086    110.76772     246.2883 
   29600    92.634037   -397.49417    72622.999   -17269.722    1254.7096   -18524.432    111.04813    235.94678 
   29650    91.979976   -599.65386    72680.192   -17284.295    1245.8505   -18530.145    111.59777    234.28084 
   29700    97.152427   -338.24507    72691.198   -17291.478    1315.9103   -18607.388    112.20978    247.45551 
   29750     94.36324   -680.85803     72662.86   -17289.694    1278.1313   -18567.825    112.51143    240.35121 
   29800    94.730259   -248.26743    72629.316   -17291.021    1283.1025   -18574.124     112.5147    241.28604 
   29850    93.959532   -259.88155    72699.125   -17307.562    1272.6631   -18580.225    112.64256    239.32293 
   29900    93.215861   -312.30373    72717.128   -17285.237    1262.5903   -18547.827    112.50236    237.42874 
   29950    93.284896   -315.10473    72784.052   -17278.509    1263.5253   -18542.034    112.64564    237.60458 
   30000    95.685151   -632.05885    72860.011   -17283.987    1296.0363   -18580.024    112.78895    243.71823 
   30050    95.807866   -490.37779    72850.926    -17279.55    1297.6985   -18577.249    112.98598     244.0308 
   30100    95.811766   -200.30182    72849.293   -17286.464    1297.7513   -18584.215     113.1486    244.04073 
   30150    95.130582    -640.5396    72878.785   -17289.153    1288.5248   -18577.678     113.1827     242.3057 
   30200    93.285718   -177.93688    72909.742   -17313.651    1263.5365   -18577.187    113.54162    237.60667 
   30250    92.870657   -507.22525    72912.189   -17317.465    1257.9146    -18575.38    113.52732    236.54948 
   30300    94.560274   -212.30734    72941.425   -17308.003    1280.8001   -18588.803     113.9784    240.85307 
   30350    93.487771   -285.50345    73007.408   -17329.264    1266.2732   -18595.538    114.47723    238.12132 
   30400    95.367007   -108.23493    73066.971   -17267.451    1291.7271   -18559.178    114.72458    242.90789 
   30450    94.655494   -370.64513     73156.77   -17277.018    1282.0898   -18559.107    115.26064    241.09561 
   30500    97.408113   -434.20474    73166.964   -17272.534    1319.3735   -18591.907    115.49281    248.10676 
   30550    93.222157   -206.83255    73131.271   -17274.009    1262.6756   -18536.685    115.36747    237.44478 
   30600    95.108814   -426.16758    73081.324   -17282.255    1288.2299   -18570.485    115.60766    242.25025 
   30650    92.632606   -445.26326    73025.914   -17283.701    1254.6902   -18538.391    115.31739    235.94314 
   30700     92.74019   -853.84602    73053.471   -17276.692    1256.1474    -18532.84     115.3408    236.21716 
   30750    92.961067   -700.02826    73036.938    -17292.34    1259.1391   -18551.479    115.99847    236.77976 
   30800    92.520574   -383.40968    73027.101   -17294.949    1253.1728   -18548.122    116.15413    235.65779 
   30850    94.921982   -743.81359    73005.254   -17265.854    1285.6994   -18551.554    115.97389    241.77438 
   30900    97.904275   -566.02613    72959.084   -17228.058    1326.0939   -18554.151    116.01521    249.37053 
   30950     92.37279   -414.42185    72957.929   -17271.326    1251.1711   -18522.497    116.00811    235.28137 
   31000    95.090925   -451.44224    72900.356   -17276.838    1287.9876   -18564.826    116.32828    242.20469 
   31050    91.563655   -724.83484    72830.649   -17255.954    1240.2115   -18496.166    116.68696    233.22043 
   31100    95.248873   -222.42632    72815.713   -17237.223     1290.127    -18527.35    116.90797      242.607 
   31150    92.522021   -549.95836    72772.613   -17273.457    1253.1923   -18526.649    116.87676    235.66147 
   31200    93.682276   -603.22257    72762.244   -17308.871    1268.9078   -18577.779    116.90951    238.61674 
   31250    94.009746   -729.90994    72718.692   -17249.992    1273.3433   -18523.335    117.02915    239.45083 
   31300    92.817989   -658.05442    72745.777   -17255.472    1257.2012   -18512.673    117.34365    236.41533 
   31350    93.320165   -497.09009    72696.228   -17260.594    1264.0031   -18524.597    117.72162    237.69441 
   31400    93.272398   -432.04053    72737.482     -17262.5    1263.3561   -18525.856     117.8206    237.57274 
   31450     93.15884   -628.65931    72735.196   -17240.155    1261.8179   -18501.973    118.10484     237.2835 
   31500    91.252527   -655.90932    72712.343   -17289.965    1235.9973   -18525.963    118.29651    232.42796 
   31550    92.439657   -551.79436    72690.489   -17255.517    1252.0767   -18507.594    118.71862    235.45168 
   31600    95.794682    -561.2128      72680.1   -17245.255    1297.5199   -18542.775    119.26228    243.99722 
   31650    92.952076   -449.26081    72647.206   -17258.427    1259.0174   -18517.444    119.22574    236.75686 
   31700    92.356848   -314.93845    72680.048   -17229.373    1250.9551   -18480.328    119.76539    235.24076 
   31750    95.670628   -646.21062    72688.697   -17197.796    1295.8396   -18493.636    120.46897    243.68124 
   31800    95.054864    -567.2426    72673.709   -17222.985    1287.4992   -18510.485    120.60829    242.11284 
   31850    94.318662   -628.55356    72611.479    -17229.06    1277.5275   -18506.588    120.74798    240.23767 
   31900    94.046695   -330.18735    72511.803   -17248.313    1273.8438   -18522.157     120.6267    239.54494 
   31950    94.937341   -459.26464    72491.598   -17228.792    1285.9074   -18514.699    120.72801     241.8135 
   32000    93.666119   -356.07093    72438.587   -17244.168    1268.6889   -18512.856    121.09309    238.57558 
   32050    92.029461   -504.87339    72459.924    -17251.83    1246.5207   -18498.351    121.35998    234.40688 
   32100    94.183537   -681.28918    72439.849   -17249.328    1275.6972   -18525.025    121.78401    239.89349 
   32150    91.512541   -264.29333    72434.251   -17268.129    1239.5191   -18507.648    122.12417    233.09024 
   32200    91.063156   -349.66605    72405.428   -17288.217    1233.4323   -18521.649    122.35586    231.94562 
   32250    92.138796   -269.43909    72384.203   -17223.696    1248.0016   -18471.698    122.43274    234.68536 
   32300    93.798453    -319.0761    72420.048   -17199.784    1270.4814   -18470.265    122.67452    238.91265 
   32350    93.591054   -291.71267    72416.737   -17210.783    1267.6722   -18478.456    123.02359    238.38439 
   32400    95.961656   -153.90649    72387.433   -17220.163    1299.7815   -18519.944    123.06779    244.42251 
   32450      96.6377   -110.83722    72443.332   -17206.425    1308.9384   -18515.363    123.10488    246.14446 
   32500    93.378758   -640.68244    72427.471   -17186.729    1264.7967   -18451.526    123.10784    237.84365 
   32550    99.020661   -148.59283    72459.271   -17166.961    1341.2151   -18508.176    123.05732    252.21406 
   32600    94.606716   -504.45913     72415.29   -17195.462    1281.4291   -18476.891    123.95169    240.97137 
   32650    94.351761   -291.20693    72398.785    -17194.87    1277.9758   -18472.846     124.0283    240.32197 
   32700    95.047787   -808.96568    72378.212   -17159.037    1287.4033   -18446.441    123.71323    242.09481 
   32750    97.121552    -459.1285    72293.403   -17171.315    1315.4921   -18486.807    123.66102    247.37687 
   32800    93.387402   -628.45864    72280.728   -17182.713    1264.9138   -18447.626    123.81341    237.86567 
   32850    94.438139   -279.67737    72241.174   -17170.056    1279.1458   -18449.202    123.96644    240.54199 
   32900    93.738319   -319.97492    72273.091   -17187.177    1269.6669   -18456.844    123.82455    238.75949 
   32950    95.290853   -553.14128    72254.941   -17192.312    1290.6956   -18483.008     123.9928    242.71392 
   33000    97.141986   -695.17639     72284.11   -17178.077    1315.7689   -18493.846    124.09041    247.42892 
   33050    95.108774   -137.69705    72260.653   -17189.126    1288.2294   -18477.355    124.53359    242.25015 
   33100    96.854518    6.3016099    72332.137   -17158.114    1311.8752   -18469.989     125.1817    246.69671 
   33150    95.311591   -442.31319    72392.796   -17150.079    1290.9765   -18441.055    125.47948    242.76674 
   33200    96.767311   -12.400355    72411.284   -17157.055     1310.694   -18467.749    125.51826    246.47459 
   33250    95.549722   -568.71819    72420.487   -17160.989     1294.202   -18455.191    125.84713    243.37328 
   33300    92.079153   -345.41906     72362.73   -17163.598    1247.1938   -18410.792    125.84098    234.53345 
   33350    98.210331   -29.709014    72340.204   -17162.513    1330.2394   -18492.752      126.071    250.15008 
   33400    93.821128   -125.05548     72353.16   -17170.579    1270.7885   -18441.368    126.42846    238.97041 
   33450    96.318651   -125.70014    72419.412   -17175.645    1304.6169   -18480.262    126.60581    245.33181 
   33500     92.12978    -591.0936     72446.63   -17236.206    1247.8795   -18484.085    126.98587     234.6624 
   33550    96.223992   -291.59327    72393.946   -17225.611    1303.3348   -18528.946    126.96115    245.09071 
   33600    94.525706   -460.26426    72382.098   -17233.518    1280.3319    -18513.85    127.28157    240.76503 
   33650    93.865085   -293.24542    72366.795   -17271.323    1271.3839   -18542.707    127.65471    239.08237 
   33700    92.723912   -438.44943    72430.353   -17273.432    1255.9269   -18529.359    127.97033    236.17571 
   33750    93.805694    82.886236    72451.038   -17275.305    1270.5794   -18545.884    127.69654     238.9311 
   33800     92.78343    -702.7527     72447.94   -17255.105    1256.7331   -18511.838    128.22325     236.3273 
   33850    94.291865   -318.65194    72415.461   -17285.194    1277.1645   -18562.359    128.78813    240.16941 
   33900    92.929295   -388.69231    72409.746   -17263.717    1258.7088   -18522.426    128.62883    236.69883 
   33950    96.999606   -701.01642     72459.79   -17265.426    1313.8403   -18579.266     128.8348    247.06626 
[...]
   92000    96.928874   -346.29198    72689.557   -17249.821    1312.8823   -18562.703    326.20947     246.8861 
   92050    96.518452   -685.66461    72643.524   -17245.377    1307.3232   -18552.701    325.85197    245.84072 
   92100    93.629817   -454.14516    72577.398   -17291.427    1268.1972   -18559.624    325.77888    238.48312 
   92150    93.707292   -409.79387    72566.817   -17314.484    1269.2466    -18583.73    326.39829    238.68046 
   92200    91.539024   -360.19666    72553.181   -17296.458    1239.8778   -18536.336    326.55094    233.15769 
   92250    94.834331   -641.03841    72496.512   -17261.717    1284.5121   -18546.229    327.04409    241.55112 
   92300    93.634126   -618.87012    72436.723   -17313.089    1268.2556   -18581.345    327.36807     238.4941 
   92350    94.135674   -410.36491    72432.045   -17284.503     1275.049   -18559.551    327.00919    239.77158 
   92400    97.228829   -268.58035    72456.751   -17276.473    1316.9451   -18593.418    327.00769    247.65011 
   92450    92.473167   -183.16439    72485.818   -17299.718    1252.5306   -18552.249    328.01268    235.53704 
   92500    93.615989   -530.43851     72560.59   -17252.556    1268.0099   -18520.566    328.67934     238.4479 
   92550    90.919651   -402.96534    72562.679   -17244.042    1231.4886   -18475.531    329.25296     231.5801 
   92600    92.735784   -421.90675    72563.457   -17256.812    1256.0877     -18512.9    329.38256    236.20594 
   92650    93.606469   -112.51738    72574.919   -17257.175     1267.881   -18525.056     329.7606    238.42365 
   92700     92.35947   -469.37153    72612.706   -17228.195    1250.9906   -18479.186    329.89999    235.24744 
   92750    96.965208   -280.25398    72647.844   -17218.056    1313.3744    -18531.43    329.98436    246.97865 
   92800     95.15068   -390.60731    72642.669   -17202.928     1288.797   -18491.725     329.8016    242.35689 
   92850    94.605996   -522.66861    72588.914   -17206.356    1281.4194   -18487.775    330.20965    240.96953 
   92900    95.102621   -568.14459    72604.172   -17198.393    1288.1461   -18486.539    330.43236    242.23448 
   92950    94.880747   -380.52338    72575.023   -17195.696    1285.1408   -18480.836    329.80746    241.66935 
   93000     95.25859   -771.47994    72489.507   -17164.892    1290.2586   -18455.151    329.37332    242.63175 
   93050    93.522875   -372.71188    72504.182   -17179.227    1266.7487   -18445.976    330.25058    238.21073 
   93100    93.257728   -345.39992    72594.126    -17216.65    1263.1574   -18479.807     331.3268    237.53538 
   93150    92.399774   -279.14029     72547.53   -17232.961    1251.5365   -18484.497    331.46066     235.3501 
   93200    94.051789   -275.61836    72615.251   -17239.843    1273.9127   -18513.756    331.08248    239.55792 
   93250    93.536738   -343.50293    72613.651   -17233.505    1266.9365   -18500.441    331.31024    238.24604 
   93300    97.736163   -147.72811    72666.329   -17185.477    1323.8169   -18509.293    331.51593    248.94234 
   93350    92.741487   -672.21423    72677.419   -17228.114     1256.165   -18484.279    331.61317    236.22047 
   93400     93.38682   -461.35251    72627.167   -17247.825    1264.9059    -18512.73    331.45186    237.86419 
   93450    90.718144   -642.45911    72568.284   -17239.019    1228.7592   -18467.778    331.46223    231.06684 
   93500    94.396211   -412.62692    72506.996   -17225.842    1278.5779    -18504.42    331.82611    240.43519 
   93550    91.257337    -678.1392    72512.237   -17248.196    1236.0625   -18484.258    331.88879    232.44021 
   93600    95.258804   -516.09665    72555.824   -17217.834    1290.2615   -18508.096     331.7721    242.63229 
   93650    96.970052    -571.4071    72560.489   -17219.379      1313.44    -18532.82    332.26744    246.99098 
   93700    93.045599   -824.88959    72530.669   -17214.578    1260.2841   -18474.862    332.64396    236.99507 
   93750    96.388157   -671.99087    72495.929   -17167.564    1305.5584   -18473.122    332.69013    245.50885 
   93800    96.310204   -233.59787    72537.597   -17192.631    1304.5025   -18497.133    332.79812    245.31029 
   93850    91.868055   -497.66664    72518.547   -17204.777    1244.3345   -18449.111    333.38909    233.99576 
   93900    97.335412   -343.90712    72507.688   -17194.777    1318.3888   -18513.165    333.37458    247.92159 
   93950    97.154925     -70.5595    72505.681    -17170.04    1315.9441   -18485.984    333.20983    247.46187 
   94000    92.841755   -247.92981    72493.747   -17218.137    1257.5231    -18475.66    333.65739    236.47586 
   94050    94.169433   -269.37237    72529.551   -17193.988    1275.5062   -18469.494    333.75185    239.85757 
   94100    94.057254   -285.24383    72580.915   -17220.921    1273.9868   -18494.908     333.7413    239.57184 
   94150    91.312033   -752.47497    72569.229   -17244.903    1236.8033   -18481.706    334.48186    232.57953 
   94200    93.533585    53.640588    72540.358   -17229.374    1266.8938   -18496.267    333.70989    238.23801 
   94250    93.113339   -410.14028     72546.72    -17209.12    1261.2016   -18470.322     333.8868    237.16761 
   94300    94.260844   -283.08249     72514.74    -17236.17    1276.7444   -18512.914    333.82567     240.0904 
   94350    90.493458   -413.61984    72488.903   -17245.253    1225.7159   -18470.969    334.28359    230.49455 
   94400    93.051774   -366.50934    72428.317   -17253.743    1260.3678   -18514.111    334.85276     237.0108 
   94450    92.265676   -155.83457    72472.075    -17237.32    1249.7202    -18487.04    335.86123    235.00854 
   94500    94.870339   -383.28903    72490.131   -17212.112    1284.9998   -18497.112    336.62066    241.64284 
   94550    93.638406   -532.64119    72455.423   -17234.599    1268.3136   -18502.912    336.29094      238.505 
   94600    93.775342   -522.22423     72420.29   -17254.596    1270.1683   -18524.764    336.54386    238.85379 
   94650    96.179024   -363.05527    72394.685   -17217.398    1302.7257   -18520.124    337.08358    244.97617 
   94700    96.244173   -272.07098    72458.409   -17224.993    1303.6082   -18528.601    337.14191    245.14211 
   94750    93.335919   -234.79548    72566.626   -17247.817    1264.2164   -18512.033    337.87451    237.73454 
   94800    95.861238   -585.76349    72605.266   -17249.522    1298.4214   -18547.944    337.58126    244.16674 
   94850     93.59868   -437.71898    72610.572   -17264.164    1267.7755    -18531.94    338.17401    238.40381 
   94900    94.445469   -394.21159     72616.18   -17302.813    1279.2451   -18582.058    337.29457    240.56066 
   94950    96.132828   -348.92273    72640.738   -17264.972       1302.1   -18567.072    337.70333     244.8585 
   95000    94.772558     -596.232    72680.818   -17283.971    1283.6754   -18567.646    338.06026    241.39378 
   95050     92.23022   -120.19397     72670.17   -17305.196      1249.24   -18554.436    337.77359    234.91823 
   95100    94.007963   -332.69959    72674.852   -17300.468    1273.3191   -18573.787    337.88331    239.44629 
   95150     94.44292   -2.3469738    72734.627   -17324.999    1279.2105   -18604.209    338.34382    240.55416 
   95200    94.828414   -569.94072    72787.834   -17318.823     1284.432   -18603.255    339.01569    241.53605 
   95250    92.293827   -561.12599    72766.408   -17321.549    1250.1015   -18571.651    339.18921    235.08024 
   95300    95.644654   -419.94264    72753.009   -17302.568    1295.4878   -18598.056    339.77502    243.61508 
   95350    92.511979   -388.31774    72743.399   -17320.157    1253.0563   -18573.213     339.2304    235.63589 
   95400    93.144419   -395.65372    72721.118   -17325.393    1261.6226   -18587.015    339.71177    237.24677 
   95450    93.779231   -462.24493    72699.203   -17306.201     1270.221   -18576.422    339.74787    238.86369 
   95500    95.471355   -252.90266    72733.287   -17269.866    1293.1405   -18563.007    340.11725    243.17367 
   95550    95.383097   -108.68608    72744.279   -17282.731    1291.9451   -18574.676    340.33429    242.94888 
   95600    95.964864   -303.41174    72785.896   -17281.016     1299.825   -18580.841    340.62651    244.43069 
   95650    93.681844   -243.05814    72789.771   -17283.459    1268.9019   -18552.361    340.79636    238.61564 
   95700    94.761945   -511.66449    72823.229   -17296.511    1283.5317   -18580.043    341.05968    241.36675 
   95750    93.057537   -735.78792     72744.35     -17285.9    1260.4458   -18546.346    340.96696    237.02547 
   95800    94.029299   -505.07643    72714.716   -17303.499    1273.6081   -18577.107    341.38411    239.50064 
   95850    93.411839   -202.70892    72681.818   -17275.831    1265.2448   -18541.075    341.58867    237.92791 
   95900    92.381735   -267.91842    72748.575   -17296.377    1251.2922   -18547.669    342.28515    235.30415 
   95950    93.734905   -765.49898     72716.19   -17287.646    1269.6206   -18557.267    342.26042    238.75079 
   96000    91.945433   -671.97436    72672.757   -17280.584    1245.3826   -18525.967    341.91118    234.19285 
   96050    92.032135   -438.17792    72702.198   -17306.899    1246.5569   -18553.456     342.5592    234.41369 
   96100    92.629817   -354.43944    72688.233   -17282.005    1254.6524   -18536.657    342.47474    235.93604 
   96150    92.494154   -620.43579    72652.965   -17286.843    1252.8149   -18539.657    342.71995    235.59049 
   96200     93.37007   -784.37786    72647.029    -17279.62     1264.679   -18544.299    343.59261    237.82152 
   96250    91.370994  -0.46355812    72653.483   -17257.021    1237.6019   -18494.623     342.9148    232.72971 
   96300      92.9379   -540.69134     72659.12   -17272.622    1258.8253   -18531.448    343.37317    236.72075 
   96350    93.472507     98.80347    72629.074   -17275.761    1266.0665   -18541.827    343.58344    238.08244 
   96400    92.539436   -752.83451    72678.152   -17302.649    1253.4282   -18556.077    344.08171    235.70583 
   96450    91.621826   -72.549781    72664.435   -17290.764    1240.9994   -18531.764    344.20208     233.3686 
   96500    91.898102   -411.97078    72722.993   -17267.037    1244.7415   -18511.779     344.1717     234.0723 
   96550    92.068472   -702.26449    72727.917   -17247.231    1247.0491    -18494.28    344.23826    234.50624 
   96600    93.491666   -353.95094    72786.498   -17267.767     1266.326   -18534.093    344.73526    238.13124 
   96650    93.670326    1.4295339     72842.94   -17237.009    1268.7459   -18505.754    345.13062     238.5863 
   96700      95.2245   -43.316541    72894.766   -17216.566    1289.7969   -18506.363    345.32957    242.54491 
   96750    93.429146   -177.16806    72936.689   -17241.484    1265.4792   -18506.963    345.99902      237.972 
   96800    94.258356   -149.50985    72974.157   -17250.359    1276.7107    -18527.07    346.12595    240.08406 
   96850      96.1312   -260.57474    73004.279   -17248.707     1302.078   -18550.785    346.36988    244.85436 
   96900    94.079479   -343.39303     73034.64    -17226.21    1274.2878   -18500.498    346.31674    239.62845 
   96950      94.7106   -144.44326    73047.526   -17183.976    1282.8362   -18466.812    346.53903    241.23597 
   97000    94.184043   -629.71448    73130.057   -17174.431    1275.7041   -18450.135    347.07727    239.89478 
   97050    91.608474   -398.78796    73122.797   -17197.333    1240.8185   -18438.152    347.97683    233.33459 
   97100    94.736567    -290.3873    73150.483   -17184.786    1283.1879   -18467.974    348.47664    241.30211 
   97150    96.456006   -675.55205     73163.68    -17194.48    1306.4774   -18500.957    348.78749    245.68167 
   97200    94.166524   -509.05277    73180.641   -17180.617    1275.4668   -18456.084    348.81402    239.85016 
   97250    96.409276   -525.85808    73200.754   -17226.972    1305.8445   -18532.817    349.21086    245.56264 
   97300    95.931291    -529.1075    73189.968   -17206.446    1299.3702   -18505.816    349.24478    244.34517 
   97350    95.031909   -583.82763    73137.646   -17207.561    1287.1883   -18494.749    349.71375    242.05437 
   97400    96.100368   -824.49489     73129.31   -17229.871    1301.6603   -18531.532     350.3158    244.77582 
   97450    92.508749   -435.37287    73124.423   -17261.631    1253.0126   -18514.643    350.57001    235.62767 
   97500    94.438161   -486.30053    73123.585   -17237.109    1279.1461   -18516.256    350.96184    240.54204 
   97550    96.465386   -876.26831    73120.866   -17222.357    1306.6044   -18528.962    351.08172    245.70556 
   97600     97.07221   -397.71011    73096.855   -17228.348    1314.8238   -18543.172    350.54536    247.25119 
   97650    94.982056   -597.25792    73090.673   -17213.309     1286.513   -18499.822    350.35503    241.92739 
   97700    98.144813   -431.42765    73067.995   -17218.316    1329.3519   -18547.668    349.98227     249.9832 
   97750    93.622979   -820.83318    73014.696   -17227.166    1268.1046    -18495.27     350.1623    238.46571 
   97800    94.409167   -329.87611    72984.353   -17221.713    1278.7534   -18500.467    350.50997    240.46819 
   97850    96.110451    -739.2921     72980.58   -17231.763    1301.7969    -18533.56    350.39232    244.80151 
   97900     97.01626   -751.08461    72871.858   -17259.444    1314.0659    -18573.51    350.33896    247.10868 
   97950     98.36522    -261.7388    72887.099   -17198.207    1332.3373   -18530.544    350.18122     250.5446 
   98000    93.439284   -1142.9742      72881.7   -17237.564    1265.6165    -18503.18    350.91303    237.99782 
   98050    95.461829    -476.2515    72866.747    -17216.57    1293.0115   -18509.581    350.21333    243.14941 
   98100    96.507313   -463.54919    72872.399   -17198.201    1307.1723   -18505.374    350.53734    245.81235 
   98150      98.1022   -714.31453    72822.424   -17201.702    1328.7748   -18530.477    350.06004    249.87466 
   98200     98.30904   -329.51554    72820.782   -17231.681    1331.5764   -18563.258    350.06955     250.4015 
   98250    97.784775    -762.0129    72782.278   -17236.898    1324.4753   -18561.374    350.53549    249.06615 
   98300    97.050711   -639.12159    72767.791   -17225.886    1314.5326   -18540.419     350.2348    247.19643 
   98350     96.12703   -565.07032    72741.114   -17200.779    1302.0215     -18502.8    349.89499    244.84374 
   98400    95.948414    -92.08111    72709.025   -17206.245    1299.6022   -18505.847    350.51385    244.38879 
   98450    94.435669    -960.5666    72741.902   -17210.996    1279.1123   -18490.108    350.18396     240.5357 
   98500    94.603069   -539.74079    72660.914   -17209.106    1281.3797   -18490.486    350.41276    240.96208 
   98550    95.407629   -372.48521    72615.822   -17215.272    1292.2773    -18507.55    350.23244    243.01136 
   98600    96.701411   -727.11234     72646.61   -17231.166    1309.8014   -18540.968    350.51945    246.30673 
   98650    94.664599   -399.85344    72662.288   -17229.003    1282.2131   -18511.216     351.4729     241.1188 
   98700    95.420232   -333.23116    72713.663   -17204.049     1292.448   -18496.497    351.79336    243.04346 
   98750     96.23934   -561.80249     72791.01   -17223.527    1303.5427    -18527.07    351.52582     245.1298 
   98800    95.947875   -123.56992     72839.22   -17200.334    1299.5949   -18499.929    350.95008    244.38741 
   98850    97.849806   -286.93675    72900.306   -17198.045    1325.3561   -18523.401    351.51847    249.23179 
   98900    92.948017   -682.09791    72890.712   -17230.904    1258.9624   -18489.867    352.28583    236.74652 
   98950    93.218688   -469.93933    72835.231   -17244.625    1262.6286   -18507.253    352.81951    237.43594 
   99000    94.901911   -562.67105    72821.908   -17243.252    1285.4275    -18528.68    353.20597    241.72325 
   99050    93.959871   -207.71536    72798.454   -17262.731    1272.6677   -18535.399      352.736     239.3238 
   99100     96.95421   -646.24184    72852.879   -17266.377    1313.2255   -18579.602    353.17401    246.95063 
   99150    96.094108   -97.459563    72848.181   -17256.896    1301.5756   -18558.471    353.46211    244.75988 
   99200    92.871546   -415.60658    72857.159   -17270.882    1257.9266   -18528.809    353.20462    236.55174 
   99250    93.330384   -600.14495    72838.278   -17310.219    1264.1415   -18574.361    353.69179    237.72044 
   99300    90.834416   -236.54993    72856.377   -17316.904    1230.3341   -18547.238    353.96286      231.363 
   99350    92.263877   -300.87969    72830.558   -17300.994    1249.6958    -18550.69     354.5579    235.00396 
   99400    91.278174   -643.70582    72866.462   -17310.823    1236.3447   -18547.168    354.60723    232.49329 
   99450    92.241924   -156.53708    72875.621    -17280.81    1249.3985   -18530.209    353.90718    234.94804 
   99500    93.113312   -659.42846    72868.631   -17281.916    1261.2013   -18543.118    354.31058    237.16754 
   99550    92.376149   -649.48069    72922.719   -17253.467    1251.2165   -18504.684    354.75447    235.28992 
   99600    92.787542   -284.84215    72914.777   -17244.056    1256.7888   -18500.845    354.60801    236.33778 
   99650    94.476141   -508.88226    72936.986   -17232.379    1279.6605    -18512.04    355.25788    240.63878 
   99700    93.387114   -644.49928    72906.987   -17285.227    1264.9099   -18550.137    355.19669    237.86494 
   99750    90.481072   -750.49795    72843.074   -17303.844    1225.5481   -18529.393    355.80222      230.463 
   99800    94.351938   -563.18002    72808.157   -17253.793    1277.9782   -18531.772    356.02651    240.32242 
   99850    94.702362   -482.07855    72778.034   -17259.148    1282.7246   -18541.872    355.82106    241.21498 
   99900    95.828779   -310.10712    72784.429   -17228.833    1297.9817   -18526.814    355.46732    244.08407 
   99950    95.204728   -565.15775     72855.19   -17242.767    1289.5291   -18532.296    356.26018    242.49455 
  100000    96.268173   -486.65489    72819.335   -17191.127    1303.9332    -18495.06    356.56441    245.20324 
Loop time of 95.7789 on 32 procs for 100000 steps with 4545 atoms

Performance: 451.039 ns/day, 0.053 hours/ns, 1044.072 timesteps/s
99.9% CPU use with 32 MPI tasks x no OpenMP threads

MPI task timing breakdown:
Section |  min time  |  avg time  |  max time  |%varavg| %total
---------------------------------------------------------------
Pair    | 56.829     | 63.973     | 72.355     |  79.3 | 66.79
Neigh   | 1.2316     | 2.8732     | 4.7853     |  96.0 |  3.00
Comm    | 12.903     | 22.359     | 31.498     | 161.3 | 23.34
Output  | 0.099454   | 0.10504    | 0.20012    |   5.3 |  0.11
Modify  | 4.6068     | 5.6119     | 6.7044     |  24.2 |  5.86
Other   |            | 0.8571     |            |       |  0.89

Nlocal:    142.031 ave 217 max 74 min
Histogram: 16 0 0 0 0 0 0 0 8 8
Nghost:    954.469 ave 1014 max 903 min
Histogram: 10 6 0 0 0 0 0 5 9 2
Neighs:    0 ave 0 max 0 min
Histogram: 32 0 0 0 0 0 0 0 0 0
FullNghs:  14606.5 ave 26607 max 3739 min
Histogram: 16 0 0 0 0 0 0 0 3 13

Total # of neighbors = 467408
Ave neighs/atom = 102.84
Neighbor list builds = 5672
Dangerous builds = 0

write_data		${DIR}/data.eq-${NAME}-${TEMP}
write_data		run_5/data.eq-${NAME}-${TEMP}
write_data		run_5/data.eq-het_freeze_5-${TEMP}
write_data		run_5/data.eq-het_freeze_5-240
undump          1

reset_timestep  0

unfix           2
unfix           3
unfix           4


################################################
#######         Run Simulation         #########
################################################

log				${DIR}/log.run_${NAME}
log				run_5/log.run_${NAME}
log				run_5/log.run_het_freeze_5
