LAMMPS data file via write_data, version 29 Oct 2020, timestep = 100681

4466 atoms
1 atom types

0.0 49.22 xlo xhi
0.0 49.019635930410494 ylo yhi
0.9251914945284518 59.1368085054715 zlo zhi

Masses

1 18.015

Atoms # atomic

160 1 0.864786319427386 2.27584036286915 3.7731064740795777 0 0 0
3159 1 3.6215883290600077 1.7964568297587196 2.9568570030576278 1 0 1
3846 1 11.106271380870554 0.8856983800046901 14.749737300369098 0 1 0
2114 1 14.37131201472196 2.5828349174194027 2.665240298377687 0 1 1
15 1 10.443782772192222 0.30063070188813673 7.442585946434241 0 0 0
2434 1 18.148023885107197 0.5893667916611874 1.8656142013194708 0 0 0
2399 1 22.551941141662883 0.9855807376268646 1.4321668231577354 0 0 0
3863 1 0.023645241368478086 6.702474749877413 18.018158196942803 1 1 0
2113 1 17.582111373555453 13.233693820522362 2.3892416118013546 0 0 1
2491 1 3.4969316036579516 5.678652667925176 3.773669756649872 1 0 0
1377 1 9.384425542917262 2.9167059294810667 2.741559916175965 0 1 0
123 1 24.189805519858464 22.11762511935552 16.50185485980083 0 0 0
1433 1 9.188840924795375 1.7683198419540584 9.922070691361666 0 1 0
883 1 16.055550355871976 4.4672976441427625 1.8855932299033398 0 0 1
959 1 21.11689739718751 5.709960783184263 3.155144010795172 0 0 1
749 1 0.04552502480328483 4.3622673665578535 2.1863312770408796 0 0 1
45 1 9.277961985626582 8.39032722604298 2.797484043931753 0 0 0
2436 1 6.194242908889644 6.167630929857334 4.1647905965795005 1 0 0
897 1 13.094212362124328 8.501911914556196 2.1615198271580662 0 0 1
934 1 19.54857829604104 7.407260021835455 1.6308396149482036 0 0 1
2579 1 17.631675531808735 8.37915145731846 3.203636367926267 1 0 0
3337 1 23.94825932536928 6.382760700034909 3.996360158003887 0 0 1
2464 1 7.20894396301519 6.811912586055689 1.8044104055512964 1 0 0
3658 1 15.554125174351507 0.2168632952756589 2.2280502342018154 1 1 0
3142 1 4.970878110897732 11.101898913247371 3.4969271080456674 1 0 1
777 1 23.903486626525844 0.08195183318174039 11.197853237171238 0 0 1
864 1 8.9214330815216 11.185237632732365 3.671538094084045 0 0 1
3466 1 23.322316679765922 8.284956367820719 18.695002539636988 0 0 0
3398 1 21.38915152146414 3.6436415904515758 1.1377314382772863 0 1 0
2008 1 18.791593224506943 12.330836249848993 4.799758552078947 0 1 1
742 1 22.308886762155556 9.720686073683263 3.4205539275989687 0 0 1
956 1 4.903390213111008 13.789078088410777 4.702396875507143 0 0 1
2531 1 10.669761223951804 13.454855251740733 3.8023816915438378 1 0 0
2044 1 13.040353196156746 12.355456657909873 4.027379799848925 0 0 1
1974 1 14.986690397596425 14.121461461200994 5.2263601504639015 0 0 1
2037 1 15.76831275861076 15.645472630738624 2.747683630850452 0 0 1
591 1 5.929344231278539 23.184783386388737 18.694150070173762 0 0 0
1033 1 21.657805237309688 12.344622460316517 3.7768621621905534 0 0 1
786 1 21.74096454850111 14.61526465716854 2.306223850670581 0 0 1
2423 1 1.8298605157086987 17.14987331475352 3.2418365756252645 1 0 0
19 1 12.9242402455251 16.543390747210836 1.4810817389892228 0 0 0
97 1 4.495508150989497 17.752301394060883 2.8876215675120833 0 0 0
26 1 4.384819330042699 14.957764633678439 2.253909034081998 0 0 0
122 1 10.346722626299046 16.438781033569008 2.9502030508059733 0 0 0
210 1 6.556483362687356 20.66616575071734 17.80955495099918 0 0 0
1017 1 14.48675266630224 18.182326978221134 4.661955467851817 0 0 1
1274 1 21.759817209394008 17.64108781980509 3.1125439698004427 0 1 0
2509 1 6.817600417521949 14.406112822402022 1.229019658344616 1 0 0
227 1 8.873446022801781 20.746383250758793 3.0935552106316035 0 0 0
986 1 14.091834024520109 20.75153690056805 4.828184841436187 0 0 1
2071 1 16.446816793837353 21.332606312930594 3.1359190813991424 0 0 1
1995 1 18.997460218639464 20.870117449860984 3.9938236065204458 0 0 1
849 1 23.87309824500496 20.844800125722394 1.0912570062120541 0 0 1
666 1 20.3907400880674 23.4655333263492 19.228194285536148 0 0 0
2646 1 0.5753296270793498 23.17413957625105 16.195696760637297 1 0 0
263 1 13.422579066612338 22.74259647351325 1.294015390500314 0 0 0
776 1 4.617964102257532 22.705517772250612 4.030441267600903 0 0 1
1891 1 11.161967766186537 22.094727744407027 4.3777734246583115 0 0 1
2336 1 22.760503023929026 6.8557591020254955 15.230008883046635 0 0 0
2923 1 24.511828055525505 18.70468114431394 14.114865512656896 0 0 0
1766 1 24.257994784398438 4.675173078795995 18.771192117130408 0 1 0
151 1 0.0553825766727839 22.496175437654447 18.89097749892827 0 0 0
36 1 23.420638472969074 22.21362599154716 3.615640951122262 0 0 0
2393 1 0.5625397904029136 1.5465341255382634 7.095529140658313 1 0 0
1284 1 2.956114392125674 2.429131204972378 7.656005472824878 0 1 0
3737 1 24.537511006134025 8.791832968530906 12.113191539263033 0 1 0
1435 1 4.874855602133719 21.981267788047745 1.264537360562636 0 0 0
1299 1 16.101218728671768 2.5867583952932796 7.533939745319254 0 1 0
574 1 13.088653178910935 18.54661977008742 19.458996304637054 0 0 0
349 1 18.749469459999823 1.2694551278494766 4.81388751637445 0 0 0
833 1 24.548917921057257 2.0493258276422592 17.55069351273888 0 0 1
2332 1 4.161337132010289 3.29387881174388 5.101060526785013 1 0 0
2504 1 6.853623709165901 3.8990411230436237 5.627168013193813 1 0 0
831 1 9.611952382967605 4.449336405525654 5.120995589294789 0 0 1
213 1 11.988334055291169 3.979871521526355 6.397325012603083 0 0 0
298 1 14.417166788431903 3.243601916667692 5.334137994096126 0 0 0
570 1 19.374932236293667 4.1910886002485 5.029616526195008 0 0 0
203 1 17.169253947398794 5.61761732821424 3.917951659804162 0 0 0
1024 1 21.31471669828313 4.849505745250459 7.15098772275409 0 0 1
1822 1 4.375125654459539 2.0282617992900036 13.242133857166872 0 1 0
2213 1 0.7773320603526945 6.51180841269294 4.699681892620249 1 0 0
894 1 1.2824685656464387 7.229170442481147 7.311347478426795 0 0 1
2501 1 5.173452378919714 8.766359165822024 5.249305110265749 1 0 0
3721 1 3.4879521148398096 9.104858674391846 7.235520823427754 1 1 0
2534 1 7.860715521079107 8.194746001637846 6.347643776275788 1 0 0
2101 1 10.123125946782956 7.130973956424375 4.963648586492618 0 1 1
1899 1 12.883214221920431 8.057506865960118 4.932242212006004 0 0 1
931 1 15.036234532207637 6.357522801620374 5.711045134802 0 0 1
911 1 17.422390256446246 9.236231304104615 7.390922908173002 0 0 1
2195 1 19.113174023262538 9.566429035419734 5.230623633495897 0 0 1
588 1 24.27034944532708 6.218889423619566 7.040876288220683 0 0 0
763 1 21.40264007097118 8.145311465979875 5.529280040147877 0 0 1
4236 1 0.4880968229296287 10.590276852429353 6.826159363782579 1 0 1
3196 1 3.3837249049979463 11.885857199162647 7.628626152758057 1 0 1
2227 1 8.110674518645892 10.903601223837963 6.387341743138215 1 0 0
2255 1 10.58795038687873 11.228985131451454 7.921716273356155 1 0 0
772 1 12.990418144777074 10.654152851971169 6.198348140031058 0 0 1
859 1 15.192512665047325 10.748792655575388 7.8201956230604255 0 0 1
3257 1 23.94684066752688 11.011059945157246 6.8851377839449555 0 0 1
811 1 6.276648780860034 12.489166420631802 7.882183690986815 0 0 1
90 1 6.6766263801960015 14.835541983752256 6.585418298027757 0 0 0
884 1 11.015465722767983 17.647558668411545 6.642361452534158 0 0 1
339 1 16.787197820670308 12.620850841102156 6.600355963399637 0 0 0
1218 1 17.7096994570403 14.168939313427062 8.827491163702456 0 0 0
295 1 22.366517336735427 13.246112794829 6.307325230774639 0 0 0
1407 1 20.26633145787389 0.6780613848102667 14.282089382486227 0 1 0
3335 1 2.6053519160870753 15.412754866087669 5.265172349816692 1 0 1
3231 1 3.111809314318323 17.147735193085513 7.473000691578906 1 0 1
2359 1 5.851032525939474 17.32957780301119 8.051698276335163 1 0 0
1960 1 9.515158579805803 15.269461563677703 6.033287783020704 0 0 1
725 1 13.809592667797464 16.06171507907875 6.81166687644354 0 0 1
556 1 17.853066011151586 15.829648538430241 5.224121647810061 0 0 1
77 1 19.58919742057532 18.13940802314262 4.894540563265538 0 0 0
1214 1 23.64874550640217 17.743033154787472 4.997828236884753 0 0 0
3013 1 2.5133597578571147 19.734865427066406 6.2032002267800435 1 0 1
1901 1 4.702677113107554 19.892065663468777 4.762139645616994 0 0 1
3475 1 6.895205768636788 19.372932783998774 6.436279192023729 0 0 0
1143 1 8.490576680169735 17.931528036291745 4.462107539458325 0 1 0
1328 1 9.79423501422564 20.316208545847 6.304975532415729 0 0 0
292 1 14.473236675532322 22.94440280761458 9.361205346464752 0 0 0
893 1 17.710827978633844 21.00743080300444 6.634282515106323 0 0 1
830 1 14.81401440374667 20.53627537924305 7.4189608531379925 0 0 1
2452 1 22.58861850366667 19.03146093141104 7.108521688782568 0 0 0
3587 1 23.772690799334352 21.49044371992807 7.69502012322975 0 0 0
3558 1 23.195976960937468 0.5680402915174069 19.474521340144083 0 1 0
2387 1 10.77846416050846 23.186849780699614 1.8583693306995626 1 0 0
310 1 14.262212727417072 21.061739075970593 18.716150779902197 0 0 0
1400 1 2.6522900182528235 18.1895468849894 14.454886902404773 0 0 0
324 1 24.004639042400477 16.059123108791507 14.17165136425589 0 0 0
2158 1 20.84494133546525 22.862270333311592 4.65467811997003 0 0 1
1964 1 12.266909336467867 19.894284470116766 1.2516631416752866 0 0 1
817 1 6.589051235082226 1.357957204476934 11.331376545544753 0 0 1
1260 1 12.250005509364723 2.281823294201954 8.778033112331892 0 1 0
1978 1 14.696540064200796 1.0865430085731262 9.691888352927787 0 1 1
1360 1 0.35976297309226446 19.503626249147 4.1851713380325 0 0 0
1413 1 22.667467780492377 2.3287375573177296 7.275895917472792 0 1 0
4180 1 1.7968960543719712 2.202400700584278 11.416748772417746 1 1 1
2345 1 5.021756255181363 3.6481141741087515 10.13833834633555 1 0 0
3204 1 6.678978759505205 4.775894423878863 8.169288387276623 1 0 1
465 1 9.437395293618868 5.38477234690067 8.822986535255069 0 0 0
2331 1 9.772238142568225 4.39566233582638 11.360072903431547 1 0 0
880 1 18.13837975221961 4.4938161765592675 7.848666515790614 0 0 1
1653 1 18.568348480304866 2.8324573738817174 10.124344361738022 0 1 0
93 1 21.131116717377704 6.056120903250685 9.857420205079046 0 0 0
351 1 15.411864322180897 24.062009425885197 3.163351180121995 0 0 0
2201 1 0.379436649565143 7.474518480800856 10.236692332208833 1 0 0
2473 1 2.958466063271467 6.479526956120801 10.416790335705425 1 0 0
2212 1 3.976632112609288 8.49658577235887 12.33610174184958 1 0 0
3594 1 4.8592063099063445 7.153852452451589 8.674311324362606 1 1 0
50 1 12.120620875205839 6.537004613723491 7.6662962693040395 0 0 0
2012 1 13.974103386421229 6.578816684115551 9.935754767398306 0 1 1
974 1 16.358210473858897 6.595923575010652 8.072417766254887 0 0 1
947 1 23.48299553736619 6.499909709309133 11.358843058570896 0 0 1
335 1 22.83992674921942 8.029490432310327 8.345674962781057 0 0 0
170 1 0.29626624625882547 11.864183367438384 10.714767019596824 0 0 0
2324 1 2.9685308117275366 12.32929835491865 10.65784277125419 1 0 0
1122 1 11.891552237357638 10.221179058348426 10.556602489566982 0 1 0
2517 1 14.672911083074666 11.493474034736707 10.553443832074182 0 0 0
2483 1 18.862390589727728 9.573265835402417 9.817710321824201 0 0 0
31 1 21.008517206991296 11.25200653315422 10.15148011765096 0 0 0
994 1 23.734966288055617 10.93783099571542 9.52150384222394 0 0 1
209 1 3.36121678332594 15.195931150290418 11.244785671793483 0 0 0
2365 1 6.823839010928395 10.948109756771977 10.37363446904586 1 0 0
852 1 10.036663043177592 8.272868539537422 8.628495481171377 0 0 1
142 1 9.719778203247097 14.001226024894402 8.380402674752107 0 0 0
458 1 12.540268666726464 14.4668616396433 9.009718223157629 0 0 0
848 1 16.334846835347513 14.212471689871801 11.363801636758774 0 0 1
289 1 20.681404028164 13.466712983973638 8.650458365633218 0 0 0
239 1 1.4561693945476213 16.44646308756834 9.727549379448472 0 0 0
526 1 7.4713940540630475 13.980693670337146 10.24714987974277 0 0 1
235 1 11.84009281112796 17.339218761682297 9.628946461912548 0 0 0
221 1 16.345839399713398 17.86434053589585 7.044456868979469 0 0 0
3284 1 20.768904601967673 15.992844195019542 9.842598093085652 0 0 1
757 1 19.686281774663573 19.141836810706806 7.776475966566972 0 0 1
846 1 23.184680187828977 17.482744970749916 9.369202044329917 0 0 1
1003 1 6.908639281151849 21.140193999553944 8.473383112883406 0 0 1
1141 1 14.658050581907574 18.33411602388394 9.742290548796488 0 0 0
174 1 20.094673149924756 21.618106450099628 8.933630718706956 0 0 0
1564 1 10.646053254805985 24.015393651856325 18.24854544660784 0 0 0
1988 1 2.244246692657224 21.756746019404883 7.923445641487599 0 0 1
1324 1 18.160811897177922 22.872827807206765 17.50561666735904 0 0 0
1326 1 9.858237642153876 21.198855941761813 8.821508920595555 0 0 0
269 1 17.34158703992952 20.624654599389103 18.67743484050641 0 0 0
2123 1 19.186979142336405 0.24614493401841817 9.540265825490842 0 1 1
4209 1 20.388673561879884 0.8348100143917313 7.030482063049819 0 1 1
980 1 17.650897956355294 22.142102897507772 10.131778852995053 0 0 1
792 1 22.052441639135264 23.60716036162643 7.045693981330801 0 0 1
302 1 3.7911632668186197 4.670200616028377 12.621885157519392 0 0 0
207 1 1.6499018489813735 4.160808202629836 9.494518504677284 0 0 0
1105 1 15.422734498470092 24.49173118975962 12.99525760736733 0 1 0
225 1 14.63316850934497 2.481958217335842 12.184026210144188 0 0 0
1086 1 22.958659815300027 2.5792274776597215 10.116447234090453 0 1 0
1383 1 1.031435440689099 4.538827770064469 13.860191015415307 0 1 0
2265 1 5.966669807621642 5.690765497909753 13.496051226759844 1 0 0
1334 1 7.577958378427015 3.3501363225614074 13.12414970412473 0 1 0
131 1 7.901447887353666 6.792251346902134 11.652061126285625 0 0 0
1411 1 12.817096948004767 4.431178487623119 11.46254765118157 0 1 0
1399 1 17.03735711572694 3.7772880559864976 12.188507980759788 0 1 0
2634 1 20.750024737854485 3.572156222800732 11.40824566772408 0 0 0
1792 1 3.24550517947135 7.603824338785256 15.084035799714034 0 1 0
106 1 8.918175138478016 8.526059241252957 13.552353708543329 0 0 0
1962 1 11.500502847862462 8.202258451099064 14.061305495986872 0 1 1
977 1 13.550957855521437 8.54799162123485 12.083160006102984 0 0 1
2908 1 15.897527027009055 8.354536913810026 13.318577104763708 0 0 0
82 1 16.73532237236334 6.624795371880644 11.279005915510607 0 0 0
1297 1 19.338823904606297 7.544627925648264 11.222935437718526 0 1 0
753 1 20.431280352728074 7.683443884097887 13.94662690143806 0 0 1
1345 1 4.6174190852272305 11.101638594260395 11.98348618764751 0 1 0
2818 1 5.5157344811254205 11.85954675251756 14.520744808402368 1 0 0
1327 1 7.105990548060363 8.317527777136654 9.323729087831062 0 1 0
3199 1 9.27151718842833 11.25088401071268 12.040943402617298 0 0 1
10 1 16.95940821208327 10.457665801014873 11.612538190879482 0 0 0
1029 1 17.575065774891893 11.78016734393714 13.78369089444511 0 0 1
3907 1 11.034978141051557 3.7393661375962153 18.777195376677152 1 1 0
2887 1 2.3436069238438244 15.593153347173578 13.996799643075981 1 0 0
286 1 6.490182872769899 14.429390399240502 13.600588572244288 0 0 0
79 1 9.095116211364829 14.097238496357724 12.218691350536385 0 0 0
1001 1 13.201590585705667 13.128255924078559 15.064718659350255 0 0 1
108 1 13.569476765491512 13.381171673237379 12.24835773614131 0 0 0
1593 1 18.144929220719074 14.64919739966642 13.362359263572625 0 0 0
898 1 20.51933526810742 15.070811866509516 12.709693284610353 0 0 1
1065 1 4.960745024754387 0.44029474543475294 8.772478616431155 0 0 1
2617 1 23.668471377049087 13.993871624371256 12.462916506313155 0 0 0
3171 1 7.311813086335454 22.932923586846083 3.6849147997195972 1 0 1
358 1 5.7600296977302925 16.11323676781246 10.703476329506676 0 0 0
954 1 10.852368302000258 17.519144329692143 13.98134095965227 0 0 1
177 1 11.621637066936252 15.56980766950997 11.881688001684486 0 0 0
188 1 14.092439963601981 16.66179857034807 13.258597955487026 0 0 0
1113 1 16.488184829762524 16.988217172757746 11.299664007402027 0 0 0
2204 1 18.356030866157457 17.027278732748616 8.916240473385269 0 0 0
83 1 18.3085281982598 24.377714359228932 11.862105300348963 0 0 0
2555 1 0.7297905083594378 19.78278189749166 12.560427434043211 1 0 0
120 1 6.454717382713969 18.29035878767709 12.202356394891927 0 0 0
1257 1 5.369369421613035 20.878436457388933 10.834752621594188 0 0 0
155 1 9.056059033484393 19.331874748081045 13.02030893596833 0 0 0
1136 1 11.174908019495362 19.78907584629331 10.871529574418387 0 0 0
2490 1 9.510456341377697 22.45749110122196 11.912130030948848 1 0 0
2793 1 13.845065678081754 20.482685132279713 10.975463598696226 1 0 0
867 1 16.8321934258431 20.115762941019092 11.839113868311594 0 0 1
178 1 21.266118202363742 20.85049624635396 11.646199677811719 0 0 0
636 1 19.39306608611362 18.82958637982884 11.45756024509046 0 0 0
500 1 23.61461807350039 19.41531474851641 11.281899100492328 0 0 0
126 1 6.26044637410536 23.603555618778763 11.79516264182726 0 0 0
3417 1 2.5159197061997927 21.549845422741996 11.024851504789769 1 0 0
4359 1 3.598485126208133 23.607438433940015 12.472737664431895 1 0 1
1370 1 12.197385062361619 22.903953623472574 12.16066870108442 0 0 0
2056 1 17.17981825871906 18.039645282008024 3.004383598237691 0 0 1
1261 1 3.313898955637173 8.194011932134684 18.72443750404996 0 1 0
3796 1 21.295162851762793 23.793821080876945 12.159450931285667 0 0 0
2539 1 0.06838113283272632 2.5392652402119023 15.240505140810697 1 0 0
1035 1 4.528058686453217 0.968050944220484 16.128832005927983 0 0 1
2407 1 7.339695082275253 1.179949105729055 15.097007000526615 1 0 0
1744 1 4.712912268927344 3.7694170200921815 17.444685876887043 0 1 0
2986 1 0.3805553519012574 15.918393290660221 1.2140113521184952 1 0 1
1320 1 15.705165052009347 0.28275013144341343 16.13049734006421 0 1 0
2325 1 18.875339151092106 3.028584900981095 14.018774656935074 0 0 0
2305 1 6.901613496590548 11.334341453240977 1.6233418507691943 1 0 0
1138 1 5.2651357765595845 6.353203935307088 16.52898114487884 0 1 0
3472 1 10.59525617576873 3.602752558888201 14.06575454163794 1 1 0
1170 1 12.756348971741284 5.453449753483123 13.975710671419698 0 1 0
1348 1 14.958024056219934 4.709046450420955 15.778220979136169 0 1 0
258 1 16.765701928217307 2.6205771888186313 15.6908917612918 0 0 0
1434 1 18.86120764003582 7.2858195973192155 16.27303950426556 0 1 0
2574 1 14.413956659494794 1.222759105625402 18.841451620943694 0 0 0
275 1 22.005769301538354 2.8102719434308376 16.02644628259194 0 0 0
2465 1 0.4779459634776221 7.028913301141478 15.32165801086965 1 0 0
58 1 7.903092342434689 7.174426542291593 17.053785087951137 0 0 0
60 1 12.470002853108296 7.690526711180317 16.761974878775106 0 0 0
288 1 16.407255254113032 6.930987529212985 15.673284934570658 0 0 0
179 1 23.002933649318134 4.614438442107212 13.67302251217272 0 0 0
158 1 0.5931239542012067 12.376225660429665 15.705756393015895 0 0 0
244 1 2.1762737457304118 9.87273467271015 16.7130348175487 0 0 0
533 1 7.304002201021915 9.623042594312375 16.006044326131594 0 0 0
1335 1 8.569459767496634 11.920778673385664 15.014512199509387 0 0 0
2920 1 11.192708640800069 11.072498993487264 15.03542482914297 1 0 0
1412 1 15.744377733993122 12.317180304047529 15.751798540896623 0 1 0
1574 1 20.052252358428657 10.41193228514271 14.436616926097724 0 1 0
147 1 23.26908763077086 10.869713335306596 13.598718129481512 0 0 0
955 1 4.0203829118434085 12.182384987215112 16.66536466703795 0 0 1
67 1 8.478044750151867 12.578819114791663 18.084850520091923 0 0 0
41 1 12.423523533221353 15.079170621947691 16.846516767067858 0 0 0
805 1 17.333620303372225 14.400865661112572 16.414605521472566 0 0 1
24 1 21.14552679808185 16.35178637111023 15.43196726508534 0 0 0
726 1 21.031239781355694 12.139631884738918 12.583911557498194 0 0 1
262 1 18.09072953962704 24.10011994551988 14.895810160407127 0 0 0
548 1 2.6559036238337734 14.458186438595018 16.40883915158332 0 0 0
2164 1 5.321091400036371 16.15524666725769 17.210600587048244 0 0 1
105 1 7.612087536478383 14.88513610888272 16.26884397419724 0 0 0
567 1 10.000008154179472 16.581642754195823 16.512797250160723 0 0 0
2230 1 16.317226892181285 19.17619116817626 16.544562485376282 0 0 0
652 1 16.477156691978983 16.863535529873968 15.145004922593126 0 0 0
750 1 19.242782554192722 17.74383839826804 14.140039696646 0 0 1
3991 1 22.292794759498946 17.91149352710081 17.638480805577178 0 0 0
3377 1 5.471149172601453 18.20861137489414 15.058149696719699 1 0 0
517 1 4.3387893555552886 20.61116472836917 16.6171054649337 0 0 0
1443 1 10.446939206523947 21.291302602019886 16.81124329412618 0 0 0
57 1 13.195272685972906 19.291223006372757 13.41641434794326 0 0 0
1150 1 12.400980911654242 21.621365770594327 14.802888891328184 0 0 0
268 1 18.973268097975566 20.13937812400681 15.34095158915996 0 0 0
3555 1 22.76779981632467 19.9925259463597 15.721712241607522 0 0 0
1071 1 3.219828412022006 22.934733110962103 15.184479978483775 0 0 0
135 1 8.384320925721862 20.943725988195897 15.19511924087422 0 0 0
1665 1 18.40750426547198 23.72856525750128 7.334418516027038 0 0 0
52 1 14.522441490957373 22.390037076646458 16.267404310945118 0 0 0
215 1 16.497333677375636 21.523217507100618 14.167237456524315 0 0 0
2371 1 1.0381853860537082 13.254091281388588 6.347867821436608 1 0 0
1405 1 21.109001727211904 21.77009871952773 14.401511781060403 0 0 0
2498 1 1.8213389305727499 1.1605674322831268 16.82032505347039 1 0 0
1005 1 7.368101612498139 2.43682807411303 17.99732226974192 0 0 1
920 1 15.979349220068363 9.778905311558423 1.3956064985415046 0 0 1
38 1 11.784781672754319 18.809300867219644 3.8968218174666145 0 0 0
2141 1 24.500240463844456 1.6008822496649462 4.939201516712785 0 1 1
4044 1 20.694683699595096 1.0788037177260485 18.225104038716612 1 1 0
370 1 2.2692985925221176 3.288341092830312 18.720650424056185 0 0 0
2741 1 23.555283599297223 10.852943254642556 16.870327871329405 0 0 0
109 1 1.219791595674319 9.567613822160077 12.198198151896484 0 0 0
365 1 10.747470600426537 6.451554527877261 18.69153349786401 0 0 0
3661 1 9.07400481509791 4.389756678226026 16.39831122133655 1 1 0
2609 1 16.74221821274394 4.6916460423203645 19.57177374633027 0 0 0
1460 1 13.781088669182058 4.1729080843027315 18.32004171277462 0 1 0
2649 1 18.42928457097894 3.088119194987913 17.97107397094964 0 0 0
1156 1 19.778818520622128 4.7382068030016145 16.16869737661206 0 1 0
1629 1 22.039722733078463 5.856772918822407 17.620611548318614 0 1 0
3778 1 7.921153231263626 0.8575767098206608 6.238344810948088 1 1 0
1416 1 8.717187720886868 0.477942009036742 3.5597158366068267 0 1 0
716 1 7.920063054378791 4.9169725781298 19.489390084006374 0 0 0
1329 1 5.689857869927835 6.661226524606768 19.748778358477328 0 1 0
568 1 10.462231880560127 18.943923102858566 18.050940009935715 0 0 0
330 1 18.82889548139919 9.759079377536075 18.251535600908614 0 0 0
863 1 13.560832193599424 11.208296280155084 1.318340920408547 0 0 1
231 1 24.27630798672486 24.330451079317932 12.465703812549974 0 0 0
360 1 19.637672276888306 6.862375564285361 19.55526677477643 0 0 0
2200 1 6.599313423974148 23.855814345612814 7.5688173704385955 1 0 0
2523 1 21.03597143618538 0.04359434675128979 11.739869162654035 0 0 0
234 1 13.383809985037802 11.079731164119602 19.340140237334253 0 0 0
3704 1 8.863331565396946 9.571137118628087 18.704886868416587 1 1 0
70 1 24.48502756705716 8.48607441037573 1.137768148502806 0 0 0
1354 1 11.452675215072786 10.160463298360563 17.628947693330197 0 1 0
1249 1 15.213952038938942 8.246927129456738 17.875839144666607 0 1 0
3038 1 20.5942166692836 11.241800716219041 16.928550980678434 0 0 1
618 1 16.045632840898875 10.981985778752298 18.08713389792042 0 0 0
85 1 4.021415644284171 23.832133190163745 6.799566058823411 0 0 0
214 1 0.5386363324899757 12.425815138954327 19.43480275652507 0 0 0
3526 1 1.2865730848734798 8.17624766797761 2.2817393458797905 1 1 0
4045 1 6.091702064885343 12.454132954563578 19.292869760227525 1 1 0
84 1 11.255594358042245 13.23033022398722 18.821810281007544 0 0 0
605 1 16.252164429607216 15.406869966807015 18.601709506503614 0 0 0
1599 1 19.970874714397883 13.930478457183245 16.53306241277095 0 1 0
162 1 8.027645686877761 23.64492992301759 14.244963209229603 0 0 0
1524 1 1.8807831836453888 16.339226426125652 18.503930236609893 0 0 0
321 1 1.6519304004540982 18.663791403606822 16.93171591584699 0 0 0
1135 1 16.880531272993597 7.619945794147868 19.866169625705492 0 1 0
9 1 6.9066369848958 16.478140907533213 19.56758020162987 0 0 0
665 1 4.264823473106223 14.695979896292213 19.783281639038446 0 0 0
3375 1 24.257221964970764 24.32048088555447 2.478604925301435 0 0 0
1448 1 14.153637315872576 16.828049882988374 17.530228242072077 0 1 0
1809 1 18.499184683237704 16.631174782681438 19.54851828782763 0 0 0
322 1 19.444700778705702 18.759919423491155 18.26805855191493 0 0 0
133 1 21.054528411022726 15.433824102737589 18.858578808593823 0 0 0
3483 1 2.094191053025873 20.859374170894398 19.323908013944315 1 0 0
1440 1 8.031623731231978 18.776285102808753 19.773289666285464 0 1 0
516 1 19.62661652972214 20.52790223514413 1.3833653003340625 0 0 0
245 1 23.858274221838016 13.840887436084484 18.776545669507694 0 0 0
2440 1 21.95425192086309 23.898923972480556 16.770867093530004 0 0 0
311 1 11.390383382797285 23.326970782354564 8.645071639400186 0 0 0
2558 1 24.344146445134804 15.32344775891842 6.108287277349851 0 0 0
2089 1 13.690089388570295 0.3635430087145294 13.90668732133758 0 1 1
2057 1 11.177994670563441 24.484272422485724 5.887712548536412 0 0 1
1243 1 7.913728933720485 24.343517796705225 1.1452820709411748 0 0 0
2415 1 21.09194526532184 12.206996759185632 19.79693158497128 0 0 0
1082 1 11.654892155204141 0.8922492899894797 19.15447752453033 0 1 0
1923 1 12.012242429434417 2.951084570028943 1.294339757954393 0 1 1
1092 1 0.877171730749108 20.142384583399508 1.5450380337903142 0 0 0
1058 1 24.448196726872283 14.330846132824417 1.0953564991559317 0 0 1
16 1 16.461890255419718 24.197713574985492 18.960669470412025 0 0 0
3691 1 1.776957858374909 5.96498320525447 19.950195964370568 1 1 0
676 1 13.428774937711227 6.848893280948228 19.89283903244061 0 0 0
136 1 5.092140905082715 3.451862156322937 1.0818357335924111 0 0 0
2486 1 2.8242916383434262 5.142562966088782 0.9915329173193148 1 0 0
3033 1 0.0002921693753066279 23.060166300250323 7.749446685488987 1 0 1
1019 1 21.342754076484017 9.173591147322238 0.9735373458066584 0 0 1
2285 1 3.134544548924632 1.9268086811998473 21.41461020987031 0 0 0
4064 1 6.423524317095433 24.260282643677655 31.551097670083553 1 0 0
586 1 7.252983373683144 2.270551083822771 22.05618921455342 0 0 0
1355 1 17.95055262881716 0.4641330839995556 27.804660635498944 0 1 0
822 1 13.823340736874108 3.0549261705262865 21.969881349877696 0 0 0
217 1 17.049137511296315 1.2990291800315992 23.50652009291012 0 0 0
187 1 20.82085856406221 1.7029723119368825 22.65546803479946 0 0 0
2594 1 23.275312732787032 1.323636581189533 21.8656399480886 0 0 0
1050 1 19.63983082735587 22.54157941629331 37.51229513500918 0 0 0
506 1 7.096362510476488 4.611650263929074 24.307034725278328 0 1 0
649 1 5.007132812824533 2.2785202190593568 24.002292909142827 0 0 0
1499 1 11.032436570856165 2.839984890205229 21.450834619894227 0 1 0
1367 1 11.472939356967638 5.305730319063924 24.04050999463102 0 1 0
1233 1 13.821962118069347 5.730197553104545 22.591800516231917 0 1 0
1976 1 4.433063352747093 0.40405123731412923 33.29706846266177 0 1 0
449 1 18.618955756790303 3.9740363432899954 23.420456506530094 0 0 0
3914 1 1.723164914890747 0.6389770804796665 32.3108071017613 1 1 0
1619 1 2.987192145726793 7.343183820299311 22.231032498228117 0 1 0
639 1 5.328252298940752 5.999664145988681 22.506179546022718 0 0 0
1083 1 7.260828677686885 8.1226678343844 23.052580441620734 0 1 0
331 1 10.504300588456502 9.286967492662786 22.789354954019917 0 0 0
1975 1 15.24525860196092 24.310320781760343 36.44855514659845 0 0 0
2912 1 12.80451847602404 9.144034490222753 21.61215915927597 1 0 0
223 1 22.663468820871316 8.145970756462154 21.350828468805524 0 0 0
1678 1 16.72525726540959 8.349505878408317 22.63188463270954 0 0 0
338 1 21.75035721560473 5.62228595139558 22.04693221651079 0 0 0
402 1 20.857626462801726 7.959717760910795 24.384702415918433 0 0 0
2713 1 3.4472213901601556 10.26129773416341 20.858463478638352 1 0 0
2556 1 8.278647382534533 11.546830243191726 25.27564213597666 1 0 0
6 1 0.902126619581012 2.5674979364627526 23.42680283300838 0 0 0
887 1 22.46063537388775 1.3615548281343717 37.48120568108375 0 0 0
2674 1 18.506563079296498 12.478985014721118 22.050628761995625 0 0 0
121 1 23.114585849842257 11.177276874597709 22.1018414446186 0 0 0
229 1 0.07474888172628882 16.160221154686386 23.72461501952758 0 0 0
2768 1 1.905247641441491 13.41724578021385 23.731390039571917 1 0 0
316 1 6.150871768433683 14.89359789001728 23.600677215301285 0 0 0
592 1 6.9427372681143575 12.808758109090366 22.172446173614034 0 0 0
2647 1 5.366206997475587 11.304899765377947 25.19511211897129 1 0 0
427 1 13.512594607166173 13.156999434483472 21.47907317411129 0 0 0
415 1 21.179018959807948 13.268950700756555 22.752445301726727 0 0 0
2482 1 22.477942434530423 15.324705999909087 21.414873612445007 0 0 0
216 1 4.918418189838861 16.725665000804746 21.840667030578274 0 0 0
1956 1 22.870832332775983 2.279516501157947 33.06069369775153 -1 1 0
532 1 12.410823237795313 17.302309933917474 22.135281075104494 0 0 0
564 1 15.43649422292785 15.093989831616792 21.249295291557004 0 0 0
524 1 21.353150102525625 18.879190801419774 20.401455207594342 0 0 0
2764 1 21.214238634527813 17.611355022369644 22.845352512997483 0 0 0
21 1 2.970268251372516 19.69832339505343 23.913696117081102 0 0 0
1823 1 6.261263809949903 19.18756001109171 22.05865499029638 0 0 0
691 1 9.954266141518579 19.12612420836419 22.17767335731013 0 0 0
1480 1 11.69534566030074 21.228106286635086 22.858020787907876 0 0 0
192 1 15.249840895591472 17.85120382271665 22.044017360960456 0 0 0
328 1 20.113176929498426 9.551768826706112 20.93342903642876 0 0 0
523 1 19.434297078308308 20.25722173670286 22.891624901595048 0 0 0
53 1 23.038253260279475 0.0636481731106762 28.37617813110987 0 0 0
2225 1 3.0144316101961404 21.702115167026896 21.97926520580998 1 0 0
1316 1 6.069532010336681 22.01151649780347 21.667876395878285 0 0 0