LAMMPS data file via write_data, version 29 Oct 2020, timestep = 100000

6344 atoms
2 atom types

0.0 49.22 xlo xhi
0.0 49.019635930410494 ylo yhi
0.9357407094982229 59.1262592905032 zlo zhi

Masses

1 18.015
2 12.01

Atoms # atomic

3515 1 22.169735772962326 2.3202507271034287 13.183173501405175 0 0 0
2057 1 21.95667893727749 23.83714538450193 20.073113773226027 0 0 0
248 1 10.678018713495607 0.8122273453329484 11.713670522169355 0 1 0
137 1 4.033297953318364 2.4710334011847634 3.6058216526636326 1 1 1
4963 1 9.496917144873875 6.369864263857824 6.81777166681166 1 1 0
6061 1 17.10630782983096 23.28023295140318 1.6703944305844032 0 0 0
1708 1 23.806839133936865 23.73767040406547 11.651582311696668 0 0 0
44 1 9.643690969595102 2.0308547272813797 5.086444097164021 0 0 0
93 1 15.18343331064311 1.2687990527319286 2.992934048961163 1 0 1
244 1 12.923536398116761 23.863587934762602 13.654691880295653 1 0 0
245 1 1.5847636168819434 13.71146579211289 15.357821203689959 1 0 1
30 1 14.410245844281521 3.3463330249254195 4.438956740258446 0 1 1
4754 1 0.7964695253288424 11.480723585857085 5.67081828440421 1 0 1
157 1 21.51410375726176 1.7132401918227855 5.524802005091579 0 1 0
4482 1 0.318177151559669 0.5973508168169609 9.063539819350325 1 0 1
1850 1 24.3407555379662 1.1495110670030464 0.943240730586444 0 1 0
1531 1 15.321036118603805 17.42841553329058 1.0343509712867305 0 0 1
280 1 10.590365163035884 19.92240834787469 18.975211270258868 0 0 0
4947 1 2.238538192298358 22.964203170786504 7.09247340394035 1 0 0
3338 1 4.288837180320985 6.05908524533497 6.196508567936894 1 1 0
1580 1 2.6324686318976096 6.75602607413147 2.7084138601120316 0 0 1
4619 1 4.722430206305262 5.437072879056152 3.6006207235636527 1 0 1
155 1 6.9950044606060455 2.708031644468211 4.030222669365172 0 0 0
3650 1 4.510637967876701 4.524649746296708 19.60894517503918 1 0 0
1555 1 7.348316426167736 7.128455485483008 2.6287695861451015 0 0 0
89 1 10.034188016101217 7.161156978299851 1.8778875326209148 0 0 1
5 1 5.042777518579015 10.729883545762059 4.083694380495271 0 0 0
3237 1 7.8190830226519985 9.663426486718723 3.6720196517146113 1 0 1
96 1 11.341328666625346 6.632226244235726 4.437223743851341 1 0 0
1450 1 13.610247958302425 8.08055629554358 4.981138696788675 0 0 1
1663 1 14.573870789080582 9.307949891412262 2.3751738307087784 1 1 0
1566 1 17.364239761535327 9.08891880622003 2.1384264283701637 0 0 1
82 1 17.57125063545972 6.429006140838868 3.052191201159235 0 0 1
141 1 15.407611118939357 6.025363908628333 4.904264061231752 1 0 0
1476 1 18.537251781057446 9.101630695994709 4.786927496144299 0 0 1
1446 1 20.280833005186707 5.886018407111447 3.670747662908017 1 0 1
1383 1 22.265491439801153 7.693207207037228 3.0341679088533664 0 0 1
268 1 23.44779584461495 16.532762117795954 19.696306103388714 0 0 0
98 1 3.2983509532869655 14.689056351054669 3.5082809856274797 0 0 1
1553 1 5.386045933497699 12.885606167896908 2.675873394638562 0 0 1
1434 1 2.9072562534853144 9.435818821670459 2.8255578943631545 0 1 1
158 1 23.837395697121014 6.867310833066029 18.234667769351528 0 0 0
346 1 10.571433630507912 20.717960039167195 1.3076988378630898 0 0 0
3552 1 8.085393730300385 13.888294648974266 3.189004840354802 1 0 0
1410 1 9.43846682128041 11.473215483167225 2.477550329239369 0 0 1
381 1 11.797571388160923 11.979578762799328 4.14131580168222 0 0 1
1550 1 13.554288004840197 11.840818145931552 1.8529459964806414 0 0 0
102 1 3.3030744218021804 1.0506774407921051 12.797726380714437 0 0 1
340 1 15.517723691560603 12.943717911209399 3.7747907071233104 0 0 1
3187 1 18.04080450437389 14.358061913589552 2.545247898891901 1 0 0
238 1 21.000279887228317 14.84389367966251 5.072506791799636 1 0 0
1712 1 2.1309268939184176 1.6022384759240522 7.396526425577245 0 1 0
1424 1 20.653574753395937 12.987814168027137 3.163788246541798 1 0 1
1591 1 20.774440921213543 10.072645147844177 3.849082495531288 0 0 1
1997 1 7.570561430709333 24.41479207359662 19.473362191535866 0 0 0
3249 1 0.2649721218444839 8.423625360440877 11.192218850632912 1 0 1
107 1 3.3096556544147924 17.258345630740802 4.032951237250106 1 0 1
4805 1 2.9840525865357708 17.442166385090417 7.071937353464772 1 0 1
432 1 15.934518824737529 20.658858210226573 14.819339377744726 0 0 0
1985 1 11.109497235926675 0.37299794074926496 6.877148751027885 0 1 0
6119 1 6.356293017632011 14.737210134443462 5.2011623242845575 1 0 1
1544 1 5.197952480301087 17.511042891619624 1.7105236739851377 0 0 1
1481 1 7.601465632679811 14.392548898158523 8.110719204931469 0 0 1
3248 1 6.440668352269434 17.55753907237747 4.282020251651867 1 0 0
3362 1 22.661222499451995 17.297250190644164 1.2507144169127762 0 0 0
198 1 10.93791199505445 17.4138017110904 4.780819440200107 0 1 0
1619 1 13.51832623362802 18.37633461608609 3.9186271963725057 0 0 0
1900 1 15.639518092271327 16.382452019926586 3.9173561658353373 0 1 0
116 1 11.664543042027933 14.530718223498177 5.458350069447403 0 0 1
38 1 14.494312117763442 14.439516833369725 5.7647177568408114 0 0 1
3193 1 17.850383547988887 17.82590642197659 4.676926506217368 0 0 1
342 1 18.469810420126375 17.489646021222228 1.7398431091190574 0 0 0
4655 1 0.2887227036621045 10.125925912808984 3.34007594544666 1 0 1
4917 1 23.548711215214198 18.792462871444442 4.35041844076566 0 0 0
5035 1 18.15792368707528 19.044117008390348 19.829367945464778 0 0 0
4993 1 3.434363664451354 23.332855946515775 2.55725057512963 0 0 0
1937 1 11.832500892950392 22.1810633591379 17.790880972263107 0 0 0
4896 1 2.9047919560215627 20.188259247579914 2.873379553251737 1 0 0
144 1 9.018574081550481 19.156492192565523 4.2436095212725 0 0 0
5177 1 6.528060316333086 24.104858119697226 16.47851768070005 0 0 0
3027 1 7.9618708814842005 21.812814965107748 5.776042975593632 0 0 1
410 1 6.468548493843334 21.784901139546925 2.379642901741001 0 1 1
1761 1 13.78350574235584 21.112780731930965 3.4204597533005336 0 0 0
377 1 10.291440617824696 21.84347098118303 3.967749071780373 0 0 0
339 1 24.572812084297283 24.329633002792693 20.119642567398017 0 1 0
1411 1 5.882402290463761 23.65446286956773 8.62037304027694 1 0 1
6272 1 17.696797642610942 20.451836016673866 5.742731035993927 0 0 0
1697 1 16.332546992663378 21.649115381916378 3.91425431875236 1 0 1
418 1 15.39130047359923 15.544912399727902 19.177218144637447 0 0 0
4916 1 21.969348753890756 20.913663345946397 3.5580808549442007 0 0 0
303 1 20.320255493223947 21.142132953347918 5.6796574033480764 0 0 0
1368 1 7.993914905139605 22.81160645407334 9.979215946054781 0 0 1
6341 1 24.43346125961182 22.469983124630097 3.2138701847462774 0 0 1
8 1 0.5932954799981133 5.533322511553869 4.098235399685104 1 1 0
108 1 1.5119726281901265 6.108877125523909 6.491750709296875 1 0 1
1444 1 1.2323527189671957 4.396784634296641 8.428715239693041 0 0 1
1721 1 0.4428039720342894 4.608579804425449 11.216661546823337 0 1 0
1505 1 5.07239815414765 3.0169303488937604 6.371264467241064 0 1 1
163 1 7.149671298708197 4.109892515554698 8.779988074929438 1 0 0
1796 1 11.937345499812123 4.897765328160967 8.058439029349488 0 1 1
43 1 11.767896237577698 3.981037274232272 5.212342870577551 0 0 0
1751 1 1.4511136115069083 10.19640489137891 15.211386475010958 1 0 0
1717 1 13.264268145715098 1.432979712588022 8.2376822458709 0 1 0
3282 1 17.14233342710517 1.0043094325116209 10.192466385101225 0 0 1
1534 1 15.562865386701725 2.048564128956237 6.71603401895703 1 0 1
1797 1 17.394944099994124 3.6555496907576694 7.9858234929504475 0 0 1
3190 1 19.99079468325492 3.153131230530348 8.05769489968857 0 0 1
3278 1 21.902541339019344 0.9582104762751552 9.102591632023437 0 1 0
1283 1 23.971939876675833 8.72254905236491 7.271076194459492 0 0 1
1513 1 4.537395595282752 4.584652165021741 11.73268755662629 1 0 0
4763 1 1.517235733397186 9.008010801348156 6.816613677616937 1 0 1
100 1 4.354383164083234 8.98382265081579 6.528728437999329 0 0 1
3301 1 4.314176470575293 4.91737049540263 8.862987071072961 1 0 0
3336 1 5.617531833382571 7.716546780730215 9.475174602971865 1 0 0
273 1 12.483142699907688 7.001775505022513 9.75412852927862 0 0 0
1582 1 10.314878951850075 9.093483229680468 9.194212432535467 0 0 0
1862 1 9.337285699454677 9.034856860089139 5.899385663194216 0 0 1
1530 1 14.709075661881645 10.152469854775925 6.9288487514809765 1 0 1
131 1 14.954778848355437 7.945662347450486 8.564505775135927 0 0 1
3359 1 16.897573877201864 6.317301579665482 7.148514026979559 0 0 0
221 1 19.62992721446744 6.982897084123519 6.809729767721823 0 0 1
389 1 21.12908579025445 5.2012695760327015 9.433795152693127 0 0 0
168 1 23.868273665563525 6.009797680124032 6.214726649859655 0 0 0
4652 1 21.516279020658132 4.808702144601883 6.088526133715681 0 0 1
3369 1 23.84975584203025 4.691232254175827 8.852271739733887 0 0 0
3506 1 20.891921887159253 0.19176024838938202 2.4702978888059155 0 0 0
4782 1 1.1324697294905983 10.110036880970705 9.250367924675412 1 0 0
1586 1 1.6163094198795291 13.963461249647388 1.4614200261256352 1 0 1
1510 1 13.679205650975888 4.2346721786715715 1.6634949493638191 0 0 1
165 1 4.372314970822098 10.796057898014727 8.82939655635381 0 0 0
119 1 6.771893827254474 12.236501229369678 9.627343443775013 0 0 0
18 1 7.622547930069497 9.442838567114935 8.520317731397821 1 0 0
532 1 11.195598606058214 12.036093215532896 8.235041573976904 0 0 0
211 1 11.853984158045533 10.455929452174606 6.086182149525637 0 0 1
150 1 16.16745459459444 11.114363357673868 9.649886161941055 0 0 0
1498 1 13.786203627287852 12.676147388738357 8.413163487719332 0 0 1
113 1 17.055124749143168 11.381834532469139 5.607463718357909 0 0 0
3558 1 17.131195535524302 8.551546932504824 10.639407121346071 0 1 0
1551 1 17.731909200831613 12.517486968578114 8.08949666738911 0 0 1
126 1 16.43348586794144 15.038033517138286 7.859782100499473 1 0 0
78 1 22.577992821417322 10.85210881039516 5.7897805346802045 0 0 0
79 1 20.573281761537025 12.779861636166434 8.88916296485652 0 0 1
4434 1 22.49068886296318 13.260137086127266 6.952651922443585 0 0 1
3553 1 23.162046024033117 0.40002169042457386 11.468346359149017 0 0 1
296 1 22.375553324068616 19.997216527725794 19.85594388647325 0 0 0
1535 1 12.437437900864152 18.01331701383137 1.311016809667924 0 0 1
42 1 4.860732833015511 12.733386194641307 6.4097976677980455 0 0 0
3447 1 1.3758595276596923 18.52581460558749 8.94570168621186 1 0 0
67 1 7.725463289388976 19.83926439522694 7.639499568620382 0 0 0
4856 1 6.46755383357188 17.245262134285078 9.370642533971324 1 0 1
118 1 10.331088505242231 14.843104650570249 7.9930830148952206 0 1 0
4997 1 10.16089942828314 18.582969886863456 7.284254247968073 1 0 0
430 1 14.45814877144705 19.904301176440157 10.783589633473023 0 0 0
1605 1 18.786098584564638 15.903639612578116 6.273323711404397 0 0 1
1813 1 20.345301720313216 17.57414780945796 8.274183010490889 0 0 0
1988 1 16.114635798415797 16.21502564750687 10.351036239096196 0 0 0
281 1 18.27528494691322 18.445932542247135 9.725884695370413 0 0 0
46 1 16.848181495343486 20.42137072241945 8.50418039749514 0 0 1
212 1 23.047588089068665 15.830562553354918 3.7138128678137536 0 0 0
154 1 22.298519477393313 17.005399961578526 10.756083738555738 0 0 0
129 1 23.60795614045429 20.57092303705508 8.763066891417377 0 0 0
2079 1 21.446145585518796 22.02284906054254 18.200402998640794 0 0 0
182 1 5.0518848661512195 19.523227591036882 6.427830492635904 0 0 0
1540 1 1.7236386794173963 20.581368167842232 10.763398014895978 1 0 0
138 1 8.531604047093133 15.942956880395569 20.016592565402824 1 0 0
431 1 5.859267159337217 23.733237863881232 5.796564678770564 0 0 0
1698 1 6.820454674634444 20.26134450403059 10.412770844738997 0 0 0
19 1 9.532136780046592 22.961354765083502 7.711792877815898 0 0 1
3194 1 4.253727597467113 21.774279930228573 5.088975195255135 0 0 0
3019 1 14.67517023486986 22.112674689352616 7.935610366535359 0 0 1
470 1 12.67688107600869 22.299822481764412 5.702559879910489 0 0 0
327 1 11.694015552947649 20.807119651929558 7.8939656696933715 0 1 0
3538 1 0.1173880643862152 3.5359855304533667 15.089329273383582 1 1 0
3530 1 21.529561449804685 22.357496290557613 9.795796658653652 0 0 1
1887 1 18.603437430716845 22.77278067778175 9.133314456118018 0 0 0
302 1 19.23144215010538 20.3170519376225 17.579438255565876 0 0 0
1752 1 15.939790180212238 23.95476279353188 5.5351793497524255 0 0 0
463 1 6.735883175521002 9.895271275611657 19.881374998630683 1 0 0
4824 1 0.5884084672707698 18.949054510839563 1.685316919890258 1 0 1
121 1 22.05141367474822 19.239324696926687 6.901813324636285 0 0 1
4420 1 8.404250968772278 18.281870127350707 1.6702941826628321 0 0 0
3695 1 2.3074687077196328 3.617527544992701 13.334422450387486 1 0 0
2 1 3.672172427302849 3.6224856636375207 15.881116228470152 1 0 1
447 1 6.913542009160439 3.0225967495292747 11.521198932414837 0 0 0
4819 1 7.493088069199239 3.1819464924766865 14.354696724941487 1 0 0
3125 1 10.096542351404668 4.636087825714335 11.67058304776758 0 1 1
3454 1 14.346465584522823 22.446977122567716 19.102712152150826 1 0 0
3319 1 12.008902650729913 3.20133695617053 10.57492689449348 0 0 0
156 1 14.055690015991646 3.855188649088822 12.397487067867239 1 0 0
87 1 14.019960117108841 2.538212474515893 14.58959722522899 0 0 1
288 1 6.762345619945176 19.403968808871852 15.524167140924678 0 0 0
2884 1 16.38151278433265 3.602986040410047 10.94655752126189 0 0 1
196 1 19.552580957107377 1.6242173704538865 13.77852419293809 0 0 0
208 1 17.931675335523323 4.682196687781825 15.394453797121283 0 1 0
1799 1 24.12905890263021 12.598576804405385 13.31489713339873 0 1 0
3647 1 24.45448673697165 7.843866129374594 11.962388476846233 -1 1 0
5204 1 9.015390918165123 2.9789379687259063 19.378403852831994 0 0 0
201 1 21.55730611118199 4.692100984730629 12.142957255118787 0 0 0
1881 1 16.88395539258816 23.833947252011367 11.218441165687622 0 0 0
3573 1 1.7949275447983384 7.552391565628791 15.467681806133337 0 0 0
4764 1 5.253357483865138 7.269540344840511 12.673104022156014 1 0 1
1669 1 6.998017076429057 5.489949559237176 16.162530215479805 0 1 1
258 1 4.442441623993866 6.760020115458996 15.408603878443628 0 1 0
295 1 5.239141837366632 9.876355880556485 12.060029804577304 0 0 0
3392 1 2.035576295955205 6.799367336657774 12.277301837477557 1 0 0
172 1 8.582479336058189 6.5143893452279045 9.541683848788642 0 0 0
3541 1 8.128077686043955 7.095580335947062 12.578184414524616 1 0 1
55 1 11.537613487234864 8.369585181678161 15.76759757733028 1 0 0
1674 1 11.18666405821282 6.160165273706293 13.803536428581836 1 1 1
337 1 13.661219803570523 6.474493596690443 12.27950293053169 0 0 0
83 1 16.56397998220236 7.3619746013336895 12.861563912909887 1 0 0
4845 1 19.726858184602307 7.693141666501859 9.770144582291898 0 0 0
352 1 19.498405724494145 6.729008500193912 12.583357427565646 0 1 0
3540 1 18.530941918159456 3.90597961397747 12.909056345702755 0 0 0
2124 1 20.37848600404887 8.648266999949517 14.45171476255007 1 1 0
66 1 21.099988990993932 4.187852820672776 1.5327244589825453 0 1 0
3225 1 22.6854081204459 6.7208821260412455 14.021062847729869 0 0 1
5323 1 2.4656075751348765 12.737202132758942 9.656816086638637 1 1 0
316 1 3.743939845460662 11.519794696227805 14.03695027166987 0 0 0
394 1 8.090220032308844 10.392930681433961 11.61424578907597 0 1 0
3429 1 7.474790450135777 11.936960386901687 13.940822258142088 1 0 0
423 1 6.402633336090948 14.682491958120377 13.299236370256349 0 0 0
1506 1 9.921950647236134 12.569065383823373 15.195436510843006 1 1 1
1594 1 15.300492722234496 13.64035768817671 10.844778454334955 0 0 1
263 1 11.632679214502772 10.606336658350145 14.156302669333034 0 1 0
124 1 10.798344034693073 11.360394773735033 11.129518934270811 0 0 0
103 1 12.653647859834278 13.558627701067213 12.02680112497824 0 0 0
186 1 15.14491006920578 15.271474357790622 15.543234342922625 0 0 1
294 1 14.01418785148153 12.55562978366913 14.151365761632501 1 0 0
1824 1 17.818391467597333 11.188564534928396 12.238969141654236 0 0 0
1999 1 16.880283855712577 13.32565964747992 13.39164013459998 0 0 0
3523 1 21.34415959227903 12.8379907414652 13.934652876584476 0 0 1
104 1 21.082932980535322 14.453123549122289 11.184742050457173 0 0 0
3355 1 23.7325717034127 9.422902118791956 9.724400231411437 0 0 0
305 1 24.34934250946797 14.58813737605944 11.094745031675952 0 0 0
286 1 17.353450914796653 22.194477280054933 16.446615170939346 0 0 0
289 1 20.375940746139324 10.621261517321733 12.652911722892421 0 0 0
4835 1 21.043358260008237 10.165164503162458 9.986839880194236 0 0 0
4899 1 7.19908772374265 1.923058131032404 1.2753737564105776 0 1 1
3250 1 0.3443213740615115 16.119968303910706 10.205624335600524 1 0 0
3408 1 4.500786481545961 15.307175398102016 8.187093443637025 1 0 1
1870 1 2.041088637980365 12.918913604535994 12.493238700207494 0 0 0
3699 1 2.4356906607006295 15.748553434447102 12.26489257437565 1 0 0
3594 1 4.915018506562401 14.315673866103747 10.776062585238202 1 0 0
209 1 4.6378675796317355 13.96470891802827 15.554712929700667 1 0 0
1303 1 4.473980397433292 17.76973906452146 11.740693192191282 0 0 1
265 1 8.651029951723576 17.39412539309986 10.983128924883067 0 0 0
135 1 8.9888689208624 15.831367219758077 13.131575003470184 0 0 0
220 1 9.203262907231895 18.508964350709967 13.969930059241536 0 0 0
259 1 11.132330350978222 14.871911639250197 13.98194623705716 1 1 0
120 1 11.749673212477655 20.769588621559233 10.663784193309802 0 0 0
267 1 13.687501715569496 17.284948541996606 11.113938788073574 0 0 0
171 1 11.108566310969016 16.86213375890696 9.465749229227573 0 0 0
54 1 13.17490042403125 16.660061956494978 13.608894361854317 0 0 0
292 1 18.26829798186614 15.270668736138575 12.025671236873684 0 0 1
1995 1 17.93187983737839 17.200910655391418 14.151281699506566 0 0 0
343 1 18.744670746809994 19.65483141722763 12.213552899748855 0 0 0
277 1 20.758175006959828 14.729691131922127 16.133071998375605 0 1 0
291 1 22.186180206437463 18.66941591565006 13.038229824160116 0 0 0
3495 1 3.4852909041397675 23.13394310733755 9.677830154017764 1 0 0
35 1 1.2881055869541833 19.398191078181966 13.432992919493973 0 0 1
3577 1 3.265253749231826 6.96668210329889 19.491841853069204 1 0 0
180 1 4.194656084214004 22.707603820746403 13.512987541037573 0 0 1
1975 1 1.694243170282096 21.775638707307106 14.784074539295252 0 1 0
5063 1 9.398956728265695 20.337763242211043 11.816655166921818 1 0 0
1745 1 8.954678772219983 22.710964349106597 13.728084330216008 0 0 0
1623 1 4.141013867687634 20.753570300620527 11.70400760270726 1 0 1
380 1 6.495246295917754 21.91222442429272 14.619890608141507 1 0 1
386 1 22.81012013039216 2.332387419726345 3.008534938542787 0 0 0
1631 1 10.500811275046633 24.027858142688032 15.647345475506809 0 0 1
246 1 12.474654011817165 23.44313395988051 11.054251337977163 0 0 0
1634 1 0.3881885836537001 17.694915703255646 3.9192604855777273 1 0 0
438 1 18.54798209412975 24.366967695234592 15.15726229377989 0 0 0
3604 1 16.552926547462548 21.180165829306556 12.165658700473601 0 1 0
2092 1 23.34623045568097 2.5661171824426297 19.955759534377968 0 0 0
5046 1 2.2209422292099448 13.729311841594077 5.990472453850641 1 0 0
5006 1 20.97663445191339 21.20365748771145 12.277266090079058 0 0 0
5224 1 20.907123179269536 22.750462067761056 14.341480619070717 0 0 0
1465 1 7.433148323304718 5.412564468746392 5.266954385142953 0 0 1
5150 1 2.050612054515382 0.7897080132306648 19.2194653689911 1 1 0
3418 1 24.062823166553212 2.853128131783227 15.491917721017957 0 0 0
3364 1 2.314192580388268 3.4097884123894824 18.349067000888574 1 0 0
1898 1 23.04435020819317 22.592319495444148 16.202325832334534 0 0 0
1935 1 9.58984193609032 2.1808028940164945 15.682905405405663 1 1 0
95 1 5.385653118497862 1.5759950166246566 15.994077754815484 1 0 0
1405 1 24.090681466022275 13.232324737087676 2.8035324669410864 0 0 1
552 1 8.496631284203394 0.7921157305146899 17.972541582120197 0 1 0
1912 1 13.347957663058812 1.741180942499262 19.478418546978652 0 1 0
1907 1 11.582741822217589 3.827529924148924 15.99845640557623 0 0 0
3041 1 15.397426167829302 4.0102596899541245 16.53621311097275 0 1 0
1860 1 24.390088108006182 12.171816409239765 19.290076041322227 0 1 1
161 1 19.766822717590763 1.0325588173500726 16.552758133299236 0 0 1
5000 1 15.80766587599947 1.6110416800341774 17.92168250841564 0 1 0
3357 1 18.55429629961174 3.219344056435761 17.847534106903506 0 0 1
203 1 20.042428280385693 5.368241815895326 19.512797279863882 0 0 1
1509 1 10.496678334921311 0.6974175019554313 1.1898064902099015 0 0 1
6319 1 22.48507195673399 1.0277662697116852 17.763230995060315 0 0 0
1713 1 1.7585138378409952 0.8947064504125402 4.780283364717596 1 1 0
5039 1 6.098827817435098 0.34440299895413695 11.986978675180433 1 0 0
3596 1 24.23368891692639 20.84783028136362 11.88316343936961 0 0 0
3517 1 7.309213043951937 5.042918141411575 18.96897178704873 1 0 0
4913 1 8.65095845049808 7.70410297403873 15.319446101156043 1 1 0
448 1 10.64239020311528 8.157746216596768 18.546308536774852 0 0 0
4990 1 8.330204257950843 7.585855375236722 19.594394967784435 1 1 0
1816 1 15.229174509018906 6.617706797890069 17.892467214321027 0 1 0
341 1 20.093574156075086 18.765785619128685 15.405670793796013 0 0 0
275 1 12.559564346055529 6.577111508638952 19.368261579760134 1 0 0
71 1 14.109773642828198 9.022107489320979 16.43709037721147 0 0 1
260 1 16.50633684354736 9.507530296271433 14.76888099624749 0 1 0
1966 1 18.272357988865373 7.565471714506092 15.958894037406214 1 1 0
3556 1 18.58369896760299 10.019483372450509 19.61529946196103 0 0 0
195 1 17.767292346669816 7.35898729737008 18.971112818698394 0 1 0
414 1 20.50701082224763 9.426656226594021 17.38899632432503 0 0 0
1917 1 22.718959024612076 5.14243425129393 19.97938688140501 1 0 0
3389 1 22.92423641221574 9.685489651599475 18.62073267845506 0 0 0
2119 1 7.930900270871008 1.8296101138575978 7.728766612563931 0 1 0
125 1 24.149042930279325 5.392587725320732 15.879647442426219 0 1 0
5052 1 2.1227171151773567 13.6655063128715 19.60937267490748 1 0 0
193 1 1.5791328970951881 10.74144824780346 19.584265637943744 0 1 0
132 1 4.405542382238883 9.515472170199972 18.887496098915477 0 0 1
3616 1 4.709475178508991 9.510480295611817 16.160621885302785 1 0 0
3527 1 7.016444764539848 13.533304596899672 19.750405936761197 1 0 0
1617 1 7.292822111175635 9.990378936894645 16.010876379015585 1 0 0
3431 1 8.471220380905033 11.509075526254609 18.312101124027347 0 0 0
3 1 11.341086636565969 10.653993973037913 19.561935200720235 0 1 0
215 1 13.53811517042122 13.034161593694664 16.93594505236769 1 0 0
85 1 10.94201317321364 13.021430943098203 17.618013571651627 1 0 0
283 1 16.17867083541301 12.952469252127452 18.45123468491645 0 0 0
3603 1 17.632540344873377 12.243529283486016 16.100843502127056 0 0 0
250 1 14.943060727673451 0.01314940594041758 13.916294123299478 1 0 0
356 1 19.978002844825895 12.131967522294266 17.69419598992094 0 1 0
3296 1 0.7284433708463988 7.267073253349117 18.183973930147726 0 0 1
1371 1 20.704498953302036 19.27302180826602 1.606091509439278 0 0 1
311 1 9.173169090374577 23.820310121396787 2.406005092190231 0 0 0
474 1 13.202512775092062 21.365076389688106 15.324625899548938 0 0 0
106 1 23.13741358400073 14.282648645829248 17.987304389606432 0 1 0
1722 1 6.61674934754675 17.9616594022112 19.55541814733386 0 0 0
217 1 2.21941622819021 16.654482403949263 14.923900968562963 0 0 0
353 1 4.501795123980707 14.206244641896975 18.293173864360604 0 0 0
424 1 4.221891275256413 17.016492312043997 18.743460484214033 1 1 0
1578 1 14.136504594303338 9.830831552108807 19.59485459891571 1 1 1
1401 1 0.412521632563124 13.796333531614767 8.390900684386924 0 0 1
314 1 11.003603799023514 15.709611631033479 18.77058503982286 0 0 0
460 1 11.783115486688478 18.793006987103446 14.773133581971306 0 0 0
306 1 12.004532384130268 17.9068436064651 17.59256481078968 1 0 0
190 1 14.885803578344603 18.085130096562796 17.982904663603442 0 1 0
319 1 23.56884914391689 0.2673916356921715 6.593783298539744 0 0 0
309 1 15.38781313985554 19.8907456650643 19.852606677554945 0 0 1
213 1 18.127398660836604 16.288598066004717 18.702532351237323 0 0 1
234 1 15.43888734585681 18.104330607914306 15.122337502784674 0 0 0
1968 1 18.109485501301457 15.33085317454774 16.103238946323742 0 -1 0
1809 1 21.893147231439073 17.366558138401054 16.665379270341383 0 0 0
3449 1 24.17585249620501 18.271222561199917 15.138733353648327 0 0 0
1673 1 21.053570885099525 17.714076122941215 19.543160043360707 0 0 0
2040 1 11.474009335191878 4.106005858646208 18.884591794824782 0 1 0
25 1 0.5546255147003823 20.010264774649148 18.186751289333458 1 0 1
3440 1 4.174511188626885 18.300418669062896 16.359424898635027 1 0 0
539 1 4.546655418310816 22.837088570173695 18.213411326525847 0 0 0
1689 1 3.038121320165469 20.900646127882503 16.899379591230492 0 0 0
3255 1 20.220373444438515 23.927009372644346 5.35115123054083 0 0 0
1904 1 6.565779027340187 21.846621860168007 19.70322302933894 1 0 0
3671 1 20.215013546218447 14.340030449394908 19.492446488705898 0 0 0
228 1 7.865542978435639 20.051283950061094 18.2784725342874 0 0 0
3016 1 10.05077419960537 23.7323125059536 19.16295584471491 0 0 1
5118 1 5.3830256129499245 0.3384560373375558 18.637951691248087 0 1 0
1504 1 0.17655533836323203 3.0115978603624063 3.657937822359326 1 0 0
122 1 1.628084388916801 18.01755557683055 19.70974732085693 0 0 1
6209 1 19.349391507861736 0.04501979584398441 6.107808980408824 0 0 1
3504 1 0.3222191463639431 21.51318054976772 20.22439839903218 1 0 0
5151 1 20.315202504083416 10.05275626726115 0.9591354603031021 0 1 0
2034 1 3.793430903821866 2.847015985016503 22.911600117718333 1 1 0
2909 1 23.909894574811744 3.1427106110624754 36.07861866488555 0 1 0
5017 1 1.4636479289307598 1.4546207394535644 23.08386121374521 1 1 0
318 1 9.032428671826244 3.1400871846143716 22.428434011475524 1 1 0
3655 1 12.07988134602879 16.908039433162998 39.55158914789976 1 1 0
5207 1 14.035350964837006 2.8464970704787103 21.93350219436344 0 0 0
317 1 11.782775725759876 3.9742792351033747 23.064114616610016 0 0 0
3584 1 19.081800726940564 3.2314784668629466 22.963474830859273 0 0 0
494 1 20.673508093916443 1.5070322709194157 21.54838708803308 0 0 0
3327 1 16.39035074280129 4.292017316683067 22.10516299334489 0 0 1
3490 1 23.67661207089957 2.131163089595163 22.7442468791313 0 1 0
3536 1 0.14395878896317874 6.1127781631755695 22.956524799682978 1 0 0
1959 1 4.764091238697084 5.221204296040594 22.260552163684846 0 1 0
3391 1 2.593183954106222 6.958306767241084 22.031350921101264 1 1 0
558 1 3.924946672381596 9.200309092462978 23.254217694229254 1 1 0
409 1 7.3912614546481405 5.130683223287038 22.856217368939376 1 0 0
147 1 8.941884243280537 7.296186365307396 22.218291876139663 1 0 0
5215 1 8.703155876088696 9.588206256422175 23.30469465603493 1 0 0
402 1 11.883481227060912 6.5582352749487 22.221203286783805 0 0 0
287 1 14.175099679019372 8.469106093827332 22.17620490975697 0 0 1
5111 1 18.185676780625354 7.907482014336161 23.470711564700405 0 1 0
3473 1 19.667632613563697 5.9153210014574515 22.389673986678027 0 0 0
200 1 16.559156210531885 7.026273601727363 21.470591648663582 0 1 0
4557 1 5.863269126707694 0.028719376319777723 37.710942025316925 1 1 0
328 1 22.24661989447249 6.320257575382912 22.497857280876335 0 0 0
3485 1 22.22796129542658 8.947500788173615 21.444577497329426 0 0 0
3323 1 1.7823800544586292 10.751782812183778 22.345813120569495 1 0 0
3597 1 1.603608927387276 13.896369863538801 22.445011018945316 1 0 0
3593 1 6.243902877517186 10.513981658875384 22.66629928573618 0 0 0
162 1 6.220433527583528 13.337628261544609 22.463809745352748 0 0 0
443 1 9.203021476760089 13.300019494080477 22.862288011022518 0 1 0
335 1 10.790995157112805 11.141181424406104 22.2319539932094 0 0 0
384 1 13.584841692244511 11.00580635267176 23.138871457213067 0 0 0
497 1 15.206714888478668 15.96479510945371 21.72566147048612 0 0 0
465 1 19.596727361718557 9.911685304041395 22.106626521224438 0 0 0
33 1 15.440554538410156 13.052582204222787 22.314301181183676 1 0 0
422 1 19.7712522295389 12.797423692013341 22.31097472959151 0 0 0
297 1 17.67206249087248 14.126916303058326 23.583181028804102 0 0 0
6008 1 2.3680116519510896 4.595742892677718 39.371700370166124 1 1 0
218 1 22.147466725943392 14.009309380799664 22.843390569925024 0 0 1
3484 1 23.729868662276292 10.47391819276946 23.372874395665733 0 0 0
551 1 4.062736505511263 14.94588780294209 23.258067986876384 1 0 0
177 1 3.8894195898157133 17.433112395545376 22.032261322121062 0 0 0
2076 1 9.256168868992763 18.63046389293573 22.938509641230386 0 0 0
338 1 10.145163121369475 16.13696322339724 22.463464459610442 0 1 0
1951 1 6.485684361292113 19.052328300092565 22.07448113956341 0 0 0
109 1 12.72583642391915 16.730829463240212 23.097581513889327 1 0 0
243 1 13.296902078529108 19.2024797271294 22.2038633390293 0 0 0
6248 1 4.038194165400733 1.833541513485114 37.30008777196977 1 1 0
179 1 18.06242577715318 16.665287696418062 22.49140451841118 0 0 0
1955 1 16.45345123834232 19.120136230686796 23.08368566833536 0 0 0
3633 1 20.40312777315197 19.23658120098183 23.711809482109864 0 0 0
383 1 21.143961236289204 16.839387219326134 22.329330387873657 0 0 0
1299 1 22.884888267601557 21.454174354124216 38.2872997725253 0 0 0
413 1 24.297801539945336 16.50384714868035 22.457735703917315 0 0 0
1753 1 1.7010940529114575 18.994810906027915 22.818728687056012 0 0 0
159 1 2.6138972878707727 21.60810431200699 22.205759480036697 0 0 0
2136 1 1.2236704816893984 13.348970286228427 38.281632982099 0 1 0
511 1 5.614268964804922 21.445869922389647 22.32396069742601 1 0 0
2033 1 13.697647496287827 23.278760426157373 21.594624496870665 0 0 0
360 1 11.110596308926272 20.304596581370244 21.560229204665205 1 0 0
2066 1 11.124797321525117 23.334033334373984 21.839050407162556 0 0 0
5147 1 14.597168903806052 21.31826570966168 23.35947694265926 0 -1 0
231 1 18.515406761808507 20.808035585978537 22.12547797702039 0 0 0
2015 1 18.58470510109272 23.679697740387876 22.702496308303264 0 -1 0
1871 1 22.483854133697722 20.867617659047212 22.569751246885183 0 0 0
3516 1 24.307222408639436 12.463809670237953 21.91237823640913 -1 0 0