
# Create simulation box and atoms

read_data data.graphite_substrate_500
  orthogonal box = (0 0 -0.518223) to (49.22 49.0196 60.5802)
  4 by 4 by 4 MPI processor grid
  reading atoms ...
  6750 atoms
  reading velocities ...
  6750 velocities
group water type 1
3990 atoms in group water
group graphite type 2
2760 atoms in group graphite

# Define potential

pair_style sw
pair_coeff * * mWC.sw mW C
Reading potential file mWC.sw with DATE: 2019-02-27


# Fix graphite atoms in place

fix 5 graphite setforce 0.0 0.0 0.0
velocity graphite set 0.0 0.0 0.0


# Equilibration of molecular water

# Add velocity/set timestep

velocity	    water create ${TEMP} ${SEED} rot yes dist gaussian
velocity	    water create 225 ${SEED} rot yes dist gaussian
velocity	    water create 225 9930 rot yes dist gaussian
timestep	    5.0

# Define output

compute			1 water msd
compute			3 water temp
thermo	    	50
thermo_style	custom step temp press vol etotal ke pe c_1[4] c_3

# Neighbor lists

neigh_modify    delay 0 every 1 check yes

# Set fixes

fix             1 water momentum 10 linear 1 1 1 rescale
fix             2 water nve
fix             3 water temp/csvr ${TEMP} ${TEMP} 500.0 ${SEED}
fix             3 water temp/csvr 225 ${TEMP} 500.0 ${SEED}
fix             3 water temp/csvr 225 225 500.0 ${SEED}
fix             3 water temp/csvr 225 225 500.0 9930
fix             4 water press/berendsen z ${PRES} ${PRES} 1000.0 modulus 20000
fix             4 water press/berendsen z -500 ${PRES} 1000.0 modulus 20000
fix             4 water press/berendsen z -500 -500 1000.0 modulus 20000

# Run 0.5 ns equilibration

dump		    1 all atom 2000 ${DIR}/eq.${NAME}-${TEMP}.dump
dump		    1 all atom 2000 run_17/eq.${NAME}-${TEMP}.dump
dump		    1 all atom 2000 run_17/eq.het_freeze_17-${TEMP}.dump
dump		    1 all atom 2000 run_17/eq.het_freeze_17-225.dump

reset_timestep  0

run	            100000
Neighbor list info ...
  update every 1 steps, delay 0 steps, check yes
  max neighbors/atom: 2000, page size: 100000
  master list distance cutoff = 7.76
  ghost atom cutoff = 7.76
  binsize = 3.88, bins = 13 13 16
  1 neighbor lists, perpetual/occasional/extra = 1 0 0
  (1) pair sw, perpetual
      attributes: full, newton on
      pair build: full/bin/atomonly
      stencil: full/bin/3d
      bin: standard
Per MPI rank memory allocation (min/avg/max) = 4.083 | 4.203 | 4.508 Mbytes
Step Temp Press Volume TotEng KinEng PotEng c_1[4] c_3 
       0    132.98637   -1273.0418    147415.06    -35990.25    2675.3515   -38665.602            0          225 
      50    170.80808   -1135.7224    146979.24   -36401.856    3436.2294   -39838.085   0.84978515    288.99066 
     100    165.53203   -1220.5405    146595.36   -36794.053    3330.0884   -40124.142     1.867196    280.06409 
     150    160.17865   -1416.7358    146146.99   -37111.224    3222.3919   -40333.616    2.6612143    271.00669 
     200    156.23842    -1245.196    145738.38   -37430.386    3143.1243   -40573.511    3.4074867     264.3402 
     250    155.73739   -1206.2375     145311.1   -37615.756    3133.0449   -40748.801    4.0688846    263.49251 
     300    150.59916   -970.11406    145047.64   -37828.572    3029.6766   -40858.249    4.6661402    254.79912 
     350    152.04153   -1087.5123    144781.26   -37974.492    3058.6935   -41033.186    5.3127573    257.23948 
     400    147.21231    -1234.502    144564.11   -38081.924    2961.5417   -41043.466    5.8438987     249.0689 
     450    142.11603   -1099.1697     144267.8   -38286.758    2859.0175   -41145.775    6.2837854    240.44651 
     500    143.18901    -1009.513    143944.37   -38446.121     2880.603   -41326.724    6.7862626    242.26188 
     550    142.43951   -872.79618    143812.86   -38548.747    2865.5249   -41414.272    7.2338016    240.99379 
     600    143.72086   -841.15161    143704.57    -38624.75    2891.3025   -41516.052    7.6092098    243.16171 
     650     142.0481   -987.45845     143502.4   -38692.515    2857.6507   -41550.166    7.9837606    240.33156 
     700    138.05834   -994.82849    143413.98   -38805.589    2777.3868   -41582.975    8.3331128    233.58128 
     750    138.17246   -817.67565    143337.43   -38851.877    2779.6826   -41631.559    8.6960826    233.77436 
     800    137.42182   -732.20745    143282.29   -38914.529    2764.5818   -41679.111    9.0250619    232.50436 
     850    137.59837   -947.44925       143172   -38951.506    2768.1334    -41719.64    9.4754053    232.80305 
     900    135.14007   -890.94492    143160.98   -39009.389    2718.6787   -41728.068    9.7233703    228.64386 
     950    137.92779   -765.45532     143171.9   -39053.691    2774.7605   -41828.451    9.9297395     233.3604 
    1000    134.56382   -790.67126    143179.44   -39137.133    2707.0858   -41844.219    10.317602    227.66889 
    1050    136.63943   -874.94308    143194.92   -39144.282     2748.842   -41893.124    10.621348    231.18063 
    1100    136.19291   -738.59933    143086.86   -39172.577     2739.859   -41912.436    10.931137    230.42515 
    1150     133.9943   -1095.9982     142993.3   -39206.782    2695.6286   -41902.411    11.183701    226.70532 
    1200    132.69736   -770.43503    142874.55   -39277.695    2669.5374   -41947.232    11.457538    224.51102 
    1250     135.5511   -823.33262    142830.26   -39307.013    2726.9474    -42033.96    11.785306    229.33927 
    1300    135.13537   -604.87142    142879.32    -39310.75     2718.584   -42029.334    11.945748     228.6359 
    1350     134.4924   -567.42039     142974.6   -39327.009    2705.6491   -42032.658    12.201017    227.54806 
    1400    135.42871   -792.54935    142980.07   -39317.159    2724.4853   -42041.644    12.556278     229.1322 
    1450    134.71667   -802.47243    143025.69   -39353.716    2710.1608   -42063.876    12.826303     227.9275 
    1500    134.04597   -621.18343    142950.76   -39359.093    2696.6681   -42055.761    13.040166    226.79275 
    1550    134.13939   -751.27018    142917.34   -39373.083    2698.5474    -42071.63    13.171713    226.95079 
    1600    133.51235   -720.03698     142859.7   -39377.154    2685.9329   -42063.087    13.419591     225.8899 
    1650    132.80731   -696.81201    142873.55   -39415.715    2671.7493   -42087.464    13.599743    224.69704 
    1700    132.26329   -869.44011    142751.18   -39398.559    2660.8049   -42059.364    13.918455    223.77662 
    1750    133.16034   -791.88715    142577.53   -39457.316    2678.8515   -42136.167    14.219939    225.29435 
    1800    131.69526   -586.71778    142577.16   -39493.012    2649.3777    -42142.39    14.431918    222.81557 
    1850    136.43639   -525.22451    142557.97   -39412.372    2744.7573   -42157.129     14.66857     230.8371 
    1900    134.32759   -790.69338    142607.84   -39382.688    2702.3336   -42085.021    14.852533    227.26922 
    1950     133.9314   -509.24228    142698.43   -39464.437    2694.3633   -42158.801     15.02741    226.59891 
    2000    131.33211    -764.9283    142713.34   -39494.821    2642.0721   -42136.893    15.208234    222.20116 
    2050    133.10322   -778.05015    142686.31   -39505.056    2677.7023   -42182.758    15.346756     225.1977 
    2100     129.7892    -613.4912    142609.12   -39525.924    2611.0325   -42136.956    15.558799     219.5907 
    2150    130.79267   -755.19355    142567.43   -39562.122    2631.2198   -42193.342    15.785989    221.28847 
    2200    132.55928   -469.01785    142536.51   -39598.171    2666.7595   -42264.931    16.059259     224.2774 
    2250    132.51969   -716.65708    142595.69    -39590.39    2665.9632   -42256.353    16.294346    224.21043 
    2300    130.73542   -642.54332    142602.83   -39607.382    2630.0682    -42237.45    16.433617    221.19162 
    2350    132.15227    -592.3679    142672.34   -39589.744    2658.5715   -42248.315    16.669049    223.58878 
    2400    133.25002   -557.58072    142735.45   -39571.228    2680.6555   -42251.884    16.769822    225.44607 
    2450     132.8604   -513.47647    142817.41   -39587.061    2672.8173   -42259.878    16.877037    224.78687 
    2500      132.249   -419.05942     142883.6   -39592.328    2660.5175   -42252.846    17.087588    223.75244 
    2550    131.08504   -470.43403    142902.86   -39617.425    2637.1016   -42254.527    17.247258    221.78314 
    2600    133.74636   -535.09565    142978.31   -39644.965    2690.6407   -42335.605    17.321117    226.28583 
    2650     131.2014   -591.73885    143007.59   -39683.325    2639.4424   -42322.767    17.434495       221.98 
    2700    131.10954   -518.44464    143052.61   -39660.521    2637.5944   -42298.115    17.704402    221.82458 
    2750    131.53966   -660.90622    143077.72   -39655.894    2646.2474   -42302.142     17.81595    222.55231 
    2800    135.50325   -669.20813     143076.6   -39612.726    2725.9849   -42338.711    18.013699    229.25832 
    2850    132.21383   -622.65994    143089.78   -39694.736      2659.81   -42354.546    18.300635    223.69294 
    2900    132.71226   -701.48589    143115.68   -39670.029    2669.8372   -42339.866    18.283174    224.53624 
    2950    132.33424   -493.43869       143183   -39693.165    2662.2324   -42355.398    18.366342    223.89667 
    3000    131.24058   -720.40334    143266.06    -39689.41    2640.2307    -42329.64    18.530032     222.0463 
    3050     129.2253   -644.96434    143201.59   -39669.779    2599.6883   -42269.467    18.804431    218.63664 
    3100     133.3514   -471.87169    143235.73   -39627.697     2682.695   -42310.392    19.161231    225.61759 
    3150    131.56005    -573.5114    143358.32   -39659.862    2646.6575    -42306.52    19.472119     222.5868 
    3200    130.51717   -601.87854    143361.42   -39630.448    2625.6775   -42256.125    19.544457    220.82236 
    3250    131.94768   -728.07232    143325.02   -39593.239    2654.4558   -42247.695    19.733963    223.24264 
    3300    132.12158   -684.65987    143349.52   -39573.679    2657.9542   -42231.633    19.955777    223.53687 
    3350    136.09895   -648.70384    143370.33   -39538.009    2737.9689   -42275.978    20.069545    230.26618 
    3400    132.76812   -755.90242    143410.09   -39585.697    2670.9609   -42256.658    20.306225    224.63074 
    3450    134.04296   -680.67618     143317.7    -39548.74    2696.6074   -42245.347    20.509007    226.78764 
    3500    133.96317   -786.58709    143351.04   -39566.405    2695.0024   -42261.407    20.707941    226.65266 
    3550    135.75885   -749.85635    143362.94   -39505.095    2731.1269   -42236.221    20.898935    229.69077 
    3600    135.45384   -650.00924    143306.31   -39561.134    2724.9908   -42286.124    21.071739    229.17472 
    3650     131.6292   -728.35354    143264.93   -39581.049    2648.0487   -42229.097    21.280943     222.7038 
    3700    133.88706   -880.10557    143176.69   -39580.577    2693.4712   -42274.048    21.361446    226.52389 
    3750    132.73153   -653.08426    143169.13   -39587.856    2670.2248   -42258.081    21.600101    224.56883 
    3800    134.02133   -730.75054    143189.89   -39533.825    2696.1723   -42229.997    21.709806    226.75105 
    3850     135.3929   -868.30322    143195.61   -39558.341    2723.7649   -42282.105    21.905756    229.07161 
    3900    134.56362    -661.1884    143171.95   -39532.792    2707.0818   -42239.874    22.123453    227.66855 
    3950    134.12066   -752.69113    143204.35    -39547.68    2698.1707    -42245.85      22.2264    226.91912 
    4000    132.73371    -627.0268    143160.01   -39559.909    2670.2687   -42230.178    22.530808    224.57253 
    4050    134.37305   -694.45115    143202.07   -39527.629    2703.2481   -42230.878    22.643983    227.34613 
    4100    135.07224   -482.34542    143196.63   -39533.698    2717.3141   -42251.012    22.918635     228.5291 
    4150    133.72484   -538.54737    143263.63   -39539.998    2690.2077   -42230.205    23.009339    226.24942 
    4200    135.87631   -585.51693    143295.33   -39525.215      2733.49   -42258.705    23.228427    229.88951 
    4250    131.99326   -650.20984    143259.45   -39616.621    2655.3727   -42271.993    23.425567    223.31976 
    4300    134.70302   -770.24593     143244.9   -39622.452    2709.8863   -42332.338    23.625484    227.90441 
    4350    133.69808   -748.81749    143243.83   -39612.752    2689.6693   -42302.421    23.854593    226.20414 
    4400    133.07316   -812.97428    143186.42   -39598.863    2677.0975    -42275.96    24.051165    225.14684 
    4450    132.80352   -700.42342    143131.38   -39581.467    2671.6731    -42253.14    24.256119    224.69064 
    4500     131.8169   -819.78455    143086.23    -39577.67    2651.8248   -42229.494     24.34831    223.02137 
    4550     131.5251   -885.07372    142982.06   -39613.641    2645.9545   -42259.596    24.442105    222.52768 
    4600     128.8293   -595.74797    142915.07   -39661.996    2591.7218   -42253.718    24.568726    217.96665 
    4650    130.61169   -542.26314    142913.75   -39640.082     2627.579   -42267.661    24.818905    220.98228 
    4700    135.77719   -526.05354    142981.79   -39588.733    2731.4959   -42320.229    25.012705     229.7218 
    4750    133.80884   -606.51388    143044.99   -39606.283    2691.8977   -42298.181    25.336699    226.39155 
    4800    132.96404   -640.61514    143098.33   -39611.483    2674.9024   -42286.385    25.467763    224.96223 
    4850    131.95558   -751.66909    143103.23   -39625.394    2654.6148   -42280.008    25.650786    223.25601 
    4900    134.49953   -866.62319    143038.32   -39579.701    2705.7925   -42285.494    25.845146    227.56012 
    4950    136.84659   -683.15239    142980.72   -39613.905    2753.0095   -42366.915    25.950532    231.53112 
    5000    132.94883   -625.22783    143000.48   -39626.276    2674.5964   -42300.873    26.152425    224.93649 
    5050    132.38883   -825.14125    142999.23   -39648.375    2663.3305   -42311.706    26.339034    223.98902 
    5100    133.11683   -622.33367    142939.33   -39642.144     2677.976    -42320.12    26.509853    225.22072 
    5150    132.66326   -701.53115     142873.2   -39702.512    2668.8515   -42371.364    26.695284    224.45334 
    5200     131.2189   -707.81611    142779.07    -39672.99    2639.7945   -42312.785    26.773365    222.00961 
    5250    133.03602   -836.07603    142795.27   -39660.247    2676.3504   -42336.597    26.954763      225.084 
    5300    134.61801   -792.98241    142807.26   -39659.826     2708.176   -42368.002    27.087605    227.76058 
    5350    131.76037   -633.77887    142802.39   -39631.901    2650.6875   -42282.588    27.225593    222.92572 
    5400    133.65253   -603.68635     142792.6   -39605.882     2688.753   -42294.635    27.438811    226.12708 
    5450    130.84919   -618.37994    142915.76   -39688.623    2632.3568    -42320.98    27.580272     221.3841 
    5500    133.74381   -687.33161    142935.03   -39702.882    2690.5893   -42393.471    27.811722    226.28151 
    5550    132.45271   -641.12936    142923.03   -39678.408    2664.6157   -42343.024     27.91592     224.0971 
    5600    131.91109   -834.72987    142833.49   -39656.015    2653.7196   -42309.734    28.167169    223.18073 
    5650    132.04046   -530.84146    142848.25   -39642.669    2656.3222   -42298.992     28.33793    223.39962 
    5700    133.88876   -454.61487    142911.55   -39568.812    2693.5054   -42262.317    28.431909    226.52676 
    5750    133.30443   -736.20269    143002.24    -39567.67    2681.7501    -42249.42    28.576148    225.53812 
    5800    132.09877   -423.98602    143009.81   -39593.167    2657.4954   -42250.662    28.712788    223.49828 
    5850    133.58101   -596.02209    142968.48   -39593.089    2687.3142   -42280.404    28.895871    226.00607 
    5900    131.93439   -702.09817    142961.96   -39590.121    2654.1883   -42244.309     29.05114    223.22015 
    5950    132.16903   -643.39539    142897.86   -39550.384    2658.9088   -42209.293    29.327222    223.61715 
    6000    133.29685   -409.73374    142925.07    -39627.24    2681.5977   -42308.837    29.353169    225.52531 
    6050    131.12632   -515.25128    142999.57   -39603.582     2637.932   -42241.514    29.552673    221.85298 
    6100    131.87095    -673.6044     142897.1   -39636.504    2652.9121   -42289.416    29.813936    223.11282 
    6150    133.62842   -670.74622    142892.42   -39615.248    2688.2679   -42303.516    30.065888    226.08628 
    6200    133.14085   -643.36862    142826.59   -39611.344    2678.4593   -42289.804    30.295025    225.26137 
    6250    130.83297   -624.64756     142853.4   -39636.436    2632.0306   -42268.467    30.417785    221.35666 
    6300    131.63273   -622.75028     142909.5   -39686.541    2648.1197   -42334.661     30.60849    222.70977 
    6350    131.82789   -798.63383    142883.83   -39663.055    2652.0458     -42315.1    30.770213    223.03996 
    6400    131.18835   -788.40575    142767.96    -39677.86    2639.1799    -42317.04    31.285061    221.95793 
    6450    131.24198    -452.0605    142832.44   -39673.455    2640.2588   -42313.714    31.604387    222.04866 
    6500    135.28421   -650.17783    142864.74   -39667.609    2721.5784   -42389.187     31.74106    228.88773 
    6550    132.21962   -491.08818    142854.78   -39690.933    2659.9265    -42350.86     31.88219    223.70274 
    6600    131.61053   -777.10527    142815.29   -39661.312     2647.673   -42308.986    32.073169    222.67221 
    6650    132.22762   -717.96469    142782.61   -39676.607    2660.0874   -42336.694    32.236352    223.71627 
    6700    131.84886   -608.52768    142778.35   -39612.757    2652.4677   -42265.225    32.335043    223.07545 
    6750    133.73625   -657.27856    142765.47   -39630.612    2690.4373   -42321.049     32.43953    226.26873 
    6800    132.17131   -713.06387     142782.1    -39651.85    2658.9546   -42310.804    32.497288      223.621 
    6850     130.4678   -499.93122    142828.29   -39654.373    2624.6842   -42279.058    32.481942    220.73882 
    6900    132.01041   -522.26106    142856.61   -39595.814    2655.7177   -42251.532    32.516494    223.34877 
    6950    132.88498   -908.29169    142849.17   -39639.256    2673.3118   -42312.568    32.605491    224.82846 
    7000    132.00786   -1028.4037    142848.83   -39662.757    2655.6664   -42318.424    32.778265    223.34446 
    7050    133.80234   -901.44784    142763.63   -39653.165    2691.7669   -42344.931    33.028143    226.38055 
    7100    131.21393   -808.84368    142740.64   -39652.472    2639.6946   -42292.167    33.131391    222.00121 
    7150    131.04466   -592.23387    142776.26   -39652.297    2636.2893   -42288.587    33.300822    221.71482 
    7200    131.15503   -549.74927    142818.06   -39702.656    2638.5096   -42341.166    33.411997    221.90155 
    7250    133.24147   -474.83079    142871.22    -39689.14    2680.4836   -42369.623    33.681717    225.43161 
    7300    134.33014   -748.56424     142935.7   -39639.391    2702.3848   -42341.776    33.929979    227.27353 
    7350    132.64916   -580.37196    142979.12   -39633.703    2668.5677    -42302.27    34.137551    224.42947 
    7400    131.68401   -609.84538    142998.56   -39629.746    2649.1514   -42278.898    34.333458    222.79654 
    7450    132.92947   -489.06127    143066.77   -39600.447    2674.2069   -42274.654    34.646599    224.90373 
    7500    134.24756   -611.68573    143130.97   -39634.176    2700.7235   -42334.899    34.716934    227.13381 
    7550    134.59301   -650.33244    143179.77   -39582.262    2707.6731   -42289.935    34.759441    227.71828 
    7600    133.71048   -863.64064    143233.78     -39614.8    2689.9188   -42304.719    34.835874    226.22512 
    7650    136.39132   -783.41501    143269.31    -39621.72    2743.8507   -42365.571    34.990031    230.76085 
    7700    135.01306   -788.19619    143223.86    -39575.91    2716.1235   -42292.034    35.218344    228.42897 
    7750    130.99566   -614.07426     143222.8    -39589.11    2635.3034   -42224.414    35.423093    221.63191 
    7800    134.87667   -666.36007    143265.56   -39598.952    2713.3797   -42312.332    35.755254    228.19821 
    7850    133.19809   -769.80254    143245.37   -39604.532    2679.6108   -42284.143    35.964057    225.35821 
    7900    134.57325   -761.11626    143249.04   -39581.882    2707.2757   -42289.158    36.029364    227.68486 
    7950    134.97564    -816.3718    143292.24   -39548.479    2715.3707   -42263.849    35.999296    228.36566 
    8000    134.27518   -723.27001    143246.76   -39498.857    2701.2792   -42200.136    36.205119    227.18055 
    8050    133.12615   -744.90413    143202.59   -39549.926    2678.1636   -42228.089    36.404182     225.2365 
    8100    132.53358   -535.74467    143187.29   -39524.125    2666.2425   -42190.368    36.547202    224.23392 
    8150    134.55883   -843.09764    143130.72   -39500.197    2706.9854   -42207.183    36.758361    227.66044 
    8200    133.91177   -635.36712    143109.53   -39506.593    2693.9684   -42200.562    36.884844     226.5657 
    8250    135.21564   -752.56243    143047.57   -39571.915    2720.1988   -42292.114    37.254527    228.77171 
    8300    132.39726   -676.19539    143044.84    -39589.73    2663.5001    -42253.23    37.508783    224.00328 
    8350    133.32641   -689.01755    143049.94   -39612.414    2682.1923   -42294.607    37.613314    225.57531 
    8400    132.58728   -682.41117    143076.61   -39644.223    2667.3229   -42311.546    37.756711    224.32478 
    8450    130.52017   -830.72703     142979.9   -39666.352    2625.7379    -42292.09    38.010437    220.82744 
    8500    133.26205   -659.71022    143011.74   -39639.789    2680.8975   -42320.687    38.286178    225.46642 
    8550    132.40605   -578.20536    143052.82   -39666.118    2663.6769   -42329.795    38.463185    224.01815 
    8600    130.81873   -687.97858    142967.26   -39695.573    2631.7442   -42327.317     38.69366    221.33257 
    8650    132.56795      -651.23    142933.52   -39663.848    2666.9341   -42330.782    38.802093    224.29208 
    8700    132.81553   -679.91537    143012.42   -39603.762    2671.9148   -42275.677    38.927116    224.71097 
    8750    134.82479   -628.52556    143113.86   -39573.525     2712.336   -42285.861    39.053828    228.11043 
    8800    133.19452   -857.49469    143137.49   -39678.524     2679.539   -42358.063    39.219215    225.35217 
    8850     132.5584   -649.69212    143181.52   -39666.994    2666.7418   -42333.736    39.405691    224.27591 
    8900     137.0567   -689.66019    143189.51   -39635.444    2757.2365    -42392.68    39.591047    231.88661 
    8950    132.64488   -530.69984    143154.81   -39615.632    2668.4816   -42284.114    39.678788    224.42223 
    9000    134.54678   -562.99019    143248.48   -39649.939    2706.7432   -42356.682    39.893257    227.64007 
    9050    133.92659   -826.60718    143266.42   -39635.565    2694.2665   -42329.831    40.180307    226.59077 
    9100    133.73315   -969.21284       143230   -39630.746    2690.3749    -42321.12    40.412435    226.26348 
    9150     133.7208    -812.3763    143108.82   -39680.776    2690.1265   -42370.902    40.752683    226.24259 
    9200    132.81528   -480.86248    143176.02   -39676.983    2671.9097   -42348.893    41.011219    224.71053 
    9250    132.94218   -581.11185    143214.61    -39652.35    2674.4627   -42326.812    41.101793    224.92525 
    9300    134.68073   -536.74738    143235.73   -39627.535    2709.4378   -42336.973    41.272317    227.86669 
    9350    133.68881    -565.8429    143263.48    -39643.91    2689.4829   -42333.393    41.326509    226.18846 
    9400    134.67003   -667.15747    143181.04   -39631.929    2709.2225   -42341.152     41.43833    227.84859 
    9450    133.08459   -597.22345    143180.21   -39652.836    2677.3276   -42330.164    41.659676    225.16619 
    9500    132.06387   -625.14765    143156.04   -39684.636    2656.7932    -42341.43     41.90394    223.43922 
    9550    132.48436   -521.17658    143230.26   -39693.526    2665.2525   -42358.779    42.178402    224.15066 
    9600    135.11919   -704.65826    143331.94   -39658.638    2718.2585   -42376.897    42.271228    228.60852 
    9650    132.33891   -620.93629    143322.02   -39728.455    2662.3263   -42390.781    42.533307    223.90456 
    9700     131.1639   -630.24536    143361.76    -39709.85    2638.6881   -42348.538    42.733398    221.91657 
    9750     131.1294   -820.45405    143297.35   -39719.123     2637.994   -42357.117    42.915813    221.85819 
    9800    134.00104   -620.01097    143288.94   -39698.795    2695.7641   -42394.559     42.96899    226.71672 
    9850    131.32713   -549.58508    143313.66   -39728.203    2641.9718   -42370.175    43.049614    222.19272 
    9900    133.17718   -705.24827    143297.74   -39740.145    2679.1902   -42419.335     43.16321    225.32284 
    9950    131.54626   -845.42512     143281.7   -39730.726    2646.3801   -42377.107    43.269219    222.56347 
   10000     130.4878   -887.68072     143263.6     -39758.5    2625.0867   -42383.587    43.633609    220.77267 
   10050    132.90905   -652.43022    143220.99   -39668.447     2673.796   -42342.243    43.653315    224.86918 
   10100    130.29959   -710.17708       143233   -39656.506    2621.3002   -42277.806    43.722439    220.45423 
   10150    137.48425   -613.70162    143230.97   -39644.308    2765.8376   -42410.145    44.045219    232.60998 
   10200    133.00716   -467.15197    143296.75   -39651.349    2675.7699   -42327.119    44.217177    225.03518 
   10250    132.73349   -641.20809    143374.68   -39606.193    2670.2644   -42276.457    44.197744    224.57216 
   10300    130.41432   -532.04542    143427.76   -39634.171    2623.6084    -42257.78    44.308892    220.64835 
   10350    135.17463   -633.39159    143399.63   -39593.836    2719.3739    -42313.21    44.488365    228.70233 
   10400    136.02527   -847.74408    143493.38   -39586.904    2736.4866   -42323.391    44.593913    230.14153 
   10450    135.82848    -601.4433    143454.85   -39544.446    2732.5276   -42276.973    44.593036    229.80857 
   10500    132.59802   -746.91039    143451.56   -39602.168    2667.5389   -42269.707    44.829492    224.34295 
   10550    133.25779   -743.28896    143558.56   -39596.597    2680.8118   -42277.408    44.860894    225.45921 
   10600    132.15023   -534.18536    143639.83   -39588.348    2658.5305   -42246.878    44.980478    223.58533 
   10650    132.59726   -660.77498    143638.79    -39566.75    2667.5237   -42234.273    45.197834    224.34167 
   10700    133.27025   -842.59604    143585.06   -39611.358    2681.0626   -42292.421    45.509123     225.4803 
   10750    134.83237   -682.59219    143547.94   -39607.562    2712.4884    -42320.05    45.705292    228.12325 
   10800    134.16367   -647.65361    143532.26   -39565.726    2699.0358   -42264.762    45.963144    226.99187 
   10850    132.91082   -685.44521    143499.85   -39621.312    2673.8317   -42295.144    46.139812    224.87218 
   10900    132.51632   -700.53573    143433.59   -39595.152    2665.8954   -42261.048    46.344383    224.20472 
   10950    131.36624   -656.41635    143340.51   -39626.904    2642.7587   -42269.663    46.598626    222.25891 
   11000    131.91144   -732.53894    143290.31   -39646.816    2653.7266   -42300.543    46.801975    223.18132 
   11050    131.68651   -789.72796    143288.55   -39663.986    2649.2016   -42313.188    46.987801    222.80076 
   11100    135.12713    -885.2999     143246.9   -39682.295    2718.4182   -42400.713     47.28206    228.62195 
   11150    131.77488   -675.10966    143245.23   -39669.518    2650.9794   -42320.497    47.346431    222.95028 
   11200    132.49365   -690.32727    143243.82   -39689.167    2665.4393   -42354.606    47.561694    224.16637 
   11250    132.06666   -1036.9815    143142.85    -39706.66    2656.8494   -42363.509    47.591308    223.44395 
   11300    132.84511   -1024.7455    142981.07   -39693.929    2672.5097   -42366.439     47.65097      224.761 
   11350    132.09122   -825.81329    142918.43   -39702.447    2657.3433   -42359.791    47.953848    223.48549 
   11400    133.31873   -609.65389    142879.01   -39637.999    2682.0379   -42320.036    48.223925    225.56233 
   11450    133.87285   -592.86454    142954.93   -39613.107    2693.1854   -42306.293    48.490539    226.49984 
   11500    133.40205   -797.00662    142999.47   -39585.666     2683.714    -42269.38    48.583291    225.70329 
   11550    133.78061   -583.16386    142967.46   -39623.827    2691.3298   -42315.156    48.757918    226.34379 
   11600    133.72698   -782.22118    143012.76   -39616.514    2690.2508   -42306.765    49.103798    226.25305 
   11650    131.36363   -468.99609    142990.59   -39650.608    2642.7062   -42293.314    49.249838    222.25449 
   11700    133.30287   -576.43719    143044.03   -39673.467    2681.7187   -42355.186    49.231538    225.53549 
   11750    134.47281    -693.9754    143123.02   -39710.109     2705.255   -42415.364    49.277263    227.51491 
   11800    132.35052   -657.99826    143091.82   -39696.527    2662.5598   -42359.086    49.700582     223.9242 
   11850    131.65648   -682.21317    143144.47   -39719.342    2648.5976    -42367.94    49.943545    222.74996 
   11900    132.30914   -556.28048    143232.45   -39678.586    2661.7273   -42340.314    50.065694    223.85419 
   11950     131.9671   -604.53297    143303.88   -39645.602    2654.8463   -42300.448     50.25073    223.27549 
   12000    130.35731    -522.2915    143363.81   -39667.003    2622.4615   -42289.465    50.238624    220.55189 
   12050    132.90684   -734.34561    143375.61   -39615.935    2673.7516   -42289.687     50.36551    224.86544 
   12100    135.92419   -766.74519    143348.59   -39630.262    2734.4532   -42364.715    50.461086    229.97051 
   12150    135.07909   -635.25164    143335.54    -39624.32    2717.4519   -42341.772    50.691768    228.54069 
   12200    134.51018   -782.08584    143377.49   -39623.778    2706.0069   -42329.785    50.847822    227.57815 
   12250    135.44891   -780.88614    143305.42   -39671.902    2724.8916   -42396.793    51.021096    229.16638 
   12300    131.04284   -631.46299     143358.6   -39671.863    2636.2526   -42308.116    51.262746    221.71174 
   12350    133.85086   -828.91544    143353.03   -39668.502     2692.743   -42361.245    51.432728    226.46264 
   12400    134.76732   -768.99656    143344.18   -39605.394    2711.1798   -42316.574    51.649624     228.0132 
   12450    130.01964    -810.6086    143243.55   -39646.948    2615.6684   -42262.616    52.112487    219.98058 
   12500    133.02013   -704.27885    143133.56   -39638.726    2676.0307   -42314.757    52.260092    225.05712 
   12550     132.9872   -641.99994    143144.82   -39646.714    2675.3682   -42322.082    52.352173     225.0014 
   12600    133.26968   -595.97975     143079.5   -39636.273    2681.0511   -42317.324    52.524827    225.47934 
   12650    133.06967   -554.46909    143142.94   -39647.756    2677.0273   -42324.784    52.488488    225.14093 
   12700    131.10191   -721.04267     143088.1   -39682.104    2637.4409   -42319.545    52.703802    221.81168 
   12750    133.60312   -726.07007    143097.21   -39672.539     2687.759   -42360.298    52.868684    226.04348 
   12800    133.46962   -813.19982     143087.7   -39646.477    2685.0734    -42331.55    53.257171    225.81762 
   12850     135.1826    -675.1548    143129.25   -39597.667    2719.5342   -42317.201    53.545945    228.71581 
   12900    131.39519   -761.59509    143134.25   -39647.906    2643.3409   -42291.247    53.710481    222.30787 
   12950    134.47683   -661.73609    143091.87   -39646.093     2705.336   -42351.429    53.822039    227.52172 
   13000     131.4871   -661.26312    143052.59   -39693.891      2645.19    -42339.08    53.991916    222.46338 
   13050    132.15176   -813.96055    143087.46   -39700.663    2658.5614   -42359.224    54.389281    223.58793 
   13100    132.45699    -654.1104    143050.92   -39725.485    2664.7018   -42390.187     54.61179    224.10435 
   13150    133.30915    -686.3331    143053.71   -39693.893    2681.8451   -42375.738    54.878929    225.54612 
   13200     130.4026   -727.45615     143043.7   -39722.447    2623.3726    -42345.82    55.095299    220.62851 
   13250    131.04168   -573.72573    143010.69   -39747.635    2636.2293   -42383.864    55.283577    221.70978 
   13300    129.77159   -689.41572    142996.84   -39790.343    2610.6782   -42401.021    55.448303    219.56091 
   13350    130.71027   -534.99188    143028.06   -39800.454    2629.5622   -42430.016    55.648177    221.14907 
   13400    131.62085   -503.54145       143073   -39736.017    2647.8806   -42383.897    55.892863    222.68967 
   13450    134.15339   -466.32766    143161.06   -39674.048     2698.829   -42372.877    56.016157    226.97448 
   13500    132.52895   -345.12765    143201.32   -39657.493    2666.1495   -42323.642    56.223735     224.2261 
   13550    131.94836   -513.20624    143287.01   -39654.657    2654.4694   -42309.126    56.551535    223.24379 
   13600    133.46186   -609.02125    143355.65   -39607.247    2684.9172   -42292.164    56.567327    225.80448 
   13650    133.61797   -720.02217    143392.44   -39621.335    2688.0579   -42309.392    56.695341    226.06862 
   13700    136.38607   -714.32383    143465.55   -39561.963    2743.7449   -42305.708    56.775834    230.75196 
   13750    134.09151   -786.21392    143489.65   -39553.694    2697.5843   -42251.279    56.828361     226.8698 
   13800    131.34483   -765.27155    143438.14    -39576.27    2642.3278   -42218.597    57.062872    222.22267 
   13850    131.29008   -467.81397    143545.64    -39594.18    2641.2265   -42235.406    57.199553    222.13005 
   13900    135.85893   -812.73936    143567.72   -39536.769    2733.1402   -42269.909    57.432793    229.86009 
   13950    135.01078   -768.08144    143535.39   -39544.768    2716.0776   -42260.846    57.624133     228.4251 
   14000    136.28913   -732.92967    143509.14   -39544.005    2741.7947     -42285.8    57.832014    230.58794 
   14050    133.93141   -912.76545    143371.37   -39557.475    2694.3634   -42251.839    58.090154    226.59892 
   14100    132.06399    -741.3803    143343.57    -39522.59    2656.7956   -42179.385    58.356189    223.43943 
   14150    133.97472    -529.3033    143372.86   -39493.768    2695.2347   -42189.002    58.696065    226.67219 
   14200    133.68846   -778.89831    143385.03   -39523.604    2689.4759    -42213.08    58.911927    226.18787 
   14250    132.91483   -819.21413    143296.13   -39568.383    2673.9124   -42242.296      59.2201    224.87897 
   14300    133.49124   -819.99637    143250.22   -39627.623    2685.5084   -42313.131    59.624469     225.8542 
   14350    132.00344   -710.81815    143183.94    -39635.49    2655.5775   -42291.068    59.869719    223.33698 
   14400    131.87201   -765.58477    143244.28    -39645.36    2652.9335   -42298.294    59.850476    223.11462 
   14450    132.31095   -757.19718     143256.6   -39658.879    2661.7639   -42320.643    59.877527    223.85726 
   14500    132.55257   -682.08034     143235.6   -39632.895    2666.6246    -42299.52    59.896786    224.26606 
   14550    133.58536    -718.8932    143212.51   -39700.377    2687.4017   -42387.778    60.232331    226.01343 
   14600    130.98963   -644.89861    143284.96   -39699.846    2635.1821   -42335.028    60.376978    221.62171 
   14650    131.79682   -779.08784    143254.02   -39697.329    2651.4209    -42348.75    60.449165    222.98741 
   14700    130.12571   -665.62308     143306.8   -39727.287    2617.8022   -42345.089    60.773932    220.16004 
   14750    130.45219   -759.07737    143300.65   -39708.163    2624.3702   -42332.533    60.889533    220.71242 
   14800    131.75847   -601.84287    143325.29   -39734.622    2650.6493   -42385.271    61.144799    222.92251 
   14850    131.82998   -830.00279    143309.78   -39706.138    2652.0879   -42358.225    61.341573     223.0435 
   14900    133.33942   -544.43666    143326.23   -39673.051     2682.454   -42355.505    61.467619    225.59733 
   14950    132.45418   -724.63886    143443.02   -39678.175    2664.6452    -42342.82    61.485613    224.09959 
   15000    131.58951   -793.38696    143505.02   -39682.774    2647.2503   -42330.025    61.619756    222.63666 
   15050    134.85114   -665.13603    143563.49   -39680.505     2712.866   -42393.371    61.851634    228.15501 
   15100    131.99868    -566.0659    143617.26   -39650.336    2655.4816   -42305.818    61.873128    223.32892 
   15150    132.45948   -659.41679    143584.32   -39626.314    2664.7519   -42291.066    62.199786    224.10856 
   15200    133.11657   -611.75793    143536.46   -39631.214    2677.9708   -42309.185    62.242953    225.22028 
   15250    132.56959   -775.03064    143531.44   -39624.944    2666.9671   -42291.911    62.529308    224.29486 
   15300     135.4093   -687.38087    143452.48   -39646.967    2724.0949   -42371.062    62.626259    229.09937 
   15350    133.77657   -739.18308    143508.29   -39692.343    2691.2484   -42383.592    62.669401    226.33694 
   15400    133.60356   -601.50918    143445.39   -39714.934    2687.7679   -42402.702    62.544706    226.04423 
   15450    131.68989   -746.30842    143448.58   -39788.769    2649.2697   -42438.039    62.684211    222.80649 
   15500    131.30694   -809.19753    143367.87    -39791.59    2641.5657   -42433.156    62.954521    222.15858 
   15550    131.87473   -630.24848    143292.63   -39752.014    2652.9882   -42405.003    63.153369    223.11922 
   15600    131.73931   -629.91298    143274.89   -39739.875    2650.2638   -42390.139    63.227676     222.8901 
   15650    131.43641   -838.18289    143151.67   -39778.133    2644.1703   -42422.304     63.49909    222.37762 
   15700    133.29763   -521.95532    143076.31   -39772.176    2681.6133    -42453.79    63.800369    225.52662 
   15750    132.72076    -771.6696    143074.42   -39775.961    2670.0081   -42445.969    63.915143    224.55061 
   15800    135.06286   -582.30304    143099.42   -39699.132    2717.1254   -42416.257    64.010076    228.51323 
   15850    135.04317   -686.26789    143071.93   -39678.716    2716.7292   -42395.445    64.146074    228.47991 
   15900     133.4735   -582.38308    143070.37   -39663.065    2685.1515   -42348.216    64.366037    225.82418 
   15950    131.35764   -586.05694    143142.53   -39712.788    2642.5856   -42355.374    64.540547    222.24435 
   16000    134.67618   -504.99955    143232.49   -39657.545    2709.3462   -42366.891     64.70304    227.85899 
   16050    134.20393      -633.26     143229.9   -39704.993    2699.8457   -42404.839    64.801164    227.05999 
   16100    134.95699   -660.07652     143285.3   -39727.946    2714.9956   -42442.941    64.968512    228.33411 
   16150    132.37821   -582.83111     143194.3   -39804.576    2663.1169   -42467.693    65.239583    223.97105 
   16200    130.86931   -697.20665    143153.88   -39751.433    2632.7616   -42384.195    65.653766    221.41814 
   16250    131.69465   -684.18514    143170.77   -39762.302    2649.3654   -42411.667    65.664653    222.81454 
   16300     132.1618   -608.42551    143193.92   -39744.411    2658.7634   -42403.174    65.532463    223.60492 
   16350    130.88398   -506.71732    143161.51   -39738.004    2633.0569   -42371.061    65.656601    221.44297 
   16400    130.37656   -699.19639    143252.75   -39767.306    2622.8487   -42390.155    65.652444    220.58445 
   16450    128.09547   -732.17251    143195.85   -39813.896     2576.959   -42390.855    65.891231    216.72508 
   16500    133.27238    -442.8639    143174.81   -39773.158    2681.1053   -42454.264    65.924571     225.4839 
   16550    133.70161    -444.1508    143253.36   -39778.875    2689.7405   -42468.616    65.957667    226.21013 
   16600    133.78185     -546.169    143292.93   -39787.493    2691.3547   -42478.848    66.106729    226.34588 
   16650    130.56409   -404.73302    143294.21   -39786.189    2626.6214    -42412.81    66.205058    220.90174 
   16700    131.02414    -642.6898    143393.33    -39794.72    2635.8765   -42430.597     66.38394     221.6801 
   16750    132.90778   -753.21644    143422.19   -39761.781    2673.7706   -42435.552     66.69783    224.86704 
   16800    132.10817   -751.09876    143407.29   -39727.426    2657.6843    -42385.11    66.831149    223.51417 
   16850    132.32975   -691.49877    143449.54   -39697.857     2662.142   -42359.999    67.148278    223.88906 
   16900    133.91992   -482.04965    143513.37   -39689.078    2694.1323   -42383.211    67.262714    226.57948 
   16950    132.98006   -913.02752    143527.11   -39643.888    2675.2247   -42319.113    67.458309    224.98933 
   17000    133.69444   -613.37714    143519.79   -39571.693    2689.5961   -42261.289    67.742209    226.19798 
   17050    137.02265     -861.487    143563.21   -39573.612    2756.5515   -42330.164    68.051463      231.829 
   17100    131.24476   -711.75176     143576.1   -39633.992    2640.3147   -42274.307    68.148148    222.05337 
   17150    132.56515   -718.08507    143534.64   -39585.365    2666.8776   -42252.242    68.397469    224.28733 
   17200    132.71761   -752.21992     143496.4   -39560.693    2669.9449   -42230.638    68.568943    224.54529 
   17250    133.60012   -816.82035     143444.6   -39590.474    2687.6987   -42278.173    68.775432    226.03841 
   17300    137.99858   -703.52389    143363.67   -39612.448    2776.1846   -42388.633    68.981336    233.48017 
   17350    134.02147   -903.99037     143397.7   -39656.322    2696.1752   -42352.498    69.208694    226.75129 
   17400    130.97945    -820.8328    143359.89   -39677.235    2634.9775   -42312.213     69.37224     221.6045 
   17450    134.77626   -770.29989    143334.69   -39620.754    2711.3597   -42332.113    69.591327    228.02832 
   17500    134.89529   -685.60187    143276.87   -39602.034    2713.7542   -42315.788    69.909633    228.22971 
   17550    135.05672   -695.26536    143265.62   -39637.299    2717.0019   -42354.301    69.952787    228.50284 
   17600    136.93006   -750.85155    143212.57    -39572.74    2754.6887   -42327.428    70.262817    231.67235 
   17650    134.82056   -728.20907    143210.33   -39553.551    2712.2508   -42265.802    70.616754    228.10327 
   17700    136.28727   -822.04929    143166.43     -39561.9    2741.7575   -42303.657     70.63777    230.58481 
   17750    133.17908   -744.96982    143090.75   -39618.032    2679.2284    -42297.26    70.758846    225.32605 
   17800    133.00802   -534.45919    143163.65   -39627.003    2675.7871    -42302.79    70.761927    225.03663 
   17850    135.56162   -643.08062    143203.37   -39619.457    2727.1591   -42346.616    70.748327    229.35707 
   17900    133.06563   -841.77193    143209.51   -39624.634    2676.9461    -42301.58    70.815085    225.13411 
   17950    133.21372   -721.14312    143133.38   -39679.408    2679.9252   -42359.334    70.943407    225.38465 
   18000    133.09412   -752.08576    142980.84   -39673.604    2677.5191   -42351.123    71.097557     225.1823 
   18050    133.96206   -346.25819    143013.77   -39660.862    2694.9801   -42355.842     71.31507    226.65078 
   18100    134.46734   -774.31883    143143.15   -39659.455    2705.1449     -42364.6    71.642558    227.50565 
   18150    130.81685   -784.87292    143143.05   -39684.673    2631.7063    -42316.38    71.747027    221.32939 
   18200    132.92826   -747.01313     143136.3   -39703.437    2674.1826    -42377.62    72.022156    224.90169 
   18250    133.81295    -630.7956    143074.77   -39683.863    2691.9804   -42375.843    72.129926     226.3985 
   18300    131.89251   -701.77283    143085.47   -39668.472    2653.3459   -42321.818    72.324798     223.1493 
   18350    133.47848   -628.28593     143124.9   -39637.218    2685.2515    -42322.47     72.62032     225.8326 
   18400    130.92417    -831.8591    143153.73   -39677.654    2633.8653   -42311.519    72.839794    221.51096 
   18450    131.01141   -767.56172    143117.64   -39695.629    2635.6204   -42331.249    72.982559    221.65857 
   18500    131.30283   -737.22508    143040.53   -39690.434    2641.4829   -42331.917    73.177531    222.15161 
   18550    128.90499   -596.16059    142986.32   -39688.799    2593.2446   -42282.044    73.319492    218.09471 
   18600    132.14129   -710.87607    142946.63   -39694.185    2658.3506   -42352.535    73.412923     223.5702 
   18650    131.51834   -688.59019    142924.56   -39739.935    2645.8184   -42385.753    73.641203    222.51623 
   18700    132.54576   -793.06184    142930.28   -39738.004    2666.4876   -42404.492    73.923522    224.25454 
   18750    131.73525   -644.39395    142896.36   -39717.784    2650.1822   -42367.966    74.229111    222.88323 
   18800    133.70187   -635.95468    142834.77   -39712.139    2689.7456   -42401.884    74.215137    226.21056 
   18850    131.58968   -820.32043    142863.41   -39705.471    2647.2537   -42352.725    74.469711    222.63694 
   18900    130.24754   -695.98792    142848.77   -39696.154    2620.2533   -42316.407    74.575001    220.36617 
   18950     130.5214   -758.00462    142805.77   -39728.201    2625.7625   -42353.963     74.68261     220.8295 
   19000    130.00963   -650.18706    142762.59   -39707.028    2615.4671   -42322.495     74.82651    219.96365 
   19050    132.21492   -728.70324    142815.05   -39699.445    2659.8319   -42359.277     74.86295    223.69478 
   19100    131.69748   -638.74559    142882.51   -39694.298    2649.4222    -42343.72    74.947354    222.81932 
   19150    132.56764   -724.60249    142886.18   -39651.049    2666.9278   -42317.977    75.298064    224.29156 
   19200    132.18988   -527.89148    142899.21   -39681.898    2659.3281   -42341.226    75.806115    223.65241 
   19250    130.06793   -566.63705    142927.95   -39674.279      2616.64   -42290.919    75.977022    220.06229 
   19300    133.18239   -524.62038    143025.26   -39639.381     2679.295   -42318.676    76.134981    225.33165 
   19350    131.56055   -749.18184    143115.11   -39660.623    2646.6677   -42307.291    76.458687    222.58766 
   19400    132.83252    -634.7263     143170.9   -39602.834    2672.2564    -42275.09    76.675517     224.7397 
   19450    130.66433   -647.14155    143240.65   -39591.115     2628.638   -42219.753    76.814206    221.07134 
   19500    134.66884   -815.54086    143189.25   -39582.417    2709.1987   -42291.616      76.8311    227.84658 
   19550    133.94139   -828.29445    143146.09   -39614.146    2694.5642    -42308.71    76.937391     226.6158 
   19600     133.0245   -812.85479     143153.3    -39614.66    2676.1187   -42290.779    77.030853    225.06452 
   19650    133.19777   -852.44429    143105.36   -39576.966    2679.6044    -42256.57    76.995927    225.35767 
   19700    132.43196   -737.46474    143070.92    -39601.09    2664.1982   -42265.288    77.082407    224.06199 
   19750    130.65033   -791.84648    143121.55   -39600.869    2628.3562   -42229.225    77.229831    221.04764 
   19800    134.47614   -661.44609     143063.2   -39546.651    2705.3219   -42251.973    77.501779    227.52054 
   19850    133.39825   -929.86262    142938.47   -39576.508    2683.6376   -42260.146    77.551721    225.69687 
   19900    132.25366    -627.4826    142930.09    -39560.58    2660.6112   -42221.191    77.743264    223.76032 
   19950    132.05964   -676.83063    142909.22   -39553.857    2656.7081   -42210.565     78.00582    223.43207 
   20000    131.97091   -670.96891     142972.6    -39563.49    2654.9232   -42218.413    78.313544    223.28195 
   20050    132.12257   -667.36149    143028.03   -39599.101     2657.974   -42257.075    78.516188    223.53853 
   20100      129.724   -844.80284    143009.76   -39595.813    2609.7209   -42205.534    78.541227    219.48039 
   20150    130.81707   -617.88976    143026.59   -39575.728    2631.7106   -42207.439    78.824849    221.32975 
   20200    130.95748   -641.97876    143014.51   -39574.336    2634.5354   -42208.872    78.833885    221.56732 
   20250    132.62236   -759.75517    142973.82   -39506.966    2668.0286   -42174.994     79.09877    224.38414 
   20300    132.42693   -807.19441    142967.46   -39498.946     2664.097   -42163.043    79.438065    224.05348 
   20350    134.14405   -772.94895    142914.25   -39524.171    2698.6411   -42222.812    79.706627    226.95868 
   20400    131.52334   -633.59794    142851.86   -39495.119    2645.9192   -42141.038    80.060908     222.5247 
   20450    133.34423   -855.01313    142866.07   -39531.557    2682.5508   -42214.107    80.248533    225.60547 
   20500    135.41601   -761.63729    142885.65   -39499.295    2724.2298   -42223.525     80.53985    229.11072 
   20550    131.55429   -669.65405    142915.37   -39511.284    2646.5418   -42157.826    80.545543    222.57707 
   20600    132.26081   -658.70638    142924.29   -39539.299    2660.7551   -42200.055    80.370455    223.77243 
   20650    131.08203   -661.66062    142919.27   -39576.995     2637.041   -42214.036    80.464153    221.77804 
   20700    132.63766   -569.58136    142892.19   -39510.936    2668.3365   -42179.273    80.628816    224.41002 
   20750    132.78534   -746.56106    142849.65   -39543.584    2671.3073   -42214.891    80.785534    224.65988 
   20800    135.66258   -832.29518    142860.15   -39556.537    2729.1902   -42285.727    81.110081    229.52789 
   20850    134.29212   -744.62695    142815.86   -39524.884    2701.6199   -42226.504      81.3294     227.2092 
   20900     132.8977   -769.10138    142818.46     -39551.3    2673.5678   -42224.868    81.704759    224.84999 
   20950    135.19267   -843.37906     142821.2   -39597.325    2719.7369   -42317.061     81.79499    228.73286 
   21000    131.15457   -805.52802    142809.05   -39645.446    2638.5003   -42283.946    82.039129    221.90077 
   21050    131.20494   -627.87994    142746.86   -39654.437    2639.5137    -42293.95    82.310887      221.986 
   21100    133.07357   -902.45974    142747.82   -39594.571    2677.1058   -42271.676     82.49869    225.14754 
   21150    132.64682   -830.14818    142782.85   -39625.836    2668.5208   -42294.357    82.767372    224.42552 
   21200     131.2033    -714.0755    142757.48   -39668.407    2639.4807   -42307.888    82.518181    221.98322 
   21250    129.86489   -609.57605     142665.3   -39620.309    2612.5553   -42232.865    82.732951    219.71876 
   21300    135.84186   -524.44804    142646.99   -39521.962    2732.7969   -42254.759    82.930914    229.83122 
   21350    135.19734   -494.86477    142741.72   -39530.099    2719.8307    -42249.93    82.951338    228.74075 
   21400    135.03022   -464.97882    142742.72   -39548.464    2716.4687   -42264.933    83.079446    228.45799 
   21450    132.16699   -574.29838    142804.21   -39561.016    2658.8678   -42219.884    83.266792     223.6137 
   21500    131.59908   -734.36974    142804.64   -39588.401    2647.4428   -42235.844    83.425867    222.65285 
   21550    130.55657   -658.37782    142760.88   -39604.981    2626.4702   -42231.451    83.716814    220.88902 
   21600    133.48987   -647.89565    142725.83   -39610.053    2685.4807   -42295.533    84.009571    225.85187 
   21650    134.17496   -515.22251     142640.4   -39563.523     2699.263   -42262.786    84.255709    227.01098 
   21700    133.28785   -450.52784    142671.72    -39545.76    2681.4166   -42227.177    84.397888    225.51008 
   21750    136.30523   -245.36206    142756.39   -39505.419    2742.1187   -42247.537    84.790997    230.61519 
   21800    132.67423   -390.56114    142756.01   -39554.958    2669.0722    -42224.03    84.967374     224.4719 
   21850    134.77936   -414.32986    142837.84   -39558.552     2711.422   -42269.974    85.198687    228.03356 
   21900    134.10341   -588.08412    142849.79   -39550.489    2697.8237   -42248.313     85.50475    226.88993 
   21950    134.01029   -594.42913    142784.74   -39575.636    2695.9503   -42271.587     85.52096    226.73238 
   22000     132.6685   -605.14238    142728.33   -39537.415    2668.9567   -42206.372    85.625611    224.46219 
   22050    134.25759   -709.59416    142795.91   -39580.374    2700.9253   -42281.299    85.890602    227.15078 
   22100     134.3246    -677.9135    142858.24   -39534.359    2702.2733   -42236.632    86.174121    227.26415 
   22150    135.67838    -689.8804     142855.9   -39463.319     2729.508   -42192.827    86.382595    229.55462 
   22200    135.75397   -538.08576    142876.27   -39500.938    2731.0288   -42231.967     86.71682    229.68252 
   22250    133.97912   -908.12392    142896.49   -39561.879    2695.3233   -42257.202    86.931232    226.67965 
   22300    134.89494   -606.86687    142917.69   -39541.908    2713.7472   -42255.656     87.10038    228.22912 
   22350    134.47377    -420.5228    142992.42   -39476.391    2705.2743   -42181.665    87.268473    227.51654 
   22400    135.20051   -681.11388    143103.59   -39499.094    2719.8944   -42218.989    87.597816    228.74611 
   22450    134.73334   -842.98463    143075.47   -39496.486    2710.4961   -42206.983    87.931206     227.9557 
   22500     133.1492   -680.41189    143038.24   -39510.056    2678.6273   -42188.684    87.975271    225.27549 
   22550    131.15719    -844.9069    143018.97   -39553.728     2638.553   -42192.281    88.350392     221.9052 
   22600    134.93699   -602.30183    143020.23     -39529.4    2714.5931   -42243.993    88.487349    228.30026 
   22650    133.58614   -965.32251    143012.52   -39501.812    2687.4175   -42189.229    88.704288    226.01476 
   22700     135.2825   -806.21729    142899.91   -39494.002     2721.544   -42215.546    89.160934    228.88484 
   22750    133.49874   -978.75222    142782.01   -39522.285    2685.6592   -42207.944     89.76342    225.86688 
   22800    135.32291   -807.73691    142697.08   -39566.596    2722.3569   -42288.953    90.067228     228.9532 
   22850    133.60597   -740.37253    142752.22   -39546.391    2687.8163   -42234.207    90.440514     226.0483 
   22900    132.35027   -566.01998    142790.63   -39578.204    2662.5547   -42240.758    90.601557    223.92378 
   22950    133.87322   -721.96658    142724.76   -39558.922    2693.1927   -42252.114    90.460369    226.50046 
   23000    131.21453   -710.97738    142689.74   -39551.518    2639.7065   -42191.225    90.444379    222.00222 
   23050    132.68702   -615.29523    142706.36   -39577.534    2669.3294   -42246.863    90.507705    224.49354 
   23100    128.88248   -760.93754    142779.69    -39585.84    2592.7916   -42178.632    90.818416    218.05661 
   23150    132.91776   -644.50411    142751.08   -39552.993    2673.9713   -42226.964    91.110812    224.88392 
   23200    132.70723   -759.29736    142749.79   -39549.701     2669.736   -42219.437    91.517803    224.52772 
   23250    132.53828   -761.06863    142791.08   -39550.765     2666.337   -42217.102    91.872819    224.24187 
   23300    133.04078   -801.09321    142784.62   -39554.714    2676.4462    -42231.16    92.469727    225.09206 
   23350    132.78531   -852.17479    142840.03   -39507.104    2671.3068   -42178.411    92.711752    224.65983 
   23400    133.84019   -823.89207     142770.7   -39518.614    2692.5283   -42211.142    93.152754    226.44458 
   23450    132.19405   -792.27259    142695.78   -39568.888    2659.4121     -42228.3     93.27949    223.65947 
   23500    134.24482   -585.08116    142695.17   -39519.712    2700.6685    -42220.38    93.457277    227.12918 
   23550    132.75621   -609.85352    142810.18   -39553.894    2670.7213   -42224.615    93.582323    224.61059 
   23600    130.87425   -717.36811    142818.57   -39608.818     2632.861   -42241.679    94.087619     221.4265 
   23650    132.12365   -681.01545     142809.4   -39601.866    2657.9959   -42259.862     94.74074    223.54037 
   23700    134.07556   -550.07142     142810.8   -39619.272    2697.2633   -42316.535    94.852759     226.8428 
   23750    129.54966   -743.05977    142870.38   -39643.952    2606.2135   -42250.166    95.111072    219.18542 
   23800    130.83564   -564.29191    142833.08   -39653.287    2632.0844   -42285.372    95.422137    221.36118 
   23850    130.02343   -693.10498    142913.66   -39612.227    2615.7447   -42227.972    95.622334      219.987 
   23900    132.06241   -657.87974     143014.9   -39552.826    2656.7638    -42209.59    96.186922    223.43675 
   23950     132.4426   -784.55937    143004.67    -39531.68    2664.4123   -42196.092    96.471207       224.08 
   24000    132.10903   -899.65111    142949.76   -39581.474    2657.7016   -42239.176    96.701546    223.51562 
   24050     130.9228   -621.97301    142898.54   -39558.895    2633.8378   -42192.733    96.724548    221.50865 
   24100    130.95794   -651.80165    142894.76   -39575.809    2634.5446   -42210.353    96.966156    221.56809 
   24150    130.79293   -790.94449    142842.56    -39560.04    2631.2251   -42191.265    97.207525    221.28892 
   24200    129.01243   -645.46784    142806.55   -39605.086    2595.4058   -42200.492    97.576323    218.27648 
   24250    130.39872   -544.34214    142752.76   -39588.578    2623.2945   -42211.872    97.724865    220.62194 
   24300    133.76936   -661.97906    142734.35   -39600.367    2691.1035   -42291.471    97.837921    226.32475 
   24350    132.00159   -716.01431    142695.11   -39589.414    2655.5403   -42244.954    98.104757    223.33385 
   24400    131.96094   -633.31337    142602.98   -39548.899    2654.7224   -42203.622    98.405745    223.26507 
   24450    133.55192   -681.75579    142502.83   -39537.529    2686.7289   -42224.258    98.425307    225.95685 
   24500    133.03646   -664.19214    142486.59   -39493.695    2676.3593   -42170.054    98.430489    225.08476 
   24550    133.65068   -412.49246    142476.05   -39488.703    2688.7159   -42177.419     98.80525    226.12396 
   24600    134.88987   -488.28649    142616.34   -39512.618    2713.6451   -42226.263    98.905295    228.22053 
   24650    133.40901   -582.13245    142694.43   -39529.303    2683.8541   -42213.158     99.01962    225.71508 
   24700    132.92706   -557.76803    142766.21   -39539.277    2674.1585   -42213.436    99.011945    224.89966 
   24750    132.71202   -552.73676     142850.5   -39542.247    2669.8324    -42212.08    99.131859    224.53583 
   24800    134.45826   -790.25468    142890.11   -39576.233    2704.9622   -42281.195    99.282898    227.49029 
   24850    133.37514   -580.11782    142900.64   -39563.439    2683.1727   -42246.612     99.51243    225.65777 
   24900    134.24358   -758.44469    142907.46   -39581.807    2700.6436    -42282.45    99.734943    227.12709 
   24950    135.12773    -747.6852    142944.31   -39560.671    2718.4304   -42279.102    100.03155    228.62298 
   25000    135.88205   -659.18664    142971.74    -39519.79    2733.6053   -42253.395    100.03929    229.89921 
   25050    131.93685   -823.71305    142949.66   -39501.782    2654.2379    -42156.02    100.33893    223.22432 
   25100    133.93247   -873.75886     142824.6   -39456.526    2694.3847   -42150.911    100.88424    226.60071 
   25150    137.60622   -770.46986    142809.79   -39462.798    2768.2913   -42231.089      101.137    232.81634 
   25200      134.852   -591.94343    142898.91   -39514.277    2712.8834   -42227.161    101.15904    228.15647 
   25250    132.97619    -587.9287       142970   -39601.683    2675.1468    -42276.83    101.40616    224.98278 
   25300    133.17688   -715.30366    142920.14   -39628.462    2679.1842   -42307.646    101.40985    225.32233 
   25350    131.74803   -717.11073    142889.73   -39633.336    2650.4393   -42283.775    101.36699    222.90485 
   25400    132.62694   -758.70073    142956.82   -39616.146    2668.1208   -42284.267    101.47725    224.39189 
   25450    131.75492   -610.08429    143005.56   -39594.081    2650.5779   -42244.659    101.64181    222.91651 
   25500    131.01598   -659.33958    143020.84   -39590.534    2635.7122   -42226.246      102.197    221.66629 
   25550    131.07688   -745.12283    143014.34   -39589.398    2636.9374   -42226.335    102.32729    221.76933 
   25600    132.73844   -770.00029    142987.71   -39584.455    2670.3638   -42254.819    102.51505    224.58052 
   25650    134.72549   -679.06992    142957.98   -39554.901    2710.3382   -42265.239    102.57299    227.94242 
   25700    135.55758   -814.26133    142930.11   -39523.026    2727.0778   -42250.104    102.82433    229.35024 
   25750    134.31374   -664.41629    142907.94   -39559.589    2702.0549   -42261.644     103.1392    227.24579 
   25800    134.12353   -676.08728    142838.92   -39559.407    2698.2283   -42257.635    103.43438    226.92396 
   25850    135.00015   -775.81038    142811.96   -39557.237    2715.8637   -42273.101    103.62388    228.40712 
   25900     132.4843    -551.6438    142837.38   -39579.846    2665.2512   -42245.098    103.76238    224.15055 
   25950    133.61202   -744.84194    142904.54   -39552.906     2687.938   -42240.844     103.9942    226.05854 
   26000    132.29168   -685.01162    142892.24   -39557.099    2661.3761   -42218.475     104.2251    223.82465 
   26050    132.97295   -882.33593    142859.38   -39545.745    2675.0817   -42220.827    104.34754     224.9773 
   26100    133.61702   -446.14138    142827.97   -39554.192    2688.0386   -42242.231    104.41966      226.067 
   26150    136.19547   -602.39363    142864.48   -39571.035    2739.9107   -42310.946    104.62319    230.42949 
   26200    130.85114    -572.9765    142853.89   -39587.743    2632.3962   -42220.139    104.85101    221.38741 
   26250      133.357    -574.2914    142920.36   -39554.401    2682.8077   -42237.209    105.03471    225.62707 
   26300    133.76953   -529.64972    142943.47    -39592.24    2691.1067   -42283.347    105.01619    226.32503 
   26350    132.75403   -562.47082    143006.21   -39576.025    2670.6774   -42246.702    105.09507     224.6069 
   26400    133.71891   -709.94842    142995.45   -39572.096    2690.0884   -42262.184    105.37173    226.23938 
   26450    129.87187   -844.98919    142911.34   -39510.371    2612.6957   -42123.067    105.77555    219.73058 
   26500    133.81809    -783.7389    142845.99   -39519.291    2692.0837   -42211.375    105.91604    226.40719 
   26550    132.20424   -611.44258     142813.3    -39589.79    2659.6172   -42249.407    106.01983    223.67672 
   26600    131.53267   -638.51054    142806.65   -39647.696    2646.1068   -42293.803    106.21177    222.54049 
   26650    129.04183   -687.22868    142838.46   -39620.819    2595.9974   -42216.816    106.36675    218.32623 
   26700    133.10801   -714.02661    142776.14   -39607.988    2677.7986   -42285.787    106.58451     225.2058 
   26750    132.15655   -712.34216    142747.44   -39554.929    2658.6578   -42213.587    106.94117    223.59604 
   26800    133.53699   -778.52939    142688.58   -39565.614    2686.4287   -42252.043    106.86549     225.9316 
   26850    131.96943   -658.81301    142653.58   -39562.608    2654.8934   -42217.502    107.12568    223.27945 
   26900     130.9931   -845.58892    142642.15   -39566.013    2635.2521   -42201.265    107.39948    221.62759 
   26950    134.72641   -683.34905    142643.69    -39546.34    2710.3568   -42256.697    107.60797    227.94398 
   27000    132.51396    -851.3018    142650.89   -39531.059     2665.848   -42196.907    107.78954    224.20074 
   27050    134.21211   -731.60831    142681.84   -39589.832    2700.0104   -42289.843    107.91212    227.07384 
   27100    131.58877   -833.44105    142613.88   -39593.671    2647.2354   -42240.906    108.09037     222.6354 
   27150    130.98201   -648.57112    142612.97    -39623.17    2635.0288   -42258.199    108.35486    221.60882 
   27200     131.1177   -608.46213    142666.82   -39596.764    2637.7587   -42234.522    108.35724     221.8384 
   27250    131.17042   -634.09413    142648.85   -39577.682    2638.8193   -42216.502      108.547    221.92759 
   27300    130.27953   -747.99299    142677.42   -39572.001    2620.8967   -42192.898     108.9546    220.42029 
   27350    133.40897   -767.76256    142634.97    -39588.78    2683.8531   -42272.633    109.25019    225.71499 
   27400    132.67676   -663.51816    142660.15   -39583.559     2669.123   -42252.683    109.62377    224.47618 
   27450    131.11781   -790.19113    142673.49   -39648.957    2637.7608   -42286.718    109.93915    221.83858 
   27500    130.38609   -703.83805    142615.55   -39660.473    2623.0405   -42283.513    110.28573    220.60058 
   27550    129.56826    -435.6454    142573.11   -39692.347    2606.5877   -42298.935    110.45088    219.21689 
   27600    134.71691    -606.2716    142630.34   -39628.293    2710.1656   -42338.459    110.87729     227.9279 
   27650    134.18443   -637.65803    142749.21   -39633.132    2699.4535   -42332.585    111.35098      227.027 
   27700    132.14683   -777.32476    142765.18   -39600.542    2658.4621   -42259.004    111.53472    223.57958 
   27750    135.72757   -746.14463    142744.36    -39658.89    2730.4976   -42389.387     111.9557    229.63785 
   27800    134.49368   -477.94725    142796.08   -39607.538    2705.6749   -42313.213    112.19686    227.55023 
   27850     133.2296   -604.30041    142844.45   -39599.753    2680.2448   -42279.997    112.57727    225.41153 
   27900    134.46904   -621.99646    142871.43   -39574.031    2705.1792    -42279.21    112.81151    227.50854 
   27950    133.61031   -796.05225    142985.72    -39559.53    2687.9038   -42247.434    113.01553    226.05566 
   28000    132.88176   -669.83069    143048.55   -39560.869    2673.2471   -42234.116    113.14907    224.82301 
   28050    135.47776   -674.47944    143042.98    -39543.04    2725.4721   -42268.512    113.51227    229.21519 
   28100    134.36412   -691.61805    143035.06   -39569.774    2703.0685   -42272.843    113.69925    227.33102 
   28150    134.87498   -505.10216    143048.53   -39578.576    2713.3457   -42291.921    113.61575    228.19535 
   28200    135.44826   -507.34742    143055.96   -39611.672    2724.8786   -42336.551    113.76745    229.16528 
   28250    131.84103   -770.33749    143079.38   -39653.374    2652.3102   -42305.684    113.92354    223.06219 
   28300    133.69283   -579.57914    143124.71   -39639.343    2689.5637   -42328.907    113.96446    226.19526 
   28350    134.71529   -807.69524    143084.76   -39634.322    2710.1331   -42344.455    114.34663    227.92517 
   28400     132.0997   -711.00615    143057.14   -39674.691    2657.5141   -42332.205    114.42576    223.49985 
   28450    133.77462   -664.69796    143054.75   -39653.564    2691.2093   -42344.773     114.4698    226.33365 
   28500    132.35533   -691.91644    143016.58   -39700.773    2662.6566   -42363.429     114.8344    223.93234 
   28550    134.04041   -500.74597    143014.62   -39711.506    2696.5562   -42408.062    114.92685    226.78334 
   28600    135.38915   -603.55093    143115.19   -39730.105    2723.6895   -42453.795    115.21695    229.06528 
   28650    135.09496   -588.16461    143212.52   -39722.537    2717.7711   -42440.308    115.28077    228.56753 
   28700    135.47725   -605.72578    143212.49   -39663.953    2725.4618   -42389.414     115.6206    229.21432 
   28750    133.58539   -578.41676    143198.14   -39702.521    2687.4024   -42389.923    115.72568    226.01349 
   28800    130.95307   -574.75691    143268.62   -39700.841    2634.4467   -42335.288    115.97856    221.55986 
   28850    134.46809   -780.89269    143239.36   -39699.174      2705.16   -42404.333    116.14512    227.50692 
   28900    136.28273   -598.12203     143267.9    -39691.18    2741.6661   -42432.846     116.5947    230.57713 
   28950    133.01251    -750.0497    143283.05   -39628.819    2675.8774   -42304.696    116.91047    225.04422 
   29000    135.26121   -505.51371    143355.41   -39600.187    2721.1156   -42321.303     117.1383    228.84881 
   29050    138.29955   -590.87092    143453.72   -39585.146    2782.2393   -42367.385     117.2628    233.98938 
   29100    135.78638   -747.11348    143426.66   -39579.727    2731.6808   -42311.408    117.88515    229.73735 
   29150    135.00183   -622.47942    143424.77   -39595.177    2715.8975   -42311.074     118.0097    228.40996 
   29200    138.06813   -889.17594     143328.5   -39591.197    2777.5838   -42368.781    118.19224    233.59784 
   29250    132.17175   -598.40072    143326.58   -39628.887    2658.9635   -42287.851    118.28924    223.62175 
   29300    133.83471   -717.59514    143380.32   -39634.447     2692.418   -42326.865     118.4073    226.43531 
   29350    131.81295    -620.3687    143335.43    -39639.94    2651.7454   -42291.685    118.90479     223.0147 
   29400    131.57542   -731.10498    143334.88   -39634.204    2646.9668   -42281.171    119.12884    222.61282 
   29450    133.84175   -697.16488    143336.35    -39666.06    2692.5597    -42358.62    119.21094    226.44723 
   29500    133.78898    -666.7483    143372.48   -39650.769     2691.498   -42342.267    119.38497    226.35793 
   29550    132.85946   -660.58155    143378.16   -39675.564    2672.7985   -42348.363    119.73865    224.78528 
   29600    133.69358   -591.42153    143447.77   -39632.269    2689.5789   -42321.848    119.91844    226.19654 
   29650    132.40663   -600.98598    143482.52   -39634.878    2663.6887   -42298.567    120.34015    224.01914 
   29700    134.15409   -819.37299    143494.02   -39671.332    2698.8432   -42370.175    120.44971    226.97567 
   29750    129.01449   -851.31562    143423.22   -39680.557    2595.4474   -42276.005    120.58833    218.27998 
   29800    132.84515   -661.28905    143429.23   -39679.878    2672.5106   -42352.389    120.79381    224.76107 
   29850    130.98564   -750.74838    143404.72   -39679.637    2635.1019   -42314.739    120.96656    221.61496 
   29900      130.996   -809.22468     143413.9   -39600.382    2635.3104   -42235.693    121.25809     221.6325 
   29950    131.29368   -619.87887    143396.66   -39585.393    2641.2989   -42226.692     121.6229    222.13614 
   30000    136.12763   -654.13226    143458.12   -39528.173    2738.5457   -42266.719    121.97178     230.3147 
   30050    134.54742   -818.93622    143449.04   -39585.234    2706.7559   -42291.989    122.19582    227.64115 
   30100    132.54055   -791.23895     143460.1   -39601.247    2666.3828    -42267.63    122.39589    224.24572 
   30150    130.06649   -719.93926    143411.78   -39613.052    2616.6109   -42229.663    122.69174    220.05985 
   30200    134.48467   -882.92213    143356.78   -39597.404    2705.4935   -42302.897    123.00177    227.53497 
   30250    131.38076   -688.98174    143386.14   -39616.562    2643.0507   -42259.613    122.90862    222.28346 
   30300    133.54139   -760.09407    143360.95   -39623.977    2686.5173   -42310.495    123.17396    225.93905 
   30350    132.27898   -764.29439    143309.53   -39579.723    2661.1207   -42240.844    123.58197    223.80317 
   30400    135.86522   -686.39424    143270.44   -39558.027    2733.2668   -42291.294    123.74643    229.87073 
   30450    133.42991   -692.80239    143220.47    -39595.02    2684.2744   -42279.294    123.96429    225.75042 
   30500     130.8572   -702.39648    143237.47   -39629.088     2632.518   -42261.606    124.29544    221.39766 
   30550    134.84622   -656.92244    143163.35   -39610.858     2712.767   -42323.625    124.51567    228.14668 
   30600    133.17257   -694.63015    143184.87   -39623.756    2679.0975   -42302.853    124.67286    225.31504 
   30650    127.94172   -739.94187    143168.28   -39660.079    2573.8659   -42233.945    124.94464    216.46495 
   30700    132.16096   -792.74429    143146.05   -39626.422    2658.7465   -42285.169    125.00193     223.6035 
   30750    130.42571   -626.16803    143093.54    -39629.88    2623.8376   -42253.718    125.05024    220.66762 
   30800    132.78936   -759.49961    143133.44   -39654.019    2671.3881   -42325.408    125.24049    224.66667 
   30850    133.63067   -661.48342    143124.93   -39663.266    2688.3133    -42351.58    125.31301     226.0901 
   30900    131.05659   -617.95348    143183.15   -39626.858    2636.5292   -42263.387    125.66596      221.735 
   30950    131.70599   -723.52889    143221.86   -39578.761    2649.5936   -42228.354    125.89829    222.83373 
   31000    132.95262   -817.98285    143240.45   -39598.874    2674.6726   -42273.546    125.80483     224.9429 
   31050    131.36391    -709.4112    143243.95   -39650.437    2642.7117   -42293.149    126.06067    222.25495 
   31100     131.0927   -724.21969    143204.68   -39629.975    2637.2558    -42267.23    125.99967     221.7961 
   31150    132.92397   -469.97786     143241.6    -39579.01    2674.0962   -42253.106    126.28773    224.89442 
   31200    134.41663   -805.36667    143301.87   -39558.947    2704.1248   -42263.072     126.4747    227.41986 
   31250    131.42468   -643.65346    143358.13    -39548.78    2643.9343   -42192.714    126.91564    222.35778 
   31300     132.0052   -720.22636    143420.75   -39615.123    2655.6128   -42270.736    126.81256    223.33995 
   31350    133.19619   -639.94621    143452.78   -39619.486    2679.5726   -42299.058    126.93751      225.355 
   31400    134.83014   -653.01398    143399.81   -39650.617    2712.4435    -42363.06     126.9711    228.11948 
   31450    132.73735   -678.49276    143416.33   -39645.797    2670.3419   -42316.139    127.02195    224.57869 
   31500    131.69212   -729.19303    143386.62   -39604.242    2649.3145   -42253.557    126.72972    222.81026 
   31550    133.22536   -569.11683    143343.54   -39641.193    2680.1595   -42321.352    126.70348    225.40435 
   31600    131.18621   -882.40711    143303.12   -39691.442    2639.1369   -42330.579    126.93864    221.95431 
   31650    133.16677   -521.16821     143303.9   -39707.382    2678.9808   -42386.363    127.22081    225.30523 
   31700    133.26153   -834.40365    143391.05   -39635.466     2680.887   -42316.353    127.31336    225.46554 
   31750    132.22471   -576.40257    143396.58   -39644.888    2660.0288   -42304.917    127.37941    223.71134 
   31800    130.58665   -662.98812    143502.62   -39651.804    2627.0752   -42278.879    127.44632    220.93991 
   31850    132.09692   -655.61908       143557   -39643.708    2657.4582   -42301.166    127.39519    223.49515 
   31900    130.45385   -682.75251    143572.35   -39697.733    2624.4035   -42322.136    127.54067    220.71522 
   31950    133.16431   -773.41111    143524.29   -39586.252    2678.9313   -42265.183    127.54176    225.30106 
   32000     132.9119    -519.0396    143477.24    -39587.61    2673.8534   -42261.463    127.73483    224.87401 
   32050    131.82793   -638.20179    143493.89   -39622.327    2652.0466   -42274.373    127.87538    223.04003 
   32100    132.17264   -505.61922    143561.85   -39614.758    2658.9814   -42273.739    128.45718    223.62326 
   32150     130.0478   -818.15034    143553.05   -39625.895    2616.2348    -42242.13     128.7969    220.02822 
   32200    131.05304   -743.21052    143525.97   -39608.618    2636.4579   -42245.075    128.89156      221.729 
   32250    131.96647   -719.48772     143504.3    -39631.15    2654.8338   -42285.984    129.11656    223.27443 
   32300    130.84764   -667.43223    143438.23   -39673.742    2632.3257   -42306.068    129.38789    221.38148 
   32350    133.01637   -662.04125    143460.07   -39691.265    2675.9551    -42367.22     129.5457    225.05076 
   32400    132.62682   -738.12966    143504.02   -39702.665    2668.1184   -42370.783    129.80922    224.39168 
   32450    133.40425   -688.58195    143538.98   -39705.889    2683.7583   -42389.647    129.59648    225.70702 
   32500    130.97894   -689.10153    143492.56    -39720.57     2634.967   -42355.537    129.58215    221.60362 
   32550    133.59645   -761.52009    143556.62   -39690.451    2687.6249   -42378.076    129.96571     226.0322 
   32600    129.91209     -711.893    143597.33   -39706.962    2613.5047   -42320.466    129.83549    219.79861 
   32650    131.41939   -674.81035    143592.24   -39638.678    2643.8279   -42282.506    130.07744    222.34883 
   32700    132.79547   -660.78705    143604.33   -39584.799    2671.5112    -42256.31    130.28972    224.67702 
   32750    132.03654   -753.52688    143632.28   -39580.831    2656.2433   -42237.074    130.37354    223.39298 
   32800    131.52987   -768.72344    143597.49   -39549.041    2646.0504   -42195.092    130.55533    222.53574 
   32850    135.54105   -894.83533    143612.71   -39527.332    2726.7453   -42254.077    130.93446    229.32227 
   32900    136.07791    -622.1976    143557.33   -39503.821    2737.5456   -42241.367    131.01722    230.23059 
   32950    137.61379   -651.26014    143503.35   -39556.495    2768.4436   -42324.938    131.36023    232.82914 
   33000     134.1516   -856.69064    143477.93   -39571.509     2698.793   -42270.302    131.84833    226.97145 
   33050    133.02804   -813.10756    143447.25   -39696.876      2676.19   -42373.066    132.15231    225.07051 
   33100     129.3111   -723.76511    143352.01   -39751.035    2601.4143    -42352.45    132.28491     218.7818 
   33150    132.15103   -724.45766    143290.13   -39776.029    2658.5467   -42434.575    132.49347    223.58669 
   33200    131.40182   -695.60504    143310.49    -39758.05    2643.4743   -42401.524    133.08807    222.31909 
   33250    129.83211   -714.38087    143328.09   -39734.224    2611.8957    -42346.12    133.11386    219.66329 
   33300    131.57592    -711.4042    143317.67     -39675.8    2646.9768   -42322.777    133.11067    222.61365 
   33350    132.53933   -533.28144    143344.27   -39683.066    2666.3582   -42349.424    133.21949    224.24365 
   33400    132.70088   -774.59234    143401.72   -39658.431    2669.6082   -42328.039    133.52742    224.51698 
   33450     133.3393    -817.3079     143401.6   -39649.166    2682.4517   -42331.617    133.62305    225.59713 
   33500      134.097   -622.02794    143384.35   -39620.042    2697.6946   -42317.737    133.66174    226.87908 
   33550    135.92159   -806.34585    143378.43   -39619.066    2734.4008   -42353.467     133.7457    229.96611 
   33600    133.08946   -696.96817    143376.92   -39651.677    2677.4254   -42329.103     133.7065    225.17442 
   33650     133.1358   -639.93003    143391.79   -39671.324    2678.3578   -42349.681    133.77647    225.25283 
   33700     133.2546   -646.12138    143296.12   -39615.196    2680.7477   -42295.944    133.70007    225.45382 
   33750    134.74231   -520.91269    143324.75   -39604.318    2710.6767   -42314.995    133.43659    227.97088 
   33800    130.95654   -628.39251    143339.57   -39657.017    2634.5165   -42291.534    133.46538    221.56573 
   33850     134.1009   -645.23018    143307.88   -39621.127    2697.7731     -42318.9    133.51585    226.88568 
   33900    134.03213   -515.51741    143367.28   -39644.181    2696.3897   -42340.571    133.49513    226.76933 
   33950    134.40264   -504.15035    143428.92   -39652.642    2703.8433   -42356.486    133.78023    227.39619 
[...]
   92000    131.70112   -541.49933    142679.98   -39714.526    2649.4956   -42364.021    320.17976    222.82548 
   92050    130.78738   -655.83775    142743.11   -39725.846    2631.1135    -42356.96    320.39514    221.27953 
   92100    131.99211   -585.28004    142804.69   -39705.706    2655.3495   -42361.056    320.04354    223.31781 
   92150     131.7772   -667.28606    142786.54   -39678.456     2651.026   -42329.482    320.54305     222.9542 
   92200    129.64077   -637.25029    142825.69   -39690.938    2608.0465   -42298.985    320.49915    219.33957 
   92250    131.73541   -829.94022    142856.11   -39683.014    2650.1855     -42333.2    320.51502    222.88351 
   92300    129.77026    -870.0284    142819.02   -39709.784    2610.6516   -42320.436    320.37564    219.55866 
   92350    133.69247   -906.37999    142769.15   -39655.477    2689.5565   -42345.033    320.87103    226.19465 
   92400    133.36989   -768.52143    142694.55   -39669.746     2683.067   -42352.813     320.8249    225.64888 
   92450    132.20722   -716.05768    142620.02   -39686.019     2659.677   -42345.696    320.97083    223.68176 
   92500    135.68329   -548.17337    142673.19   -39672.714    2729.6069   -42402.321    320.40628    229.56293 
   92550    131.98808    -440.6952    142753.34   -39681.589    2655.2686   -42336.857    320.91693      223.311 
   92600    134.18347   -615.37243    142831.29   -39680.346    2699.4342    -42379.78    320.83135    227.02537 
   92650    133.26434   -663.18149    142855.38   -39641.409    2680.9436   -42322.353     320.9729     225.4703 
   92700    132.99333   -612.62867    142869.38   -39657.842    2675.4916   -42333.333    321.50644    225.01178 
   92750    130.95176   -706.44547    142840.44   -39700.919    2634.4204    -42335.34    321.87877    221.55765 
   92800    130.70718   -651.97383    142836.73   -39743.761       2629.5   -42373.261    321.52312    221.14384 
   92850     131.8761   -549.16322    142812.95   -39737.707    2653.0158   -42390.723    321.96298    223.12154 
   92900    133.10493   -565.61938    142947.88   -39730.419    2677.7368   -42408.156    322.37135     225.2006 
   92950    134.49047   -584.26246    143058.21   -39678.646    2705.6102   -42384.256    322.74742    227.54479 
   93000     132.6621   -690.32679    143007.01   -39692.199     2668.828   -42361.027    323.16174    224.45136 
   93050    133.92352   -594.06415    143044.71   -39676.715    2694.2047    -42370.92    322.97834    226.58557 
   93100    133.78482   -602.63219    143147.61   -39675.622    2691.4144   -42367.036    323.15714    226.35091 
   93150    136.41746   -766.76242    143121.61   -39622.606    2744.3765   -42366.983    323.04517    230.80508 
   93200    135.41605   -606.42202    143174.62   -39662.449    2724.2306    -42386.68    322.91419    229.11078 
   93250    132.94753     -574.398    143105.59   -39694.036    2674.5702   -42368.606    323.45118    224.93429 
   93300    133.13882   -631.61246    143049.74   -39682.492    2678.4185   -42360.911    323.44668    225.25794 
   93350    132.81703   -639.79182    143076.09   -39719.981    2671.9449   -42391.926    323.58986     224.7135 
   93400    133.12083   -609.56786    142991.57   -39732.742    2678.0566   -42410.798    323.47287     225.2275 
   93450    130.76954   -565.14128    142994.56   -39714.396    2630.7545   -42345.151    323.86295    221.24934 
   93500    131.79497   -463.31351    142989.62   -39689.841    2651.3836   -42341.225    323.70981    222.98427 
   93550    131.14753   -435.19288    143028.72   -39700.337    2638.3588   -42338.696    323.60173    221.88887 
   93600    132.98951   -589.89296    143022.58   -39725.503    2675.4147   -42400.918    323.90509    225.00531 
   93650    131.07407   -673.18349    143062.49   -39733.731    2636.8808   -42370.612    323.78101    221.76457 
   93700    133.27696   -661.29111    143003.78   -39670.492    2681.1976   -42351.689    324.06186    225.49166 
   93750    130.68295   -626.35773    143008.03   -39704.048    2629.0125    -42333.06    324.33581    221.10283 
   93800    128.81319   -643.89762    142966.43   -39743.635    2591.3976   -42335.033    324.50786    217.93938 
   93850    130.91731   -673.48309    142990.43   -39723.758    2633.7272   -42357.485    324.97893    221.49935 
   93900     132.6138   -782.77961    142980.08   -39701.601    2667.8564   -42369.458    325.16672    224.36965 
   93950    134.96827   -677.18436    142990.84   -39616.219    2715.2223   -42331.441    325.44673    228.35318 
   94000    131.98179   -851.56637     143007.6   -39622.251    2655.1419   -42277.393    325.80422    223.30035 
   94050    133.95068   -656.64204    142948.23   -39665.272    2694.7511   -42360.023    326.51205    226.63152 
   94100    130.96139   -864.00727    142951.95   -39640.009    2634.6141   -42274.623    326.64273    221.57393 
   94150    130.58048    -728.0956     142944.2   -39630.133    2626.9511   -42257.084     326.4846    220.92947 
   94200    131.54665   -843.94058    142900.36   -39647.399     2646.388   -42293.787    326.59654    222.56414 
   94250    132.71056   -658.49452     142872.3   -39580.437    2669.8029    -42250.24    326.72736    224.53335 
   94300    135.08224   -796.60399    142837.31   -39572.303    2717.5153   -42289.819    326.94251    228.54602 
   94350    130.96573   -579.21291    142835.89   -39611.192    2634.7014   -42245.893    327.07174    221.58128 
   94400    131.78925   -644.60402    142857.17    -39624.76    2651.2686   -42276.028    326.96672     222.9746 
   94450    132.29056   -474.71743    142961.78   -39603.489    2661.3537   -42264.843    327.40154    223.82277 
   94500    132.91678   -808.89743    142994.74   -39578.208    2673.9516    -42252.16    327.91619    224.88226 
   94550     135.6848   -623.96868     143044.4    -39540.34    2729.6372   -42269.978    328.44041    229.56548 
   94600    135.15905   -582.91499     143150.5   -39518.011    2719.0604   -42237.071    328.61776    228.67596 
   94650    135.22935   -712.03736       143165   -39501.333    2720.4748   -42221.808    329.03209    228.79491 
   94700    134.00252   -663.95576    143146.25   -39546.815     2695.794   -42242.609    329.46362    226.71923 
   94750     132.6659   -783.38972    143141.61   -39542.182    2668.9046   -42211.087    329.37951    224.45781 
   94800    132.28054   -801.42407    143185.37   -39512.104    2661.1519   -42173.256    329.31268     223.8058 
   94850    134.70082   -921.28559    143181.01    -39485.26    2709.8419   -42195.102    329.50561    227.90068 
   94900    135.18483   -730.25628    143087.71   -39467.652    2719.5791   -42187.231    329.33141    228.71958 
   94950    136.80185   -743.52599    143056.27    -39538.85    2752.1095    -42290.96    329.40394    231.45543 
   95000     131.7731   -682.94346    143026.01   -39553.528    2650.9436   -42204.472     329.6506    222.94727 
   95050    132.78328   -598.66387     142962.7   -39572.359    2671.2659   -42243.625    329.68569    224.65639 
   95100    135.16188   -670.14363       142957   -39506.137    2719.1174   -42225.255    329.96398    228.68076 
   95150    134.87538   -772.58395    142937.83   -39529.721    2713.3537   -42243.075    329.71709    228.19603 
   95200    135.11363   -729.11019    142828.01   -39503.284    2718.1466   -42221.431    329.90053    228.59911 
   95250    134.22314   -486.52303    142871.72   -39523.496    2700.2323   -42223.728    329.56943     227.0925 
   95300    133.77483   -597.41019    142866.63   -39527.316    2691.2133   -42218.529    329.78004    226.33399 
   95350    133.95037   -539.16195    142868.59   -39489.697    2694.7448   -42184.442    329.96921      226.631 
   95400     130.7309   -803.97606    142800.54   -39571.282    2629.9772    -42201.26    330.14743    221.18397 
   95450    133.41489   -569.43597    142773.58   -39622.195    2683.9723   -42306.167    330.08869    225.72501 
   95500     132.5607   -631.70806     142752.9    -39648.24    2666.7882   -42315.028    330.47902    224.27981 
   95550    132.43429   -525.12595     142717.9   -39675.433    2664.2452   -42339.678    330.54757    224.06594 
   95600    131.44481   -639.12988    142795.83   -39715.497    2644.3392   -42359.836     330.6857    222.39183 
   95650    131.76429   -599.28597    142866.46   -39660.018    2650.7663   -42310.784    331.26771    222.93235 
   95700    134.85772   -565.32656    142966.08   -39623.404    2712.9985   -42336.402    331.59983    228.16615 
   95750    134.77021   -522.43768    143045.17   -39607.222    2711.2379    -42318.46    331.67283    228.01808 
   95800    133.76981   -623.18167    143155.73   -39616.431    2691.1123   -42307.543    331.96025     226.3255 
   95850    134.00597   -740.24153    143108.42   -39635.279    2695.8633   -42331.142    332.05361    226.72506 
   95900    132.90974   -710.29224    143130.11   -39648.564      2673.81   -42322.374    331.61934    224.87036 
   95950    132.74393   -633.24086    143176.71   -39712.596    2670.4742   -42383.071    331.77478    224.58981 
   96000    130.77012   -726.41945    143170.51   -39655.752    2630.7662   -42286.519    331.85619    221.25033 
   96050    131.57407    -621.9076    143160.44   -39667.154    2646.9396   -42314.094    331.93429    222.61052 
   96100    132.86203   -703.64876    143108.94   -39650.859    2672.8503   -42323.709    332.01844    224.78964 
   96150    131.48531   -875.05057    143062.15   -39641.494     2645.154   -42286.648    332.92734    222.46036 
   96200    130.41289   -941.41419    142919.17   -39641.635    2623.5795   -42265.215    333.39781    220.64592 
   96250    133.39801   -608.80631    142882.05   -39628.578    2683.6327   -42312.211     333.3628    225.69645 
   96300    133.45484   -751.61597    142912.25   -39569.593     2684.776   -42254.369    333.34138    225.79261 
   96350    131.13764   -740.29933    142957.65   -39551.633    2638.1598   -42189.793    333.65032    221.87214 
   96400    135.77937   -572.07716    143003.93   -39552.158    2731.5397   -42283.698    333.78058    229.72549 
   96450    132.79383   -792.49328    143009.35   -39539.711    2671.4781   -42211.189    334.61308    224.67424 
   96500    132.71739   -819.81797    142954.24   -39548.241    2669.9404   -42218.181    334.68815    224.54492 
   96550    132.07983   -767.98916     142828.2   -39516.667    2657.1142   -42173.781    334.76731    223.46622 
   96600    131.55404   -628.72419    142857.99   -39541.911    2646.5367   -42188.448    335.35214    222.57664 
   96650    131.50545   -748.03989    142917.68   -39534.512    2645.5592   -42180.071    335.94901    222.49443 
   96700    133.27986   -480.33486    142912.13   -39504.461    2681.2559   -42185.717    335.67591    225.49657 
   96750    135.95763   -651.85008    142915.16   -39463.125    2735.1259   -42198.251    335.47184    230.02709 
   96800     132.1439   -701.11057    142925.65   -39531.219    2658.4033   -42189.622    335.93781    223.57463 
   96850    136.02229   -735.66894    142889.72   -39553.589    2736.4266   -42290.015    335.70214    230.13648 
   96900    133.01896   -659.90736    142870.01   -39562.738    2676.0071   -42238.745    335.61219    225.05514 
   96950    136.64429   -770.22756    142915.81   -39469.577    2748.9397   -42218.517    335.97097    231.18884 
   97000    134.06066   -622.78144    142884.94   -39507.667    2696.9636    -42204.63    336.39483     226.8176 
   97050    133.30127   -804.78613    142868.26    -39550.15    2681.6866   -42231.836    336.69858    225.53279 
   97100    136.34638    -596.3771    142895.25   -39485.062    2742.9465   -42228.008    337.21436    230.68481 
   97150    133.75224   -666.11306    142921.04   -39489.696    2690.7589   -42180.455     337.5434    226.29577 
   97200     134.2848    -542.8851    142946.11   -39512.293    2701.4728   -42213.766    337.47001    227.19682 
   97250    132.72444    -587.8172    142970.61   -39568.025    2670.0823   -42238.107    338.08224    224.55685 
   97300    131.36125   -633.56592    142973.94   -39608.711    2642.6582   -42251.369     338.4046    222.25045 
   97350    131.78369   -795.77497    142921.35   -39612.641    2651.1567   -42263.798    338.58945    222.96519 
   97400    132.71159     -656.128    142897.69   -39601.579    2669.8236   -42271.403    338.59233     224.5351 
   97450    132.21801   -720.08671    142892.29   -39681.064    2659.8941   -42340.958    338.55059    223.70001 
   97500    128.86379   -729.15321    142896.71   -39704.316    2592.4157   -42296.731    338.85953    218.02501 
   97550    132.77946   -724.34649    142870.44   -39661.981    2671.1891   -42333.171    338.77146    224.64993 
   97600    132.15905   -564.74281    142877.07   -39662.133     2658.708   -42320.841     338.8723    223.60026 
   97650     130.8429   -749.58923    142857.71   -39645.607    2632.2303   -42277.837    339.04463    221.37346 
   97700    130.30026   -691.72441     142878.6    -39674.99    2621.3138   -42296.304    339.54357    220.45536 
   97750     130.8371   -544.22353    142921.58   -39643.239    2632.1136   -42275.353    339.48065    221.36364 
   97800    131.28482   -594.86404    142970.14   -39602.803    2641.1206   -42243.923    339.52858    222.12114 
   97850    131.85981   -609.64045    142954.36   -39555.299    2652.6881   -42207.987    339.67958    223.09398 
   97900    135.28769   -717.72206    142965.33   -39465.949    2721.6483   -42187.597    339.96267    228.89361 
   97950    133.10247   -686.44425    143026.77   -39504.954    2677.6873   -42182.642    340.05025    225.19644 
   98000    134.57769   -643.05349    143003.29   -39507.084     2707.365   -42214.449    340.54722    227.69237 
   98050    135.79209   -718.51223    143022.67   -39503.971    2731.7955   -42235.766    340.72755      229.747 
   98100    135.15036   -668.27745    143009.41   -39520.732    2718.8856   -42239.617    340.65722    228.66127 
   98150    133.92674   -894.48193    142956.48   -39570.628    2694.2694   -42264.897    340.56296    226.59101 
   98200    132.34235   -656.23408    142887.59   -39607.963    2662.3954   -42270.359    340.77005    223.91038 
   98250    131.57388   -705.54313    142908.67   -39691.355    2646.9357   -42338.291    340.87439     222.6102 
   98300    132.09161   -704.96808    142890.48   -39651.414    2657.3513   -42308.766    341.34461    223.48616 
   98350    132.10024   -794.75079    142852.27   -39636.525    2657.5249    -42294.05     341.2294    223.50076 
   98400    133.71906   -561.12882    142816.93   -39623.475    2690.0914   -42313.566    340.96582    226.23964 
   98450     131.9033   -662.12204    142798.62   -39661.769    2653.5629   -42315.331    340.94796    223.16755 
   98500     133.3536   -607.89344    142808.73   -39651.178    2682.7392   -42333.917    341.21533    225.62131 
   98550     133.0594   -905.22855    142827.94   -39668.658    2676.8208   -42345.479     341.5583    225.12357 
   98600    131.46808   -721.05789    142801.56   -39713.201    2644.8075   -42358.008    341.61087    222.43121 
   98650     131.0123   -934.85283    142735.85   -39724.691    2635.6383   -42360.329    341.73143    221.66007 
   98700    130.59599   -738.93048    142684.26   -39697.005    2627.2631   -42324.269    342.08354    220.95571 
   98750    132.36314   -609.30825    142650.18   -39656.019    2662.8137   -42318.833    342.14685    223.94556 
   98800    133.69909   -703.34959    142605.01   -39679.885    2689.6897   -42369.575    342.18766    226.20586 
   98850    129.15133   -514.77438    142633.86     -39776.6    2598.2003   -42374.801    342.47166     218.5115 
   98900    131.80161   -736.41925    142629.62   -39741.644    2651.5171   -42393.161    342.30839     222.9955 
   98950    134.27515   -650.73704    142683.78   -39696.262    2701.2785    -42397.54    342.39034    227.18049 
   99000    129.37731   -641.96921    142721.18   -39709.561    2602.7463   -42312.307    343.00295    218.89382 
   99050    133.49044   -627.71401    142769.78   -39691.769    2685.4923   -42377.262    343.56113    225.85285 
   99100    136.21678   -691.50807     142811.7   -39655.277    2740.3392   -42395.616    343.90126    230.46554 
   99150    131.09042   -565.71873    142864.72   -39664.106    2637.2097   -42301.315    343.81544    221.79223 
   99200    133.70875   -443.99747    142838.75   -39644.854    2689.8841   -42334.738    344.05897     226.2222 
   99250    131.80508   -603.53101    142889.99   -39677.946    2651.5869   -42329.533    343.55819    223.00137 
   99300    133.12494   -621.60716    142862.27   -39677.538    2678.1393   -42355.677    343.76348    225.23445 
   99350    134.80189    -742.7329    142726.41    -39618.26    2711.8753   -42330.135    343.85256    228.07169 
   99400     133.3375   -642.19106    142659.52   -39635.269    2682.4155   -42317.685    343.43146    225.59409 
   99450    131.55035   -716.16801    142679.92   -39681.625    2646.4624   -42328.087     343.7811    222.57039 
   99500    135.76655    -558.2801    142759.76   -39713.897    2731.2817   -42445.179    343.69556    229.70379 
   99550    132.00078   -550.73809    142871.29    -39745.24    2655.5239   -42400.764    343.90452    223.33248 
   99600    132.35369   -591.28724    142929.63   -39738.016    2662.6236   -42400.639    344.19164    223.92957 
   99650    131.48486   -768.04679    142981.34   -39775.185    2645.1449    -42420.33    344.50183    222.45959 
   99700    130.51265   -655.43801    142887.38   -39769.827    2625.5866   -42395.414    344.70577    220.81471 
   99750    131.62001   -579.77687    142933.82    -39731.01    2647.8639   -42378.874     345.1413    222.68826 
   99800    135.66458   -643.57578    142972.76   -39718.086    2729.2305   -42447.316    345.08997    229.53128 
   99850    133.34623   -753.63589    142972.34   -39709.361     2682.591   -42391.952    345.54895    225.60885 
   99900    133.94091   -566.93344    143023.43    -39677.74    2694.5545   -42372.294    345.70015    226.61499 
   99950    132.44323   -774.51197    143067.56   -39657.696    2664.4249   -42322.121    346.71402    224.08106 
  100000    132.41556   -644.61628    143017.92   -39651.738    2663.8684   -42315.607    347.10257    224.03425 
Loop time of 188.793 on 64 procs for 100000 steps with 6750 atoms

Performance: 228.823 ns/day, 0.105 hours/ns, 529.682 timesteps/s
100.0% CPU use with 64 MPI tasks x no OpenMP threads

MPI task timing breakdown:
Section |  min time  |  avg time  |  max time  |%varavg| %total
---------------------------------------------------------------
Pair    | 35.021     | 88.841     | 148.15     | 564.5 | 47.06
Neigh   | 1.2891     | 2.6095     | 5.1078     |  87.7 |  1.38
Comm    | 27.534     | 85.15      | 141.61     | 556.4 | 45.10
Output  | 0.12936    | 0.13104    | 0.14391    |   0.5 |  0.07
Modify  | 6.8663     | 11.318     | 20.195     | 137.2 |  5.99
Other   |            | 0.7437     |            |       |  0.39

Nlocal:    105.469 ave 174 max 68 min
Histogram: 30 2 0 12 4 0 0 0 5 11
Nghost:    996.297 ave 1351 max 673 min
Histogram: 32 0 0 0 0 0 0 0 15 17
Neighs:    0 ave 0 max 0 min
Histogram: 64 0 0 0 0 0 0 0 0 0
FullNghs:  12567.5 ave 27565 max 4258 min
Histogram: 32 0 0 0 16 0 0 0 4 12

Total # of neighbors = 804322
Ave neighs/atom = 119.159
Neighbor list builds = 6130
Dangerous builds = 0

write_data		${DIR}/data.eq-${NAME}-${TEMP}
write_data		run_17/data.eq-${NAME}-${TEMP}
write_data		run_17/data.eq-het_freeze_17-${TEMP}
write_data		run_17/data.eq-het_freeze_17-225
undump          1

reset_timestep  0

unfix           2
unfix           3
unfix           4


################################################
#######         Run Simulation         #########
################################################

log				${DIR}/log.run_${NAME}
log				run_17/log.run_${NAME}
log				run_17/log.run_het_freeze_17
