LAMMPS data file via write_data, version 16 Mar 2018, timestep = 8000000

4545 atoms
2 atom types

0.0000000000000000e+00 4.9219999999999999e+01 xlo xhi
0.0000000000000000e+00 4.9019635930410494e+01 ylo yhi
7.5385736069758025e-01 3.2881482425809949e+01 zlo zhi

Masses

1 18.015
2 12.01

Atoms # atomic

91 2 0.0000000000000000e+00 2.8417180249513345e+00 2.3556853064276195e+00 0 0 0
93 2 0.0000000000000000e+00 0.0000000000000000e+00 2.3556853064276195e+00 0 0 0
95 2 1.2305000000000001e+00 7.1042950623783474e-01 2.3556853064276195e+00 0 0 0
102 2 1.2305000000000001e+00 2.1312885187134998e+00 2.3556853064276195e+00 0 0 0
104 2 2.4610000000000003e+00 2.8417180249513345e+00 2.3556853064276195e+00 0 0 0
106 2 2.4610000000000003e+00 0.0000000000000000e+00 2.3556853064276195e+00 0 0 0
108 2 3.6915000000000004e+00 7.1042950623783474e-01 2.3556853064276195e+00 0 0 0
123 2 3.6914999999999996e+00 2.1312885187134998e+00 2.3556853064276195e+00 0 0 0
125 2 4.9220000000000006e+00 2.8417180249513332e+00 2.3556853064276195e+00 0 0 0
127 2 4.9220000000000006e+00 0.0000000000000000e+00 2.3556853064276195e+00 0 0 0
129 2 6.1524999999999999e+00 7.1042950623783407e-01 2.3556853064276195e+00 0 0 0
152 2 6.1524999999999999e+00 2.1312885187134989e+00 2.3556853064276195e+00 0 0 0
154 2 7.3829999999999991e+00 2.8417180249513345e+00 2.3556853064276195e+00 0 0 0
156 2 7.3829999999999991e+00 0.0000000000000000e+00 2.3556853064276195e+00 0 0 0
158 2 8.6134999999999984e+00 7.1042950623783407e-01 2.3556853064276195e+00 0 0 0
189 2 8.6134999999999984e+00 2.1312885187135002e+00 2.3556853064276195e+00 0 0 0
191 2 9.8440000000000012e+00 2.8417180249513332e+00 2.3556853064276195e+00 0 0 0
193 2 9.8440000000000012e+00 0.0000000000000000e+00 2.3556853064276195e+00 0 0 0
195 2 1.1074500000000002e+01 7.1042950623783330e-01 2.3556853064276195e+00 0 0 0
234 2 1.1074500000000002e+01 2.1312885187135002e+00 2.3556853064276195e+00 0 0 0
98 2 0.0000000000000000e+00 4.2625770374269996e+00 2.3556853064276195e+00 0 0 0
100 2 1.2305000000000001e+00 4.9730065436648339e+00 2.3556853064276195e+00 0 0 0
115 2 1.2305000000000001e+00 6.3938655561404980e+00 2.3556853064276195e+00 0 0 0
119 2 2.4610000000000003e+00 4.2625770374269996e+00 2.3556853064276195e+00 0 0 0
121 2 3.6914999999999996e+00 4.9730065436648339e+00 2.3556853064276195e+00 0 0 0
144 2 3.6914999999999996e+00 6.3938655561404980e+00 2.3556853064276195e+00 0 0 0
96 2 0.0000000000000000e+00 7.1042950623783341e+00 2.3556853064276195e+00 0 0 0
117 2 2.4610000000000003e+00 7.1042950623783341e+00 2.3556853064276195e+00 0 0 0
148 2 4.9220000000000006e+00 4.2625770374269978e+00 2.3556853064276195e+00 0 0 0
150 2 6.1524999999999999e+00 4.9730065436648339e+00 2.3556853064276195e+00 0 0 0
181 2 6.1524999999999999e+00 6.3938655561404980e+00 2.3556853064276195e+00 0 0 0
185 2 7.3829999999999991e+00 4.2625770374269996e+00 2.3556853064276195e+00 0 0 0
146 2 4.9220000000000006e+00 7.1042950623783341e+00 2.3556853064276195e+00 0 0 0
183 2 7.3830000000000009e+00 7.1042950623783341e+00 2.3556853064276195e+00 0 0 0
187 2 8.6135000000000002e+00 4.9730065436648339e+00 2.3556853064276195e+00 0 0 0
226 2 8.6135000000000002e+00 6.3938655561404980e+00 2.3556853064276195e+00 0 0 0
230 2 9.8440000000000012e+00 4.2625770374270004e+00 2.3556853064276195e+00 0 0 0
232 2 1.1074500000000002e+01 4.9730065436648339e+00 2.3556853064276195e+00 0 0 0
273 2 1.1074500000000002e+01 6.3938655561404980e+00 2.3556853064276195e+00 0 0 0
228 2 9.8440000000000012e+00 7.1042950623783341e+00 2.3556853064276195e+00 0 0 0
111 2 0.0000000000000000e+00 8.5251540748539991e+00 2.3556853064276195e+00 0 0 0
113 2 1.2305000000000001e+00 9.2355835810918343e+00 2.3556853064276195e+00 0 0 0
140 2 2.4610000000000003e+00 8.5251540748539991e+00 2.3556853064276195e+00 0 0 0
142 2 3.6915000000000004e+00 9.2355835810918343e+00 2.3556853064276195e+00 0 0 0
109 2 0.0000000000000000e+00 1.1366872099805333e+01 2.3556853064276195e+00 0 0 0
136 2 1.2305000000000001e+00 1.0656442593567498e+01 2.3556853064276195e+00 0 0 0
138 2 2.4610000000000003e+00 1.1366872099805333e+01 2.3556853064276195e+00 0 0 0
173 2 3.6914999999999996e+00 1.0656442593567499e+01 2.3556853064276195e+00 0 0 0
177 2 4.9220000000000006e+00 8.5251540748539991e+00 2.3556853064276195e+00 0 0 0
179 2 6.1524999999999999e+00 9.2355835810918343e+00 2.3556853064276195e+00 0 0 0
222 2 7.3830000000000009e+00 8.5251540748539991e+00 2.3556853064276195e+00 0 0 0
175 2 4.9220000000000006e+00 1.1366872099805333e+01 2.3556853064276195e+00 0 0 0
218 2 6.1524999999999999e+00 1.0656442593567499e+01 2.3556853064276195e+00 0 0 0
220 2 7.3829999999999991e+00 1.1366872099805333e+01 2.3556853064276195e+00 0 0 0
224 2 8.6134999999999984e+00 9.2355835810918343e+00 2.3556853064276195e+00 0 0 0
269 2 9.8440000000000012e+00 8.5251540748539956e+00 2.3556853064276195e+00 0 0 0
271 2 1.1074500000000002e+01 9.2355835810918343e+00 2.3556853064276195e+00 0 0 0
265 2 8.6134999999999984e+00 1.0656442593567498e+01 2.3556853064276195e+00 0 0 0
267 2 9.8440000000000012e+00 1.1366872099805333e+01 2.3556853064276195e+00 0 0 0
312 2 1.1074500000000002e+01 1.0656442593567498e+01 2.3556853064276195e+00 0 0 0
314 2 1.2304999999999998e+01 1.1366872099805333e+01 2.3556853064276195e+00 0 0 0
92 2 0.0000000000000000e+00 1.4208590124756650e+00 5.5593411978874006e+00 0 0 0
94 2 0.0000000000000000e+00 0.0000000000000000e+00 5.5593411978874006e+00 0 0 0
103 2 1.2305000000000001e+00 2.1312885187134998e+00 5.5593411978874006e+00 0 0 0
105 2 2.4610000000000003e+00 1.4208590124756650e+00 5.5593411978874006e+00 0 0 0
107 2 2.4610000000000003e+00 0.0000000000000000e+00 5.5593411978874006e+00 0 0 0
124 2 3.6914999999999996e+00 2.1312885187134998e+00 5.5593411978874006e+00 0 0 0
420 2 0.0000000000000000e+00 2.8417180249513345e+00 8.7629970893514137e+00 0 0 0
421 2 0.0000000000000000e+00 0.0000000000000000e+00 8.7629970893514137e+00 0 0 0
422 2 1.2305000000000001e+00 7.1042950623783474e-01 8.7629970893514137e+00 0 0 0
426 2 1.2305000000000001e+00 2.1312885187134998e+00 8.7629970893514137e+00 0 0 0
427 2 2.4610000000000003e+00 2.8417180249513345e+00 8.7629970893514137e+00 0 0 0
428 2 2.4610000000000003e+00 0.0000000000000000e+00 8.7629970893514137e+00 0 0 0
429 2 3.6915000000000004e+00 7.1042950623783474e-01 8.7629970893514137e+00 0 0 0
437 2 3.6914999999999996e+00 2.1312885187134998e+00 8.7629970893514137e+00 0 0 0
101 2 1.2305000000000001e+00 3.5521475311891644e+00 5.5593411978874006e+00 0 0 0
122 2 3.6914999999999996e+00 3.5521475311891644e+00 5.5593411978874006e+00 0 0 0
126 2 4.9220000000000006e+00 1.4208590124756650e+00 5.5593411978874006e+00 0 0 0
128 2 4.9220000000000006e+00 0.0000000000000000e+00 5.5593411978874006e+00 0 0 0
153 2 6.1524999999999999e+00 2.1312885187134989e+00 5.5593411978874006e+00 0 0 0
155 2 7.3829999999999991e+00 1.4208590124756659e+00 5.5593411978874006e+00 0 0 0
157 2 7.3829999999999991e+00 0.0000000000000000e+00 5.5593411978874006e+00 0 0 0
438 2 4.9220000000000006e+00 2.8417180249513332e+00 8.7629970893514137e+00 0 0 0
439 2 4.9220000000000006e+00 0.0000000000000000e+00 8.7629970893514137e+00 0 0 0
440 2 6.1524999999999999e+00 7.1042950623783407e-01 8.7629970893514137e+00 0 0 0
452 2 6.1524999999999999e+00 2.1312885187134989e+00 8.7629970893514137e+00 0 0 0
453 2 7.3829999999999991e+00 2.8417180249513345e+00 8.7629970893514137e+00 0 0 0
454 2 7.3829999999999991e+00 0.0000000000000000e+00 8.7629970893514137e+00 0 0 0
151 2 6.1524999999999999e+00 3.5521475311891644e+00 5.5593411978874006e+00 0 0 0
190 2 8.6134999999999984e+00 2.1312885187135002e+00 5.5593411978874006e+00 0 0 0
192 2 9.8440000000000012e+00 1.4208590124756659e+00 5.5593411978874006e+00 0 0 0
194 2 9.8440000000000012e+00 0.0000000000000000e+00 5.5593411978874006e+00 0 0 0
235 2 1.1074500000000002e+01 2.1312885187135002e+00 5.5593411978874006e+00 0 0 0
455 2 8.6134999999999984e+00 7.1042950623783407e-01 8.7629970893514137e+00 0 0 0
471 2 8.6134999999999984e+00 2.1312885187135002e+00 8.7629970893514137e+00 0 0 0
472 2 9.8440000000000012e+00 2.8417180249513332e+00 8.7629970893514137e+00 0 0 0
473 2 9.8440000000000012e+00 0.0000000000000000e+00 8.7629970893514137e+00 0 0 0
474 2 1.1074500000000002e+01 7.1042950623783330e-01 8.7629970893514137e+00 0 0 0
494 2 1.1074500000000002e+01 2.1312885187135002e+00 8.7629970893514137e+00 0 0 0
188 2 8.6134999999999984e+00 3.5521475311891657e+00 5.5593411978874006e+00 0 0 0
233 2 1.1074500000000002e+01 3.5521475311891644e+00 5.5593411978874006e+00 0 0 0
97 2 0.0000000000000000e+00 5.6834360499026637e+00 5.5593411978874006e+00 0 0 0
99 2 0.0000000000000000e+00 4.2625770374269996e+00 5.5593411978874006e+00 0 0 0
116 2 1.2305000000000001e+00 6.3938655561404980e+00 5.5593411978874006e+00 0 0 0
118 2 2.4610000000000003e+00 5.6834360499026637e+00 5.5593411978874006e+00 0 0 0
120 2 2.4610000000000003e+00 4.2625770374269996e+00 5.5593411978874006e+00 0 0 0
145 2 3.6914999999999996e+00 6.3938655561404980e+00 5.5593411978874006e+00 0 0 0
424 2 0.0000000000000000e+00 4.2625770374269996e+00 8.7629970893514137e+00 0 0 0
425 2 1.2305000000000001e+00 4.9730065436648339e+00 8.7629970893514137e+00 0 0 0
433 2 1.2305000000000001e+00 6.3938655561404980e+00 8.7629970893514137e+00 0 0 0
435 2 2.4610000000000003e+00 4.2625770374269996e+00 8.7629970893514137e+00 0 0 0
436 2 3.6914999999999996e+00 4.9730065436648339e+00 8.7629970893514137e+00 0 0 0
448 2 3.6914999999999996e+00 6.3938655561404980e+00 8.7629970893514137e+00 0 0 0
114 2 1.2305000000000001e+00 7.8147245686161639e+00 5.5593411978874006e+00 0 0 0
143 2 3.6914999999999996e+00 7.8147245686161639e+00 5.5593411978874006e+00 0 0 0
423 2 0.0000000000000000e+00 7.1042950623783341e+00 8.7629970893514137e+00 0 0 0
434 2 2.4610000000000003e+00 7.1042950623783341e+00 8.7629970893514137e+00 0 0 0
147 2 4.9220000000000006e+00 5.6834360499026637e+00 5.5593411978874006e+00 0 0 0
149 2 4.9220000000000006e+00 4.2625770374269978e+00 5.5593411978874006e+00 0 0 0
182 2 6.1524999999999999e+00 6.3938655561404980e+00 5.5593411978874006e+00 0 0 0
184 2 7.3829999999999991e+00 5.6834360499026637e+00 5.5593411978874006e+00 0 0 0
186 2 7.3829999999999991e+00 4.2625770374269996e+00 5.5593411978874006e+00 0 0 0
450 2 4.9220000000000006e+00 4.2625770374269978e+00 8.7629970893514137e+00 0 0 0
451 2 6.1524999999999999e+00 4.9730065436648339e+00 8.7629970893514137e+00 0 0 0
467 2 6.1524999999999999e+00 6.3938655561404980e+00 8.7629970893514137e+00 0 0 0
469 2 7.3829999999999991e+00 4.2625770374269996e+00 8.7629970893514137e+00 0 0 0
180 2 6.1524999999999999e+00 7.8147245686161639e+00 5.5593411978874006e+00 0 0 0
449 2 4.9220000000000006e+00 7.1042950623783341e+00 8.7629970893514137e+00 0 0 0
468 2 7.3830000000000009e+00 7.1042950623783341e+00 8.7629970893514137e+00 0 0 0
227 2 8.6135000000000002e+00 6.3938655561404980e+00 5.5593411978874006e+00 0 0 0
229 2 9.8440000000000012e+00 5.6834360499026637e+00 5.5593411978874006e+00 0 0 0
231 2 9.8440000000000012e+00 4.2625770374270004e+00 5.5593411978874006e+00 0 0 0
274 2 1.1074500000000002e+01 6.3938655561404980e+00 5.5593411978874006e+00 0 0 0
470 2 8.6135000000000002e+00 4.9730065436648339e+00 8.7629970893514137e+00 0 0 0
490 2 8.6135000000000002e+00 6.3938655561404980e+00 8.7629970893514137e+00 0 0 0
492 2 9.8440000000000012e+00 4.2625770374270004e+00 8.7629970893514137e+00 0 0 0
493 2 1.1074500000000002e+01 4.9730065436648339e+00 8.7629970893514137e+00 0 0 0
514 2 1.1074500000000002e+01 6.3938655561404980e+00 8.7629970893514137e+00 0 0 0
225 2 8.6135000000000002e+00 7.8147245686161639e+00 5.5593411978874006e+00 0 0 0
272 2 1.1074500000000002e+01 7.8147245686161639e+00 5.5593411978874006e+00 0 0 0
491 2 9.8440000000000012e+00 7.1042950623783341e+00 8.7629970893514137e+00 0 0 0
110 2 0.0000000000000000e+00 9.9460130873296642e+00 5.5593411978874006e+00 0 0 0
112 2 0.0000000000000000e+00 8.5251540748539991e+00 5.5593411978874006e+00 0 0 0
139 2 2.4610000000000003e+00 9.9460130873296642e+00 5.5593411978874006e+00 0 0 0
141 2 2.4610000000000003e+00 8.5251540748539991e+00 5.5593411978874006e+00 0 0 0
431 2 0.0000000000000000e+00 8.5251540748539991e+00 8.7629970893514137e+00 0 0 0
432 2 1.2305000000000001e+00 9.2355835810918343e+00 8.7629970893514137e+00 0 0 0
446 2 2.4610000000000003e+00 8.5251540748539991e+00 8.7629970893514137e+00 0 0 0
447 2 3.6915000000000004e+00 9.2355835810918343e+00 8.7629970893514137e+00 0 0 0
135 2 1.2305000000000001e+00 1.2077301606043163e+01 5.5593411978874006e+00 0 0 0
137 2 1.2305000000000001e+00 1.0656442593567498e+01 5.5593411978874006e+00 0 0 0
172 2 3.6914999999999996e+00 1.2077301606043163e+01 5.5593411978874006e+00 0 0 0
174 2 3.6914999999999996e+00 1.0656442593567499e+01 5.5593411978874006e+00 0 0 0
430 2 0.0000000000000000e+00 1.1366872099805333e+01 8.7629970893514137e+00 0 0 0
444 2 1.2305000000000001e+00 1.0656442593567498e+01 8.7629970893514137e+00 0 0 0
445 2 2.4610000000000003e+00 1.1366872099805333e+01 8.7629970893514137e+00 0 0 0
463 2 3.6914999999999996e+00 1.0656442593567499e+01 8.7629970893514137e+00 0 0 0
176 2 4.9220000000000006e+00 9.9460130873296642e+00 5.5593411978874006e+00 0 0 0
178 2 4.9220000000000006e+00 8.5251540748539991e+00 5.5593411978874006e+00 0 0 0
221 2 7.3830000000000009e+00 9.9460130873296642e+00 5.5593411978874006e+00 0 0 0
223 2 7.3830000000000009e+00 8.5251540748539991e+00 5.5593411978874006e+00 0 0 0
465 2 4.9220000000000006e+00 8.5251540748539991e+00 8.7629970893514137e+00 0 0 0
466 2 6.1524999999999999e+00 9.2355835810918343e+00 8.7629970893514137e+00 0 0 0
488 2 7.3830000000000009e+00 8.5251540748539991e+00 8.7629970893514137e+00 0 0 0
217 2 6.1524999999999999e+00 1.2077301606043163e+01 5.5593411978874006e+00 0 0 0
219 2 6.1524999999999999e+00 1.0656442593567499e+01 5.5593411978874006e+00 0 0 0
464 2 4.9220000000000006e+00 1.1366872099805333e+01 8.7629970893514137e+00 0 0 0
486 2 6.1524999999999999e+00 1.0656442593567499e+01 8.7629970893514137e+00 0 0 0
487 2 7.3829999999999991e+00 1.1366872099805333e+01 8.7629970893514137e+00 0 0 0
268 2 9.8440000000000012e+00 9.9460130873296642e+00 5.5593411978874006e+00 0 0 0
270 2 9.8440000000000012e+00 8.5251540748539956e+00 5.5593411978874006e+00 0 0 0
489 2 8.6134999999999984e+00 9.2355835810918343e+00 8.7629970893514137e+00 0 0 0
512 2 9.8440000000000012e+00 8.5251540748539956e+00 8.7629970893514137e+00 0 0 0
513 2 1.1074500000000002e+01 9.2355835810918343e+00 8.7629970893514137e+00 0 0 0
264 2 8.6135000000000002e+00 1.2077301606043163e+01 5.5593411978874006e+00 0 0 0
266 2 8.6134999999999984e+00 1.0656442593567498e+01 5.5593411978874006e+00 0 0 0
311 2 1.1074500000000002e+01 1.2077301606043163e+01 5.5593411978874006e+00 0 0 0
313 2 1.1074500000000002e+01 1.0656442593567498e+01 5.5593411978874006e+00 0 0 0
510 2 8.6134999999999984e+00 1.0656442593567498e+01 8.7629970893514137e+00 0 0 0
511 2 9.8440000000000012e+00 1.1366872099805333e+01 8.7629970893514137e+00 0 0 0
534 2 1.1074500000000002e+01 1.0656442593567498e+01 8.7629970893514137e+00 0 0 0
535 2 1.2304999999999998e+01 1.1366872099805333e+01 8.7629970893514137e+00 0 0 0
4475 1 1.5362373657100667e+00 3.4096866180939918e+00 1.1387722052442072e+01 6 2 0
2279 1 3.8783673001068175e+00 1.8717393387790289e+00 1.1537780521411010e+01 -2 3 0
4474 1 6.1109700172315113e+00 3.4415945124686345e+00 1.1444259251761592e+01 -2 2 0
2893 1 8.4971285476764393e+00 2.0303872952725746e+00 1.1451130686145593e+01 1 3 0
648 1 1.1015897655925134e+01 3.0837168336499552e+00 1.1288186070388635e+01 2 -2 0
1561 1 1.4163104026638225e+00 6.3571054582960587e+00 1.1200472315190812e+01 8 2 0
2363 1 3.6120836492706068e+00 7.8359959556493370e+00 1.1082287596150588e+01 -1 -3 0
4439 1 6.1661544904331445e+00 6.2173344781177882e+00 1.1623578063438234e+01 5 -2 0
672 1 8.6740356455036132e+00 7.2553906450824659e+00 1.1523065867732829e+01 1 -1 0
4513 1 1.1315442991604627e+01 5.8634717200966460e+00 1.1353464609652727e+01 -1 4 0
2998 1 3.7313890109436940e+00 1.0395147249143122e+01 1.1418850536484038e+01 -8 2 -1
1354 1 8.7391241782765618e+00 1.0075865605466756e+01 1.3944302223406785e+01 1 4 0
2909 1 6.6880981196106193e+00 1.1381795375369599e+01 1.1215436323410078e+01 1 -1 -1
2255 1 9.1816378941546866e+00 9.9672964890236067e+00 1.1173420651759461e+01 2 2 0
73 1 1.1506749114483567e+01 1.1335084699724334e+01 1.1505563756936342e+01 -2 -2 0
1506 1 1.4730709006506209e+00 3.4304842926617782e+00 1.4180316764590554e+01 -1 0 0
2277 1 3.9009078266345254e+00 1.9872608006643944e+00 1.4315105466891795e+01 3 1 0
2208 1 6.2280438771185995e+00 3.4697473679293829e+00 1.4363296291922186e+01 0 1 0
2921 1 8.7494352957708195e+00 2.1411705329850181e+00 1.4082482384495199e+01 -2 4 0
741 1 1.1024302135608627e+01 3.2839211230237266e+00 1.4642982338067853e+01 -1 1 0
4449 1 1.2361378821477018e+00 6.2343501018175056e+00 1.4515583832355038e+01 -1 -3 0
2223 1 3.6497358790736678e+00 7.6559458881706322e+00 1.3959267146544795e+01 -1 -3 -1
4390 1 5.9206379012955992e+00 6.3373013973906485e+00 1.4664699158640692e+01 5 0 0
3794 1 8.6693489207860939e+00 7.5466957315865928e+00 1.4660510201426328e+01 0 4 0
3027 1 1.1215656417112323e+01 6.0307333637610663e+00 1.4239216711553572e+01 4 2 -1
884 1 3.7258528271784961e+00 1.0415259338672392e+01 1.4350751346062630e+01 6 1 0
871 1 1.1627928017399590e+01 1.1160244183910244e+01 1.4469037052434635e+01 6 -2 1
604 1 6.2731400441899012e+00 1.1353122602312224e+01 1.3991583863559743e+01 4 -2 0
2885 1 1.3047426402007289e+00 1.1520229774006429e+01 1.1323999849742460e+01 1 5 -1
2972 1 1.3449536113296261e+00 1.1896503958297995e+01 1.4023923322334360e+01 5 -4 -1
3823 1 9.2892070317436570e-01 1.0970464593144678e+00 1.7986515363831355e+01 4 -3 1
2999 1 2.9322661680023576e+00 2.7695056998827566e-01 2.8913610019418510e+01 -3 -3 0
4432 1 5.3967860545539423e+00 1.4269063658866936e+00 1.8155027190185077e+01 2 3 -1
3894 1 1.1968637456751443e+01 1.1044609913443411e+01 2.1904092186275481e+01 1 -2 0
753 1 7.3853547475392434e+00 3.3455228269249861e+00 1.7154514468612643e+01 -1 7 -1
3043 1 9.7283724020098639e+00 1.8296179641123083e+00 1.8265831572285826e+01 0 -3 0
3072 1 3.0170368934718819e+00 5.5907246134256239e+00 1.8172175111067105e+01 4 -3 0
2290 1 5.1815960234666774e+00 7.1163300671933367e+00 1.7283655423178036e+01 6 4 -1
606 1 7.4624932860565707e+00 5.7914785747152777e+00 1.8354906448810816e+01 0 0 0
1467 1 7.2472833766660152e+00 5.5097926533595141e+00 2.0970618899584057e+01 1 2 0
3870 1 2.8860221706991549e+00 1.1008246395997286e+01 1.7093536603778638e+01 -4 4 0
3774 1 1.1875549976565013e+01 5.5872814772212545e+00 1.8383205440108068e+01 -1 4 0
618 1 7.1847818807379484e+00 1.0987485175139685e+01 1.7115724208570914e+01 2 -1 0
1569 1 6.7797114985109119e-01 9.6429252581190106e+00 1.7888361999336677e+01 1 0 0
3066 1 6.7771223002926018e-01 9.6318456415916689e+00 2.0830560653265849e+01 -4 2 0
4539 1 2.8123673062338639e-01 7.3006259458635201e+00 3.2156736623275023e+01 5 0 0
636 1 5.0390748426265741e+00 9.7104716427519051e+00 1.8144551964905038e+01 -2 -6 0
2311 1 9.2449900167333876e+00 9.8699774442427177e+00 1.8369629122464474e+01 2 2 -1
4497 1 9.5981077374442911e+00 9.8036589369788150e+00 2.1084691234383005e+01 -3 5 0
3867 1 1.2098100526064947e+01 2.4020053354737833e-01 3.1746444880914080e+01 1 1 0
2911 1 7.1580574396147811e-01 1.0965371216671753e+00 2.0810201630613744e+01 4 -1 -1
3743 1 2.9681079273318147e+00 2.6964998611674913e+00 2.1713281608666964e+01 1 3 -1
694 1 2.8122854727167406e+00 2.8465187262156157e+00 2.4406383937864206e+01 0 1 0
2337 1 5.2402557330771087e+00 1.2817568556023493e+00 2.1020120739559413e+01 3 0 0
659 1 7.2328653863083838e+00 2.8694248569161194e+00 2.1890769523600671e+01 -2 0 0
1575 1 7.3482579271595583e+00 3.0919852403171988e+00 2.4676807033329954e+01 -1 8 1
6 1 9.4470956962616430e+00 1.6070411541039111e+00 2.0992249548479325e+01 -1 6 0
72 1 1.1896463000653075e+01 2.8381081986194165e+00 2.4625990759156242e+01 4 -1 0
2409 1 1.1639005359946841e+01 2.9426952989947370e+00 2.1851258899549570e+01 0 4 1
2970 1 3.0881068008928438e+00 5.6069328872942963e+00 2.0933808731152563e+01 2 6 -1
2899 1 8.5451538124889337e-01 7.1222000181855085e+00 2.1858427513235384e+01 2 -1 0
4406 1 1.1763154033382524e+00 7.1442868579512604e+00 2.4405885569750758e+01 -4 -6 -1
3654 1 5.2560516297328510e+00 6.9691357080979817e+00 2.1972432653810191e+01 -4 -6 0
2259 1 5.3418798224684521e+00 7.3235251071179324e+00 2.4387668471766691e+01 -1 -3 1
1446 1 1.1939841962514281e+01 5.4763455637986214e+00 2.1270221463938498e+01 4 -3 0
3862 1 9.4753127817289489e+00 6.8525478091787884e+00 2.1601311528550227e+01 0 -2 0
758 1 1.0014481342533379e+01 7.2058353288454819e+00 2.4573710841956878e+01 -1 -4 0
3631 1 2.8278860907391676e+00 1.0976904522197731e+01 2.1708293136170564e+01 1 3 0
2272 1 2.8783952958618944e+00 1.1180444270127273e+01 2.4452495452751069e+01 2 4 -1
2897 1 5.0976117286704774e+00 9.7032335360839390e+00 2.0870401614287278e+01 0 1 -1
750 1 7.2600138425212331e+00 1.1064206619445116e+01 2.2129883335779429e+01 -2 4 0
673 1 7.3867547768499247e+00 1.1048972282200562e+01 2.4749239291144388e+01 -2 0 0
1615 1 3.0411821809220405e+00 2.8398408725653908e+00 1.7363279511395231e+01 1 4 0
3015 1 1.1825087093390394e+01 1.1131818150826811e+01 2.4622546834486979e+01 1 2 0
3608 1 6.1881073787361951e-01 1.6108894393891062e+00 2.5291049871496828e+01 0 -3 -1
651 1 9.6280924416541946e-01 1.8040072023334122e+00 2.7841364581237162e+01 -3 -1 0
2163 1 5.2801661188683777e+00 1.6441408666568669e+00 2.5332777195352730e+01 0 1 0
3753 1 5.2274667481543302e+00 1.8969588005167004e+00 2.8037411029578109e+01 -3 0 0
56 1 7.6433059918695854e+00 8.1695632535811402e+00 2.8920199245504197e+01 3 2 0
1559 1 9.5912354782861264e+00 1.5142528231241490e+00 2.5206895319077720e+01 0 1 0
2365 1 9.4420482656684044e+00 1.1374341690561305e+00 2.8129852290366827e+01 -1 1 0
2349 1 9.5057791850996232e+00 7.1687394198982384e+00 1.7411470537418207e+01 -1 1 0
2373 1 3.3615940138204095e+00 5.6686793531797015e+00 2.5192783187131550e+01 3 -3 0
2222 1 3.4215060899169902e+00 5.6048119349079757e+00 2.7987445331586347e+01 3 -2 -1
2325 1 7.4790780447263909e+00 5.8109322232805134e+00 2.5001819874582022e+01 -2 1 -1
2185 1 7.7506766418444846e+00 5.5913872998642482e+00 2.7750285027516423e+01 -2 3 0
3687 1 5.5736552556616994e+00 4.5413809418392770e+00 2.9129362279388136e+01 -2 -2 0
1425 1 1.2059115041056922e+01 5.3836571295564593e+00 2.5298092342821182e+01 5 -1 -1
3757 1 1.1961144940311200e+01 8.4753091908548690e+00 2.8901633982962068e+01 3 -1 -1
1482 1 6.5283000245411471e-01 9.6376700995020759e+00 2.8191287081066609e+01 1 2 0
3846 1 7.9608635276195339e-01 9.6598574699514792e+00 2.5468876681592583e+01 5 -1 1
3709 1 5.0155833407424115e+00 9.8856968335241255e+00 2.5414577017065671e+01 1 1 1
1443 1 5.5045411542305507e+00 9.6240089902265176e+00 2.7934850954469383e+01 -1 2 -1
1360 1 8.1591361763576309e-01 6.8990319162255869e+00 1.7222639695867606e+01 -4 4 0
2281 1 1.2156524677356273e+01 5.8001390325626891e+00 2.8175028821421318e+01 1 1 0
2990 1 9.7829653947650090e+00 9.7630817240118830e+00 2.5389140843080011e+01 -3 -2 -1
609 1 9.7092611484591735e+00 9.8007278493840015e+00 2.8058605219484782e+01 -2 1 0
2866 1 2.4211622873224958e+00 3.8276337852598630e+00 3.1892522809626811e+01 1 -7 0
1382 1 3.3212424138401881e+00 1.1594141019987305e+01 3.2120586236082559e+01 0 -5 0
1637 1 7.2268882870680349e+00 2.6644668555759776e+00 3.2180647656454752e+01 -2 1 1
2161 1 1.2106651323412530e+01 8.4143336680353364e+00 3.1720950006799573e+01 -1 -3 0
2322 1 1.2137065916952764e+01 3.0988257618495920e+00 3.1948724770568017e+01 1 -1 0
744 1 1.1809853975967757e+01 3.2056229855928122e+00 1.7117296986133987e+01 2 -1 -1
1374 1 7.6113353246373858e+00 1.1083782142327877e+01 3.2029999798063656e+01 1 3 0
1469 1 1.0133690184717341e+00 4.3937248843865433e+00 2.8812427911654780e+01 2 0 0
1394 1 7.5245592550421927e+00 8.1832245193661937e+00 3.1717891244955734e+01 4 -1 0
2148 1 5.3599290767963419e+00 6.9973765647680679e+00 3.2315520410011686e+01 -1 -3 1
2324 1 5.1032029541052655e+00 4.4686023531930008e+00 3.1770445837387157e+01 0 0 0
3869 1 9.7458022504774693e+00 3.9647537892039391e+00 2.8637146394930127e+01 -2 3 0
1537 1 9.5979669168365600e+00 3.8728134206608340e+00 3.1448807057740364e+01 -1 -1 0
1647 1 9.7679389395992864e+00 6.6300043318732156e+00 3.1910514264706322e+01 -1 1 0
2961 1 3.1432951922207275e+00 8.4249701503386554e+00 2.8889219333093475e+01 2 2 0
4498 1 3.0468823575246313e+00 8.5039192756471795e+00 3.1703093874272625e+01 3 4 -1
717 1 2.3763595497989911e+00 1.0006066796793429e+00 3.1611309376093658e+01 0 2 -1
3825 1 1.1632366572152353e+01 1.1126347837101907e+01 1.7431289784151151e+01 3 -3 1
1530 1 7.2500801139258164e-01 1.2236447559781697e+01 2.8887997393802767e+01 4 4 -1
132 2 0.0000000000000000e+00 1.2787731112280996e+01 2.3556853064276195e+00 0 0 0
134 2 1.2305000000000001e+00 1.3498160618518829e+01 2.3556853064276195e+00 0 0 0
169 2 2.4610000000000003e+00 1.2787731112280996e+01 2.3556853064276195e+00 0 0 0
171 2 3.6915000000000004e+00 1.3498160618518829e+01 2.3556853064276195e+00 0 0 0
130 2 0.0000000000000000e+00 1.5629449137232333e+01 2.3556853064276195e+00 0 0 0
165 2 1.2305000000000001e+00 1.4919019630994494e+01 2.3556853064276195e+00 0 0 0
167 2 2.4610000000000003e+00 1.5629449137232328e+01 2.3556853064276195e+00 0 0 0
210 2 3.6915000000000004e+00 1.4919019630994494e+01 2.3556853064276195e+00 0 0 0
214 2 4.9220000000000006e+00 1.2787731112280996e+01 2.3556853064276195e+00 0 0 0
216 2 6.1524999999999990e+00 1.3498160618518829e+01 2.3556853064276195e+00 0 0 0
261 2 7.3829999999999991e+00 1.2787731112280996e+01 2.3556853064276195e+00 0 0 0
212 2 4.9220000000000006e+00 1.5629449137232333e+01 2.3556853064276195e+00 0 0 0
257 2 6.1524999999999990e+00 1.4919019630994494e+01 2.3556853064276195e+00 0 0 0
259 2 7.3829999999999991e+00 1.5629449137232333e+01 2.3556853064276195e+00 0 0 0
263 2 8.6135000000000002e+00 1.3498160618518835e+01 2.3556853064276195e+00 0 0 0
308 2 9.8440000000000012e+00 1.2787731112280996e+01 2.3556853064276195e+00 0 0 0
310 2 1.1074500000000002e+01 1.3498160618518829e+01 2.3556853064276195e+00 0 0 0
304 2 8.6135000000000002e+00 1.4919019630994494e+01 2.3556853064276195e+00 0 0 0
306 2 9.8440000000000012e+00 1.5629449137232328e+01 2.3556853064276195e+00 0 0 0
346 2 1.1074500000000002e+01 1.4919019630994494e+01 2.3556853064276195e+00 0 0 0
161 2 0.0000000000000000e+00 1.7050308149707998e+01 2.3556853064276195e+00 0 0 0
206 2 2.4610000000000003e+00 1.7050308149707998e+01 2.3556853064276195e+00 0 0 0
159 2 0.0000000000000000e+00 1.9892026174659328e+01 2.3556853064276195e+00 0 0 0
163 2 1.2305000000000001e+00 1.7760737655945832e+01 2.3556853064276195e+00 0 0 0
202 2 1.2305000000000001e+00 1.9181596668421495e+01 2.3556853064276195e+00 0 0 0
204 2 2.4610000000000003e+00 1.9892026174659328e+01 2.3556853064276195e+00 0 0 0
208 2 3.6914999999999996e+00 1.7760737655945832e+01 2.3556853064276195e+00 0 0 0
249 2 3.6914999999999996e+00 1.9181596668421495e+01 2.3556853064276195e+00 0 0 0
253 2 4.9220000000000006e+00 1.7050308149707998e+01 2.3556853064276195e+00 0 0 0
300 2 7.3830000000000009e+00 1.7050308149707998e+01 2.3556853064276195e+00 0 0 0
251 2 4.9220000000000006e+00 1.9892026174659328e+01 2.3556853064276195e+00 0 0 0
255 2 6.1524999999999999e+00 1.7760737655945832e+01 2.3556853064276195e+00 0 0 0
296 2 6.1524999999999999e+00 1.9181596668421495e+01 2.3556853064276195e+00 0 0 0
298 2 7.3829999999999991e+00 1.9892026174659328e+01 2.3556853064276195e+00 0 0 0
342 2 9.8440000000000012e+00 1.7050308149707998e+01 2.3556853064276195e+00 0 0 0
376 2 1.2304999999999998e+01 1.7050308149707998e+01 2.3556853064276195e+00 0 0 0
302 2 8.6134999999999984e+00 1.7760737655945832e+01 2.3556853064276195e+00 0 0 0
338 2 8.6135000000000002e+00 1.9181596668421495e+01 2.3556853064276195e+00 0 0 0
340 2 9.8440000000000012e+00 1.9892026174659335e+01 2.3556853064276195e+00 0 0 0
344 2 1.1074500000000002e+01 1.7760737655945835e+01 2.3556853064276195e+00 0 0 0
372 2 1.1074500000000002e+01 1.9181596668421495e+01 2.3556853064276195e+00 0 0 0
196 2 0.0000000000000000e+00 2.4154603212086325e+01 2.3556853064276195e+00 0 0 0
198 2 0.0000000000000000e+00 2.1312885187134999e+01 2.3556853064276195e+00 0 0 0
200 2 1.2304999999999993e+00 2.2023314693372832e+01 2.3556853064276195e+00 0 0 0
241 2 1.2304999999999993e+00 2.3444173705848499e+01 2.3556853064276195e+00 0 0 0
243 2 2.4610000000000003e+00 2.4154603212086325e+01 2.3556853064276195e+00 0 0 0
245 2 2.4610000000000003e+00 2.1312885187134995e+01 2.3556853064276195e+00 0 0 0
247 2 3.6914999999999996e+00 2.2023314693372832e+01 2.3556853064276195e+00 0 0 0
288 2 3.6915000000000004e+00 2.3444173705848499e+01 2.3556853064276195e+00 0 0 0
290 2 4.9220000000000006e+00 2.4154603212086325e+01 2.3556853064276195e+00 0 0 0
292 2 4.9220000000000006e+00 2.1312885187134995e+01 2.3556853064276195e+00 0 0 0
294 2 6.1524999999999990e+00 2.2023314693372832e+01 2.3556853064276195e+00 0 0 0
330 2 6.1524999999999999e+00 2.3444173705848499e+01 2.3556853064276195e+00 0 0 0
332 2 7.3830000000000009e+00 2.4154603212086336e+01 2.3556853064276195e+00 0 0 0
334 2 7.3829999999999991e+00 2.1312885187134999e+01 2.3556853064276195e+00 0 0 0
336 2 8.6135000000000002e+00 2.2023314693372832e+01 2.3556853064276195e+00 0 0 0
364 2 8.6134999999999984e+00 2.3444173705848499e+01 2.3556853064276195e+00 0 0 0
366 2 9.8440000000000012e+00 2.4154603212086336e+01 2.3556853064276195e+00 0 0 0
368 2 9.8440000000000012e+00 2.1312885187134999e+01 2.3556853064276195e+00 0 0 0
370 2 1.1074500000000002e+01 2.2023314693372832e+01 2.3556853064276195e+00 0 0 0
390 2 1.1074500000000002e+01 2.3444173705848499e+01 2.3556853064276195e+00 0 0 0
133 2 0.0000000000000000e+00 1.2787731112280996e+01 5.5593411978874006e+00 0 0 0
170 2 2.4610000000000003e+00 1.2787731112280996e+01 5.5593411978874006e+00 0 0 0
442 2 0.0000000000000000e+00 1.2787731112280996e+01 8.7629970893514137e+00 0 0 0
443 2 1.2305000000000001e+00 1.3498160618518829e+01 8.7629970893514137e+00 0 0 0
461 2 2.4610000000000003e+00 1.2787731112280996e+01 8.7629970893514137e+00 0 0 0