LAMMPS data file via write_data, version 16 Mar 2018, timestep = 100000

4545 atoms
2 atom types

0.0000000000000000e+00 4.9219999999999999e+01 xlo xhi
0.0000000000000000e+00 4.9019635930410494e+01 ylo yhi
1.7697724785018956e+00 3.1865567308019916e+01 zlo zhi

Masses

1 18.015
2 12.01

Atoms # atomic

91 2 0.0000000000000000e+00 2.8417180249513345e+00 3.2702968748491332e+00 0 0 0
93 2 0.0000000000000000e+00 0.0000000000000000e+00 3.2702968748491332e+00 0 0 0
95 2 1.2305000000000001e+00 7.1042950623783474e-01 3.2702968748491332e+00 0 0 0
102 2 1.2305000000000001e+00 2.1312885187134998e+00 3.2702968748491332e+00 0 0 0
104 2 2.4610000000000003e+00 2.8417180249513345e+00 3.2702968748491332e+00 0 0 0
106 2 2.4610000000000003e+00 0.0000000000000000e+00 3.2702968748491332e+00 0 0 0
108 2 3.6915000000000004e+00 7.1042950623783474e-01 3.2702968748491332e+00 0 0 0
123 2 3.6914999999999996e+00 2.1312885187134998e+00 3.2702968748491332e+00 0 0 0
125 2 4.9220000000000006e+00 2.8417180249513332e+00 3.2702968748491332e+00 0 0 0
127 2 4.9220000000000006e+00 0.0000000000000000e+00 3.2702968748491332e+00 0 0 0
129 2 6.1524999999999999e+00 7.1042950623783407e-01 3.2702968748491332e+00 0 0 0
152 2 6.1524999999999999e+00 2.1312885187134989e+00 3.2702968748491332e+00 0 0 0
154 2 7.3829999999999991e+00 2.8417180249513345e+00 3.2702968748491332e+00 0 0 0
156 2 7.3829999999999991e+00 0.0000000000000000e+00 3.2702968748491332e+00 0 0 0
158 2 8.6134999999999984e+00 7.1042950623783407e-01 3.2702968748491332e+00 0 0 0
189 2 8.6134999999999984e+00 2.1312885187135002e+00 3.2702968748491332e+00 0 0 0
191 2 9.8440000000000012e+00 2.8417180249513332e+00 3.2702968748491332e+00 0 0 0
193 2 9.8440000000000012e+00 0.0000000000000000e+00 3.2702968748491332e+00 0 0 0
195 2 1.1074500000000002e+01 7.1042950623783330e-01 3.2702968748491332e+00 0 0 0
234 2 1.1074500000000002e+01 2.1312885187135002e+00 3.2702968748491332e+00 0 0 0
98 2 0.0000000000000000e+00 4.2625770374269996e+00 3.2702968748491332e+00 0 0 0
100 2 1.2305000000000001e+00 4.9730065436648339e+00 3.2702968748491332e+00 0 0 0
115 2 1.2305000000000001e+00 6.3938655561404980e+00 3.2702968748491332e+00 0 0 0
119 2 2.4610000000000003e+00 4.2625770374269996e+00 3.2702968748491332e+00 0 0 0
121 2 3.6914999999999996e+00 4.9730065436648339e+00 3.2702968748491332e+00 0 0 0
144 2 3.6914999999999996e+00 6.3938655561404980e+00 3.2702968748491332e+00 0 0 0
96 2 0.0000000000000000e+00 7.1042950623783341e+00 3.2702968748491332e+00 0 0 0
117 2 2.4610000000000003e+00 7.1042950623783341e+00 3.2702968748491332e+00 0 0 0
148 2 4.9220000000000006e+00 4.2625770374269978e+00 3.2702968748491332e+00 0 0 0
150 2 6.1524999999999999e+00 4.9730065436648339e+00 3.2702968748491332e+00 0 0 0
181 2 6.1524999999999999e+00 6.3938655561404980e+00 3.2702968748491332e+00 0 0 0
185 2 7.3829999999999991e+00 4.2625770374269996e+00 3.2702968748491332e+00 0 0 0
146 2 4.9220000000000006e+00 7.1042950623783341e+00 3.2702968748491332e+00 0 0 0
183 2 7.3830000000000009e+00 7.1042950623783341e+00 3.2702968748491332e+00 0 0 0
187 2 8.6135000000000002e+00 4.9730065436648339e+00 3.2702968748491332e+00 0 0 0
226 2 8.6135000000000002e+00 6.3938655561404980e+00 3.2702968748491332e+00 0 0 0
230 2 9.8440000000000012e+00 4.2625770374270004e+00 3.2702968748491332e+00 0 0 0
232 2 1.1074500000000002e+01 4.9730065436648339e+00 3.2702968748491332e+00 0 0 0
273 2 1.1074500000000002e+01 6.3938655561404980e+00 3.2702968748491332e+00 0 0 0
228 2 9.8440000000000012e+00 7.1042950623783341e+00 3.2702968748491332e+00 0 0 0
111 2 0.0000000000000000e+00 8.5251540748539991e+00 3.2702968748491332e+00 0 0 0
113 2 1.2305000000000001e+00 9.2355835810918343e+00 3.2702968748491332e+00 0 0 0
140 2 2.4610000000000003e+00 8.5251540748539991e+00 3.2702968748491332e+00 0 0 0
142 2 3.6915000000000004e+00 9.2355835810918343e+00 3.2702968748491332e+00 0 0 0
109 2 0.0000000000000000e+00 1.1366872099805333e+01 3.2702968748491332e+00 0 0 0
136 2 1.2305000000000001e+00 1.0656442593567498e+01 3.2702968748491332e+00 0 0 0
138 2 2.4610000000000003e+00 1.1366872099805333e+01 3.2702968748491332e+00 0 0 0
173 2 3.6914999999999996e+00 1.0656442593567499e+01 3.2702968748491332e+00 0 0 0
177 2 4.9220000000000006e+00 8.5251540748539991e+00 3.2702968748491332e+00 0 0 0
179 2 6.1524999999999999e+00 9.2355835810918343e+00 3.2702968748491332e+00 0 0 0
222 2 7.3830000000000009e+00 8.5251540748539991e+00 3.2702968748491332e+00 0 0 0
175 2 4.9220000000000006e+00 1.1366872099805333e+01 3.2702968748491332e+00 0 0 0
218 2 6.1524999999999999e+00 1.0656442593567499e+01 3.2702968748491332e+00 0 0 0
220 2 7.3829999999999991e+00 1.1366872099805333e+01 3.2702968748491332e+00 0 0 0
224 2 8.6134999999999984e+00 9.2355835810918343e+00 3.2702968748491332e+00 0 0 0
269 2 9.8440000000000012e+00 8.5251540748539956e+00 3.2702968748491332e+00 0 0 0
271 2 1.1074500000000002e+01 9.2355835810918343e+00 3.2702968748491332e+00 0 0 0
265 2 8.6134999999999984e+00 1.0656442593567498e+01 3.2702968748491332e+00 0 0 0
267 2 9.8440000000000012e+00 1.1366872099805333e+01 3.2702968748491332e+00 0 0 0
312 2 1.1074500000000002e+01 1.0656442593567498e+01 3.2702968748491332e+00 0 0 0
314 2 1.2304999999999998e+01 1.1366872099805333e+01 3.2702968748491332e+00 0 0 0
92 2 0.0000000000000000e+00 1.4208590124756650e+00 6.2713456675433319e+00 0 0 0
94 2 0.0000000000000000e+00 0.0000000000000000e+00 6.2713456675433319e+00 0 0 0
103 2 1.2305000000000001e+00 2.1312885187134998e+00 6.2713456675433319e+00 0 0 0
105 2 2.4610000000000003e+00 1.4208590124756650e+00 6.2713456675433319e+00 0 0 0
107 2 2.4610000000000003e+00 0.0000000000000000e+00 6.2713456675433319e+00 0 0 0
124 2 3.6914999999999996e+00 2.1312885187134998e+00 6.2713456675433319e+00 0 0 0
420 2 0.0000000000000000e+00 2.8417180249513345e+00 9.2723944602375052e+00 0 0 0
421 2 0.0000000000000000e+00 0.0000000000000000e+00 9.2723944602375052e+00 0 0 0
422 2 1.2305000000000001e+00 7.1042950623783474e-01 9.2723944602375052e+00 0 0 0
426 2 1.2305000000000001e+00 2.1312885187134998e+00 9.2723944602375052e+00 0 0 0
427 2 2.4610000000000003e+00 2.8417180249513345e+00 9.2723944602375052e+00 0 0 0
428 2 2.4610000000000003e+00 0.0000000000000000e+00 9.2723944602375052e+00 0 0 0
429 2 3.6915000000000004e+00 7.1042950623783474e-01 9.2723944602375052e+00 0 0 0
437 2 3.6914999999999996e+00 2.1312885187134998e+00 9.2723944602375052e+00 0 0 0
101 2 1.2305000000000001e+00 3.5521475311891644e+00 6.2713456675433319e+00 0 0 0
122 2 3.6914999999999996e+00 3.5521475311891644e+00 6.2713456675433319e+00 0 0 0
126 2 4.9220000000000006e+00 1.4208590124756650e+00 6.2713456675433319e+00 0 0 0
128 2 4.9220000000000006e+00 0.0000000000000000e+00 6.2713456675433319e+00 0 0 0
153 2 6.1524999999999999e+00 2.1312885187134989e+00 6.2713456675433319e+00 0 0 0
155 2 7.3829999999999991e+00 1.4208590124756659e+00 6.2713456675433319e+00 0 0 0
157 2 7.3829999999999991e+00 0.0000000000000000e+00 6.2713456675433319e+00 0 0 0
438 2 4.9220000000000006e+00 2.8417180249513332e+00 9.2723944602375052e+00 0 0 0
439 2 4.9220000000000006e+00 0.0000000000000000e+00 9.2723944602375052e+00 0 0 0
440 2 6.1524999999999999e+00 7.1042950623783407e-01 9.2723944602375052e+00 0 0 0
452 2 6.1524999999999999e+00 2.1312885187134989e+00 9.2723944602375052e+00 0 0 0
453 2 7.3829999999999991e+00 2.8417180249513345e+00 9.2723944602375052e+00 0 0 0
454 2 7.3829999999999991e+00 0.0000000000000000e+00 9.2723944602375052e+00 0 0 0
151 2 6.1524999999999999e+00 3.5521475311891644e+00 6.2713456675433319e+00 0 0 0
190 2 8.6134999999999984e+00 2.1312885187135002e+00 6.2713456675433319e+00 0 0 0
192 2 9.8440000000000012e+00 1.4208590124756659e+00 6.2713456675433319e+00 0 0 0
194 2 9.8440000000000012e+00 0.0000000000000000e+00 6.2713456675433319e+00 0 0 0
235 2 1.1074500000000002e+01 2.1312885187135002e+00 6.2713456675433319e+00 0 0 0
455 2 8.6134999999999984e+00 7.1042950623783407e-01 9.2723944602375052e+00 0 0 0
471 2 8.6134999999999984e+00 2.1312885187135002e+00 9.2723944602375052e+00 0 0 0
472 2 9.8440000000000012e+00 2.8417180249513332e+00 9.2723944602375052e+00 0 0 0
473 2 9.8440000000000012e+00 0.0000000000000000e+00 9.2723944602375052e+00 0 0 0
474 2 1.1074500000000002e+01 7.1042950623783330e-01 9.2723944602375052e+00 0 0 0
494 2 1.1074500000000002e+01 2.1312885187135002e+00 9.2723944602375052e+00 0 0 0
188 2 8.6134999999999984e+00 3.5521475311891657e+00 6.2713456675433319e+00 0 0 0
233 2 1.1074500000000002e+01 3.5521475311891644e+00 6.2713456675433319e+00 0 0 0
97 2 0.0000000000000000e+00 5.6834360499026637e+00 6.2713456675433319e+00 0 0 0
99 2 0.0000000000000000e+00 4.2625770374269996e+00 6.2713456675433319e+00 0 0 0
116 2 1.2305000000000001e+00 6.3938655561404980e+00 6.2713456675433319e+00 0 0 0
118 2 2.4610000000000003e+00 5.6834360499026637e+00 6.2713456675433319e+00 0 0 0
120 2 2.4610000000000003e+00 4.2625770374269996e+00 6.2713456675433319e+00 0 0 0
145 2 3.6914999999999996e+00 6.3938655561404980e+00 6.2713456675433319e+00 0 0 0
424 2 0.0000000000000000e+00 4.2625770374269996e+00 9.2723944602375052e+00 0 0 0
425 2 1.2305000000000001e+00 4.9730065436648339e+00 9.2723944602375052e+00 0 0 0
433 2 1.2305000000000001e+00 6.3938655561404980e+00 9.2723944602375052e+00 0 0 0
435 2 2.4610000000000003e+00 4.2625770374269996e+00 9.2723944602375052e+00 0 0 0
436 2 3.6914999999999996e+00 4.9730065436648339e+00 9.2723944602375052e+00 0 0 0
448 2 3.6914999999999996e+00 6.3938655561404980e+00 9.2723944602375052e+00 0 0 0
114 2 1.2305000000000001e+00 7.8147245686161639e+00 6.2713456675433319e+00 0 0 0
143 2 3.6914999999999996e+00 7.8147245686161639e+00 6.2713456675433319e+00 0 0 0
423 2 0.0000000000000000e+00 7.1042950623783341e+00 9.2723944602375052e+00 0 0 0
434 2 2.4610000000000003e+00 7.1042950623783341e+00 9.2723944602375052e+00 0 0 0
147 2 4.9220000000000006e+00 5.6834360499026637e+00 6.2713456675433319e+00 0 0 0
149 2 4.9220000000000006e+00 4.2625770374269978e+00 6.2713456675433319e+00 0 0 0
182 2 6.1524999999999999e+00 6.3938655561404980e+00 6.2713456675433319e+00 0 0 0
184 2 7.3829999999999991e+00 5.6834360499026637e+00 6.2713456675433319e+00 0 0 0
186 2 7.3829999999999991e+00 4.2625770374269996e+00 6.2713456675433319e+00 0 0 0
450 2 4.9220000000000006e+00 4.2625770374269978e+00 9.2723944602375052e+00 0 0 0
451 2 6.1524999999999999e+00 4.9730065436648339e+00 9.2723944602375052e+00 0 0 0
467 2 6.1524999999999999e+00 6.3938655561404980e+00 9.2723944602375052e+00 0 0 0
469 2 7.3829999999999991e+00 4.2625770374269996e+00 9.2723944602375052e+00 0 0 0
180 2 6.1524999999999999e+00 7.8147245686161639e+00 6.2713456675433319e+00 0 0 0
449 2 4.9220000000000006e+00 7.1042950623783341e+00 9.2723944602375052e+00 0 0 0
468 2 7.3830000000000009e+00 7.1042950623783341e+00 9.2723944602375052e+00 0 0 0
227 2 8.6135000000000002e+00 6.3938655561404980e+00 6.2713456675433319e+00 0 0 0
229 2 9.8440000000000012e+00 5.6834360499026637e+00 6.2713456675433319e+00 0 0 0
231 2 9.8440000000000012e+00 4.2625770374270004e+00 6.2713456675433319e+00 0 0 0
274 2 1.1074500000000002e+01 6.3938655561404980e+00 6.2713456675433319e+00 0 0 0
470 2 8.6135000000000002e+00 4.9730065436648339e+00 9.2723944602375052e+00 0 0 0
490 2 8.6135000000000002e+00 6.3938655561404980e+00 9.2723944602375052e+00 0 0 0
492 2 9.8440000000000012e+00 4.2625770374270004e+00 9.2723944602375052e+00 0 0 0
493 2 1.1074500000000002e+01 4.9730065436648339e+00 9.2723944602375052e+00 0 0 0
514 2 1.1074500000000002e+01 6.3938655561404980e+00 9.2723944602375052e+00 0 0 0
225 2 8.6135000000000002e+00 7.8147245686161639e+00 6.2713456675433319e+00 0 0 0
272 2 1.1074500000000002e+01 7.8147245686161639e+00 6.2713456675433319e+00 0 0 0
491 2 9.8440000000000012e+00 7.1042950623783341e+00 9.2723944602375052e+00 0 0 0
110 2 0.0000000000000000e+00 9.9460130873296642e+00 6.2713456675433319e+00 0 0 0
112 2 0.0000000000000000e+00 8.5251540748539991e+00 6.2713456675433319e+00 0 0 0
139 2 2.4610000000000003e+00 9.9460130873296642e+00 6.2713456675433319e+00 0 0 0
141 2 2.4610000000000003e+00 8.5251540748539991e+00 6.2713456675433319e+00 0 0 0
431 2 0.0000000000000000e+00 8.5251540748539991e+00 9.2723944602375052e+00 0 0 0
432 2 1.2305000000000001e+00 9.2355835810918343e+00 9.2723944602375052e+00 0 0 0
446 2 2.4610000000000003e+00 8.5251540748539991e+00 9.2723944602375052e+00 0 0 0
447 2 3.6915000000000004e+00 9.2355835810918343e+00 9.2723944602375052e+00 0 0 0
135 2 1.2305000000000001e+00 1.2077301606043163e+01 6.2713456675433319e+00 0 0 0
137 2 1.2305000000000001e+00 1.0656442593567498e+01 6.2713456675433319e+00 0 0 0
172 2 3.6914999999999996e+00 1.2077301606043163e+01 6.2713456675433319e+00 0 0 0
174 2 3.6914999999999996e+00 1.0656442593567499e+01 6.2713456675433319e+00 0 0 0
430 2 0.0000000000000000e+00 1.1366872099805333e+01 9.2723944602375052e+00 0 0 0
444 2 1.2305000000000001e+00 1.0656442593567498e+01 9.2723944602375052e+00 0 0 0
445 2 2.4610000000000003e+00 1.1366872099805333e+01 9.2723944602375052e+00 0 0 0
463 2 3.6914999999999996e+00 1.0656442593567499e+01 9.2723944602375052e+00 0 0 0
176 2 4.9220000000000006e+00 9.9460130873296642e+00 6.2713456675433319e+00 0 0 0
178 2 4.9220000000000006e+00 8.5251540748539991e+00 6.2713456675433319e+00 0 0 0
221 2 7.3830000000000009e+00 9.9460130873296642e+00 6.2713456675433319e+00 0 0 0
223 2 7.3830000000000009e+00 8.5251540748539991e+00 6.2713456675433319e+00 0 0 0
465 2 4.9220000000000006e+00 8.5251540748539991e+00 9.2723944602375052e+00 0 0 0
466 2 6.1524999999999999e+00 9.2355835810918343e+00 9.2723944602375052e+00 0 0 0
488 2 7.3830000000000009e+00 8.5251540748539991e+00 9.2723944602375052e+00 0 0 0
217 2 6.1524999999999999e+00 1.2077301606043163e+01 6.2713456675433319e+00 0 0 0
219 2 6.1524999999999999e+00 1.0656442593567499e+01 6.2713456675433319e+00 0 0 0
464 2 4.9220000000000006e+00 1.1366872099805333e+01 9.2723944602375052e+00 0 0 0
486 2 6.1524999999999999e+00 1.0656442593567499e+01 9.2723944602375052e+00 0 0 0
487 2 7.3829999999999991e+00 1.1366872099805333e+01 9.2723944602375052e+00 0 0 0
268 2 9.8440000000000012e+00 9.9460130873296642e+00 6.2713456675433319e+00 0 0 0
270 2 9.8440000000000012e+00 8.5251540748539956e+00 6.2713456675433319e+00 0 0 0
489 2 8.6134999999999984e+00 9.2355835810918343e+00 9.2723944602375052e+00 0 0 0
512 2 9.8440000000000012e+00 8.5251540748539956e+00 9.2723944602375052e+00 0 0 0
513 2 1.1074500000000002e+01 9.2355835810918343e+00 9.2723944602375052e+00 0 0 0
264 2 8.6135000000000002e+00 1.2077301606043163e+01 6.2713456675433319e+00 0 0 0
266 2 8.6134999999999984e+00 1.0656442593567498e+01 6.2713456675433319e+00 0 0 0
311 2 1.1074500000000002e+01 1.2077301606043163e+01 6.2713456675433319e+00 0 0 0
313 2 1.1074500000000002e+01 1.0656442593567498e+01 6.2713456675433319e+00 0 0 0
510 2 8.6134999999999984e+00 1.0656442593567498e+01 9.2723944602375052e+00 0 0 0
511 2 9.8440000000000012e+00 1.1366872099805333e+01 9.2723944602375052e+00 0 0 0
534 2 1.1074500000000002e+01 1.0656442593567498e+01 9.2723944602375052e+00 0 0 0
535 2 1.2304999999999998e+01 1.1366872099805333e+01 9.2723944602375052e+00 0 0 0
3039 1 2.4811701117261249e+00 3.7519238696028701e-01 1.1433658118683319e+01 1 1 0
2161 1 1.0611013746204764e+01 1.0452468620206059e+01 1.4564038653549405e+01 0 0 0
774 1 5.2072051842171740e+00 1.0258218745630441e+00 1.1659003837564603e+01 0 0 0
1475 1 8.1448978734487039e+00 2.8722576117462948e+00 1.1748144087258931e+01 0 0 0
2947 1 1.1863201072557116e+01 6.6508650409414427e+00 1.1734412534535512e+01 0 1 0
1592 1 2.3768499866655044e+00 4.4304386952075774e+00 1.1683743333771979e+01 1 1 0
771 1 2.2899390069650849e+00 7.5701995319678632e+00 1.1575372487897196e+01 0 0 0
1589 1 5.3482765852379499e+00 3.9552280751785709e+00 1.2097405313170436e+01 0 1 0
2224 1 6.5162280294267578e+00 6.9939178139111569e+00 1.2337528186950445e+01 0 0 0
3678 1 8.7835338451622285e+00 5.3254814477644272e+00 1.2010495007715686e+01 0 0 0
3698 1 3.7810164981326406e+00 4.2081502857704567e-01 1.6247089607505195e+01 1 0 0
1585 1 7.4171939036755097e-01 2.0603891005292625e+00 1.4678202327728835e+01 0 0 0
792 1 4.7292858278742065e+00 9.0143997723152598e+00 1.1768180960615325e+01 0 -1 0
3734 1 4.0301936693786823e-02 1.1630855167621373e+01 1.5344130823350859e+01 0 0 0
3122 1 9.1154957688867029e+00 8.8301260745903853e+00 1.1818040792316928e+01 1 1 0
2227 1 3.0652955746061439e+00 3.5456099145357713e+00 1.5798980043066825e+01 1 0 -1
4383 1 6.0439471875799642e+00 3.4205072417885520e+00 1.5073160368584590e+01 0 -1 0
3614 1 6.1714386358990128e+00 6.4558416671774732e-01 1.4723019412849803e+01 0 0 -1
635 1 1.1999749241892815e+01 9.6801357906517325e+00 1.1882489445770783e+01 0 -1 0
755 1 9.3548130755646124e+00 1.6839929927736712e+00 1.4317094595412536e+01 0 1 1
601 1 6.0068162087344756e-01 2.2523123875888298e+00 1.1878599920087549e+01 1 0 -1
11 1 1.0978067108836202e+01 6.2887155829615944e+00 1.4460582038489136e+01 0 0 0
587 1 1.5905043399782677e+00 5.5529603068505491e+00 1.4345672643896723e+01 0 -1 -1
3711 1 3.1152332172854980e+00 7.9877876269131924e+00 1.4381967560318898e+01 1 0 0
3050 1 8.9454245537013310e+00 7.8237241467345573e+00 1.4957203654063433e+01 -1 2 1
1436 1 1.4852043056436404e-01 9.0951771633236849e+00 1.4427906894668050e+01 1 0 1
1594 1 7.5921920324670280e+00 1.1088165149047571e+01 1.1691209548280376e+01 1 0 0
1512 1 6.7418941818619622e+00 1.0336220947373437e+01 1.4702633113690300e+01 1 1 -2
3058 1 5.8040961614039324e+00 7.4562670385175025e+00 1.4975883059937853e+01 0 0 0
3620 1 1.1670057265010431e+01 3.4360010456396526e+00 1.4929233410202293e+01 0 1 0
2926 1 9.9746045855676631e+00 4.0174692331605066e-01 1.1815504382844322e+01 0 1 0
4504 1 4.7280287607673754e+00 1.2245251937989769e+01 1.1708006092278042e+01 1 0 -1
636 1 1.5557378664724626e+00 1.1138584092114757e+01 1.9432108147141221e+01 0 0 0
55 1 1.1058654313234738e+01 1.6069682961310613e-01 2.4769098092809013e+01 1 -1 1
1422 1 1.8987657352839074e+00 1.5203107078473301e+00 1.8257240545176128e+01 0 1 0
2160 1 1.1301393537082339e+01 5.1448963442983930e-01 2.1836921219269886e+01 1 0 0
3004 1 5.4715968113731188e+00 3.9058358579642865e+00 2.6761283989004760e+01 0 0 0
2269 1 8.9448314649381366e+00 6.9205041661875386e+00 1.7780604958452436e+01 0 0 -1
2871 1 2.5384221676233856e+00 5.6707290249415820e-01 3.0754501117535824e+01 2 0 0
4405 1 1.0864694822069197e+01 5.5312283581440944e+00 2.0006511976406653e+01 0 0 0
1426 1 1.2260716113486185e+00 7.4383629264683702e+00 1.9979593554017494e+01 1 0 1
1473 1 3.1782060329850199e+00 5.2309613372724773e+00 1.8129701580461774e+01 -1 1 0
3071 1 7.1948749202836497e+00 3.8843089735184955e+00 1.7633966887462272e+01 1 0 0
3803 1 8.2149790683792059e+00 1.0926146632923738e+01 3.0380750321470227e+01 1 0 -1
3790 1 1.0276555577224750e+01 1.7577821669788509e+00 1.8273682925358042e+01 -1 1 -1
2306 1 1.1210849243128347e+01 8.5202107799270177e+00 2.0309933588718380e+01 0 0 -1
1507 1 1.6285073864156148e+00 7.3265119755007859e+00 1.6892393243157457e+01 0 0 0
2193 1 3.3577218643310047e+00 9.3699612617210217e+00 1.7956283950161851e+01 1 2 1
3885 1 1.0859076735659219e+01 1.1792112694738092e+01 3.0834653152424789e+01 1 -1 0
2958 1 4.4959815915274897e+00 1.9804515908031748e+00 2.3260137762488441e+01 1 1 -1
1652 1 8.6686176953519318e+00 1.1156875183113343e+01 1.6847474675556001e+01 -1 0 1
2847 1 8.4443156019194365e+00 9.2012526188427817e+00 1.9175033611805176e+01 1 0 0
2312 1 1.2090348317181064e+01 8.1720263375283775e+00 1.7224687422139262e+01 1 0 0
758 1 9.1163306575316794e-01 4.4103320240366717e-01 2.1657779230271952e+01 0 0 0
866 1 7.4595412458806907e+00 2.3133668445906577e+00 2.1622385115553705e+01 -1 0 -1
1567 1 1.1730147694801969e+01 1.0133168899827997e+01 2.4988593498806424e+01 0 0 0
2149 1 3.4407474186440106e+00 2.3675697233414517e+00 2.0622111742604677e+01 0 0 -1
4373 1 1.0222374409971085e+01 1.1750577760949186e+01 2.6258526896357125e+01 1 1 0
788 1 7.4029762905196792e+00 9.3828328878368090e+00 2.8090430527442010e+01 0 0 0
3092 1 1.9305734210190966e+00 4.8826044232256836e+00 2.0807669279419073e+01 -1 1 0
777 1 5.6325012285744744e+00 7.2067886204004399e+00 2.1910067571792808e+01 0 1 0
812 1 5.8650132088703737e+00 2.1093635967829480e+00 1.9534104551279288e+01 0 0 1
3742 1 1.0554011843528919e+01 6.0554642875498006e+00 2.3034893223727771e+01 1 1 0
1515 1 3.7839554955020764e+00 5.2177511537522081e+00 2.2838449979059135e+01 1 2 0
4527 1 7.8360613842340854e+00 6.1978726453757780e+00 2.3296648197991424e+01 1 1 1
1417 1 9.9432478881797017e+00 2.8752331160072093e+00 2.0796071706561211e+01 0 1 0
1591 1 1.1158675921822095e+01 3.3282249348395530e+00 2.3745930220902675e+01 0 -1 1
3798 1 1.9070281544159797e+00 9.7782095482858242e+00 2.1830079232153931e+01 0 0 -1
2266 1 2.4699821068274543e+00 1.3026414398873434e+00 2.5195505298858865e+01 1 1 -1
4414 1 5.5373557595228533e+00 9.1485259129034073e+00 1.9693016020679419e+01 0 1 -1
1390 1 2.0754256274079275e+00 8.9973306800580577e+00 3.0596535884268832e+01 1 0 0
2946 1 6.0506447767043099e+00 6.6715647672471512e+00 1.7795161573210212e+01 1 1 0
3684 1 1.1081660441467273e+01 6.1873931514686094e+00 2.5829427728328611e+01 0 0 0
765 1 1.0133970848681740e+01 9.0149635822975362e+00 2.2980640552599244e+01 0 1 0
1641 1 2.9246769656690557e+00 4.0736657974638240e+00 2.5742424466679179e+01 1 2 0
3015 1 2.0694641867200669e+00 6.3216797237931095e+00 3.1039195191289750e+01 1 1 0
2324 1 8.6788280312790367e-01 1.0700977440578896e+01 2.5321074412507460e+01 2 2 0
625 1 6.6738259739872525e+00 3.5317342484296916e+00 2.4148198034243272e+01 0 0 0
1611 1 1.8210436948578050e+00 6.7736771046879687e+00 2.4721511920885590e+01 0 1 0
2197 1 7.4718609300243681e+00 1.1638570141775162e+01 2.6318571224480998e+01 1 1 -1
3081 1 7.8925464875533926e+00 8.4944027202029595e+00 2.4673595814861301e+01 0 0 0
3735 1 3.2496235226737236e+00 8.7098788044561939e+00 2.6068764209903044e+01 0 0 0
3647 1 1.0114616457790886e+01 4.0519637080636137e+00 2.7551319488638033e+01 1 0 1
1474 1 1.3795185551345892e+00 4.2691262585125465e+00 2.8028625578877829e+01 0 1 0
634 1 3.9150835033734031e+00 1.2202276881531585e+01 2.1814931659626591e+01 1 1 0
2949 1 4.1906666605237106e+00 1.1369511977797416e+01 2.9770335457709109e+01 1 0 0
3118 1 4.3415402609372880e+00 9.2460183337255817e+00 2.3544100862192238e+01 1 -1 1
763 1 3.5904047876853977e+00 1.2184418796670444e+01 2.6324356473887548e+01 1 0 0
2354 1 4.9743584961451912e+00 7.5616461211906767e+00 2.8067084863884094e+01 0 1 0
3133 1 6.2941320098927145e+00 1.1519736066691648e+01 2.3720528240993023e+01 -1 0 -1
848 1 9.0401109425583286e+00 7.4808498831806016e+00 2.7082290584679786e+01 0 1 0
3792 1 8.1369060052850894e+00 1.0874609953989770e+01 2.1839571940871650e+01 0 1 0
1497 1 1.0163162914231867e+01 7.2735317984390049e+00 3.1117473776324140e+01 0 0 0
73 1 5.3442934464507017e+00 2.0738846370233605e-01 3.1044561858108288e+01 0 -1 0
1349 1 5.3852409814182973e+00 1.5131895048705515e+00 2.8353556812131089e+01 1 1 0
3873 1 9.0222491145752386e+00 2.1438440065652467e+00 2.5643110052975707e+01 0 1 0
845 1 8.4569297870367759e+00 3.0780694391345929e+00 2.9820123128987827e+01 1 1 1
2362 1 7.8331350638556110e+00 6.7592016809528677e-01 2.7588718632262680e+01 0 1 1
2173 1 1.1684201250651844e+00 8.7459136704966909e+00 2.7942671669306758e+01 0 1 0
810 1 3.9167892642968289e+00 5.0886653445891223e+00 2.9288475970273868e+01 1 0 0
3129 1 5.9155135389286491e+00 8.9556492694042618e+00 3.0642867392153523e+01 0 1 0
3691 1 5.7352110193257380e+00 3.5884682483027830e+00 3.0554933420163238e+01 0 0 0
2315 1 7.2806277635407088e+00 5.6485339792628437e+00 2.8053715546814782e+01 -1 0 -1
2219 1 1.0657344965977103e+01 4.7457846465204883e+00 3.0730624154487099e+01 1 0 -1
3750 1 1.1913026657702952e+01 9.2234497261367920e+00 2.9903527405022395e+01 1 -1 -1
2928 1 7.5543148076650777e+00 6.0834032819897716e+00 3.0890869544443579e+01 0 0 0
731 1 2.9309154382319730e-01 1.6536681142189105e+00 2.8134624219464879e+01 2 0 0
2348 1 1.0004453458170417e+01 4.1663287110927980e+00 1.7256355581368595e+01 0 0 0
2338 1 6.1909855363663748e+00 1.1833779008334607e+01 1.9835987382771229e+01 0 -1 0
2298 1 6.3695760145256020e-02 2.7343749230930792e+00 2.4246903034680052e+01 0 0 0
4523 1 8.8809917533632099e+00 4.6394176527810449e-01 3.0954739910679528e+01 0 1 0
3842 1 2.7937621563385315e+00 1.4537853319547617e-01 2.7865224811849679e+01 2 0 0
3056 1 1.0825959638962328e+01 1.2220495466210984e+01 1.8604609815013536e+01 0 0 -2
132 2 0.0000000000000000e+00 1.2787731112280996e+01 3.2702968748491332e+00 0 0 0
134 2 1.2305000000000001e+00 1.3498160618518829e+01 3.2702968748491332e+00 0 0 0
169 2 2.4610000000000003e+00 1.2787731112280996e+01 3.2702968748491332e+00 0 0 0
171 2 3.6915000000000004e+00 1.3498160618518829e+01 3.2702968748491332e+00 0 0 0
130 2 0.0000000000000000e+00 1.5629449137232333e+01 3.2702968748491332e+00 0 0 0
165 2 1.2305000000000001e+00 1.4919019630994494e+01 3.2702968748491332e+00 0 0 0
167 2 2.4610000000000003e+00 1.5629449137232328e+01 3.2702968748491332e+00 0 0 0
210 2 3.6915000000000004e+00 1.4919019630994494e+01 3.2702968748491332e+00 0 0 0
214 2 4.9220000000000006e+00 1.2787731112280996e+01 3.2702968748491332e+00 0 0 0
216 2 6.1524999999999990e+00 1.3498160618518829e+01 3.2702968748491332e+00 0 0 0
261 2 7.3829999999999991e+00 1.2787731112280996e+01 3.2702968748491332e+00 0 0 0
212 2 4.9220000000000006e+00 1.5629449137232333e+01 3.2702968748491332e+00 0 0 0
257 2 6.1524999999999990e+00 1.4919019630994494e+01 3.2702968748491332e+00 0 0 0
259 2 7.3829999999999991e+00 1.5629449137232333e+01 3.2702968748491332e+00 0 0 0
263 2 8.6135000000000002e+00 1.3498160618518835e+01 3.2702968748491332e+00 0 0 0
308 2 9.8440000000000012e+00 1.2787731112280996e+01 3.2702968748491332e+00 0 0 0
310 2 1.1074500000000002e+01 1.3498160618518829e+01 3.2702968748491332e+00 0 0 0
304 2 8.6135000000000002e+00 1.4919019630994494e+01 3.2702968748491332e+00 0 0 0
306 2 9.8440000000000012e+00 1.5629449137232328e+01 3.2702968748491332e+00 0 0 0
346 2 1.1074500000000002e+01 1.4919019630994494e+01 3.2702968748491332e+00 0 0 0
161 2 0.0000000000000000e+00 1.7050308149707998e+01 3.2702968748491332e+00 0 0 0
206 2 2.4610000000000003e+00 1.7050308149707998e+01 3.2702968748491332e+00 0 0 0
159 2 0.0000000000000000e+00 1.9892026174659328e+01 3.2702968748491332e+00 0 0 0
163 2 1.2305000000000001e+00 1.7760737655945832e+01 3.2702968748491332e+00 0 0 0
202 2 1.2305000000000001e+00 1.9181596668421495e+01 3.2702968748491332e+00 0 0 0
204 2 2.4610000000000003e+00 1.9892026174659328e+01 3.2702968748491332e+00 0 0 0
208 2 3.6914999999999996e+00 1.7760737655945832e+01 3.2702968748491332e+00 0 0 0
249 2 3.6914999999999996e+00 1.9181596668421495e+01 3.2702968748491332e+00 0 0 0
253 2 4.9220000000000006e+00 1.7050308149707998e+01 3.2702968748491332e+00 0 0 0
300 2 7.3830000000000009e+00 1.7050308149707998e+01 3.2702968748491332e+00 0 0 0
251 2 4.9220000000000006e+00 1.9892026174659328e+01 3.2702968748491332e+00 0 0 0
255 2 6.1524999999999999e+00 1.7760737655945832e+01 3.2702968748491332e+00 0 0 0
296 2 6.1524999999999999e+00 1.9181596668421495e+01 3.2702968748491332e+00 0 0 0
298 2 7.3829999999999991e+00 1.9892026174659328e+01 3.2702968748491332e+00 0 0 0
342 2 9.8440000000000012e+00 1.7050308149707998e+01 3.2702968748491332e+00 0 0 0
376 2 1.2304999999999998e+01 1.7050308149707998e+01 3.2702968748491332e+00 0 0 0
302 2 8.6134999999999984e+00 1.7760737655945832e+01 3.2702968748491332e+00 0 0 0
338 2 8.6135000000000002e+00 1.9181596668421495e+01 3.2702968748491332e+00 0 0 0
340 2 9.8440000000000012e+00 1.9892026174659335e+01 3.2702968748491332e+00 0 0 0
344 2 1.1074500000000002e+01 1.7760737655945835e+01 3.2702968748491332e+00 0 0 0
372 2 1.1074500000000002e+01 1.9181596668421495e+01 3.2702968748491332e+00 0 0 0
196 2 0.0000000000000000e+00 2.4154603212086325e+01 3.2702968748491332e+00 0 0 0
198 2 0.0000000000000000e+00 2.1312885187134999e+01 3.2702968748491332e+00 0 0 0
200 2 1.2304999999999993e+00 2.2023314693372832e+01 3.2702968748491332e+00 0 0 0
241 2 1.2304999999999993e+00 2.3444173705848499e+01 3.2702968748491332e+00 0 0 0
243 2 2.4610000000000003e+00 2.4154603212086325e+01 3.2702968748491332e+00 0 0 0
245 2 2.4610000000000003e+00 2.1312885187134995e+01 3.2702968748491332e+00 0 0 0
247 2 3.6914999999999996e+00 2.2023314693372832e+01 3.2702968748491332e+00 0 0 0
288 2 3.6915000000000004e+00 2.3444173705848499e+01 3.2702968748491332e+00 0 0 0
290 2 4.9220000000000006e+00 2.4154603212086325e+01 3.2702968748491332e+00 0 0 0
292 2 4.9220000000000006e+00 2.1312885187134995e+01 3.2702968748491332e+00 0 0 0
294 2 6.1524999999999990e+00 2.2023314693372832e+01 3.2702968748491332e+00 0 0 0
330 2 6.1524999999999999e+00 2.3444173705848499e+01 3.2702968748491332e+00 0 0 0
332 2 7.3830000000000009e+00 2.4154603212086336e+01 3.2702968748491332e+00 0 0 0
334 2 7.3829999999999991e+00 2.1312885187134999e+01 3.2702968748491332e+00 0 0 0
336 2 8.6135000000000002e+00 2.2023314693372832e+01 3.2702968748491332e+00 0 0 0
364 2 8.6134999999999984e+00 2.3444173705848499e+01 3.2702968748491332e+00 0 0 0
366 2 9.8440000000000012e+00 2.4154603212086336e+01 3.2702968748491332e+00 0 0 0
368 2 9.8440000000000012e+00 2.1312885187134999e+01 3.2702968748491332e+00 0 0 0
370 2 1.1074500000000002e+01 2.2023314693372832e+01 3.2702968748491332e+00 0 0 0
390 2 1.1074500000000002e+01 2.3444173705848499e+01 3.2702968748491332e+00 0 0 0
133 2 0.0000000000000000e+00 1.2787731112280996e+01 6.2713456675433319e+00 0 0 0
170 2 2.4610000000000003e+00 1.2787731112280996e+01 6.2713456675433319e+00 0 0 0
442 2 0.0000000000000000e+00 1.2787731112280996e+01 9.2723944602375052e+00 0 0 0
443 2 1.2305000000000001e+00 1.3498160618518829e+01 9.2723944602375052e+00 0 0 0
461 2 2.4610000000000003e+00 1.2787731112280996e+01 9.2723944602375052e+00 0 0 0
462 2 3.6915000000000004e+00 1.3498160618518829e+01 9.2723944602375052e+00 0 0 0
131 2 0.0000000000000000e+00 1.4208590124756663e+01 6.2713456675433319e+00 0 0 0
166 2 1.2305000000000001e+00 1.4919019630994494e+01 6.2713456675433319e+00 0 0 0
168 2 2.4610000000000003e+00 1.4208590124756663e+01 6.2713456675433319e+00 0 0 0