LAMMPS data file via write_data, version 16 Mar 2018, timestep = 8000000

6328 atoms
2 atom types

0.0000000000000000e+00 4.9219999999999999e+01 xlo xhi
0.0000000000000000e+00 4.9019635930410494e+01 ylo yhi
2.1824600380299835e+00 5.7879539961956326e+01 zlo zhi

Masses

1 18.015
2 12.01

Atoms # atomic

160 1 4.5185683752869119e+00 7.3680703048319041e-01 3.3980530924897829e+00 -5 -4 0
1641 1 4.5150371566356382e+00 7.8050803555908355e-01 5.9770348894458181e+00 1 -2 1
3106 1 7.0211589614111904e+00 1.5005285747858027e+01 1.0708742382194272e+01 -3 -3 0
2026 1 9.1419835708137072e+00 1.6005654510553583e+01 6.0377336946474340e+00 -1 0 1
5278 1 2.6165394101610380e+00 1.4239260892238851e+01 1.0655604974186140e+01 1 2 1
3125 1 8.6737503719785689e+00 8.7942400271524201e-01 6.1817803419642301e+00 2 -1 1
1268 1 8.9662663174650898e+00 1.0691221536224165e+00 3.4540649662352725e+00 6 -1 1
4449 1 2.6534015090075358e-01 3.3623828770491069e+00 1.1051889705987961e+01 0 2 1
122 1 8.8873672140047812e+00 5.4868474347037983e+00 2.3584650363319128e+00 -1 -2 1
3628 1 2.2314865439007807e+00 4.3785976392595236e+00 3.1885318707945403e+00 0 6 0
1407 1 2.2592373367186123e+00 4.1979430595033067e+00 5.9392871362294670e+00 3 6 0
3091 1 7.1746010873673915e+00 9.6267906140364747e+00 6.8773783990001220e+00 -1 6 1
1539 1 1.5180164999740839e-01 1.3247997632422239e+01 7.2080366481746170e+00 1 3 1
4438 1 6.6606534914369639e+00 4.5802069797669045e+00 6.0372903332060623e+00 -5 -4 1
4893 1 6.6031664230095375e+00 4.4790746244854756e+00 3.2695796860633179e+00 -3 4 1
3617 1 5.0018019449208708e+00 8.3037697679904259e+00 6.0643191338288105e+00 1 -5 0
5198 1 4.7178499874062503e+00 7.8867369971158450e+00 3.4615863673324028e+00 -2 -2 0
5130 1 8.9336125994470841e+00 1.3481549875936283e+01 9.7398171433036875e+00 1 2 0
1746 1 4.6663795962513077e-01 1.5949154157129776e+01 3.4687163098161276e+00 5 -6 0
1342 1 2.1156855252962288e+00 1.8898207749992084e+00 2.5774807750110376e+00 1 1 0
5989 1 9.2506636430559670e+00 8.1225732711370764e+00 3.2684810658284067e+00 1 -2 1
1297 1 9.9221961096404243e-02 1.3515380519173062e+01 9.7591510678708371e+00 -2 5 1
1570 1 9.6946529515755397e+00 8.4275751774620424e+00 6.0265921903310140e+00 -3 -3 1
6273 1 7.2797966966099548e+00 1.1815113309415244e+01 3.4887290474801320e+00 2 -5 1
193 1 2.8348435693726244e+00 1.2028563699416134e+01 3.3486593766826052e+00 0 0 1
2911 1 2.5001654486347054e+00 1.2131683189912595e+01 6.1851993726413967e+00 1 2 1
3268 1 4.4534281107281339e+00 1.5942948858814104e+01 6.0425139290956302e+00 1 0 0
4813 1 6.9439068739598788e+00 9.7335466662126038e+00 9.6107702585011818e+00 0 2 0
420 1 7.0689885757802449e+00 1.2371053781874721e+01 6.0881703067387534e+00 -3 0 0
4499 1 4.5857624497297280e+00 1.5610599244486288e+01 3.2738805553991805e+00 0 2 1
1602 1 9.0505869423447898e+00 1.0853962616646781e+01 1.0640772491265524e+01 -1 0 0
4616 1 9.2229048390176569e+00 1.5744489707865439e+01 3.2517008271323649e+00 5 -2 1
4646 1 9.2730288115624528e+00 1.3384895007175988e+01 6.7865832944468742e+00 3 -2 0
4442 1 2.2643385168975616e+00 1.5205490919099374e+00 6.9464869126792523e+00 5 1 1
3476 1 2.3420807948212952e+00 1.8277672731532610e+00 9.7966109455501886e+00 1 -4 1
266 1 4.4626185716457698e+00 3.1904499716538810e+00 1.0711214801015773e+01 3 -7 0
5985 1 9.0647665702772127e+00 3.3204541054046541e+00 1.0685072891761402e+01 4 3 0
5992 1 6.5589095718320509e+00 2.3397448815949660e+00 7.0315276669691062e+00 -1 1 1
2826 1 6.7827245448490716e+00 2.0591105842272230e+00 9.8977325698412209e+00 6 0 0
3600 1 4.4405134895804044e-01 1.5580655870795889e+01 6.1718805995337025e+00 1 -1 0
1921 1 4.4724932083035114e+00 5.6597577755312827e+00 6.9571350408057997e+00 3 3 0
2989 1 2.5979045141847963e+00 6.9598712240011862e+00 1.0566494644925973e+01 3 0 0
1661 1 4.7265048264493190e+00 5.6843708662121371e+00 9.6886290779465902e+00 2 1 1
4817 1 4.9897849881777248e+00 1.3497501512113491e+01 9.9101104360148682e+00 1 -2 1
3491 1 9.2884085592540053e+00 5.7824311584815105e+00 6.7370108409774589e+00 2 -4 0
330 1 9.2144624141949780e+00 5.7518061756725203e+00 9.5146560871612529e+00 -2 -1 0
4544 1 7.0800107729210646e+00 7.1736280415949567e+00 1.0513121370258766e+01 0 2 1
1958 1 2.4898310425574990e+00 9.6213917705609973e+00 9.6114340294343386e+00 -3 6 0
198 1 2.2981928183737552e+00 9.5419354626233108e+00 6.8931021294515391e+00 2 2 0
4455 1 4.6747463930613922e+00 1.0831190571355442e+01 1.0673086332578039e+01 0 -1 1
2867 1 4.8228951392980930e+00 1.3396619188919502e+01 7.3080606315188872e+00 1 4 1
3500 1 4.4411054263173355e+00 5.5390994365286010e+00 2.3895337823636122e+00 -5 -1 0
1980 1 2.1218996731622156e-01 8.1613987493469473e+00 6.6473283260002916e+00 -1 2 0
2858 1 1.4427920280174458e-01 8.2484892520770074e+00 3.9046076468471704e+00 2 1 1
1454 1 4.4417447875753024e-01 5.8538510086084123e+00 9.7714451348333817e+00 2 0 1
3348 1 1.3030788060267753e-01 5.4113487980878565e+00 7.0584452750628506e+00 4 3 0
392 1 6.6677360962018284e+00 2.0498341529126196e+00 2.2994571031209201e+00 3 3 0
2981 1 3.0718606137220694e-01 1.0771821684804493e+01 1.0758770616484025e+01 0 5 1
6318 1 3.4702008414007651e-01 1.3407926605156451e+01 2.7262101370410829e+00 0 3 1
424 1 2.3171350160586739e+00 9.4723755977736612e+00 2.9714464451464897e+00 3 -3 0
366 1 5.1972568719477454e+00 1.3267694840661854e+01 2.4854421643062912e+00 2 -1 0
1381 1 9.4947798646161168e+00 1.3108732738740889e+01 2.2615109517163536e+00 -2 -4 1
2821 1 5.4539742409716041e-03 3.7099245974021849e-01 6.1883905877486667e+00 0 5 0
6064 1 5.4475715034598693e-02 5.8773723177445163e+00 2.6656352317231340e+00 10 -2 1
1797 1 4.6574508296338815e+00 3.2888792386009262e+00 1.3574301271368169e+01 -3 -4 0
4926 1 4.4808346171412072e+00 7.2876414505076081e-01 1.4831020715660840e+01 3 2 0
80 1 4.5466945213929444e+00 3.4496117272875187e-01 1.7520290278255722e+01 2 -2 0
4826 1 9.1538002328655228e+00 2.8827960234216587e+00 1.3570185657643680e+01 -1 -1 1
3242 1 8.6961257431472632e+00 3.6861230856387373e-01 1.4801968129529143e+01 -1 4 0
3362 1 2.3865709379064874e+00 4.2483669269965567e+00 1.4593431624509590e+01 4 -2 0
5070 1 2.5976356424207068e+00 6.9023897969336581e+00 1.3422523938277834e+01 2 -3 1
6065 1 7.0583299482014032e+00 4.3509573115512348e+00 1.4653300169470850e+01 3 0 0
3272 1 6.8814211060964592e+00 6.7451179982258029e+00 1.3254743288833945e+01 0 1 1
1401 1 4.7615001832025499e+00 8.1437648576154231e+00 1.4611804788115744e+01 1 -1 1
3459 1 4.3998896271963082e+00 1.0664529466865712e+01 1.3537018034382111e+01 2 -1 0
3049 1 2.1823331586819146e+00 1.1979787387649102e+01 1.4612876970692829e+01 0 2 1
1320 1 9.0856938688853450e+00 8.0675866690527140e+00 1.4558605946937437e+01 -2 -1 1
4942 1 8.6931682924894886e+00 1.0810691073340990e+01 1.3460263767291893e+01 3 -2 0
5199 1 6.5681463736258658e+00 1.2001687736253492e+01 1.4420301101978946e+01 0 -5 0
6322 1 2.3317240222759397e+00 1.4353325009238771e+01 1.8241486282011302e+01 -1 1 1
6155 1 2.4132919336561525e+00 1.4414476140871283e+01 1.3265030735462155e+01 2 0 1
3016 1 4.6032208633114360e+00 1.5810997291471237e+01 1.4245657346968562e+01 3 -3 0
258 1 2.4256994258550161e-02 1.5508881524144142e+01 1.6896866856783298e+01 0 -2 0
1604 1 6.9006891653488553e+00 1.4576167380114144e+01 1.3539098778338948e+01 1 -3 1
1692 1 4.6821724634404127e+00 2.9781153328254755e+00 1.8273446762299663e+01 2 2 0
6257 1 1.8707162482738160e-01 3.9542378800113009e-01 1.4723358336253510e+01 4 3 1
5047 1 8.9975159325926821e+00 8.0286302309682132e+00 1.7263434398525522e+01 1 4 0
204 1 9.3987707692491771e+00 2.6122171740876379e+00 1.8111637469711077e+01 -3 2 1
3619 1 2.3238687678776553e+00 4.3705431171616871e+00 1.7388881736906427e+01 9 2 1
5155 1 2.0869828869786731e+00 6.6658183973508303e+00 1.8461850443580509e+01 -3 -3 1
300 1 7.0547385298864649e+00 4.3263769287442670e+00 1.7282699317699013e+01 1 5 0
1750 1 6.7000253444129658e+00 6.6624702131751548e+00 1.8281964321836220e+01 0 1 0
197 1 6.6721138101471267e+00 1.4591800380732145e+01 1.8439452367865961e+01 3 6 0
1967 1 4.4441262346897421e+00 7.8711885851160428e+00 1.7337559401963823e+01 -1 5 0
6057 1 4.6104273587941424e+00 1.0443544783098034e+01 1.8357034756593979e+01 1 1 1
6170 1 2.2343189222387076e+00 1.1794453916691927e+01 1.7221721637897659e+01 -1 -1 1
4743 1 1.0472028592677418e-01 1.0580022740537702e+01 1.8358876690896643e+01 5 0 0
1941 1 6.7450442329550286e+00 1.2112409227698896e+01 1.7215597070122669e+01 -1 3 1
501 1 9.0952913626621736e+00 1.0674884687899178e+01 1.8249652104465341e+01 4 2 1
3532 1 9.0682621222581563e+00 1.5718869227302477e+01 1.7476787036235486e+01 4 0 0
4912 1 3.5731507958261849e-01 8.0238772487311518e+00 1.4362767433871579e+01 1 2 1
2818 1 4.4116218615701426e+00 1.5766542475434846e+01 1.7254284843277645e+01 1 2 1
1600 1 9.0451549394377455e+00 1.5703400118378033e+01 1.4716919437672937e+01 -2 1 1
4841 1 1.5570990009232330e-01 3.0435880778632374e+00 1.3887628268603647e+01 -2 -1 1
3647 1 7.7882856218266378e-03 1.0681476419332800e+01 1.3478753510815398e+01 -7 -4 0
1509 1 4.5459953743112153e-01 2.7106099979756104e+00 1.8583142379261613e+01 -7 0 1
5258 1 8.4971390852680559e-02 1.5746231498068548e+01 1.4399991918855633e+01 2 1 1
1393 1 3.6292682012821857e+00 2.8302891529644953e+00 2.4010626423731043e+01 2 1 1
4547 1 1.0530120448750706e+00 1.5296825175624469e+00 2.4152607494047619e+01 5 3 1
5116 1 1.2623827718879845e+00 1.7880391768086699e+00 2.1559601328442056e+01 5 -2 0
720 2 7.3829999999999991e+00 1.5629449137232333e+01 2.6707268186483414e+01 0 0 0
2841 1 8.7212547725752998e+00 2.4477112219771771e+00 2.3877317618577791e+01 1 1 1
167 1 6.2926133858859306e+00 1.3316392433020434e+00 2.4153858294787323e+01 -1 0 0
2913 1 6.3284420831473520e+00 1.0646113100093879e+00 2.1266437320976479e+01 -5 -1 1
765 2 8.6135000000000002e+00 1.4919019630994494e+01 2.6707268186483414e+01 0 0 0
296 1 3.5233404750263011e+00 1.0933399726931221e+01 2.1175354483090732e+01 1 3 1
153 1 1.2162882627850002e+00 7.1680178368112557e+00 2.4192412903726460e+01 -2 2 1
6298 1 3.6667434182870955e+00 5.6664617798616970e+00 2.4385307484518485e+01 2 4 1
3358 1 3.8500934491560690e+00 2.8752986561402416e+00 2.1077238223132088e+01 3 3 0
2823 1 8.3920927764881803e+00 5.3178027321029573e+00 2.1532576669887835e+01 -2 0 1
4504 1 8.4570219836528047e+00 5.1273556054081810e+00 2.4291512012286486e+01 -1 1 1
3698 1 6.2939265884145064e+00 6.7009370161109008e+00 2.4085157674788285e+01 0 0 1
5010 1 9.5566605583180853e-01 1.0003275897708789e+01 2.0800950301721794e+01 -5 -1 0
2921 1 1.3098928367239364e+00 1.0037648414495065e+01 2.3930305115323463e+01 3 1 1
4533 1 3.7168268180830744e+00 1.1388515756347571e+01 2.3915850233609152e+01 -3 2 0
372 1 6.1170925069244513e+00 9.7358076118671235e+00 2.1113203084882045e+01 -3 1 1
344 1 8.6662196313377908e+00 1.0927838018395247e+01 2.4013331991034516e+01 -1 -3 1
2880 1 6.1543949613494631e+00 9.6552686124988245e+00 2.4008175417949719e+01 3 3 1
724 2 8.6135000000000002e+00 1.3498160618518835e+01 2.6707268186483414e+01 0 0 0
1965 1 1.0134575511648001e+00 1.5087965290161314e+01 2.3817163078212847e+01 -1 -8 1
5157 1 3.5521017237543027e+00 1.4137811829535789e+01 2.3622767600126334e+01 1 -1 0
144 1 8.5813851915069179e+00 1.0841995711038923e+01 2.0878337022810495e+01 -1 2 1
3468 1 3.6689932377354850e+00 5.7520634919209241e+00 2.1640485504714505e+01 -1 2 0
202 1 6.2528377806227127e+00 1.5133841550957627e+01 2.4282491155827177e+01 2 1 0
1979 1 8.5085472008463920e+00 1.3584023067550500e+01 2.4219418592431428e+01 2 0 1
3350 1 8.5566956874988342e+00 1.3508288687477172e+01 2.1483266311091473e+01 0 0 0
552 2 0.0000000000000000e+00 2.8417180249513345e+00 2.6707268186483414e+01 0 0 0
554 2 0.0000000000000000e+00 0.0000000000000000e+00 2.6707268186483414e+01 0 0 0
556 2 1.2305000000000001e+00 7.1042950623783474e-01 2.6707268186483414e+01 0 0 0
563 2 1.2305000000000001e+00 2.1312885187134998e+00 2.6707268186483414e+01 0 0 0
565 2 2.4610000000000003e+00 2.8417180249513345e+00 2.6707268186483414e+01 0 0 0
567 2 2.4610000000000003e+00 0.0000000000000000e+00 2.6707268186483414e+01 0 0 0
569 2 3.6915000000000004e+00 7.1042950623783474e-01 2.6707268186483414e+01 0 0 0
584 2 3.6914999999999996e+00 2.1312885187134998e+00 2.6707268186483414e+01 0 0 0
586 2 4.9220000000000006e+00 2.8417180249513332e+00 2.6707268186483414e+01 0 0 0
588 2 4.9220000000000006e+00 0.0000000000000000e+00 2.6707268186483414e+01 0 0 0
590 2 6.1524999999999999e+00 7.1042950623783407e-01 2.6707268186483414e+01 0 0 0
613 2 6.1524999999999999e+00 2.1312885187134989e+00 2.6707268186483414e+01 0 0 0
615 2 7.3829999999999991e+00 2.8417180249513345e+00 2.6707268186483414e+01 0 0 0
617 2 7.3829999999999991e+00 0.0000000000000000e+00 2.6707268186483414e+01 0 0 0
619 2 8.6134999999999984e+00 7.1042950623783407e-01 2.6707268186483414e+01 0 0 0
650 2 8.6134999999999984e+00 2.1312885187135002e+00 2.6707268186483414e+01 0 0 0
559 2 0.0000000000000000e+00 4.2625770374269996e+00 2.6707268186483414e+01 0 0 0
561 2 1.2305000000000001e+00 4.9730065436648339e+00 2.6707268186483414e+01 0 0 0
576 2 1.2305000000000001e+00 6.3938655561404980e+00 2.6707268186483414e+01 0 0 0
580 2 2.4610000000000003e+00 4.2625770374269996e+00 2.6707268186483414e+01 0 0 0
582 2 3.6914999999999996e+00 4.9730065436648339e+00 2.6707268186483414e+01 0 0 0
605 2 3.6914999999999996e+00 6.3938655561404980e+00 2.6707268186483414e+01 0 0 0
557 2 0.0000000000000000e+00 7.1042950623783341e+00 2.6707268186483414e+01 0 0 0
578 2 2.4610000000000003e+00 7.1042950623783341e+00 2.6707268186483414e+01 0 0 0
609 2 4.9220000000000006e+00 4.2625770374269978e+00 2.6707268186483414e+01 0 0 0
611 2 6.1524999999999999e+00 4.9730065436648339e+00 2.6707268186483414e+01 0 0 0
642 2 6.1524999999999999e+00 6.3938655561404980e+00 2.6707268186483414e+01 0 0 0
646 2 7.3829999999999991e+00 4.2625770374269996e+00 2.6707268186483414e+01 0 0 0
648 2 8.6135000000000002e+00 4.9730065436648339e+00 2.6707268186483414e+01 0 0 0
687 2 8.6135000000000002e+00 6.3938655561404980e+00 2.6707268186483414e+01 0 0 0
607 2 4.9220000000000006e+00 7.1042950623783341e+00 2.6707268186483414e+01 0 0 0
644 2 7.3830000000000009e+00 7.1042950623783341e+00 2.6707268186483414e+01 0 0 0
572 2 0.0000000000000000e+00 8.5251540748539991e+00 2.6707268186483414e+01 0 0 0
574 2 1.2305000000000001e+00 9.2355835810918343e+00 2.6707268186483414e+01 0 0 0
601 2 2.4610000000000003e+00 8.5251540748539991e+00 2.6707268186483414e+01 0 0 0
603 2 3.6915000000000004e+00 9.2355835810918343e+00 2.6707268186483414e+01 0 0 0
570 2 0.0000000000000000e+00 1.1366872099805333e+01 2.6707268186483414e+01 0 0 0
597 2 1.2305000000000001e+00 1.0656442593567498e+01 2.6707268186483414e+01 0 0 0
599 2 2.4610000000000003e+00 1.1366872099805333e+01 2.6707268186483414e+01 0 0 0
634 2 3.6914999999999996e+00 1.0656442593567499e+01 2.6707268186483414e+01 0 0 0
726 2 8.6134999999999984e+00 1.0656442593567498e+01 2.6707268186483414e+01 0 0 0
638 2 4.9220000000000006e+00 8.5251540748539991e+00 2.6707268186483414e+01 0 0 0
640 2 6.1524999999999999e+00 9.2355835810918343e+00 2.6707268186483414e+01 0 0 0
683 2 7.3830000000000009e+00 8.5251540748539991e+00 2.6707268186483414e+01 0 0 0
685 2 8.6134999999999984e+00 9.2355835810918343e+00 2.6707268186483414e+01 0 0 0
636 2 4.9220000000000006e+00 1.1366872099805333e+01 2.6707268186483414e+01 0 0 0
679 2 6.1524999999999999e+00 1.0656442593567499e+01 2.6707268186483414e+01 0 0 0
681 2 7.3829999999999991e+00 1.1366872099805333e+01 2.6707268186483414e+01 0 0 0
630 2 2.4610000000000003e+00 1.2787731112280996e+01 2.6707268186483414e+01 0 0 0
626 2 1.2305000000000001e+00 1.4919019630994494e+01 2.6707268186483414e+01 0 0 0
591 2 0.0000000000000000e+00 1.5629449137232333e+01 2.6707268186483414e+01 0 0 0
595 2 1.2305000000000001e+00 1.3498160618518829e+01 2.6707268186483414e+01 0 0 0
671 2 3.6915000000000004e+00 1.4919019630994494e+01 2.6707268186483414e+01 0 0 0
593 2 0.0000000000000000e+00 1.2787731112280996e+01 2.6707268186483414e+01 0 0 0
632 2 3.6915000000000004e+00 1.3498160618518829e+01 2.6707268186483414e+01 0 0 0
628 2 2.4610000000000003e+00 1.5629449137232328e+01 2.6707268186483414e+01 0 0 0
722 2 7.3829999999999991e+00 1.2787731112280996e+01 2.6707268186483414e+01 0 0 0
718 2 6.1524999999999990e+00 1.4919019630994494e+01 2.6707268186483414e+01 0 0 0
673 2 4.9220000000000006e+00 1.5629449137232333e+01 2.6707268186483414e+01 0 0 0
675 2 4.9220000000000006e+00 1.2787731112280996e+01 2.6707268186483414e+01 0 0 0
677 2 6.1524999999999990e+00 1.3498160618518829e+01 2.6707268186483414e+01 0 0 0
4860 1 8.8831466913097534e-01 1.5395859039468352e+01 2.1065104515268022e+01 1 2 0
351 1 1.0859380261387228e+00 7.0943029764680219e+00 2.1174740661481646e+01 -1 1 0
1627 1 6.0320278575465363e+00 7.0026155959682406e+00 2.0988664763990265e+01 1 1 0
4987 1 6.1954018314468602e+00 1.4950708061349017e+01 2.1096399163759276e+01 -2 4 0
2824 1 8.8752593558451238e+00 2.5660066932589518e+00 2.1054280211979474e+01 -2 3 1
358 1 3.7863093380670381e+00 1.3585307397597209e+01 2.0973512078588989e+01 -2 -3 0
553 2 0.0000000000000000e+00 1.4208590124756650e+00 3.0030999999993238e+01 0 0 0
555 2 0.0000000000000000e+00 0.0000000000000000e+00 3.0030999999993238e+01 0 0 0
564 2 1.2305000000000001e+00 2.1312885187134998e+00 3.0030999999993238e+01 0 0 0
566 2 2.4610000000000003e+00 1.4208590124756650e+00 3.0030999999993238e+01 0 0 0
568 2 2.4610000000000003e+00 0.0000000000000000e+00 3.0030999999993238e+01 0 0 0
585 2 3.6914999999999996e+00 2.1312885187134998e+00 3.0030999999993238e+01 0 0 0
562 2 1.2305000000000001e+00 3.5521475311891644e+00 3.0030999999993238e+01 0 0 0
583 2 3.6914999999999996e+00 3.5521475311891644e+00 3.0030999999993238e+01 0 0 0
881 2 0.0000000000000000e+00 2.8417180249513345e+00 3.3354731813501246e+01 0 0 0
882 2 0.0000000000000000e+00 0.0000000000000000e+00 3.3354731813501246e+01 0 0 0
883 2 1.2305000000000001e+00 7.1042950623783474e-01 3.3354731813501246e+01 0 0 0
887 2 1.2305000000000001e+00 2.1312885187134998e+00 3.3354731813501246e+01 0 0 0
888 2 2.4610000000000003e+00 2.8417180249513345e+00 3.3354731813501246e+01 0 0 0
889 2 2.4610000000000003e+00 0.0000000000000000e+00 3.3354731813501246e+01 0 0 0
890 2 3.6915000000000004e+00 7.1042950623783474e-01 3.3354731813501246e+01 0 0 0
898 2 3.6914999999999996e+00 2.1312885187134998e+00 3.3354731813501246e+01 0 0 0
587 2 4.9220000000000006e+00 1.4208590124756650e+00 3.0030999999993238e+01 0 0 0
589 2 4.9220000000000006e+00 0.0000000000000000e+00 3.0030999999993238e+01 0 0 0
614 2 6.1524999999999999e+00 2.1312885187134989e+00 3.0030999999993238e+01 0 0 0
616 2 7.3829999999999991e+00 1.4208590124756659e+00 3.0030999999993238e+01 0 0 0
618 2 7.3829999999999991e+00 0.0000000000000000e+00 3.0030999999993238e+01 0 0 0
651 2 8.6134999999999984e+00 2.1312885187135002e+00 3.0030999999993238e+01 0 0 0
612 2 6.1524999999999999e+00 3.5521475311891644e+00 3.0030999999993238e+01 0 0 0
649 2 8.6134999999999984e+00 3.5521475311891657e+00 3.0030999999993238e+01 0 0 0
899 2 4.9220000000000006e+00 2.8417180249513332e+00 3.3354731813501246e+01 0 0 0
900 2 4.9220000000000006e+00 0.0000000000000000e+00 3.3354731813501246e+01 0 0 0
901 2 6.1524999999999999e+00 7.1042950623783407e-01 3.3354731813501246e+01 0 0 0
913 2 6.1524999999999999e+00 2.1312885187134989e+00 3.3354731813501246e+01 0 0 0
914 2 7.3829999999999991e+00 2.8417180249513345e+00 3.3354731813501246e+01 0 0 0
915 2 7.3829999999999991e+00 0.0000000000000000e+00 3.3354731813501246e+01 0 0 0
916 2 8.6134999999999984e+00 7.1042950623783407e-01 3.3354731813501246e+01 0 0 0
932 2 8.6134999999999984e+00 2.1312885187135002e+00 3.3354731813501246e+01 0 0 0
558 2 0.0000000000000000e+00 5.6834360499026637e+00 3.0030999999993238e+01 0 0 0
560 2 0.0000000000000000e+00 4.2625770374269996e+00 3.0030999999993238e+01 0 0 0
577 2 1.2305000000000001e+00 6.3938655561404980e+00 3.0030999999993238e+01 0 0 0
579 2 2.4610000000000003e+00 5.6834360499026637e+00 3.0030999999993238e+01 0 0 0
581 2 2.4610000000000003e+00 4.2625770374269996e+00 3.0030999999993238e+01 0 0 0
606 2 3.6914999999999996e+00 6.3938655561404980e+00 3.0030999999993238e+01 0 0 0
575 2 1.2305000000000001e+00 7.8147245686161639e+00 3.0030999999993238e+01 0 0 0
604 2 3.6914999999999996e+00 7.8147245686161639e+00 3.0030999999993238e+01 0 0 0
885 2 0.0000000000000000e+00 4.2625770374269996e+00 3.3354731813501246e+01 0 0 0
886 2 1.2305000000000001e+00 4.9730065436648339e+00 3.3354731813501246e+01 0 0 0
894 2 1.2305000000000001e+00 6.3938655561404980e+00 3.3354731813501246e+01 0 0 0
896 2 2.4610000000000003e+00 4.2625770374269996e+00 3.3354731813501246e+01 0 0 0
897 2 3.6914999999999996e+00 4.9730065436648339e+00 3.3354731813501246e+01 0 0 0
909 2 3.6914999999999996e+00 6.3938655561404980e+00 3.3354731813501246e+01 0 0 0
884 2 0.0000000000000000e+00 7.1042950623783341e+00 3.3354731813501246e+01 0 0 0
895 2 2.4610000000000003e+00 7.1042950623783341e+00 3.3354731813501246e+01 0 0 0
608 2 4.9220000000000006e+00 5.6834360499026637e+00 3.0030999999993238e+01 0 0 0
610 2 4.9220000000000006e+00 4.2625770374269978e+00 3.0030999999993238e+01 0 0 0
643 2 6.1524999999999999e+00 6.3938655561404980e+00 3.0030999999993238e+01 0 0 0
645 2 7.3829999999999991e+00 5.6834360499026637e+00 3.0030999999993238e+01 0 0 0
647 2 7.3829999999999991e+00 4.2625770374269996e+00 3.0030999999993238e+01 0 0 0
688 2 8.6135000000000002e+00 6.3938655561404980e+00 3.0030999999993238e+01 0 0 0
641 2 6.1524999999999999e+00 7.8147245686161639e+00 3.0030999999993238e+01 0 0 0
686 2 8.6135000000000002e+00 7.8147245686161639e+00 3.0030999999993238e+01 0 0 0
911 2 4.9220000000000006e+00 4.2625770374269978e+00 3.3354731813501246e+01 0 0 0
912 2 6.1524999999999999e+00 4.9730065436648339e+00 3.3354731813501246e+01 0 0 0
928 2 6.1524999999999999e+00 6.3938655561404980e+00 3.3354731813501246e+01 0 0 0
930 2 7.3829999999999991e+00 4.2625770374269996e+00 3.3354731813501246e+01 0 0 0
931 2 8.6135000000000002e+00 4.9730065436648339e+00 3.3354731813501246e+01 0 0 0
951 2 8.6135000000000002e+00 6.3938655561404980e+00 3.3354731813501246e+01 0 0 0
910 2 4.9220000000000006e+00 7.1042950623783341e+00 3.3354731813501246e+01 0 0 0
929 2 7.3830000000000009e+00 7.1042950623783341e+00 3.3354731813501246e+01 0 0 0
571 2 0.0000000000000000e+00 9.9460130873296642e+00 3.0030999999993238e+01 0 0 0
573 2 0.0000000000000000e+00 8.5251540748539991e+00 3.0030999999993238e+01 0 0 0
600 2 2.4610000000000003e+00 9.9460130873296642e+00 3.0030999999993238e+01 0 0 0
602 2 2.4610000000000003e+00 8.5251540748539991e+00 3.0030999999993238e+01 0 0 0
596 2 1.2305000000000001e+00 1.2077301606043163e+01 3.0030999999993238e+01 0 0 0
598 2 1.2305000000000001e+00 1.0656442593567498e+01 3.0030999999993238e+01 0 0 0
633 2 3.6914999999999996e+00 1.2077301606043163e+01 3.0030999999993238e+01 0 0 0
635 2 3.6914999999999996e+00 1.0656442593567499e+01 3.0030999999993238e+01 0 0 0
892 2 0.0000000000000000e+00 8.5251540748539991e+00 3.3354731813501246e+01 0 0 0
893 2 1.2305000000000001e+00 9.2355835810918343e+00 3.3354731813501246e+01 0 0 0
907 2 2.4610000000000003e+00 8.5251540748539991e+00 3.3354731813501246e+01 0 0 0
908 2 3.6915000000000004e+00 9.2355835810918343e+00 3.3354731813501246e+01 0 0 0
891 2 0.0000000000000000e+00 1.1366872099805333e+01 3.3354731813501246e+01 0 0 0
905 2 1.2305000000000001e+00 1.0656442593567498e+01 3.3354731813501246e+01 0 0 0
906 2 2.4610000000000003e+00 1.1366872099805333e+01 3.3354731813501246e+01 0 0 0
924 2 3.6914999999999996e+00 1.0656442593567499e+01 3.3354731813501246e+01 0 0 0
637 2 4.9220000000000006e+00 9.9460130873296642e+00 3.0030999999993238e+01 0 0 0
639 2 4.9220000000000006e+00 8.5251540748539991e+00 3.0030999999993238e+01 0 0 0
682 2 7.3830000000000009e+00 9.9460130873296642e+00 3.0030999999993238e+01 0 0 0
684 2 7.3830000000000009e+00 8.5251540748539991e+00 3.0030999999993238e+01 0 0 0
678 2 6.1524999999999999e+00 1.2077301606043163e+01 3.0030999999993238e+01 0 0 0
680 2 6.1524999999999999e+00 1.0656442593567499e+01 3.0030999999993238e+01 0 0 0
725 2 8.6135000000000002e+00 1.2077301606043163e+01 3.0030999999993238e+01 0 0 0
727 2 8.6134999999999984e+00 1.0656442593567498e+01 3.0030999999993238e+01 0 0 0
926 2 4.9220000000000006e+00 8.5251540748539991e+00 3.3354731813501246e+01 0 0 0
927 2 6.1524999999999999e+00 9.2355835810918343e+00 3.3354731813501246e+01 0 0 0
949 2 7.3830000000000009e+00 8.5251540748539991e+00 3.3354731813501246e+01 0 0 0
950 2 8.6134999999999984e+00 9.2355835810918343e+00 3.3354731813501246e+01 0 0 0
925 2 4.9220000000000006e+00 1.1366872099805333e+01 3.3354731813501246e+01 0 0 0
947 2 6.1524999999999999e+00 1.0656442593567499e+01 3.3354731813501246e+01 0 0 0
948 2 7.3829999999999991e+00 1.1366872099805333e+01 3.3354731813501246e+01 0 0 0
971 2 8.6134999999999984e+00 1.0656442593567498e+01 3.3354731813501246e+01 0 0 0
594 2 0.0000000000000000e+00 1.2787731112280996e+01 3.0030999999993238e+01 0 0 0
631 2 2.4610000000000003e+00 1.2787731112280996e+01 3.0030999999993238e+01 0 0 0
592 2 0.0000000000000000e+00 1.4208590124756663e+01 3.0030999999993238e+01 0 0 0
627 2 1.2305000000000001e+00 1.4919019630994494e+01 3.0030999999993238e+01 0 0 0
629 2 2.4610000000000003e+00 1.4208590124756663e+01 3.0030999999993238e+01 0 0 0
672 2 3.6915000000000004e+00 1.4919019630994494e+01 3.0030999999993238e+01 0 0 0
903 2 0.0000000000000000e+00 1.2787731112280996e+01 3.3354731813501246e+01 0 0 0
904 2 1.2305000000000001e+00 1.3498160618518829e+01 3.3354731813501246e+01 0 0 0
922 2 2.4610000000000003e+00 1.2787731112280996e+01 3.3354731813501246e+01 0 0 0
923 2 3.6915000000000004e+00 1.3498160618518829e+01 3.3354731813501246e+01 0 0 0
902 2 0.0000000000000000e+00 1.5629449137232333e+01 3.3354731813501246e+01 0 0 0
920 2 1.2305000000000001e+00 1.4919019630994494e+01 3.3354731813501246e+01 0 0 0
921 2 2.4610000000000003e+00 1.5629449137232328e+01 3.3354731813501246e+01 0 0 0
943 2 3.6915000000000004e+00 1.4919019630994494e+01 3.3354731813501246e+01 0 0 0
676 2 4.9220000000000006e+00 1.2787731112280996e+01 3.0030999999993238e+01 0 0 0
723 2 7.3829999999999991e+00 1.2787731112280996e+01 3.0030999999993238e+01 0 0 0
674 2 4.9220000000000006e+00 1.4208590124756663e+01 3.0030999999993238e+01 0 0 0
719 2 6.1524999999999990e+00 1.4919019630994494e+01 3.0030999999993238e+01 0 0 0
721 2 7.3830000000000009e+00 1.4208590124756663e+01 3.0030999999993238e+01 0 0 0
766 2 8.6135000000000002e+00 1.4919019630994494e+01 3.0030999999993238e+01 0 0 0
945 2 4.9220000000000006e+00 1.2787731112280996e+01 3.3354731813501246e+01 0 0 0
946 2 6.1524999999999990e+00 1.3498160618518829e+01 3.3354731813501246e+01 0 0 0
969 2 7.3829999999999991e+00 1.2787731112280996e+01 3.3354731813501246e+01 0 0 0
970 2 8.6135000000000002e+00 1.3498160618518835e+01 3.3354731813501246e+01 0 0 0
944 2 4.9220000000000006e+00 1.5629449137232333e+01 3.3354731813501246e+01 0 0 0
967 2 6.1524999999999990e+00 1.4919019630994494e+01 3.3354731813501246e+01 0 0 0
968 2 7.3829999999999991e+00 1.5629449137232333e+01 3.3354731813501246e+01 0 0 0
991 2 8.6135000000000002e+00 1.4919019630994494e+01 3.3354731813501246e+01 0 0 0
1974 1 2.4463438688780368e+00 1.3623263510731873e+00 3.6596874813887496e+01 -1 -1 -1
3366 1 4.5275266768866889e+00 2.6440388776446619e+00 3.5645528804992637e+01 1 0 -1
363 1 4.7754588405636715e+00 1.2843994367675172e+01 3.6640092864323606e+01 -2 0 -1
4481 1 9.0221832524872525e+00 2.4910367802631574e+00 3.5689807128726358e+01 5 5 0
6242 1 6.6994804328738979e+00 1.4701328073377182e+00 3.6749246230692876e+01 0 2 0
4978 1 2.6170755408970114e+00 6.4431374250988434e+00 3.5765186725951736e+01 3 5 -1
309 1 4.7705537330476400e+00 5.1837381231479966e+00 3.6630777027159013e+01 1 0 -1
3432 1 6.8148250891307161e+00 1.4090237205782707e+01 3.5706467579254848e+01 0 -4 -1
3033 1 9.4610692862040420e+00 5.1071860566928935e+00 3.6406866000289853e+01 -1 -3 -1
4983 1 6.9524131155444477e+00 6.6018215497490180e+00 3.5801636471738675e+01 -1 -3 -1
1448 1 2.7092664069283736e+00 9.1130427939258798e+00 3.6596886293497306e+01 1 4 -1
6303 1 5.0369502537499953e+00 1.0395902463961354e+01 3.5630549694168565e+01 0 3 -1
5002 1 9.1438365442505845e+00 1.2832438411284830e+01 3.6313122005600547e+01 0 -4 -1
3157 1 9.4019257049189946e+00 1.0004461440593049e+01 3.5625492025375593e+01 -1 -2 -1
3298 1 7.0531673330479618e+00 9.2763616380592993e+00 3.6686096308225885e+01 1 1 0
5006 1 2.4693663021251093e+00 1.4024548467878809e+01 3.5644121381845380e+01 -2 1 0
5125 1 3.6755605366906591e-01 1.2706894367875138e+01 3.6746660097889063e+01 3 0 -1
1376 1 2.4348927960716868e-01 2.4007967314421084e+00 3.5647429263868247e+01 -4 3 0
3598 1 4.3563402895342623e-01 1.0189475215994152e+01 3.5763614419145455e+01 -4 -1 -1
4853 1 1.8859194741649077e-01 5.1250230028804946e+00 3.6568962151998349e+01 1 1 -1
6002 1 9.0866635043735542e+00 1.2750955259752567e+01 3.9230894989146023e+01 -4 -1 0
386 1 9.2957645202623329e+00 4.9533456184505171e+00 3.8957881898146709e+01 0 -4 -1
4967 1 4.8407162788320957e+00 5.2083812654368584e+00 3.9248524686042785e+01 -2 -3 -1
4778 1 4.5675386690151152e+00 2.7398320207595450e+00 4.3218739934091658e+01 -3 -1 -1
67 1 1.7329491934398533e-01 2.3327070676451798e+00 4.3188768175574936e+01 1 1 0
3140 1 4.6561329830517879e+00 2.5905634234872252e+00 4.0486150510219460e+01 1 -1 0
3118 1 2.4050448978919411e-01 4.6490206783215944e-03 4.7858361681195035e+01 -1 2 0
210 1 2.2785849349400422e-01 1.0488063907975556e+01 4.0000573050976925e+01 -1 -3 -1
1323 1 9.4012474583380268e+00 2.5103819033837089e+00 4.0460340196642179e+01 -2 2 0
4811 1 9.3421323627163702e+00 2.6566683422519008e+00 4.3208421873942740e+01 -4 -2 -1
6218 1 4.6011347507671356e+00 4.2900049969660559e-01 4.7928165870052723e+01 1 -5 0
2147 1 2.4405372574718363e+00 6.3102684616120790e+00 4.2955837712419736e+01 -1 1 -1
3548 1 2.5149701878479531e+00 6.5449986010884329e+00 4.0316444268441145e+01 -2 1 -1
4718 1 6.8608460736469201e+00 8.7189019763183300e+00 3.9342313753698306e+01 0 0 0
1857 1 4.7001524956506850e+00 5.4068614056638502e+00 4.4212134596592691e+01 0 0 -1