LAMMPS data file via write_data, version 16 Mar 2018, timestep = 100000

6328 atoms
2 atom types

0.0000000000000000e+00 4.9219999999999999e+01 xlo xhi
0.0000000000000000e+00 4.9019635930410494e+01 ylo yhi
3.6484835122267150e+00 5.6413516487773656e+01 zlo zhi

Masses

1 18.015
2 12.01

Atoms # atomic

259 1 1.9071184503264629e+00 8.0562694441747884e-01 4.6935041718999404e+00 1 0 0
1383 1 2.4915192941504487e+00 4.6574039770461573e+00 9.6446860894754103e+00 0 1 1
342 1 7.9908224915793493e+00 1.3193348147009472e+01 5.5492658761033997e+00 -1 0 0
1586 1 8.5032959590359916e+00 5.6107115583012970e+00 5.8983235722605940e+00 1 2 0
1315 1 3.8193599979899138e+00 6.8926706854312565e+00 4.0729424148460716e+00 1 0 1
3510 1 5.6786187408390241e+00 4.0807855155988886e+00 4.7841748703839073e+00 1 0 0
1958 1 6.6879738922076735e+00 7.3458518798963315e+00 3.9081893677032329e+00 0 1 0
1880 1 6.0836163534813750e+00 5.5912511621520391e+00 7.3505283716841685e+00 -1 0 0
81 1 7.8758745701378121e+00 9.2841017755518507e-01 8.9602147046774263e+00 1 -1 -1
154 1 7.4017401252664987e+00 9.0992351216118976e+00 6.2672604320808487e+00 0 -1 0
1381 1 1.3854538181367417e+00 1.2514577764097986e+01 6.6384860068568114e+00 0 -1 1
3302 1 8.4190876767076583e-01 9.8847543238184521e+00 5.3339085675338556e+00 1 0 1
3412 1 3.8797661428184855e+00 1.1853674023512058e+01 7.9175217400522158e+00 1 0 1
3628 1 5.8750744818813390e+00 1.1268846573826986e+01 5.8074404010918466e+00 0 1 0
3605 1 9.7850497533167591e+00 3.0066052281685041e+00 6.0800550446720552e+00 1 1 1
1714 1 6.7979248424603940e+00 6.7765203221394205e-02 4.6035555825055088e+00 0 2 1
239 1 7.1824430242613673e+00 1.4823231174370688e+01 9.9137881120983433e+00 1 -1 0
310 1 6.1980905564250688e-01 1.2722969542455429e+01 3.9823452240873323e+00 0 1 1
1380 1 5.2840818664226337e+00 1.4102706327776970e+01 7.7357743015132989e+00 0 1 0
1838 1 4.9322771762974318e+00 1.5538505104586225e+01 5.2423206973506566e+00 0 0 0
5321 1 9.5853738296640874e+00 2.3652951571270235e+00 1.0987951021758919e+01 0 0 1
297 1 2.6915633057680841e+00 7.0703673523645723e+00 1.1813177883183135e+01 1 1 1
6279 1 9.2162959874963146e+00 1.5737702739534676e+01 1.1614773540349894e+01 -1 0 1
420 1 1.9544401369816093e+00 1.9927509344251197e+00 8.1138636981810226e+00 -1 0 0
1628 1 4.8072684398438028e+00 1.4778595153352310e+00 8.1085546998052074e+00 0 1 0
1531 1 9.1056194793002332e-01 8.3856192908138438e-01 1.0378190957120868e+01 1 1 0
4913 1 8.7782155836102671e+00 1.0893199591581054e+01 1.1282683606450716e+01 0 1 0
1930 1 9.5280399504733619e+00 1.3905635175793272e+01 8.0793316921764529e+00 0 -1 1
5957 1 7.6174989352145985e+00 1.6051534638803343e+01 4.8596367955151676e+00 0 0 1
5192 1 4.6090033378773239e+00 2.8724703602700865e+00 1.0456804707687439e+01 1 0 0
1446 1 7.0864136190374856e+00 2.1069996498893557e+00 6.1389492615522760e+00 0 0 1
466 1 3.1384722431513894e+00 5.9556365998672396e+00 6.9353232239834988e+00 0 1 0
5058 1 5.2570578091089937e+00 1.3960169389861900e+01 1.1835860171289646e+01 1 1 1
3324 1 6.6753021448011394e+00 6.0219788933973284e+00 9.8846870078716336e+00 1 1 0
158 1 5.2603190073408825e+00 7.3344459340491230e+00 1.1941251634508918e+01 1 1 0
4664 1 1.4201090606921436e+00 1.4033882100936669e+01 1.0920119658450787e+01 2 0 0
1756 1 1.2945186145369063e+00 9.5822175633845657e+00 1.0080041877727044e+01 1 -1 0
3552 1 2.6073184860706089e+00 8.8951891385383153e+00 7.5589456808615152e+00 1 1 1
2987 1 1.6168016373180425e+00 1.5573573284599503e+01 6.8880620041292131e+00 1 -2 1
5089 1 6.0320698548452896e+00 9.7621746013697379e+00 1.0688757015619755e+01 0 -1 0
1561 1 5.5842269324446514e+00 8.7387585365774925e+00 8.0817038094809366e+00 1 1 1
3721 1 9.3583947483678465e+00 6.3843914058955828e+00 9.9588437240528336e+00 0 0 1
2943 1 3.7043262756082314e+00 1.1909767219019715e+01 1.0719831839001756e+01 1 1 1
6324 1 7.0113322725696152e+00 3.8089790308679667e+00 1.1861935288188464e+01 0 -1 0
428 1 9.6956755959616494e+00 8.4138073155033588e+00 1.1840089330788796e+01 1 0 1
6004 1 3.8576284655732884e-01 4.9565399919204944e+00 6.1130500095569982e+00 1 1 0
1332 1 3.7758240118745636e+00 1.6304589974209073e+01 1.2400473046361597e+01 0 0 1
3553 1 3.9025800390917342e+00 2.3852350118693795e+00 3.6994592523657790e+00 0 1 0
1995 1 5.2511944908976949e+00 1.2461623004793345e+00 1.2875160169127064e+01 1 1 1
1685 1 6.2348563729162541e+00 1.5525319851251571e+00 1.5626766493110839e+01 2 0 0
3278 1 2.5417996839600182e-01 1.5839536504240417e+01 1.3207997770550586e+01 0 0 0
3445 1 8.6276935054725605e+00 4.5779042106087173e+00 2.0738233817532258e+01 -1 -1 0
4693 1 3.8322277583502564e+00 5.1993433844586612e+00 1.5150024899059297e+01 2 0 0
3045 1 2.7888390711752291e+00 7.5393749102083323e+00 1.6694425403294517e+01 1 -1 0
5068 1 2.1852217483020575e+00 4.2731179276141962e+00 1.2943111014712674e+01 0 0 0
185 1 9.1993608933269133e+00 6.5804441252809793e+00 1.4169624178072061e+01 -1 1 0
142 1 6.3286183510977843e+00 6.0192834382390084e+00 1.3743850649337267e+01 1 1 0
3373 1 5.1275442188116669e+00 9.5537050311860092e+00 1.4189327240840784e+01 0 1 0
3361 1 3.8043996211366804e+00 1.0428201445686700e+01 1.6875784140234369e+01 0 0 0
85 1 2.5435947969431307e+00 8.9445811516764770e+00 1.4162472677727289e+01 1 0 0
5134 1 8.9650452883666532e+00 1.1504477514338392e+01 1.3985622588561116e+01 1 0 0
1689 1 2.6695994952201723e+00 1.4419078044250759e+00 1.2978202616720807e+01 0 1 1
1470 1 6.7079199188811218e+00 7.9330551329248182e+00 1.5764886552328759e+01 0 0 1
4665 1 3.2244164718601733e+00 1.2822187927251813e+01 1.4962933649925347e+01 0 1 0
1684 1 7.5805224865023355e+00 8.3946467402797449e+00 2.0914176664286977e+01 1 1 1
5008 1 3.3395971826765747e+00 1.3447831477887119e+01 1.8754301065993843e+01 0 1 0
3126 1 2.7434144070108593e+00 1.5523309269961100e+01 1.4951470624825973e+01 0 0 0
105 1 2.0980786965100067e+00 1.0368505956156785e+01 2.0918897940299829e+01 0 0 0
395 1 9.0613368822571250e+00 9.6841112846945183e+00 1.6056800097189999e+01 0 0 0
308 1 9.6325498692504894e+00 1.3578049451334342e+01 1.6503255700136464e+01 0 0 1
331 1 4.4033372247424190e+00 3.5395245246277223e+00 1.7131346684804761e+01 0 1 0
115 1 8.1359984449418175e+00 1.1093468008409417e+01 2.0363323166853291e+01 1 0 0
4511 1 8.2115623557925954e-03 1.2188201088866490e+01 1.5426330050821305e+01 0 0 1
2050 1 1.8651961110284248e+00 2.0268600651232576e+00 1.8036298517864985e+01 0 1 0
5144 1 8.7612544531952050e+00 2.7488024108425111e+00 1.6013664811040595e+01 0 0 0
3358 1 5.4859258069594947e+00 4.4302188372252225e+00 2.1089723018804008e+01 0 0 0
3469 1 9.2224131406401142e+00 1.7897948315075667e+00 2.0903937867667416e+01 -1 0 0
3422 1 6.3362425513152800e+00 1.3365633946252204e+01 1.8675290632367876e+01 1 0 0
5286 1 7.7737415346826155e-01 3.8334212882131071e+00 1.9873362998126272e+01 1 1 1
3080 1 3.2600294061165140e+00 8.0940707765924476e+00 1.9485447529705056e+01 0 1 1
3136 1 2.3466123185826784e+00 1.5770769687843108e+01 1.7838705645251725e+01 1 1 0
337 1 5.9488625458913269e+00 7.7130462595637912e+00 1.8631404221704187e+01 -1 0 0
2065 1 6.5255586948985647e+00 4.9688434194083246e+00 1.8399677117408331e+01 0 0 0
3047 1 1.3194971642799509e+00 1.1327347041265629e+01 1.7894874999716166e+01 0 0 1
1668 1 6.5101516132590165e+00 1.0660319612193520e+01 1.7679224927172335e+01 0 0 0
5131 1 2.9913481909144815e+00 5.7342995818951943e+00 2.1086541679437477e+01 0 1 1
1377 1 7.0888093302398847e+00 1.4412620868026762e+01 1.6144051866136422e+01 0 0 1
4677 1 9.6830077820896374e+00 7.1334211680321138e+00 1.9960261303957505e+01 0 0 1
1469 1 9.7418025064495630e+00 4.0612480297774853e+00 1.3565723262384399e+01 0 0 1
361 1 6.2002873326944679e+00 1.2695562699785439e+01 1.4107037747368921e+01 2 -1 0
3545 1 1.4859139535564918e+00 1.1347209037983815e+01 1.2930261371119341e+01 0 -1 0
2991 1 5.3593504718455653e-01 1.4451353369656568e+01 2.0789412361802384e+01 0 0 0
6070 1 9.7990529182983170e+00 1.1422277522172097e+01 1.8138593917471759e+01 0 2 1
413 1 3.9928298169387388e-01 1.3377159725830783e+00 1.5932010250704948e+01 1 0 0
1940 1 2.5924892888334989e+00 5.6309937118348836e+00 2.4174087551288991e+01 0 0 0
1464 1 3.1746276834546450e+00 1.3451451448545340e+01 2.1538289388306637e+01 0 1 1
1728 1 1.9450933766894836e+00 2.7691061773584700e+00 2.4351358655246592e+01 1 1 1
720 2 7.3829999999999991e+00 1.5629449137232333e+01 2.6882238539241559e+01 0 0 0
6068 1 4.9570133547737028e+00 1.9217783017028773e+00 2.4157747884376434e+01 0 1 1
677 2 6.1524999999999990e+00 1.3498160618518829e+01 2.6882238539241559e+01 0 0 0
301 1 9.7435642543559133e+00 1.5087482803754794e+01 2.1530481296244279e+01 1 -1 0
6248 1 5.9028582976882307e+00 5.1865537968495445e+00 2.3737880715882440e+01 0 0 2
1575 1 7.8841333327871848e+00 3.2771633640970448e+00 2.4495729824504135e+01 0 0 0
6010 1 9.1140884430676614e+00 7.8193407230382461e-01 2.3564322813908760e+01 0 2 1
1703 1 4.3003332478139251e+00 1.5944686668289743e+01 2.4391069008094135e+01 0 -1 0
5088 1 4.0771221353944007e+00 8.0465252417629110e+00 2.4261205881687356e+01 1 0 0
1861 1 9.4038854080191303e-02 1.0660161978934552e+01 2.4670964490729745e+01 1 0 1
4979 1 6.9106556771354635e+00 7.7941488601399298e+00 2.3779568098166170e+01 0 1 0
2903 1 8.0335932570847515e+00 1.0514491151340907e+01 2.4217644874805693e+01 1 -1 1
718 2 6.1524999999999990e+00 1.4919019630994494e+01 2.6882238539241559e+01 0 0 0
3079 1 2.2675069989320792e-01 7.7633358963190044e+00 2.4271082541485772e+01 1 1 0
1435 1 2.2102230622097294e+00 2.0591600056905293e+00 2.1610569775986043e+01 0 0 1
673 2 4.9220000000000006e+00 1.5629449137232333e+01 2.6882238539241559e+01 0 0 0
6166 1 2.9153230487476445e+00 1.0486772204286600e+01 2.3660802004511236e+01 0 0 1
1983 1 3.9415709299143442e+00 1.3212341445904878e+01 2.4302551343992906e+01 0 -1 1
722 2 7.3829999999999991e+00 1.2787731112280996e+01 2.6882238539241559e+01 0 0 0
4620 1 9.5687747034877901e+00 5.1658454777735416e+00 2.3508760809127953e+01 1 0 0
6145 1 6.7212768523488728e+00 1.3004172932645879e+01 2.4172284418896204e+01 0 0 1
3414 1 9.2541921911196585e+00 1.3995392589633850e+01 2.4455568607688679e+01 1 0 0
552 2 0.0000000000000000e+00 2.8417180249513345e+00 2.6882238539241559e+01 0 0 0
554 2 0.0000000000000000e+00 0.0000000000000000e+00 2.6882238539241559e+01 0 0 0
556 2 1.2305000000000001e+00 7.1042950623783474e-01 2.6882238539241559e+01 0 0 0
563 2 1.2305000000000001e+00 2.1312885187134998e+00 2.6882238539241559e+01 0 0 0
565 2 2.4610000000000003e+00 2.8417180249513345e+00 2.6882238539241559e+01 0 0 0
567 2 2.4610000000000003e+00 0.0000000000000000e+00 2.6882238539241559e+01 0 0 0
569 2 3.6915000000000004e+00 7.1042950623783474e-01 2.6882238539241559e+01 0 0 0
584 2 3.6914999999999996e+00 2.1312885187134998e+00 2.6882238539241559e+01 0 0 0
586 2 4.9220000000000006e+00 2.8417180249513332e+00 2.6882238539241559e+01 0 0 0
588 2 4.9220000000000006e+00 0.0000000000000000e+00 2.6882238539241559e+01 0 0 0
590 2 6.1524999999999999e+00 7.1042950623783407e-01 2.6882238539241559e+01 0 0 0
613 2 6.1524999999999999e+00 2.1312885187134989e+00 2.6882238539241559e+01 0 0 0
615 2 7.3829999999999991e+00 2.8417180249513345e+00 2.6882238539241559e+01 0 0 0
617 2 7.3829999999999991e+00 0.0000000000000000e+00 2.6882238539241559e+01 0 0 0
619 2 8.6134999999999984e+00 7.1042950623783407e-01 2.6882238539241559e+01 0 0 0
650 2 8.6134999999999984e+00 2.1312885187135002e+00 2.6882238539241559e+01 0 0 0
559 2 0.0000000000000000e+00 4.2625770374269996e+00 2.6882238539241559e+01 0 0 0
561 2 1.2305000000000001e+00 4.9730065436648339e+00 2.6882238539241559e+01 0 0 0
576 2 1.2305000000000001e+00 6.3938655561404980e+00 2.6882238539241559e+01 0 0 0
580 2 2.4610000000000003e+00 4.2625770374269996e+00 2.6882238539241559e+01 0 0 0
582 2 3.6914999999999996e+00 4.9730065436648339e+00 2.6882238539241559e+01 0 0 0
605 2 3.6914999999999996e+00 6.3938655561404980e+00 2.6882238539241559e+01 0 0 0
557 2 0.0000000000000000e+00 7.1042950623783341e+00 2.6882238539241559e+01 0 0 0
578 2 2.4610000000000003e+00 7.1042950623783341e+00 2.6882238539241559e+01 0 0 0
609 2 4.9220000000000006e+00 4.2625770374269978e+00 2.6882238539241559e+01 0 0 0
611 2 6.1524999999999999e+00 4.9730065436648339e+00 2.6882238539241559e+01 0 0 0
642 2 6.1524999999999999e+00 6.3938655561404980e+00 2.6882238539241559e+01 0 0 0
646 2 7.3829999999999991e+00 4.2625770374269996e+00 2.6882238539241559e+01 0 0 0
648 2 8.6135000000000002e+00 4.9730065436648339e+00 2.6882238539241559e+01 0 0 0
687 2 8.6135000000000002e+00 6.3938655561404980e+00 2.6882238539241559e+01 0 0 0
607 2 4.9220000000000006e+00 7.1042950623783341e+00 2.6882238539241559e+01 0 0 0
644 2 7.3830000000000009e+00 7.1042950623783341e+00 2.6882238539241559e+01 0 0 0
572 2 0.0000000000000000e+00 8.5251540748539991e+00 2.6882238539241559e+01 0 0 0
574 2 1.2305000000000001e+00 9.2355835810918343e+00 2.6882238539241559e+01 0 0 0
601 2 2.4610000000000003e+00 8.5251540748539991e+00 2.6882238539241559e+01 0 0 0
603 2 3.6915000000000004e+00 9.2355835810918343e+00 2.6882238539241559e+01 0 0 0
570 2 0.0000000000000000e+00 1.1366872099805333e+01 2.6882238539241559e+01 0 0 0
597 2 1.2305000000000001e+00 1.0656442593567498e+01 2.6882238539241559e+01 0 0 0
599 2 2.4610000000000003e+00 1.1366872099805333e+01 2.6882238539241559e+01 0 0 0
634 2 3.6914999999999996e+00 1.0656442593567499e+01 2.6882238539241559e+01 0 0 0
638 2 4.9220000000000006e+00 8.5251540748539991e+00 2.6882238539241559e+01 0 0 0
640 2 6.1524999999999999e+00 9.2355835810918343e+00 2.6882238539241559e+01 0 0 0
683 2 7.3830000000000009e+00 8.5251540748539991e+00 2.6882238539241559e+01 0 0 0
685 2 8.6134999999999984e+00 9.2355835810918343e+00 2.6882238539241559e+01 0 0 0
636 2 4.9220000000000006e+00 1.1366872099805333e+01 2.6882238539241559e+01 0 0 0
679 2 6.1524999999999999e+00 1.0656442593567499e+01 2.6882238539241559e+01 0 0 0
681 2 7.3829999999999991e+00 1.1366872099805333e+01 2.6882238539241559e+01 0 0 0
726 2 8.6134999999999984e+00 1.0656442593567498e+01 2.6882238539241559e+01 0 0 0
628 2 2.4610000000000003e+00 1.5629449137232328e+01 2.6882238539241559e+01 0 0 0
632 2 3.6915000000000004e+00 1.3498160618518829e+01 2.6882238539241559e+01 0 0 0
591 2 0.0000000000000000e+00 1.5629449137232333e+01 2.6882238539241559e+01 0 0 0
626 2 1.2305000000000001e+00 1.4919019630994494e+01 2.6882238539241559e+01 0 0 0
595 2 1.2305000000000001e+00 1.3498160618518829e+01 2.6882238539241559e+01 0 0 0
593 2 0.0000000000000000e+00 1.2787731112280996e+01 2.6882238539241559e+01 0 0 0
671 2 3.6915000000000004e+00 1.4919019630994494e+01 2.6882238539241559e+01 0 0 0
630 2 2.4610000000000003e+00 1.2787731112280996e+01 2.6882238539241559e+01 0 0 0
675 2 4.9220000000000006e+00 1.2787731112280996e+01 2.6882238539241559e+01 0 0 0
765 2 8.6135000000000002e+00 1.4919019630994494e+01 2.6882238539241559e+01 0 0 0
724 2 8.6135000000000002e+00 1.3498160618518835e+01 2.6882238539241559e+01 0 0 0
397 1 2.4096038777585188e-01 1.3856852044458739e+01 2.3773858188953309e+01 1 0 1
6095 1 1.3508850478549941e-01 8.1357741805376484e+00 2.1321923179208092e+01 1 0 0
427 1 5.0109629765156889e+00 1.5865450830211655e+01 2.1536555722237150e+01 1 -1 0
5180 1 4.9418207483187322e+00 1.6651275066003592e+00 2.1465810930591378e+01 1 -1 1
5042 1 7.2316970627308912e+00 1.3765375003068476e+01 2.1404577504631931e+01 1 1 0
553 2 0.0000000000000000e+00 1.4208590124756650e+00 3.0031000000000240e+01 0 0 0
555 2 0.0000000000000000e+00 0.0000000000000000e+00 3.0031000000000240e+01 0 0 0
564 2 1.2305000000000001e+00 2.1312885187134998e+00 3.0031000000000240e+01 0 0 0
566 2 2.4610000000000003e+00 1.4208590124756650e+00 3.0031000000000240e+01 0 0 0
568 2 2.4610000000000003e+00 0.0000000000000000e+00 3.0031000000000240e+01 0 0 0
585 2 3.6914999999999996e+00 2.1312885187134998e+00 3.0031000000000240e+01 0 0 0
562 2 1.2305000000000001e+00 3.5521475311891644e+00 3.0031000000000240e+01 0 0 0
583 2 3.6914999999999996e+00 3.5521475311891644e+00 3.0031000000000240e+01 0 0 0
881 2 0.0000000000000000e+00 2.8417180249513345e+00 3.3179761460758066e+01 0 0 0
882 2 0.0000000000000000e+00 0.0000000000000000e+00 3.3179761460758066e+01 0 0 0
883 2 1.2305000000000001e+00 7.1042950623783474e-01 3.3179761460758066e+01 0 0 0
887 2 1.2305000000000001e+00 2.1312885187134998e+00 3.3179761460758066e+01 0 0 0
888 2 2.4610000000000003e+00 2.8417180249513345e+00 3.3179761460758066e+01 0 0 0
889 2 2.4610000000000003e+00 0.0000000000000000e+00 3.3179761460758066e+01 0 0 0
890 2 3.6915000000000004e+00 7.1042950623783474e-01 3.3179761460758066e+01 0 0 0
898 2 3.6914999999999996e+00 2.1312885187134998e+00 3.3179761460758066e+01 0 0 0
587 2 4.9220000000000006e+00 1.4208590124756650e+00 3.0031000000000240e+01 0 0 0
589 2 4.9220000000000006e+00 0.0000000000000000e+00 3.0031000000000240e+01 0 0 0
614 2 6.1524999999999999e+00 2.1312885187134989e+00 3.0031000000000240e+01 0 0 0
616 2 7.3829999999999991e+00 1.4208590124756659e+00 3.0031000000000240e+01 0 0 0
618 2 7.3829999999999991e+00 0.0000000000000000e+00 3.0031000000000240e+01 0 0 0
651 2 8.6134999999999984e+00 2.1312885187135002e+00 3.0031000000000240e+01 0 0 0
612 2 6.1524999999999999e+00 3.5521475311891644e+00 3.0031000000000240e+01 0 0 0
649 2 8.6134999999999984e+00 3.5521475311891657e+00 3.0031000000000240e+01 0 0 0
899 2 4.9220000000000006e+00 2.8417180249513332e+00 3.3179761460758066e+01 0 0 0
900 2 4.9220000000000006e+00 0.0000000000000000e+00 3.3179761460758066e+01 0 0 0
901 2 6.1524999999999999e+00 7.1042950623783407e-01 3.3179761460758066e+01 0 0 0
913 2 6.1524999999999999e+00 2.1312885187134989e+00 3.3179761460758066e+01 0 0 0
914 2 7.3829999999999991e+00 2.8417180249513345e+00 3.3179761460758066e+01 0 0 0
915 2 7.3829999999999991e+00 0.0000000000000000e+00 3.3179761460758066e+01 0 0 0
916 2 8.6134999999999984e+00 7.1042950623783407e-01 3.3179761460758066e+01 0 0 0
932 2 8.6134999999999984e+00 2.1312885187135002e+00 3.3179761460758066e+01 0 0 0
558 2 0.0000000000000000e+00 5.6834360499026637e+00 3.0031000000000240e+01 0 0 0
560 2 0.0000000000000000e+00 4.2625770374269996e+00 3.0031000000000240e+01 0 0 0
577 2 1.2305000000000001e+00 6.3938655561404980e+00 3.0031000000000240e+01 0 0 0
579 2 2.4610000000000003e+00 5.6834360499026637e+00 3.0031000000000240e+01 0 0 0
581 2 2.4610000000000003e+00 4.2625770374269996e+00 3.0031000000000240e+01 0 0 0
606 2 3.6914999999999996e+00 6.3938655561404980e+00 3.0031000000000240e+01 0 0 0
575 2 1.2305000000000001e+00 7.8147245686161639e+00 3.0031000000000240e+01 0 0 0
604 2 3.6914999999999996e+00 7.8147245686161639e+00 3.0031000000000240e+01 0 0 0
885 2 0.0000000000000000e+00 4.2625770374269996e+00 3.3179761460758066e+01 0 0 0
886 2 1.2305000000000001e+00 4.9730065436648339e+00 3.3179761460758066e+01 0 0 0
894 2 1.2305000000000001e+00 6.3938655561404980e+00 3.3179761460758066e+01 0 0 0
896 2 2.4610000000000003e+00 4.2625770374269996e+00 3.3179761460758066e+01 0 0 0
897 2 3.6914999999999996e+00 4.9730065436648339e+00 3.3179761460758066e+01 0 0 0
909 2 3.6914999999999996e+00 6.3938655561404980e+00 3.3179761460758066e+01 0 0 0
884 2 0.0000000000000000e+00 7.1042950623783341e+00 3.3179761460758066e+01 0 0 0
895 2 2.4610000000000003e+00 7.1042950623783341e+00 3.3179761460758066e+01 0 0 0
608 2 4.9220000000000006e+00 5.6834360499026637e+00 3.0031000000000240e+01 0 0 0
610 2 4.9220000000000006e+00 4.2625770374269978e+00 3.0031000000000240e+01 0 0 0
643 2 6.1524999999999999e+00 6.3938655561404980e+00 3.0031000000000240e+01 0 0 0
645 2 7.3829999999999991e+00 5.6834360499026637e+00 3.0031000000000240e+01 0 0 0
647 2 7.3829999999999991e+00 4.2625770374269996e+00 3.0031000000000240e+01 0 0 0
688 2 8.6135000000000002e+00 6.3938655561404980e+00 3.0031000000000240e+01 0 0 0
641 2 6.1524999999999999e+00 7.8147245686161639e+00 3.0031000000000240e+01 0 0 0
686 2 8.6135000000000002e+00 7.8147245686161639e+00 3.0031000000000240e+01 0 0 0
911 2 4.9220000000000006e+00 4.2625770374269978e+00 3.3179761460758066e+01 0 0 0
912 2 6.1524999999999999e+00 4.9730065436648339e+00 3.3179761460758066e+01 0 0 0
928 2 6.1524999999999999e+00 6.3938655561404980e+00 3.3179761460758066e+01 0 0 0
930 2 7.3829999999999991e+00 4.2625770374269996e+00 3.3179761460758066e+01 0 0 0
931 2 8.6135000000000002e+00 4.9730065436648339e+00 3.3179761460758066e+01 0 0 0
951 2 8.6135000000000002e+00 6.3938655561404980e+00 3.3179761460758066e+01 0 0 0
910 2 4.9220000000000006e+00 7.1042950623783341e+00 3.3179761460758066e+01 0 0 0
929 2 7.3830000000000009e+00 7.1042950623783341e+00 3.3179761460758066e+01 0 0 0
571 2 0.0000000000000000e+00 9.9460130873296642e+00 3.0031000000000240e+01 0 0 0
573 2 0.0000000000000000e+00 8.5251540748539991e+00 3.0031000000000240e+01 0 0 0
600 2 2.4610000000000003e+00 9.9460130873296642e+00 3.0031000000000240e+01 0 0 0
602 2 2.4610000000000003e+00 8.5251540748539991e+00 3.0031000000000240e+01 0 0 0
596 2 1.2305000000000001e+00 1.2077301606043163e+01 3.0031000000000240e+01 0 0 0
598 2 1.2305000000000001e+00 1.0656442593567498e+01 3.0031000000000240e+01 0 0 0
633 2 3.6914999999999996e+00 1.2077301606043163e+01 3.0031000000000240e+01 0 0 0
635 2 3.6914999999999996e+00 1.0656442593567499e+01 3.0031000000000240e+01 0 0 0
892 2 0.0000000000000000e+00 8.5251540748539991e+00 3.3179761460758066e+01 0 0 0
893 2 1.2305000000000001e+00 9.2355835810918343e+00 3.3179761460758066e+01 0 0 0
907 2 2.4610000000000003e+00 8.5251540748539991e+00 3.3179761460758066e+01 0 0 0
908 2 3.6915000000000004e+00 9.2355835810918343e+00 3.3179761460758066e+01 0 0 0
891 2 0.0000000000000000e+00 1.1366872099805333e+01 3.3179761460758066e+01 0 0 0
905 2 1.2305000000000001e+00 1.0656442593567498e+01 3.3179761460758066e+01 0 0 0
906 2 2.4610000000000003e+00 1.1366872099805333e+01 3.3179761460758066e+01 0 0 0
924 2 3.6914999999999996e+00 1.0656442593567499e+01 3.3179761460758066e+01 0 0 0
637 2 4.9220000000000006e+00 9.9460130873296642e+00 3.0031000000000240e+01 0 0 0
639 2 4.9220000000000006e+00 8.5251540748539991e+00 3.0031000000000240e+01 0 0 0
682 2 7.3830000000000009e+00 9.9460130873296642e+00 3.0031000000000240e+01 0 0 0
684 2 7.3830000000000009e+00 8.5251540748539991e+00 3.0031000000000240e+01 0 0 0
678 2 6.1524999999999999e+00 1.2077301606043163e+01 3.0031000000000240e+01 0 0 0
680 2 6.1524999999999999e+00 1.0656442593567499e+01 3.0031000000000240e+01 0 0 0
725 2 8.6135000000000002e+00 1.2077301606043163e+01 3.0031000000000240e+01 0 0 0
727 2 8.6134999999999984e+00 1.0656442593567498e+01 3.0031000000000240e+01 0 0 0
926 2 4.9220000000000006e+00 8.5251540748539991e+00 3.3179761460758066e+01 0 0 0
927 2 6.1524999999999999e+00 9.2355835810918343e+00 3.3179761460758066e+01 0 0 0
949 2 7.3830000000000009e+00 8.5251540748539991e+00 3.3179761460758066e+01 0 0 0
950 2 8.6134999999999984e+00 9.2355835810918343e+00 3.3179761460758066e+01 0 0 0
925 2 4.9220000000000006e+00 1.1366872099805333e+01 3.3179761460758066e+01 0 0 0
947 2 6.1524999999999999e+00 1.0656442593567499e+01 3.3179761460758066e+01 0 0 0
948 2 7.3829999999999991e+00 1.1366872099805333e+01 3.3179761460758066e+01 0 0 0
971 2 8.6134999999999984e+00 1.0656442593567498e+01 3.3179761460758066e+01 0 0 0
594 2 0.0000000000000000e+00 1.2787731112280996e+01 3.0031000000000240e+01 0 0 0
631 2 2.4610000000000003e+00 1.2787731112280996e+01 3.0031000000000240e+01 0 0 0
592 2 0.0000000000000000e+00 1.4208590124756663e+01 3.0031000000000240e+01 0 0 0
627 2 1.2305000000000001e+00 1.4919019630994494e+01 3.0031000000000240e+01 0 0 0
629 2 2.4610000000000003e+00 1.4208590124756663e+01 3.0031000000000240e+01 0 0 0
672 2 3.6915000000000004e+00 1.4919019630994494e+01 3.0031000000000240e+01 0 0 0
903 2 0.0000000000000000e+00 1.2787731112280996e+01 3.3179761460758066e+01 0 0 0
904 2 1.2305000000000001e+00 1.3498160618518829e+01 3.3179761460758066e+01 0 0 0
922 2 2.4610000000000003e+00 1.2787731112280996e+01 3.3179761460758066e+01 0 0 0
923 2 3.6915000000000004e+00 1.3498160618518829e+01 3.3179761460758066e+01 0 0 0
902 2 0.0000000000000000e+00 1.5629449137232333e+01 3.3179761460758066e+01 0 0 0
920 2 1.2305000000000001e+00 1.4919019630994494e+01 3.3179761460758066e+01 0 0 0
921 2 2.4610000000000003e+00 1.5629449137232328e+01 3.3179761460758066e+01 0 0 0
943 2 3.6915000000000004e+00 1.4919019630994494e+01 3.3179761460758066e+01 0 0 0
676 2 4.9220000000000006e+00 1.2787731112280996e+01 3.0031000000000240e+01 0 0 0
723 2 7.3829999999999991e+00 1.2787731112280996e+01 3.0031000000000240e+01 0 0 0
674 2 4.9220000000000006e+00 1.4208590124756663e+01 3.0031000000000240e+01 0 0 0
719 2 6.1524999999999990e+00 1.4919019630994494e+01 3.0031000000000240e+01 0 0 0
721 2 7.3830000000000009e+00 1.4208590124756663e+01 3.0031000000000240e+01 0 0 0
766 2 8.6135000000000002e+00 1.4919019630994494e+01 3.0031000000000240e+01 0 0 0
945 2 4.9220000000000006e+00 1.2787731112280996e+01 3.3179761460758066e+01 0 0 0
946 2 6.1524999999999990e+00 1.3498160618518829e+01 3.3179761460758066e+01 0 0 0
969 2 7.3829999999999991e+00 1.2787731112280996e+01 3.3179761460758066e+01 0 0 0
970 2 8.6135000000000002e+00 1.3498160618518835e+01 3.3179761460758066e+01 0 0 0
944 2 4.9220000000000006e+00 1.5629449137232333e+01 3.3179761460758066e+01 0 0 0
967 2 6.1524999999999990e+00 1.4919019630994494e+01 3.3179761460758066e+01 0 0 0
968 2 7.3829999999999991e+00 1.5629449137232333e+01 3.3179761460758066e+01 0 0 0
991 2 8.6135000000000002e+00 1.4919019630994494e+01 3.3179761460758066e+01 0 0 0
5965 1 9.5418395432768062e+00 8.0106914461265966e+00 3.8315514080706564e+01 0 1 0
1472 1 4.4559810281728565e+00 3.4112603497600973e+00 3.8448620828754883e+01 0 2 -1
4977 1 3.5189177149135111e+00 2.6584343676890057e+00 3.5919213203597067e+01 0 0 -1
1405 1 1.1909908104579719e-01 2.2431582769222405e+00 3.5926119464168082e+01 0 0 0
4639 1 9.6077917728785547e+00 1.3483596388635121e+01 3.8559300243312137e+01 0 0 0
197 1 6.2712976114434467e+00 1.5867667242536576e+00 3.6310745431140518e+01 1 0 -1
54 1 4.2339975038568394e+00 8.0630434474867592e+00 3.8540822431778679e+01 1 0 -1
1817 1 1.0612649722782326e+00 1.4259705335047705e+01 3.7609322199496674e+01 0 0 0
4891 1 4.3903089173746812e+00 6.7640988794380785e+00 3.6061997709501881e+01 1 0 0
1911 1 1.8501218498482754e+00 5.2041389131020130e+00 3.6100436390010259e+01 1 1 -1
6074 1 2.9150770098296630e+00 1.2199351874203291e+01 3.7768606271970626e+01 -1 0 0
4850 1 9.3401652977018497e+00 1.3426482919546993e+01 3.5731977608469506e+01 0 -1 0
2906 1 8.0061144170568213e+00 1.5910150536547924e+01 3.5967711733293243e+01 0 0 0
133 1 6.4225828002225303e+00 4.5903632046508029e+00 3.5636859463079226e+01 -1 0 0
205 1 8.7984954737794148e+00 6.0357833651659343e+00 3.5701036104766644e+01 0 -1 -1
4404 1 7.1436961506874774e-01 9.5552493172742548e+00 3.6030515330399083e+01 1 1 0
6299 1 4.6413896923023241e+00 1.1484798664156870e+01 3.5697052083845989e+01 0 1 -1
2142 1 3.3125545454802228e+00 9.0465377316896127e+00 3.5279956568955498e+01 1 0 0
5148 1 3.1380354820861869e+00 1.5008755199174665e+01 3.5857153226351898e+01 1 0 -1
5179 1 9.2759320686027884e+00 2.2057557937835206e+00 3.6473395798682873e+01 1 0 -1
2134 1 9.3883608556756766e+00 8.8317001895086040e+00 3.5524904811705220e+01 -1 0 0
3489 1 7.7621985323586955e+00 1.1037718527808453e+01 3.5711601351256590e+01 1 0 -1
1436 1 7.4666628864144213e+00 1.1656338287826431e+01 3.8541370524514804e+01 0 1 0
4521 1 3.9252389918290351e+00 1.8495896476995897e+00 4.1207136898796350e+01 1 1 0
2898 1 2.9398998590959446e+00 4.3772072361719152e+00 4.2049671836428942e+01 1 0 0
6311 1 3.7641245751189802e+00 1.5354297923861100e+01 4.0356192802580622e+01 1 1 -1
1544 1 3.8109602833899547e+00 1.4867964101614598e+01 4.5073997171948164e+01 1 0 0
468 1 6.4784094644661065e+00 1.3050074816863819e+00 3.9286001002478386e+01 2 0 0
4587 1 2.3853347259544040e+00 7.2255992119668715e+00 4.0386859717663853e+01 1 1 0
3013 1 1.3847069814478368e+00 1.1327466438694085e+00 4.1378735903162664e+01 2 0 0
1434 1 5.7853311206304738e+00 5.5690465134960805e+00 4.1730573835301840e+01 1 0 0
225 1 5.0584455388885607e-01 1.2279071511639478e+01 4.4127550589243256e+01 1 0 -1
2958 1 2.2205472080135258e+00 1.2835334681193860e+01 4.1956603850928772e+01 1 1 0
5097 1 3.1058026259839431e+00 1.0731602973557381e+01 4.0111917307055464e+01 1 0 -1
80 1 8.8532498870044407e-01 9.4187895043707517e+00 4.3681255037356749e+01 1 0 -1
1516 1 8.9701288143902982e+00 1.6064384226184725e+01 3.9342046609564306e+01 1 0 0
1409 1 8.7914504631318309e+00 3.1959869639864817e+00 3.9259609037790398e+01 0 0 0
145 1 6.3600150509707323e+00 8.4086197730178860e+00 4.2083827086556752e+01 -1 -1 -1
1444 1 8.8162397187040096e+00 8.5839779734845667e+00 4.3235344895247465e+01 1 0 0
271 1 9.0802639752555354e+00 1.3509706271474407e+01 4.5429472910394324e+01 0 0 -1
1637 1 6.2434533069772762e+00 1.2594702719213362e+01 4.2984046755369775e+01 1 -1 -1
3200 1 9.0006562646479917e+00 1.2866489924205654e+01 4.3023477579937079e+01 2 2 -1
5317 1 6.0051261985656463e+00 7.7614647501911742e+00 4.6878453667205761e+01 0 -1 0
1733 1 5.8681422409538024e+00 1.0705051742485370e+01 4.0945199192295533e+01 0 1 -1
3666 1 3.9157229101726904e-01 1.3636954694810221e+01 4.0335196058435329e+01 -1 1 0
1718 1 2.4933027960251337e+00 1.5517229980530425e+00 4.5850724538838222e+01 0 1 0
6287 1 6.8154544177111447e+00 1.2180220022323736e+00 4.6316279859984945e+01 1 1 -1
4617 1 7.5928032864367303e+00 1.5596495947918525e+00 4.3664418510705431e+01 1 1 0
2805 1 7.8454068881316008e+00 9.1331615556606742e+00 4.5863578640885450e+01 1 1 0
5029 1 1.3764839891447420e+00 5.7839025265408077e+00 4.6886074768250168e+01 0 0 -1
1333 1 3.2733525506593426e+00 5.8101554915123286e+00 4.4532917745190346e+01 2 0 0
1910 1 7.2583767497863692e+00 4.5144538684685642e+00 4.3770946762355251e+01 1 0 0
4548 1 5.3239314080524824e+00 1.5327926447213562e+01 4.2831928245285283e+01 1 0 0
5083 1 5.4854889558959155e+00 5.0802227209727455e+00 4.5965081664520255e+01 0 0 -1
4973 1 6.8363575924220177e+00 7.7011759069678698e+00 3.9406706619791507e+01 0 1 0
339 1 9.4190004544069446e+00 1.5418003068045842e+01 4.2151359212046785e+01 -1 1 -1
6195 1 3.5166786662169116e+00 8.2201845827779572e+00 4.3088183094560776e+01 0 0 0