
# Create simulation box and atoms

read_data data.ML_graphite_1atm_240K
  orthogonal box = (0 0 3.74403) to (49.22 49.0196 56.318)
  5 by 3 by 6 MPI processor grid
  reading atoms ...
  6328 atoms
  reading velocities ...
  6328 velocities
group water type 1
3568 atoms in group water
group graphite type 2
2760 atoms in group graphite

# Define potential

pair_style sw
pair_coeff * * MLC_e.sw mW C


# Fix graphite atoms in place

fix 5 graphite setforce 0.0 0.0 0.0
velocity graphite set 0.0 0.0 0.0


# Equilibration of molecular water

# Add velocity/set timestep

velocity	    water create ${TEMP} ${SEED} rot yes dist gaussian
velocity	    water create 240 ${SEED} rot yes dist gaussian
velocity	    water create 240 31587 rot yes dist gaussian
timestep	    5.0

# Define output

compute			1 water msd
compute			3 water temp
thermo	    	50
thermo_style	custom step temp press vol etotal ke pe c_1[4] c_3

# Neighbor lists

neigh_modify    delay 0 every 1 check yes

# Set fixes

fix             1 water momentum 10 linear 1 1 1 rescale
fix             2 water nve
fix             3 water temp/csvr ${TEMP} ${TEMP} 500.0 ${SEED}
fix             3 water temp/csvr 240 ${TEMP} 500.0 ${SEED}
fix             3 water temp/csvr 240 240 500.0 ${SEED}
fix             3 water temp/csvr 240 240 500.0 31587
fix             4 water press/berendsen z ${PRES} ${PRES} 1000.0 modulus 20000
fix             4 water press/berendsen z 1 ${PRES} 1000.0 modulus 20000
fix             4 water press/berendsen z 1 1 1000.0 modulus 20000

# Run 0.5 ns equilibration

dump		    1 all atom 2000 ${DIR}/eq.${NAME}-${TEMP}.dump
dump		    1 all atom 2000 run_9/eq.${NAME}-${TEMP}.dump
dump		    1 all atom 2000 run_9/eq.het_freeze_9-${TEMP}.dump
dump		    1 all atom 2000 run_9/eq.het_freeze_9-240.dump

reset_timestep  0

run	            100000
Neighbor list info ...
  update every 1 steps, delay 0 steps, check yes
  max neighbors/atom: 2000, page size: 100000
  master list distance cutoff = 6.67472
  ghost atom cutoff = 6.67472
  binsize = 3.33736, bins = 15 15 16
  1 neighbor lists, perpetual/occasional/extra = 1 0 0
  (1) pair sw, perpetual
      attributes: full, newton on
      pair build: full/bin/atomonly
      stencil: full/bin/3d
      bin: standard
Per MPI rank memory allocation (min/avg/max) = 4.07 | 4.222 | 4.501 Mbytes
Step Temp Press Volume TotEng KinEng PotEng c_1[4] c_3 
       0    135.30583   -58.143592    126847.59   -33960.221    2551.8119   -36512.033            0          240 
      50    137.26104   -207.04468    126844.55   -33955.228    2588.6863   -36543.914   0.50380425    243.46807 
     100    138.53554   -271.21558    126822.45   -33958.535    2612.7227   -36571.258   0.88785396    245.72872 
     150    137.34212   -158.24211    126779.74   -33929.928    2590.2153   -36520.144    1.1829204    243.61188 
     200    138.35942   -172.61272    126716.18   -33912.727    2609.4012   -36522.128    1.4520016    245.41633 
     250    135.07429   -231.85103    126745.09   -33951.783    2547.4451   -36499.229    1.7323869     239.5893 
     300     137.6247   -309.95147    126815.06   -33917.539    2595.5448   -36513.084    2.0056204    244.11312 
     350    135.13878   -315.30559    126784.19   -33928.525    2548.6614   -36477.186    2.2364727     239.7037 
     400    134.83395   -94.136124    126850.14   -33959.741    2542.9124   -36502.654    2.5009084    239.16299 
     450    132.96999   -107.29552    126881.44   -33998.478    2507.7589   -36506.237    2.7963124    235.85678 
     500     134.8385   -222.50108    126879.01   -34049.599    2542.9982   -36592.597    3.1171984    239.17107 
     550    135.29896   -392.04084    126865.53    -34039.11    2551.6823   -36590.792    3.3177366    239.98782 
     600    135.54226    82.987205     126842.4   -34061.378    2556.2708   -36617.649    3.5096647    240.41936 
     650    136.31153   -284.48125    126902.83   -34033.424     2570.779   -36604.203    3.6537747    241.78387 
     700    130.81882   -61.109212    126920.59   -34055.148    2467.1887   -36522.337    3.8518262    232.04112 
     750    132.58786   -156.09248    126940.42    -34077.64    2500.5521   -36578.192    4.0141855    235.17897 
     800    134.33714    -225.9547    126976.01   -34083.821    2533.5427   -36617.364     4.201662    238.28177 
     850    134.16955   -283.00367    127018.35   -34102.138    2530.3821   -36632.521    4.4385436    237.98452 
     900    132.39385   -56.080989    127037.83   -34102.272    2496.8931   -36599.165    4.7662721    234.83485 
     950    135.75187   -103.80975    127129.66   -34083.336    2560.2239    -36643.56    5.0273265    240.79116 
    1000    132.40463   -260.88202    127187.68   -34061.868    2497.0964   -36558.965    5.1929568    234.85397 
    1050    134.66963   -51.333936    127279.86   -34059.642    2539.8134   -36599.455    5.4368612    238.87153 
    1100    136.27413   -282.82673    127280.96   -34080.461    2570.0737   -36650.534    5.6706785    241.71754 
    1150    132.33505   -145.65907    127312.71   -34092.635    2495.7841   -36588.419    5.8713095    234.73054 
    1200    137.42541   -329.98963    127354.21   -34029.715    2591.7861   -36621.501     6.070582    243.75961 
    1250    135.64638   -250.49621    127399.71   -33995.843    2558.2344   -36554.077    6.2799467    240.60404 
    1300    136.74932   -305.33093    127334.43   -34015.974    2579.0355    -36595.01    6.5026944     242.5604 
    1350    134.44618    -181.9692    127337.17   -33989.477    2535.5991   -36525.076    6.7480698    238.47518 
    1400    135.77055    128.71375    127435.47   -33957.985    2560.5763   -36518.562    6.9878456     240.8243 
    1450    139.17067    49.612225    127451.14   -33919.178    2624.7012   -36543.879    7.2365837     246.8553 
    1500    135.98002   -492.57269    127451.39    -33969.18    2564.5267   -36533.706    7.3802273    241.19584 
    1550    138.55595   -199.20972    127392.46   -33936.293    2613.1078   -36549.401    7.5906595    245.76493 
    1600    137.44304   -173.64573    127425.07   -33925.318    2592.1187   -36517.437    7.8344146    243.79089 
    1650    136.24858   -296.84243    127413.34   -33974.508    2569.5917     -36544.1    8.1091813    241.67221 
    1700    133.48445   -309.44538     127373.1   -33971.253    2517.4614   -36488.714    8.3403684    236.76931 
    1750    137.02778   -213.03859     127402.5   -33970.091    2584.2871   -36554.378    8.6979933    243.05433 
    1800    138.04006   -295.17629    127406.45   -33959.026    2603.3783   -36562.404    8.9647743    244.84987 
    1850    138.67837   -330.00185    127392.39    -33958.82    2615.4165   -36574.236    9.1641228    245.98207 
    1900    134.62691   -246.75768    127412.33   -33982.952    2539.0076    -36521.96    9.3424947    238.79575 
    1950    138.21715   -438.76994    127361.83   -33947.394    2606.7181   -36554.112    9.5667955    245.16398 
    2000    133.36354   -385.27296    127318.94   -34001.016    2515.1811   -36516.197    9.8336142    236.55485 
    2050    138.70071   -427.69065    127166.94   -34085.338    2615.8379   -36701.176    10.085225     246.0217 
    2100    134.19594   -322.72047    127171.44   -34050.972    2530.8798   -36581.852    10.304303    238.03132 
    2150    132.82744     -315.181    127189.23   -34094.325    2505.0703   -36599.395      10.5616    235.60392 
    2200    132.80467   -425.22014    127170.91    -34088.29    2504.6409   -36592.931    10.821031    235.56354 
    2250    133.77366    50.011555    127172.59    -34069.14    2522.9158   -36592.055    10.983442     237.2823 
    2300    136.97632   -217.88699    127176.67   -34018.178    2583.3166   -36601.495     11.17659    242.96305 
    2350    134.38399   -108.27045    127209.24   -34083.953    2534.4264   -36618.379    11.372178    238.36488 
    2400    132.23448   -358.13962    127168.78    -34063.91    2493.8874   -36557.797    11.603609    234.55216 
    2450    135.78629   -164.23521    127166.29   -34049.062    2560.8732   -36609.936    11.899829    240.85222 
    2500    132.71906   -87.118552    127191.44   -34070.302    2503.0265   -36573.328    12.191699    235.41169 
    2550    133.12258   -141.73418     127252.6   -34091.007    2510.6366   -36601.643    12.431551    236.12743 
    2600    133.42806    49.129332    127274.53   -34079.748    2516.3978   -36596.146    12.669325    236.66928 
    2650    133.22858   -93.988774    127349.22   -34101.904    2512.6358    -36614.54    12.883063    236.31546 
    2700     136.8514   -109.20618    127405.73   -34094.102    2580.9607   -36675.063    13.119323    242.74147 
    2750     131.5654   -512.64898    127342.46   -34093.851    2481.2689    -36575.12    13.407606    233.36538 
    2800    137.19632    5.7046586    127405.21   -34087.923    2587.4656   -36675.388    13.554562    243.35326 
    2850    134.69801   -154.24845    127508.91    -34015.03    2540.3486   -36555.379    13.721169    238.92187 
    2900    138.77486   -405.20421    127576.64   -33980.249    2617.2363   -36597.485    14.003715    246.15322 
    2950    138.85538   -288.28196    127525.02   -34018.753    2618.7549   -36637.508     14.24023    246.29605 
    3000    137.43728   -276.61257    127528.32    -34030.78    2592.0101    -36622.79     14.41643    243.78068 
    3050    137.65591    185.56526    127628.89   -34039.272    2596.1334   -36635.406    14.615199    244.16847 
    3100    135.61477   -319.86289    127718.94   -34051.536    2557.6384   -36609.174    14.834215    240.54799 
    3150    134.19875   -129.62607     127772.3   -34034.543    2530.9327   -36565.475    15.021329     238.0363 
    3200     135.6689   -161.61967     127813.5    -34075.43    2558.6593   -36634.089    15.206174      240.644 
    3250     133.8715   -230.78718    127810.32   -34113.314     2524.761   -36638.075     15.31236    237.45584 
    3300    131.96746   -250.22674     127816.5   -34112.289    2488.8515   -36601.141     15.49846    234.07852 
    3350     136.9424   -408.50982    127794.98   -34085.382    2582.6769   -36668.059    15.618048    242.90288 
    3400    133.83263    -82.15711    127731.82   -34079.794    2524.0278   -36603.821    15.706878    237.38689 
    3450    134.00075   -386.67515    127759.79   -34049.374    2527.1987   -36576.573    16.033667    237.68511 
    3500    137.15419   -294.61457    127753.33   -34045.526    2586.6712   -36632.197    16.383691    243.27855 
    3550     135.0558   -555.84636    127725.19   -34012.489    2547.0964   -36559.585    16.588117     239.5565 
    3600    137.06835   -439.56301    127582.66   -34006.342    2585.0522   -36591.394    16.655174    243.12628 
    3650    132.69499   -286.25959    127572.37   -34036.535    2502.5725   -36539.108    16.797361      235.369 
    3700    133.16201   -327.15363    127601.67   -34038.502    2511.3803   -36549.882    17.055233    236.19738 
    3750     134.4382    -274.4111    127615.65   -34020.375    2535.4486   -36555.824    17.240305    238.46102 
    3800    137.15567    -146.2469    127571.48    -34032.16     2586.699   -36618.859    17.432304    243.28117 
    3850    132.51053   -94.284522    127590.88   -34065.581    2499.0936   -36564.675    17.903625    235.04181 
    3900    134.17724   -332.27222    127622.25   -34036.445     2530.527   -36566.972    18.163736    237.99814 
    3950    138.30662   -328.05989    127687.35   -33984.493    2608.4056   -36592.899     18.32491    245.32268 
    4000    137.08857   -37.490191    127658.61   -33997.425    2585.4336   -36582.858    18.614579    243.16215 
    4050    137.31795   -134.93532    127694.54   -34009.329    2589.7597   -36599.089    18.780413    243.56902 
    4100    135.68284   -433.06552    127610.11   -34022.052    2558.9222   -36580.974    18.875801    240.66873 
    4150    134.71134   -184.24662    127534.59   -34005.288    2540.6001   -36545.888    19.092382    238.94552 
    4200    134.69081   -125.57749    127507.19   -34064.717    2540.2128    -36604.93    19.248124     238.9091 
    4250    139.28372   -424.68142     127469.2   -33984.237    2626.8332   -36611.071    19.512693    247.05582 
    4300    137.91328   -596.59482    127452.07   -33964.687    2600.9873   -36565.674    19.832525    244.62499 
    4350    140.22504    -150.2093    127480.83   -33962.378     2644.586   -36606.964    20.022313    248.72548 
    4400    133.86426   -257.14745    127462.77   -34006.255    2524.6244   -36530.879    20.202848    237.44299 
    4450    135.41195   -430.57741    127435.06   -33991.215    2553.8132   -36545.029    20.386026    240.18823 
    4500    136.50548    -508.1908    127350.67   -33975.999    2574.4367   -36550.436    20.642463    242.12789 
    4550    134.09215   -175.80628    127337.25   -34015.097    2528.9224   -36544.019    20.870837    237.84722 
    4600    136.03961   -304.17889     127363.6   -34000.767    2565.6505   -36566.418    21.132559    241.30154 
    4650    137.45495   -333.35577    127393.01   -33979.745    2592.3434   -36572.089    21.369354    243.81202 
    4700    136.12422    -296.2475    127420.81   -33983.188    2567.2463   -36550.435    21.565543    241.45162 
    4750    135.01258   -201.22338     127474.3   -34011.548    2546.2813   -36557.829    21.780474    239.47985 
    4800     134.5708    -542.6389    127518.43   -34060.819    2537.9495   -36598.768    21.944696    238.69623 
    4850    137.44627   -423.42788    127592.66   -34013.072    2592.1797   -36605.252    22.169665    243.79662 
    4900     136.8706   -294.87508    127617.45   -33972.525    2581.3228   -36553.848    22.357938    242.77553 
    4950      135.144   -416.55054     127560.5   -33969.473    2548.7597   -36518.232    22.598433    239.71294 
    5000    134.25157   -168.90204    127617.78   -34014.276    2531.9289   -36546.205    22.803557    238.12999 
    5050    136.20028   -386.72069    127622.31   -34000.757    2568.6808   -36569.438    23.000431    241.58654 
    5100    134.74091   -401.94066    127576.76   -34032.578    2541.1576   -36573.736    23.216383    238.99796 
    5150    134.17249   -131.84679    127604.38    -34066.79    2530.4375   -36597.227    23.638176    237.98972 
    5200     136.9368   -208.78096    127563.24   -34055.359    2582.5713   -36637.931    23.857134    242.89295 
    5250    133.02623   -219.49314    127666.17   -34066.448    2508.8196   -36575.267    24.133745    235.95654 
    5300    134.70754   -344.75675    127664.48     -33994.9    2540.5283   -36535.429    24.264903    238.93877 
    5350    134.75065   -307.83208    127631.05   -34001.653    2541.3414   -36542.994     24.63743    239.01524 
    5400    135.28879   -338.88184    127595.66   -34011.958    2551.4904   -36563.448     24.81415    239.96976 
    5450    135.38732   -410.37711    127566.77    -34008.08    2553.3488   -36561.429    24.995332    240.14455 
    5500    136.69633   -438.69234    127441.26    -33992.66    2578.0361   -36570.696    25.070296    242.46641 
    5550    134.57717   -628.08476    127401.82   -34058.059    2538.0696   -36596.129    25.325625    238.70753 
    5600    136.33389   -533.47689    127282.93   -34023.788    2571.2006   -36594.989    25.405406    241.82352 
    5650     129.5934   -422.04875    127264.82   -34043.541    2444.0778   -36487.619    25.560196    229.86752 
    5700    136.73229    -214.5684    127298.21   -33980.058    2578.7143   -36558.772    25.702625     242.5302 
    5750    138.50159   -54.838976    127335.52    -34027.77    2612.0826   -36639.852    25.835949    245.66851 
    5800    137.12798   -238.42967    127286.06   -34014.878    2586.1768   -36601.055    26.105638    243.23205 
    5850    134.74144   -18.243914    127298.91   -34027.828    2541.1677   -36568.996    26.322294    238.99891 
    5900    135.38092   -275.46281    127309.91   -34051.953    2553.2281   -36605.181     26.59384     240.1332 
    5950    132.38774   -225.97375    127223.59   -34032.276    2496.7778   -36529.054    26.817815      234.824 
    6000    134.55243   -134.61878    127138.57   -34029.918     2537.603   -36567.521     26.96374    238.66365 
    6050     136.2032    -151.5675    127062.87   -34052.025    2568.7358   -36620.761    27.251947    241.59171 
    6100    134.26937    -230.9868    127129.79   -34045.667    2532.2645   -36577.932    27.429486    238.16156 
    6150    133.69277   -168.19744    127210.35   -34026.859    2521.3901   -36548.249    27.547093    237.13881 
    6200    133.66919   -346.71362    127274.37   -34084.674    2520.9454    -36605.62    27.667075    237.09698 
    6250    136.28748   -543.36185    127282.99   -34050.046    2570.3253   -36620.371    27.871639    241.74121 
    6300    137.92254   -235.94137    127323.44   -34003.378     2601.162    -36604.54    28.100842    244.64142 
    6350    137.22814   -121.61674    127310.94   -34028.772    2588.0658   -36616.838     28.34228    243.40971 
    6400    134.19033   -152.57465    127370.52   -34063.981    2530.7739   -36594.755    28.414799    238.02136 
    6450    131.42858    -163.3301    127408.21   -34086.667    2478.6885   -36565.355     28.53908    233.12269 
    6500    133.94673   -355.66372    127356.51    -34087.23    2526.1798    -36613.41    28.746321    237.58928 
    6550    134.30875   -227.15628    127354.44   -34084.949    2533.0073   -36617.956    28.864638    238.23142 
    6600    133.88676   -61.483939    127318.79   -34056.623    2525.0487   -36581.672    29.067317     237.4829 
    6650     136.1301   -88.853537     127317.2   -34053.468    2567.3572   -36620.825    29.157627    241.46205 
    6700    134.96309   -267.05077    127343.52   -34025.553     2545.348   -36570.901    29.409182    239.39207 
    6750     132.9141   -422.46492    127335.48   -34006.322    2506.7048   -36513.027    29.583142    235.75764 
    6800    138.22717   -536.65019    127261.15   -33970.629     2606.907   -36577.536     29.89684    245.18174 
    6850    135.38646   -336.28361    127189.26   -33974.163    2553.3325   -36527.495    29.998448    240.14301 
    6900    136.46409    33.450297    127162.74   -33994.294    2573.6561    -36567.95    30.327187    242.05447 
    6950    135.25486   -213.60585    127158.43   -33972.322    2550.8505   -36523.172    30.561087    239.90959 
    7000    137.88867   -246.22184    127133.31   -34012.364    2600.5232   -36612.888    30.798984    244.58134 
    7050    135.41075   -540.08389    127118.19   -34030.452    2553.7906   -36584.243    31.157351     240.1861 
    7100    136.24095    -408.5871    127069.18   -34059.843    2569.4477   -36629.291    31.366481    241.65867 
    7150    135.13279   -343.66794    127043.58   -34064.052    2548.5485     -36612.6    31.566271    239.69307 
    7200    133.14727   -387.24464    127087.49   -34067.983    2511.1022   -36579.085    31.656147    236.17122 
    7250    133.75332   -256.72961    127114.47   -34074.572    2522.5322   -36597.105    31.897769    237.24622 
    7300    132.69889   -255.41705     127003.9   -34074.321    2502.6461   -36576.967    32.053653    235.37591 
    7350     135.1334   -362.79829    126923.29   -33998.526    2548.5599   -36547.086    32.233206    239.69415 
    7400    135.06248   -97.007694    126962.68   -33959.687    2547.2223    -36506.91    32.487309    239.56835 
    7450    136.00511    24.907385    126987.34   -33932.335         2565   -36497.335    32.698833    241.24035 
    7500    134.19522   -122.10213     127021.4   -33935.452    2530.8662   -36466.318    33.033085    238.03004 
    7550    135.83529   -225.47469    126963.28   -33941.159    2561.7971   -36502.956    33.339155    240.93912 
    7600    136.07891   -134.90105    126985.96   -33950.566    2566.3917   -36516.958     33.64141    241.37125 
    7650    136.93571   -126.78918    127015.65   -33937.877    2582.5507   -36520.428    34.113242    242.89101 
    7700    135.39011    -339.5673     127042.2   -33948.372    2553.4014   -36501.774    34.443232     240.1495 
    7750    135.04084   -290.17039    127029.86   -33974.839    2546.8142   -36521.653    34.601728    239.52997 
    7800    135.68063    30.989736     127083.6   -33931.624    2558.8804   -36490.505     34.87696     240.6648 
    7850    135.17459   -165.99167    127115.55   -33934.624    2549.3366   -36483.961    35.050193     239.7672 
    7900    134.67536    59.905188    127059.71   -33918.634    2539.9214   -36458.555    35.402223    238.88169 
    7950    135.92648    -150.5778    127139.43   -33941.229     2563.517   -36504.746    35.665008    241.10088 
    8000    135.08441   -497.17921    127166.83   -33967.279    2547.6359   -36514.915    35.844053    239.60725 
    8050    133.26271     -383.028     127029.5   -33948.061    2513.2793   -36461.341    35.956135    236.37598 
    8100    136.66595   -200.02543    126996.26   -33932.592    2577.4632   -36510.055    36.134397    242.41252 
    8150    136.89707    -224.8508    127041.65   -33928.575     2581.822   -36510.397     36.36019    242.82248 
    8200    136.78238    70.615483    127141.84   -33938.055     2579.659   -36517.714    36.481892    242.61904 
    8250     137.3552    75.133741    127234.58   -33882.748     2590.462    -36473.21    36.780578    243.63508 
    8300    139.50645   -113.25112    127316.51   -33827.105    2631.0338   -36458.139     37.08793    247.45089 
    8350     134.2776   -345.08687    127372.06   -33877.611    2532.4198    -36410.03    37.494746    238.17616 
    8400    138.43667   -63.002722    127364.51    -33922.19    2610.8581   -36533.049    37.634716    245.55334 
    8450    132.92818   -61.490221    127411.14   -33945.074    2506.9704   -36452.045    37.854406    235.78262 
    8500    135.65453   -189.19974    127334.27   -33923.297    2558.3882   -36481.685    38.022771    240.61851 
    8550    138.71125    -338.2677    127337.55   -33822.484    2616.0365    -36438.52    38.291884    246.04038 
    8600    136.24031   -266.63501    127307.87   -33874.339    2569.4358   -36443.775     38.58895    241.65754 
    8650    137.93858   -267.43685    127250.92   -33886.124    2601.4644   -36487.589    38.737732    244.66986 
    8700    138.77667   -115.77136    127261.09   -33912.405    2617.2705   -36529.675    39.085593    246.15643 
    8750    135.22795   -212.68482    127238.68   -33960.687    2550.3431   -36511.031    39.172677    239.86186 
    8800    136.35159   -8.4388941    127257.68   -33943.746    2571.5345    -36515.28    39.300063    241.85493 
    8850    135.19528   -310.09211     127272.1   -33901.813    2549.7268    -36451.54    39.626919     239.8039 
    8900    134.48584   -333.40514     127232.3   -33903.868    2536.3471   -36440.215    39.881186    238.54552 
    8950     137.4206   -101.01038    127213.63   -33884.651    2591.6956   -36476.347    40.189305     243.7511 
    9000    134.62728   -13.497337     127217.6   -33938.297    2539.0146   -36477.311    40.396287    238.79641 
    9050     136.2165   -84.597259     127300.5   -33897.362    2568.9866   -36466.349    40.620205     241.6153 
    9100    135.63321   -216.90624    127390.89   -33893.006    2557.9861   -36450.993    40.965796    240.58069 
    9150    136.70202   -4.7643832     127405.6   -33871.076    2578.1434    -36449.22    41.168336    242.47651 
    9200    139.25849   -227.53589     127493.7   -33823.814    2626.3573   -36450.171    41.326106    247.01106 
    9250    138.26849   -336.75798    127456.52   -33845.526    2607.6864   -36453.212    41.456687    245.25505 
    9300    136.60499   -251.69826    127409.34   -33909.775    2576.3135   -36486.089    41.669299     242.3044 
    9350    135.47477   -232.52485    127515.53   -33929.719    2554.9979   -36484.717    41.991014    240.29965 
    9400    136.86173   -291.83559    127489.73   -33948.663    2581.1555   -36529.818    42.161798    242.75979 
    9450    135.31423   -228.30065    127519.05   -34015.796    2551.9702   -36567.767    42.242438    240.01489 
    9500    134.33675    -333.8843    127481.71   -33987.245    2533.5353    -36520.78    42.513705    238.28107 
    9550    132.86734   -371.41297    127403.84   -34012.805     2505.823   -36518.628    42.648085     235.6747 
    9600    134.88966    -19.88562    127418.65   -34013.138    2543.9631   -36557.101    42.964215    239.26182 
    9650    134.73018   -223.72185    127464.43   -33983.966    2540.9554   -36524.921    43.185206    238.97894 
    9700    135.39712    67.017485    127503.95    -33970.93    2553.5336   -36524.464    43.314073    240.16193 
    9750    139.12186   -245.61266    127562.61   -33915.119    2623.7806   -36538.899    43.582416    246.76872 
    9800    138.09449   -26.881343    127550.77   -33913.471    2604.4049   -36517.876    43.810473    244.94641 
    9850    134.69367   -366.00386    127556.61   -33949.156    2540.2667   -36489.423     44.14616    238.91417 
    9900    138.29279   -204.11273    127582.28    -33957.98    2608.1446   -36566.124    44.234093    245.29814 
    9950    137.15222   -386.94487    127624.11   -33987.672    2586.6341   -36574.306    44.332037    243.27506 
   10000    133.42831   -182.97191     127646.5    -34051.93    2516.4026   -36568.333    44.591419    236.66972 
   10050    135.58624   -288.17754    127721.59   -34046.863    2557.1003   -36603.964    44.692183    240.49738 
   10100    135.65792   -541.08824    127758.82   -34063.748    2558.4521     -36622.2    45.045814    240.62452 
   10150    136.86937   -330.05276    127695.66   -34024.809    2581.2996   -36606.108    45.121459    242.77335 
   10200    136.82377   -92.703646    127641.29   -34005.264    2580.4396   -36585.704    45.160306    242.69247 
   10250    135.51904   -363.69175    127693.58   -34038.448     2555.833   -36594.281    45.311297    240.37819 
   10300    136.44099   -29.085843    127740.18   -34019.271    2573.2206   -36592.491    45.507526    242.01351 
   10350    132.50169   -155.14193    127769.08   -34034.106     2498.927   -36533.033    45.743187    235.02613 
   10400    134.36126   -313.83451    127754.95   -34088.239    2533.9975   -36622.237     45.88163    238.32455 
   10450     133.4157   -509.58666    127600.91   -34064.539    2516.1647   -36580.704    45.898306    236.64736 
   10500    136.02306   -309.02574    127492.77   -34019.717    2565.3384   -36585.056    45.943321    241.27218 
   10550    136.26213   -251.27112    127452.93   -33963.883    2569.8473   -36533.731    46.103047    241.69625 
   10600    136.03882   -376.64326    127459.76   -33971.701    2565.6356   -36537.337    46.434937    241.30014 
   10650    136.04344   -114.10073    127432.32   -33984.816    2565.7229   -36550.539    46.805527    241.30835 
   10700     133.2429   -207.07239    127465.72   -33931.534    2512.9057   -36444.439    47.016871    236.34085 
   10750    135.16061   -287.31096    127535.79   -33962.052    2549.0729   -36511.125    47.166399     239.7424 
   10800    136.46731   -186.86501     127525.2   -33983.293    2573.7168    -36557.01    47.533958    242.06018 
   10850    135.24438   -381.09633    127510.56   -33962.784    2550.6529   -36513.437    47.819689    239.89099 
   10900    135.85199   -435.77364    127488.82   -33942.132    2562.1122   -36504.244    48.006837    240.96876 
   10950    137.48403   -361.34046    127487.91   -33930.981    2592.8918   -36523.872    48.328225     243.8636 
   11000    135.60818    -147.6672    127412.82   -33925.117    2557.5141   -36482.631    48.524302     240.5363 
   11050    135.72827   -322.86618    127350.68   -33922.026    2559.7789   -36481.804    48.651703    240.74931 
   11100    133.38285   -79.413214    127416.03   -33972.985    2515.5453    -36488.53    48.912867     236.5891 
   11150    135.17752   -233.53443    127431.41   -33982.179    2549.3919   -36531.571     48.85387     239.7724 
   11200    133.76911   -472.19265    127288.15   -33990.535    2522.8299   -36513.365     48.94848    237.27422 
   11250    133.92853   -32.062152    127232.89    -34009.39    2525.8366   -36535.226    49.068947    237.55701 
   11300    135.24874   -121.20892    127231.35   -34043.141    2550.7352   -36593.876    49.176518    239.89874 
   11350    134.78369   -266.24275    127280.55   -34086.585    2541.9645    -36628.55    49.343263    239.07384 
   11400    133.92645   -300.41526    127267.24   -34111.784    2525.7973   -36637.582     49.51305     237.5533 
   11450    133.70581   -200.46082    127373.91   -34050.956    2521.6362   -36572.592      49.7106    237.16195 
   11500    133.93506    -73.36136    127342.99   -34044.878    2525.9597   -36570.838    49.942229    237.56858 
   11550    134.44848   -288.41214    127405.83   -34063.494    2535.6425   -36599.137    50.179602    238.47926 
   11600    133.30261   -292.13861    127441.19   -34086.316    2514.0318   -36600.348    50.143142    236.44676 
   11650    134.78048   -194.08761    127420.38   -34091.472    2541.9039   -36633.376    50.554149    239.06814 
   11700    136.54575   -50.273314    127466.03   -34085.724    2575.1963    -36660.92     50.69948    242.19932 
   11750    133.85804   -219.95044       127609   -34068.298     2524.507   -36592.805    50.742765    237.43196 
   11800    134.06289   -380.25216    127534.66   -34069.771    2528.3706   -36598.142     50.78576    237.79533 
   11850    134.90302    3.5827806    127537.55   -34069.519     2544.215   -36613.734    50.915044    239.28551 
   11900    134.26977   -202.72412    127512.53   -34085.151    2532.2722   -36617.423    51.296757    238.16228 
   11950    135.61134   -165.75323    127486.71   -34129.301    2557.5736   -36686.874    51.685906     240.5419 
   12000    134.86009   -345.93896     127483.4   -34099.481    2543.4053   -36642.887    51.650644    239.20936 
   12050    133.80934    -275.3953    127422.93   -34098.069    2523.5886   -36621.657    51.739123    237.34558 
   12100    132.99744   -284.76648    127443.22   -34080.816    2508.2766   -36589.093      52.0528    235.90547 
   12150    135.78649   -200.90541    127383.21   -34095.617     2560.877   -36656.494    52.249555    240.85258 
   12200    132.67111   -153.16936    127448.54   -34090.347     2502.122   -36592.469    52.468355    235.32663 
   12250    134.59479    5.1195821    127591.72    -34116.16    2538.4019   -36654.562    52.882765    238.73878 
   12300    136.17821   -35.344709    127591.75   -34077.768    2568.2646   -36646.032    53.172186    241.54739 
   12350    135.55099    21.152847    127650.98   -34143.934    2556.4354   -36700.369    53.453997    240.43485 
   12400    135.59295   -418.44759    127739.65   -34136.829    2557.2268   -36694.056    53.791906    240.50927 
   12450    133.62471   -146.70566    127712.18   -34104.574    2520.1066   -36624.681    53.908242    237.01809 
   12500    133.27662   -165.75206    127704.26   -34125.832    2513.5417   -36639.374    54.087107    236.40066 
   12550    137.94963   -94.377434    127726.19   -34112.423    2601.6728   -36714.096    54.259003    244.68947 
   12600    133.13447   -57.344559    127794.72    -34123.85    2510.8609   -36634.711    54.732629    236.14853 
   12650    133.74688    -319.2591    127806.51   -34146.393    2522.4107   -36668.803    55.047217     237.2348 
   12700    133.05067   -387.27566    127810.27   -34059.821    2509.2804   -36569.102    55.144119    235.99988 
   12750    135.25366   -74.254167    127826.01   -34054.458    2550.8279   -36605.286    55.261498    239.90746 
   12800    132.16242   -281.58685    127782.24   -34038.174    2492.5284   -36530.703     55.52044    234.42434 
   12850    132.99207   -616.87551     127703.4   -34041.663    2508.1753   -36549.838    55.762102    235.89594 
   12900    133.11361   -180.92383    127648.42   -34100.258    2510.4675   -36610.726    55.774722    236.11152 
   12950    135.23532   -424.49473    127618.47   -34050.858    2550.4821   -36601.341    55.977851    239.87494 
   13000    136.48619   -292.61434    127492.01   -34064.619    2574.0729   -36638.692    56.303154    242.09367 
   13050    136.98654   -436.10491     127524.9    -34013.62    2583.5094   -36597.129    56.498035    242.98118 
   13100    137.46928   -419.07863    127431.24   -33992.751    2592.6137   -36585.365    56.546223    243.83744 
   13150    138.13178   -278.85775    127428.41   -34019.751    2605.1082   -36624.859    56.860893    245.01256 
   13200    135.97162   -110.50461    127437.71   -34013.841    2564.3684   -36578.209    57.053147    241.18095 
   13250    139.11141   -75.209526    127343.99   -33960.558    2623.5835   -36584.142    57.334148    246.75019 
   13300    134.60016   -179.50222    127439.55   -33977.009    2538.5032   -36515.512    57.718082    238.74831 
   13350    136.51415   -75.299139    127461.59   -34024.861    2574.6002   -36599.461    57.917549    242.14327 
   13400    134.52359   -418.15902    127451.41   -34029.069    2537.0591   -36566.128    58.024969    238.61249 
   13450    137.18032   -287.61549    127421.74   -34057.636     2587.164     -36644.8    58.066239     243.3249 
   13500    137.43803    -11.59599    127483.16   -34037.435    2592.0243   -36629.459    57.993871    243.78201 
   13550    134.31363    -325.7226    127546.07    -34069.28    2533.0994   -36602.379    58.100489    238.24007 
   13600    134.27616   -211.06737    127491.61   -34140.103    2532.3928   -36672.496    58.367706    238.17362 
   13650    134.13062   -145.81166    127506.65   -34127.145    2529.6479   -36656.793    58.674958    237.91546 
   13700    134.63067   -41.727058    127515.36   -34091.333    2539.0786   -36630.412    59.038927    238.80243 
   13750    132.01292   -216.41257    127517.55   -34165.094    2489.7089   -36654.803    59.358927    234.15916 
   13800    132.46897   -371.82297     127514.3   -34129.282    2498.3099   -36627.592    59.527927    234.96809 
   13850    136.27895   -492.06681    127420.19   -34062.451    2570.1644   -36632.615    59.728584    241.72608 
   13900    133.72696   -144.75854    127396.77   -34052.449     2522.035   -36574.484    59.918326    237.19946 
   13950    134.01941   -557.69281    127348.91   -34058.809    2527.5505   -36586.359    60.225861     237.7182 
   14000    134.64483   -127.24432    127298.21   -34079.113    2539.3457   -36618.459     60.51803    238.82754 
   14050    133.61791   -356.57673    127272.19   -34038.016    2519.9784   -36557.994    60.883322    237.00604 
   14100     137.5553   -332.04625    127209.15   -33994.586    2594.2359   -36588.822    61.013122    243.99002 
   14150    136.78425   -308.79019     127103.6   -34025.353    2579.6941   -36605.047    61.133946    242.62235 
   14200    137.06419   -267.43147    127098.03   -33969.731    2584.9737   -36554.705    61.474523     243.1189 
   14250    138.51085   -466.06541    127166.65   -33948.279    2612.2572   -36560.536    61.773897    245.68493 
   14300     136.7657   -11.547018    127275.15   -33932.893    2579.3443   -36512.237    62.023929    242.58945 
   14350    138.98587    181.46815    127295.56   -34025.037    2621.2159   -36646.253    62.352146     246.5275 
   14400    133.74906   -90.694641     127393.6   -34019.478    2522.4518    -36541.93    62.532218    237.23866 
   14450    136.15566   -255.16119     127429.7   -33980.081    2567.8393    -36547.92    62.852643    241.50739 
   14500    135.76844   -168.51851    127503.18   -33995.452    2560.5364   -36555.989    63.073048    240.82055 
   14550    136.99215   -49.109943    127505.06   -33992.119    2583.6151   -36575.734    63.179481    242.99112 
   14600    138.19614   -60.949266    127664.06   -33971.061    2606.3219   -36577.383     63.43921    245.12671 
   14650    134.17126   -236.14108    127674.46   -34004.778    2530.4142   -36535.193    63.712111    237.98753 
   14700    134.00842   -123.32658    127644.95   -34029.628    2527.3432   -36556.971    64.046154    237.69871 
   14750    136.29727   -431.34319     127669.8   -34018.088      2570.51   -36588.598    64.595332    241.75857 
   14800    134.92525   -356.83835    127624.24   -34001.394    2544.6343   -36546.028    64.606198    239.32494 
   14850    137.81291    -540.8095    127614.98   -33991.712    2599.0942   -36590.807    64.663666    244.44694 
   14900    137.57103   -228.88114    127566.66   -34010.459    2594.5325   -36604.991    64.988099    244.01791 
   14950    135.94565    -136.1347    127633.57   -34047.422    2563.8785   -36611.301    65.481706    241.13488 
   15000    132.83532   -225.06862     127634.9   -34100.307    2505.2191   -36605.526    65.848069    235.61791 
   15050    131.99819   -450.55987    127602.64   -34072.645    2489.4312   -36562.076    66.281765    234.13304 
   15100    136.01331   -180.98889    127578.77   -34057.315    2565.1546   -36622.469    66.462353     241.2549 
   15150    136.29738   -363.71863    127609.61   -34023.018     2570.512    -36593.53    66.506865    241.75877 
   15200    135.27888   -307.64132    127573.26   -34030.488    2551.3035   -36581.792    66.665925    239.95219 
   15250    133.68928   -531.97317    127485.17   -34045.999    2521.3243   -36567.323    66.771244    237.13262 
   15300    135.12866   -359.35403    127507.83   -34044.682    2548.4705   -36593.153    67.014706    239.68574 
   15350    136.05117   -141.95724    127541.47   -34040.379    2565.8686   -36606.247    67.334319    241.32205 
   15400    136.19026    -387.1419    127595.49   -34035.418    2568.4919    -36603.91    67.559432    241.56877 
   15450    136.99622   -279.48134    127588.61   -33995.014    2583.6919   -36578.706    67.780541    242.99834 
   15500    137.48871   -97.716541    127688.64   -33959.155      2592.98   -36552.135    67.980174     243.8719 
   15550    136.17408   -17.807525    127751.11   -33969.889    2568.1867   -36538.076    68.297927    241.54006 
   15600    138.72063    80.425093    127779.64   -33979.303    2616.2136   -36595.517    68.570572    246.05704 
   15650    135.02937    -223.4756    127816.82   -33968.686    2546.5979   -36515.283    68.874389    239.50962 
   15700    135.98124   -34.799618    127816.14   -33995.928    2564.5497   -36560.477    68.977251      241.198 
   15750    138.37486   -32.681679    127885.14   -33991.957    2609.6925    -36601.65    69.368093    245.44372 
   15800    134.85116   -250.68855    127965.97   -34086.305     2543.237   -36629.542    69.787878    239.19352 
   15850    135.70549   -80.623383    127901.35    -34101.77    2559.3493   -36661.119    70.059047     240.7089 
   15900    132.42648    -508.6432    127906.41   -34081.351    2497.5085   -36578.859    70.409128    234.89272 
   15950    134.85583   -280.94358    127877.02   -34096.835    2543.3251    -36640.16    70.526637    239.20181 
   16000    134.58428    117.99429     127937.7   -34035.538    2538.2036   -36573.742    70.879762    238.72013 
   16050    136.43639   -61.823272    128045.77   -34028.991    2573.1336   -36602.125     71.32418    242.00533 
   16100    132.61477   -333.63218    128116.68   -34079.094    2501.0596   -36580.153    71.758113    235.22671 
   16150    135.31469    -114.2535    128111.05    -34081.27    2551.9789   -36633.249    71.968922    240.01571 
   16200    137.11766   -182.09358     128104.3     -34046.1    2585.9823   -36632.083    72.296296    243.21376 
   16250    133.54878   -511.98694    128100.04   -34049.386    2518.6746    -36568.06    72.545507    236.88342 
   16300    135.76224    -154.0605    128028.77   -34042.439    2560.4196   -36602.858    72.396897    240.80956 
   16350    135.47134   -218.68034    128011.93   -34000.888    2554.9333   -36555.821    72.705948    240.29357 
   16400    133.37032   -263.30984    127985.13   -34051.052    2515.3089   -36566.361     73.14508    236.56687 
   16450     135.3661   -500.14276    127857.51    -34071.35    2552.9485   -36624.298    73.350088     240.1069 
   16500      132.846   -263.93838    127789.54   -34115.182    2505.4204   -36620.602    73.656851    235.63684 
   16550    132.72435   -104.87171    127851.87   -34164.843    2503.1263    -36667.97    73.912466    235.42108 
   16600     135.8112   -424.95872    127847.53   -34166.865     2561.343   -36728.208    73.889567    240.89641 
   16650    134.42215   -592.48085     127815.4   -34135.712     2535.146   -36670.858    74.293372    238.43256 
   16700    131.11484   -596.22117    127835.91   -34144.781    2472.7716   -36617.552    74.417873     232.5662 
   16750     135.0446   -192.35362    127895.36   -34113.006    2546.8851   -36659.891    74.717946    239.53663 
   16800     132.8017   -251.65585    128005.74   -34097.569    2504.5849   -36602.153    75.071118    235.55826 
   16850    134.28192    -445.9921       128030   -34081.026    2532.5013   -36613.527    75.260204    238.18382 
   16900     134.8839   -364.43795    127951.98   -34075.081    2543.8544   -36618.935    75.448932     239.2516 
   16950    136.18256   -539.05734    127936.88   -34030.061    2568.3466   -36598.408    75.998587     241.5551 
   17000    135.13693   -457.88792    128024.99   -34010.513    2548.6264   -36559.139     76.29862     239.7004 
   17050    132.93639   -179.96443    128101.46   -34048.781    2507.1253   -36555.906    76.620172    235.79719 
   17100    135.13617    -561.3191    128061.28    -34031.24    2548.6121   -36579.852    76.903991    239.69906 
   17150    135.42702   -178.01954    128108.21   -34087.827    2554.0975   -36641.925    77.048673    240.21497 
   17200    132.41065   -355.30547     128134.6   -34060.693    2497.2099   -36557.903    77.265956    234.86464 
   17250    137.95891   -420.74485    128019.47   -34006.646    2601.8477   -36608.493    77.371554    244.70591 
   17300    137.47206   -608.91893    127931.83   -34021.756    2592.6659   -36614.422    77.573367    243.84236 
   17350     136.0714   -495.49311    127782.75   -34013.886    2566.2501   -36580.136    77.847383    241.35793 
   17400     134.5731   -111.78254    127696.75   -33989.528    2537.9928    -36527.52     77.88353    238.70031 
   17450    137.48284   -449.43935    127635.67   -34016.861    2592.8693    -36609.73    77.756298    243.86149 
   17500    136.62544   -639.13615    127580.46    -33963.57    2576.6991   -36540.269    78.197753    242.34066 
   17550    138.23879   -296.54786    127495.15   -33951.575    2607.1263   -36558.702     78.50841    245.20236 
   17600    137.15724   -283.29133     127381.4   -33989.424    2586.7286   -36576.152    78.650156    243.28394 
   17650    134.70982   -218.72137    127312.89   -33996.531    2540.5714   -36537.103    78.651642    238.94283 
   17700    137.10393   -466.70565    127274.83   -33994.709    2585.7233   -36580.432     79.12333     243.1894 
   17750    135.64563   -508.08529    127141.18   -33982.956    2558.2204   -36541.176    79.677436    240.60273 
   17800    136.47706   -61.684434    127113.43   -34015.937    2573.9007   -36589.838    79.842362    242.07748 
   17850    134.19195   -449.03045    127049.12   -34045.309    2530.8045   -36576.114    79.654042    238.02424 
   17900    135.30178   -265.18226    126958.77   -34010.925    2551.7355   -36562.661    79.803358    239.99281 
   17950    136.52821   -77.856885    127024.62   -33962.303    2574.8655   -36537.168    79.933624    242.16821 
   18000    131.44939   -348.49498    126943.24   -34012.726    2479.0811   -36491.807    80.164861    233.15961 
   18050    135.00352   -176.02473     126936.3   -34042.356    2546.1104   -36588.466    80.396929    239.46378 
   18100    134.55275    -303.9098    126887.21   -34048.783    2537.6091   -36586.392    80.438185    238.66422 
   18150    131.32248   -223.18318    126829.66   -34056.221    2476.6875   -36532.908    80.548229    232.93449 
   18200    136.12443   -58.138477    126890.93   -33996.265    2567.2503   -36563.515    80.680972    241.45199 
   18250     131.8943   -342.75058    126936.87   -34025.961    2487.4717   -36513.433    80.830995    233.94876 
   18300    131.59686   -199.03693    126937.88    -34077.68    2481.8623   -36559.543    80.912309    233.42118 
   18350    133.34321   -309.42127    126967.14   -34120.741    2514.7977   -36635.539    81.176103    236.51879 
   18400    135.01114   -149.43127    127081.62   -34121.444    2546.2541   -36667.698    81.339283    239.47728 
   18450    133.54814   -234.77795    127172.39   -34088.737    2518.6626     -36607.4    81.472916    236.88228 
   18500    134.79882    21.514525    127268.74   -34050.746    2542.2499   -36592.996    81.633873    239.10069 
   18550    135.46799   -88.055402    127326.15   -34072.258      2554.87   -36627.128    82.052178    240.28762 
   18600    132.88964    45.681258    127351.77   -34079.759    2506.2435   -36586.003    82.270087    235.71426 
   18650    133.03951   -49.896393    127419.46   -34065.539      2509.07   -36574.609    82.289153     235.9801 
   18700    135.13786   -50.204206    127539.52   -34054.056    2548.6441     -36602.7    82.625727    239.70207 
   18750    137.71074   -80.072011    127615.62   -33998.365    2597.1674   -36595.532    82.721557    244.26572 
   18800     133.8058   -225.78368    127645.78   -34056.519    2523.5219   -36580.041    82.817151    237.33931 
   18850    135.71915   -164.57859    127648.77   -34040.357    2559.6069   -36599.964    82.846433    240.73313 
   18900    132.88772    -402.7743    127662.79   -34061.516    2506.2072   -36567.724    83.084905    235.71084 
   18950    134.30951   -411.50436    127619.01   -34052.663    2533.0217   -36585.684    83.210211    238.23277 
   19000    134.84448   -288.77407    127599.28   -34081.246     2543.111   -36624.357     83.24343    239.18168 
   19050     133.6221   -40.284931    127658.03   -34080.919    2520.0575   -36600.976    83.412665    237.01347 
   19100    136.01818   -149.98024    127735.82   -34089.577    2565.2464   -36654.824    83.583979    241.26353 
   19150    136.15199   -103.17489    127694.66   -34043.121    2567.7701   -36610.891    83.820607    241.50089 
   19200    136.58457   -158.37433    127769.55   -34043.053    2575.9284   -36618.982    83.897874    242.26818 
   19250    135.28601   -90.332422    127729.75   -34059.496     2551.438   -36610.934    84.050928    239.96484 
   19300    135.83279   -124.61653    127700.75   -34066.052    2561.7502   -36627.802    84.537708     240.9347 
   19350    136.16544   -58.776229    127755.15   -34002.464    2568.0238   -36570.487    84.737177    241.52474 
   19400    134.77054   -200.46333     127778.4    -34039.66    2541.7165   -36581.376    84.814909    239.05052 
   19450    136.16509   -229.20497    127793.08   -34040.869    2568.0172   -36608.886    85.122742    241.52412 
   19500     134.9476   -245.63348    127752.78   -34026.507    2545.0558   -36571.563    85.430623    239.36459 
   19550    135.38546   -411.77317       127798   -34040.043    2553.3136   -36593.357    85.890845    240.14124 
   19600    133.70253   -300.97149    127790.81   -34032.386    2521.5743   -36553.961    86.256932    237.15614 
   19650    134.26151   -466.94847    127836.84   -34067.813    2532.1164    -36599.93    86.277669    238.14763 
   19700    135.01373   -385.39916    127767.26   -34070.497     2546.303     -36616.8    86.284568    239.48188 
   19750     134.1597   -360.23922    127690.52   -34052.807    2530.1963   -36583.004    86.074965    237.96704 
   19800    134.68322   -222.22196    127659.28   -34038.062    2540.0696   -36578.132    86.190282    238.89563 
   19850    137.36431   -33.170459    127689.77   -34022.459    2590.6339   -36613.093    86.325169    243.65125 
   19900    137.26732   -180.39373    127762.64   -34027.136    2588.8048   -36615.941    86.279689    243.47922 
   19950    135.84239   -159.19933    127767.88   -34015.128    2561.9312    -36577.06    86.458394    240.95173 
   20000    138.85696   -79.025158     127802.1   -33984.673    2618.7847   -36603.458    86.690374    246.29885 
   20050    132.56114   -384.05236     127852.9    -34068.54    2500.0481   -36568.588    86.808862    235.13158 
   20100    136.91381   -30.049506    127899.78   -34041.897    2582.1376   -36624.035    87.043839    242.85216 
   20150    135.81425   -302.60608    127888.94   -34090.093    2561.4004   -36651.493    87.439174     240.9018 
   20200    133.44587   -203.25944    127848.54   -34119.208    2516.7338   -36635.942    87.350173    236.70088 
   20250    133.53788    -350.5732    127843.61   -34117.716    2518.4691   -36636.185    87.384305    236.86408 
   20300    133.18726     -388.443    127786.06   -34099.655    2511.8565   -36611.511    87.540813    236.24216 
   20350    133.16394   -227.16738    127712.71   -34096.466    2511.4167   -36607.883    87.665818     236.2008 
   20400    134.87566    -356.9607    127758.21   -34098.916    2543.6989   -36642.615    87.831298    239.23697 
   20450    133.56029     108.2733    127745.37   -34161.282    2518.8916   -36680.174    88.065718    236.90382 
   20500    134.85328    -98.23614    127753.47   -34164.213    2543.2769   -36707.489    88.169164    239.19728 
   20550    134.13467    349.00809    127824.08    -34113.25    2529.7242   -36642.975    88.502489    237.92264 
   20600     136.1761   -76.599387    127945.63   -34065.846    2568.2247    -36634.07    88.768573    241.54364 
   20650    136.19479   -221.19166    127991.43   -34061.431    2568.5772   -36630.008    88.817679    241.57679 
   20700    135.90179   -449.40747    128015.36   -34068.024    2563.0514   -36631.075    89.176572    241.05708 
   20750    135.93914    -255.8823    127954.59   -34047.237    2563.7558   -36610.993    89.307163    241.12333 
   20800    139.02465   -323.18764    127886.81   -34039.095    2621.9473   -36661.042    89.372104    246.59629 
   20850    134.78199    -217.1211    127852.86   -34057.909    2541.9324   -36599.841    89.674518    239.07083 
   20900    135.99743    -188.4277    127904.55    -34089.34    2564.8552   -36654.195    90.106113    241.22674 
   20950    134.82508   -264.50452    127962.32   -34098.896    2542.7451   -36641.641    90.172138    239.14726 
   21000    138.63734   -127.81913    128019.29   -34071.446    2614.6427   -36686.089    90.118109    245.90929 
   21050    135.62129   -286.77674    128115.51   -34048.109    2557.7612   -36605.871     90.41641    240.55954 
   21100     135.8073   -62.951113    128091.84   -34069.504    2561.2693   -36630.773    90.537281    240.88948 
   21150    138.16389    19.363071    128192.42   -34073.035    2605.7136   -36678.748    90.539827     245.0695 
   21200    134.05095   -134.38419    128260.16   -34149.767    2528.1454   -36677.913     90.73629    237.77415 
   21250    137.79503   -3.3197448    128191.95   -34121.391    2598.7571   -36720.148    90.949889    244.41524 
   21300    135.46274   -310.99207    128173.86   -34124.099    2554.7711    -36678.87    91.301947    240.27832 
   21350    134.89702   -360.09737    128178.26   -34116.324    2544.1018   -36660.426     91.56587    239.27486 
   21400    136.73405    -281.8485    128206.38   -34083.043    2578.7476    -36661.79    91.610379    242.53332 
   21450    135.84208   -376.97009    128191.81   -34072.647    2561.9253   -36634.573     91.59946    240.95118 
   21500    139.11988   -380.28425    128139.85   -34032.854    2623.7432   -36656.597    91.760278     246.7652 
   21550     139.0137    76.010299    128045.76   -34027.988    2621.7407   -36649.729    91.982222    246.57686 
   21600    132.18056   -288.63227    128029.98   -34041.017    2492.8705   -36533.887    91.932782    234.45652 
   21650    137.29686   -52.978385    128031.13   -34022.258    2589.3619    -36611.62     92.43617    243.53161 
   21700    135.08419    54.352673    128017.03   -34030.363    2547.6319   -36577.995    92.409194    239.60687 
   21750    137.86326   -110.79403    128057.14   -34040.062    2600.0438   -36640.106     92.63117    244.53625 
   21800    137.40071   -303.71004    127961.34    -34051.98    2591.3205   -36643.301    92.696736    243.71582 
   21850    133.17518   -513.70408    127859.13   -34036.492    2511.6287   -36548.121    92.728304    236.22074 
   21900    134.48499   -240.86569    127710.23    -34044.17    2536.3311   -36580.501    92.889428    238.54403 
   21950    135.00132   -369.44335     127641.1   -34064.538    2546.0689   -36610.607    92.748702    239.45987 
   22000    135.10266   -469.72453    127446.53   -34083.619    2547.9801   -36631.599    92.424052    239.63962 
   22050    132.50434   -147.34136    127416.96   -34060.091    2498.9769   -36559.068    92.461419    235.03082 
   22100    134.32971   -236.84729    127399.99   -34036.812    2533.4027   -36570.215    92.907082     238.2686 
   22150    133.56159   -60.604477    127339.72   -34040.824    2518.9162    -36559.74    93.095814    236.90614 
   22200    134.35895   -261.61174     127380.4   -34098.341    2533.9541   -36632.295    93.040203    238.32046 
   22250    135.89656   -228.10143    127396.98   -34039.505    2562.9528   -36602.458     93.15408    241.04781 
   22300    137.55907   -517.01609    127386.26   -33958.824    2594.3071   -36553.131    93.188958    243.99671 
   22350    136.48109    -358.3209    127376.77   -33940.389    2573.9767   -36514.365    93.391139    242.08462 
   22400    138.30724   -201.35902    127368.44    -33954.55    2608.4173   -36562.967    93.559846    245.32378 
   22450    139.54813   -140.86649    127454.86   -33947.219    2631.8199   -36579.039    93.768384    247.52482 
   22500     135.6727   -88.199586    127452.78   -33982.725    2558.7308   -36541.455    93.859456    240.65073 
   22550    134.74744    -171.6117    127416.78   -34000.716    2541.2807   -36541.997    94.185965    239.00954 
   22600    133.41057   -171.06619    127440.91   -34018.096    2516.0679   -36534.164     94.06995    236.63825 
   22650    138.32391   -133.76852    127453.52   -33950.503    2608.7316   -36559.235    94.287005    245.35335 
   22700    136.27766    -225.8591    127507.65   -33958.877    2570.1402   -36529.017    94.405347     241.7238 
   22750    134.93957   -327.89435    127519.92   -33959.728    2544.9044   -36504.632    94.354075    239.35035 
   22800     135.2705   -363.91548    127511.51   -34013.582    2551.1456   -36564.727     94.68686    239.93734 
   22850    135.47657   -359.76065    127496.77   -33982.115     2555.032   -36537.147    94.930056    240.30285 
   22900    136.30803   -136.28592    127478.49   -33989.316     2570.713   -36560.029    94.898128    241.77767 
   22950     134.9262   -135.64023    127500.93   -33985.395    2544.6521   -36530.048    95.342252    239.32662 
   23000    135.97223   -236.88054    127506.18   -34024.957    2564.3798   -36589.337    95.598416    241.18202 
   23050    138.57056    -193.0634     127513.7   -33999.227    2613.3833   -36612.611    95.779031    245.79084 
   23100     138.2955   -203.06886     127562.7   -33959.738    2608.1957   -36567.933    95.743874    245.30295 
   23150    136.45062    -313.0018    127721.31   -33973.565    2573.4021   -36546.967    96.045298    242.03058 
   23200    137.57916   -307.04663    127687.11   -33985.015    2594.6858   -36579.701    96.340426    244.03233 
   23250    136.48926    14.935078    127754.85   -33995.555    2574.1308   -36569.686    96.568635    242.09911 
   23300    135.01221   -326.54208    127866.11   -34038.855    2546.2742   -36585.129    96.615451    239.47918 
   23350    136.46738    -290.8152    127830.07    -34049.09    2573.7182   -36622.808    96.872554    242.06031 
   23400    135.77842   -302.49437    127835.81   -34068.087    2560.7246   -36628.811     96.84195    240.83825 
   23450    136.22547    -105.2829    127883.73   -34078.057    2569.1558   -36647.213    96.801316    241.63121 
   23500    134.73718   -206.65837    127862.17   -34079.353    2541.0873   -36620.441    96.947496    238.99134 
   23550    134.26155   -162.01086    128017.57   -34023.319    2532.1171   -36555.436    97.018612    238.14769 
   23600    135.07459   -216.58864    128079.97   -34077.223    2547.4507   -36624.674    97.388305    239.58983 
   23650    132.61989   -261.22058    128163.81   -34117.663     2501.156   -36618.819    97.710857    235.23578 
   23700    134.58137   -361.59924    128190.33   -34073.769    2538.1488   -36611.918    97.791669    238.71498 
   23750    135.41699   -519.35367     128142.3   -34069.361    2553.9082   -36623.269    98.036872    240.19717 
   23800    132.72386   -476.25282    128065.68   -34097.297     2503.117   -36600.414     98.42728     235.4202 
   23850    133.34274   -138.55171    128078.64   -34118.513    2514.7887   -36633.301    98.603091    236.51794 
   23900    133.61727   -218.09553    128055.23   -34084.481    2519.9663   -36604.448    98.896163     237.0049 
   23950    134.15363    -502.4814    128022.37   -34050.964    2530.0819   -36581.046    98.740854    237.95628 
   24000     135.5403   -110.70966    128127.54   -34090.359    2556.2339   -36646.593    99.099255    240.41589 
   24050    137.55572     -213.661    128098.51    -34007.21    2594.2439   -36601.453     99.24426    243.99077 
   24100     136.1846   -226.73283    128032.32     -33975.3    2568.3852   -36543.685    99.491055    241.55873 
   24150    137.37631   -464.55664    127929.67     -33960.3    2590.8602    -36551.16    99.454369    243.67252 
   24200    135.29868    -37.66617    127879.65   -33961.893     2551.677    -36513.57    99.708881    239.98731 
   24250    138.29214   -466.58009    127935.12   -33969.375    2608.1323   -36577.507     100.0261    245.29698 
   24300    136.13025   -302.95454    127966.98   -33959.132      2567.36   -36526.492    100.28056    241.46232 
   24350    139.01963   -483.41802    127976.08   -33984.794    2621.8525   -36606.647    100.29051    246.58738 
   24400    136.62139   -354.09862    128014.06   -33934.846    2576.6228   -36511.468    100.33717    242.33349 
   24450    139.93211   -477.27051    127993.53   -33907.545    2639.0615   -36546.607    100.73256     248.2059 
   24500    137.81693   -469.48052    127957.67   -33937.241    2599.1701   -36536.411    101.04208    244.45408 
   24550    136.81021   -155.36981    127939.92   -33944.123    2580.1838   -36524.306     101.4978     242.6684 
   24600    136.46236   -205.91133     127915.7    -33994.46    2573.6234   -36568.084    101.82653     242.0514 
   24650    137.45415   -201.10693    127897.06   -33999.766    2592.3283   -36592.095    102.08039     243.8106 
   24700    136.54892    -263.8784    127832.45   -33974.109     2575.256   -36549.365    102.48968    242.20494 
   24750    133.24143   -137.84452     127866.1   -33972.373    2512.8781   -36485.251    102.77801    236.33825 
   24800    136.61769   -168.42651    127817.61   -33967.337    2576.5529    -36543.89    102.75074    242.32691 
   24850    135.79686   -324.88051    127861.64    -34012.44    2561.0725   -36573.513     102.8868    240.87097 
   24900    134.97946   -362.75973    127874.25   -34038.906    2545.6566   -36584.562    103.10161    239.42109 
   24950    135.81263   -271.11978    127813.16   -34043.067    2561.3698   -36604.437    103.00171    240.89893 
   25000    133.88324    -190.8616    127776.97   -33974.907    2524.9823    -36499.89    103.37788    237.47666 
   25050    138.21305   -226.25734    127800.15   -33945.524    2606.6408   -36552.165    103.92147     245.1567 
   25100    133.85934   -143.69418    127914.11   -33940.664    2524.5316   -36465.195    104.10569    237.43427 
   25150    135.58158   -218.27967    128023.01    -33900.76    2557.0124   -36457.772    104.38203    240.48911 
   25200    138.51607   -286.81122    128065.59   -33908.829    2612.3556   -36521.185    104.59975    245.69419 
   25250    141.75089   -465.04501     128000.4   -33852.972     2673.363   -36526.335    104.94317    251.43199 
   25300    139.52855   -207.01482    127974.23   -33849.857    2631.4505   -36481.308    105.11586    247.49008 
   25350    135.97498   -409.52397    127995.16   -33909.462    2564.4317   -36473.894    104.93905    241.18691 
   25400    136.15148   -393.90269    128133.78   -33911.002    2567.7604   -36478.762    105.48306    241.49997 
   25450    136.92364   -443.10748    127968.26   -33975.704     2582.323   -36558.027    105.54167     242.8696 
   25500    136.14482   -363.89702    127956.27    -33951.31    2567.6349   -36518.945    105.88129    241.48817 
   25550    135.39816    -295.8763    127913.14   -33912.094    2553.5532   -36465.647    106.14285    240.16377 
   25600    137.51178   -468.36189    127843.74   -33923.682    2593.4151   -36517.097    106.26752    243.91282 
   25650     137.3068   -547.97143    127773.44   -33987.452    2589.5494   -36577.001    106.16815    243.54924 
   25700    135.76228   -371.39284    127708.96   -33979.296    2560.4204   -36539.716    106.17103    240.80964 
   25750     136.4639   -393.55201    127614.76   -33996.114    2573.6525   -36569.766    106.23366    242.05413 
   25800    135.52661   -508.67075    127490.02    -34026.05    2555.9756   -36582.026    106.38331     240.3916 
   25850    135.10891   -468.10787    127400.03   -34021.215    2548.0979   -36569.313    106.36493     239.6507 
   25900    136.57001   -296.63442    127385.73   -34012.288    2575.6537   -36587.942    106.45909    242.24235 
   25950    136.47195   -315.87751    127414.13   -33967.784    2573.8044   -36541.588    106.61119    242.06841 
   26000    135.32529   -215.44995    127325.48   -33911.648    2552.1788   -36463.827    106.68827    240.03451 
   26050      139.815   -507.08443    127190.54   -33905.279    2636.8529   -36542.132     106.8634    247.99818 
   26100    135.64759   -46.380477    127106.94   -33951.559    2558.2572   -36509.816     107.1399    240.60619 
   26150    135.87907   -46.874183    127138.12   -33961.241     2562.623   -36523.864    107.41452    241.01679 
   26200    133.58592    25.627227    127232.79   -33978.375     2519.375    -36497.75    107.69618    236.94928 
   26250    134.07061   -186.54373    127266.09   -33965.233     2528.516   -36493.749    107.79857      237.809 
   26300    136.10898   -319.62572    127204.96   -33933.104    2566.9589   -36500.063    108.04006     241.4246 
   26350    132.23202    -99.65769    127117.94   -33997.988    2493.8411   -36491.829    108.23701     234.5478 
   26400    136.15933   -158.30288    127087.87    -33965.85    2567.9086   -36533.758    108.76167    241.51391 
   26450    133.88501   -182.29739    127221.09   -33972.991    2525.0157   -36498.007    108.68608    237.47979 
   26500    135.61235   -368.46612    127211.22   -33953.305    2557.5927   -36510.897    108.94846    240.54369 
   26550    135.33148   -358.00743    127130.05   -33952.957    2552.2956   -36505.253    108.86804     240.0455 
   26600    137.63961   -9.1159364    127118.97   -33882.458     2595.826   -36478.284     109.0753    244.13957 
   26650    135.58265   -137.09999    127104.49   -33885.862    2557.0325   -36442.894    109.49017      240.491 
   26700    133.71377   -200.81548    127114.92   -33919.583    2521.7862   -36441.369    109.77359    237.17606 
   26750    136.55945    -124.7323    127122.19   -33910.298    2575.4546   -36485.752    110.04977    242.22362 
   26800    136.55618   -142.54424    127173.55    -33929.64    2575.3928   -36505.033    110.10574    242.21781 
   26850    139.15929    43.879745    127160.75   -33870.053    2624.4866    -36494.54    110.17156    246.83512 
   26900    135.22432   -0.2726873    127249.65   -33969.099    2550.2747   -36519.374    110.53692    239.85543 
   26950    137.80104   -137.60363    127214.88   -33923.226    2598.8705   -36522.096    110.85135    244.42591 
   27000    134.97756   -250.73482     127072.1   -33964.197    2545.6208   -36509.817      111.264    239.41773 
   27050    136.84819   -301.96465    127081.94   -33963.606    2580.9001   -36544.506     111.3827    242.73577 
   27100    135.86788   -350.91157    127084.79   -33945.818    2562.4119   -36508.229    111.75991    240.99694 
   27150    137.83483   -263.08036    127115.14   -33952.502    2599.5077    -36552.01    112.18676    244.48583 
   27200     135.5053   -310.11431     127104.6   -33907.018    2555.5738   -36462.591    112.60907    240.35382 
   27250    136.77745     -433.706    127062.86    -33946.38    2579.5659   -36525.946    112.69922    242.61029 
   27300    137.79449   -241.77725    127053.24   -33945.235    2598.7469   -36543.982    112.93072    244.41428 
   27350    133.96928   -45.441761    127034.79   -33972.213    2526.6051   -36498.818    112.99558    237.62928 
   27400    136.33322   -483.77175    126959.65   -33960.206    2571.1881   -36531.394    113.10649    241.82235 
   27450    133.97062   -322.06372    126914.49   -33968.701    2526.6303   -36495.331    113.27646    237.63166 
   27500    136.87662   -358.98876    126954.78   -33912.734    2581.4364    -36494.17    113.30509    242.78621 
   27550    135.41213   -206.68379    126942.69   -33928.719    2553.8166   -36482.536    113.55182    240.18855 
   27600    135.58852    -457.3136    126960.53   -33948.047    2557.1432    -36505.19    113.52311    240.50141 
   27650    133.55668   -208.08799    126942.11   -34012.681    2518.8235   -36531.504    113.60688    236.89742 
   27700     134.6209   -84.995498    126947.31   -34005.015    2538.8944    -36543.91    113.60091     238.7851 
   27750    138.09341   -104.43293    127037.14   -34004.186    2604.3845   -36608.571     114.2298     244.9445 
   27800    137.62603   -15.064554    127118.76   -33989.977    2595.5698   -36585.547    114.76552    244.11547 
   27850    134.42953   -499.06817    127137.77   -33996.742    2535.2852   -36532.027    114.88611    238.44565 
   27900    136.92546   -162.40993    127057.44   -33964.068    2582.3573   -36546.425    114.86476    242.87282 
   27950    135.69077   -216.91192    127027.47   -33975.174    2559.0715   -36534.245    115.09951    240.68278 
   28000    135.62084    -332.9151    127016.41   -34003.804    2557.7527   -36561.557    115.36537    240.55874 
   28050     136.5026   -247.42138    127038.21   -33965.704    2574.3823   -36540.087    115.42327    242.12277 
   28100    136.35634   -323.72147    127120.95    -33953.55    2571.6241   -36525.174    115.64894    241.86336 
   28150    136.13257    176.91582    127226.43   -33932.469    2567.4037   -36499.872     115.7691    241.46643 
   28200    137.75205   -49.086466    127290.38   -33939.641    2597.9465   -36537.587    115.87076      244.339 
   28250    137.21139   -131.84502    127357.56   -33958.298    2587.7499   -36546.048    116.01878       243.38 
   28300    136.95263   -261.35804    127373.69   -33943.805    2582.8699   -36526.675    116.33183    242.92103 
   28350    136.34417   -146.08749    127322.99   -33982.185    2571.3945    -36553.58    116.53512    241.84176 
   28400    135.59375    32.098448    127428.77   -33926.825    2557.2418   -36484.066    116.65221    240.51069 
   28450    141.01813   -26.252076    127485.97     -33880.7    2659.5434   -36540.244     116.9732    250.13224 
   28500    136.26274    -288.9591    127529.87   -33889.401    2569.8588    -36459.26    117.30033    241.69733 
   28550    136.42099   -346.98755    127528.99   -33864.556    2572.8433     -36437.4     117.5688    241.97802 
   28600    133.45338   -363.13124    127517.67   -33926.683    2516.8754   -36443.558    117.99565     236.7142 
   28650    134.55263   -448.07131     127468.3   -33930.693    2537.6068     -36468.3    118.52597      238.664 
   28700    136.71591   -497.00132    127356.45   -33924.033    2578.4054   -36502.439     118.6637    242.50115 
   28750    140.77124   -403.19078    127277.91   -33954.173    2654.8872    -36609.06    118.49935    249.69432 
   28800    136.20049   -406.05969       127264   -33989.214    2568.6848   -36557.898    118.67229    241.58692 
   28850    135.11865   -250.75714    127282.64   -34034.302    2548.2816   -36582.584    119.02636    239.66798 
   28900    135.54564   -329.52223    127245.72    -34031.69    2556.3345   -36588.025    119.31635    240.42536 
   28950    134.21309   -60.725369    127281.56   -34056.704    2531.2031   -36587.907    119.38052    238.06173 
   29000    132.05547    -109.4629    127268.62   -34046.293    2490.5114   -36536.805    119.66372    234.23464 
   29050    133.46417    -567.6925    127187.21   -34041.984    2517.0789   -36559.063    120.05889    236.73334 
   29100     134.5653   -245.33161    127078.59   -34043.673    2537.8457   -36581.519    119.93076    238.68647 
   29150    137.31624    27.836896    127077.25   -33998.199    2589.7274   -36587.927    119.88082    243.56598 
   29200    137.50717    -172.1969     127013.8   -34029.899    2593.3282   -36623.227    119.86849    243.90464 
   29250    137.86893   -30.325112    127070.06   -34051.411    2600.1508   -36651.562     119.8205    244.54632 
   29300    136.19773   -226.16986    127159.38   -34054.393    2568.6326   -36623.026    119.89727      241.582 
   29350    134.66724    -156.0752    127167.46   -34052.844    2539.7682   -36592.612    120.00113    238.86728 
   29400    132.76137   -460.36187    127146.26   -34078.771    2503.8243   -36582.595    119.98609    235.48673 
   29450    133.98771    38.687237    127153.18    -34102.34    2526.9527   -36629.292     120.0888    237.66197 
   29500    132.84326   -185.74224    127172.63   -34101.633    2505.3688   -36607.002    120.34791    235.63199 
   29550    134.39936   -210.98909    127156.86    -34081.33    2534.7162   -36616.047     120.5743    238.39214 
   29600    136.63432   -142.83938    127157.73    -34048.57    2576.8667   -36625.437    120.83996    242.35642 
   29650    135.86946   -277.81854    127231.54   -34061.239    2562.4416   -36623.681    120.97461    240.99974 
   29700    131.84096   -232.43483    127147.59   -34149.441    2486.4658   -36635.907    120.79679    233.85415 
   29750    135.36415   -31.127616    127181.44   -34193.852    2552.9116   -36746.764    120.99269    240.10344 
   29800    131.66534   -327.89435    127294.55   -34243.485    2483.1538   -36726.639    121.00466    233.54265 
   29850    128.68953   -438.51349    127257.43   -34236.849    2427.0311    -36663.88    121.12843    228.26427 
   29900    134.62439   -197.15078    127199.69   -34183.933    2538.9602   -36722.893    120.99066    238.79129 
   29950    133.64458   -191.48397    127204.77   -34212.649    2520.4813    -36733.13    121.24217    237.05333 
   30000     135.9004   -403.54877    127254.25    -34138.84    2563.0252   -36701.866    121.33134    241.05463 
   30050    132.67532   -157.08797    127208.12   -34153.208    2502.2015   -36655.409    121.52874     235.3341 
   30100    135.73516   -392.22159    127191.02   -34093.805    2559.9089   -36653.713    122.25125    240.76153 
   30150    133.82295   -382.33468    127212.59   -34091.682    2523.8454   -36615.528    122.41174    237.36973 
   30200    131.27305   -206.15547    127174.41   -34147.298    2475.7552   -36623.053    122.37101    232.84681 
   30250    136.87026   -132.21985     127146.3   -34111.653    2581.3163   -36692.969    122.87466    242.77492 
   30300    134.62854    -220.4712    127136.69   -34112.056    2539.0384   -36651.094    122.84464    238.79864 
   30350    136.34363    -131.0037    127074.81   -34132.067    2571.3843   -36703.451    122.83032    241.84081 
   30400     134.7227   -162.99193    127126.48   -34121.978    2540.8142   -36662.793    122.97059    238.96566 
   30450    132.59443   -239.46963    127132.66   -34124.968     2500.676   -36625.644     123.1317    235.19063 
   30500    134.11662   -295.52817    127133.48   -34059.237    2529.3837   -36588.621    123.35982    237.89062 
   30550    131.84177   -130.49716    127154.64   -34104.027    2486.4811   -36590.508    123.44971    233.85559 
   30600     132.2887   -357.90937     127185.1    -34074.71      2494.91    -36569.62    123.75906    234.64833 
   30650    135.05775     35.94584    127297.72   -34038.335    2547.1331   -36585.468    123.92091    239.55996 
   30700    136.60214   -150.64389    127430.89    -34056.51    2576.2598    -36632.77    124.29904    242.29934 
   30750    134.87052    161.56972    127487.07    -34048.34    2543.6021   -36591.942    124.57063    239.22786 
   30800    134.05685   -214.02361    127515.91   -34070.707    2528.2566   -36598.964      124.761    237.78461 
   30850    135.25313   -447.02667    127523.19   -34072.558    2550.8179   -36623.376    124.90812    239.90652 
   30900    136.29675   -173.49193    127471.17   -34074.661    2570.5002   -36645.161    125.12922    241.75765 
   30950    134.27482   -75.149098    127518.93   -34068.581    2532.3674   -36600.949    125.06077    238.17123 
   31000    137.49567   -246.22787    127476.29   -34054.601    2593.1114   -36647.712    124.96336    243.88425 
   31050    137.07548   -55.204978    127380.04   -34021.509    2585.1868   -36606.696    125.19905    243.13894 
   31100    138.98646    4.4842392    127415.95   -34003.784    2621.2269   -36625.011    125.51256    246.52854 
   31150    135.72173   -386.67479    127460.81   -34065.271    2559.6555   -36624.926     125.8188     240.7377 
   31200    137.42572   -216.98169    127451.21   -34058.129    2591.7921   -36649.921    126.20121    243.76018 
   31250    136.95063   -228.38416    127381.54   -34042.099    2582.8321   -36624.931    126.52049    242.91748 
   31300    134.28288   -77.602781    127419.99   -34077.103    2532.5195   -36609.622    126.49337    238.18553 
   31350    134.53025   -118.79111    127480.86   -34111.381    2537.1848   -36648.566    126.60971    238.62431 
   31400    133.40319   -241.20453    127522.28   -34137.978    2515.9288   -36653.906    126.75546    236.62517 
   31450    133.53429   -326.53419    127552.49   -34172.672    2518.4014   -36691.074    126.77178    236.85772 
   31500    135.09312    -320.2634    127528.74   -34124.466    2547.8002   -36672.266    127.31505     239.6227 
   31550    132.28602   -359.77235    127572.11   -34080.456    2494.8595   -36575.315    127.85851    234.64359 
   31600    134.87798   -156.85767    127527.36   -34038.921    2543.7427   -36582.663    127.69598    239.24109 
   31650    134.31588   -89.238775    127499.11   -34037.029    2533.1418    -36570.17    127.88539    238.24407 
   31700    135.69009   -516.42445    127435.51   -34077.987    2559.0589   -36637.046    128.17429    240.68159 
   31750    135.98343   -184.07809    127462.14   -34062.441    2564.5911   -36627.032    128.50337     241.2019 
   31800    134.87021   -290.09229    127475.33   -34103.895    2543.5962   -36647.491    128.64824    239.22731 
   31850    135.54671   -275.67807    127515.63   -34075.373    2556.3548   -36631.728    128.72546    240.42726 
   31900    134.27814   -4.4242009     127480.1   -34062.717      2532.43   -36595.147    128.97788    238.17712 
   31950    135.96271   -450.56517    127488.16    -34035.67    2564.2003   -36599.871    129.02417    241.16514 
   32000    135.78913   -193.31554    127464.21   -34024.083    2560.9267    -36585.01    128.88952    240.85725 
   32050    135.18601   -311.78109    127544.19   -34035.541    2549.5521   -36585.093    129.08882    239.78747 
   32100    138.30283    29.994271    127549.97   -34001.644     2608.334   -36609.978    129.01197    245.31595 
   32150    136.93721    111.70695    127648.68   -34002.908     2582.579   -36585.487    129.35827    242.89367 
   32200    137.54864    9.1074992    127708.25   -34038.323    2594.1104   -36632.433    129.74737    243.97821 
   32250    134.18739   -461.21797    127719.04   -34057.065    2530.7185   -36587.784     130.0444    238.01615 
   32300    134.21959   -167.75242    127761.81   -34110.017    2531.3258   -36641.343    130.33656    238.07327 
   32350    138.13951   -506.95586    127768.33   -34083.458    2605.2538   -36688.712    130.38929    245.02626 
   32400    134.32345   -379.75628    127724.65    -34092.49    2533.2845   -36625.775    130.14885    238.25748 
   32450    135.02723    59.844539    127750.42   -34104.893    2546.5576   -36651.451    130.37679    239.50583 
   32500    135.03456   -97.991429    127795.03   -34049.524    2546.6959   -36596.219    130.93202    239.51883 
   32550    133.60301   -205.92812    127867.75   -34083.857    2519.6974   -36603.554    131.18986    236.97961 
   32600    135.09115   -189.65848    127861.49   -34062.665     2547.763   -36610.428    131.41046     239.6192 
   32650     134.0371   -184.99393    127874.94   -34083.443    2527.8841   -36611.327    131.64636    237.74957 
   32700    135.16018   -231.40198     127853.9    -34084.15     2549.065   -36633.215    131.75238    239.74165 
   32750     135.1878   -165.38527    127840.69   -34112.361    2549.5859   -36661.947     132.0216    239.79064 
   32800    133.86735   -337.20153    127819.42   -34155.479    2524.6826   -36680.161    132.07208    237.44847 
   32850    133.01959   -52.028566    127807.27   -34155.329    2508.6943   -36664.023    132.20367    235.94476 
   32900    135.34763   -301.22378    127796.95   -34144.952    2552.6002   -36697.552    132.38858    240.07414 
   32950    132.59179   -253.60896    127756.38   -34203.393    2500.6262   -36704.019      132.636    235.18594 
   33000    133.37039   -45.954632    127740.26   -34185.951    2515.3102   -36701.261    132.76092    236.56699 
   33050    134.29916   -267.39832    127683.96    -34144.21    2532.8264   -36677.036    132.96845     238.2144 
   33100    135.39314   -162.50972     127752.8   -34110.688    2553.4585   -36664.146    133.09611    240.15487 
   33150    137.51474   -330.49048     127796.4   -34088.694    2593.4709   -36682.164    133.32506    243.91806 
   33200    136.12495   -82.004053    127784.18   -34052.329      2567.26   -36619.589    133.71783    241.45291 
   33250    134.95253   -438.66807    127810.59   -34087.712    2545.1487    -36632.86     134.0516    239.37332 
   33300    134.26915   -188.73072    127870.83   -34134.368    2532.2605   -36666.628      134.234    238.16118 
   33350    135.17913   -517.13953    127917.13   -34142.506    2549.4224   -36691.929     134.5512    239.77527 
   33400    134.50061   -198.58031     127916.9   -34152.421    2536.6257   -36689.047    134.68841    238.57173 
   33450    135.68425   -440.10093    127888.35   -34113.882    2558.9486    -36672.83    134.92068    240.67122 
   33500    135.77219   -435.44326    127833.77   -34115.043    2560.6071   -36675.651     134.9571     240.8272 
   33550    134.29609   -104.72376    127775.98    -34155.43    2532.7686   -36688.199    135.10916    238.20897 
   33600    136.24204   -153.36432    127789.61   -34095.131    2569.4684   -36664.599    135.22862    241.66061 
   33650    137.33307   -239.31962    127825.03   -34085.839    2590.0447   -36675.883    135.70988    243.59583 
   33700    131.33759   -379.88295    127797.84   -34080.086    2476.9725   -36557.058    136.08964     232.9613 
   33750    135.27078    -217.4704    127712.15   -34057.094    2551.1509   -36608.245    136.43729    239.93783 
   33800    134.77219   -347.62343    127658.44    -34073.58    2541.7476   -36615.328    136.55042    239.05345 
   33850    137.71231   -119.46467    127643.46   -34030.826     2597.197   -36628.023    136.69913    244.26851 
   33900    134.49736   -257.80281    127701.88   -34013.317    2536.5643   -36549.881    137.05926    238.56596 
   33950    135.53886   -126.29397    127712.74   -34051.946    2556.2066   -36608.153    137.28803    240.41333 
[...]
   92000    137.25329   -216.94311    127113.65   -34077.898    2588.5401   -36666.438    362.11581    243.45432 
   92050    135.31132   -192.65809    127213.66   -34076.201    2551.9153   -36628.116    362.38337    240.00973 
   92100    136.35536   -508.24704    127229.04   -34041.322    2571.6055   -36612.927    362.78961    241.86161 
   92150    134.19526    -218.2422    127194.37   -34052.668    2530.8669   -36583.535    362.45626    238.03011 
   92200    133.89344   -146.86295    127133.12   -34066.997    2525.1748   -36592.171    362.43318    237.49476 
   92250    136.28783   -337.40202    127110.09   -34053.706     2570.332   -36624.038    362.87682    241.74184 
   92300    132.10113   -251.15386    127088.21   -34088.822    2491.3724   -36580.195    362.51096    234.31562 
   92350    137.46883   -444.31609    127087.95     -34028.4    2592.6051   -36621.005    362.28485    243.83663 
   92400     136.8404   -334.89968    127017.62   -34028.519    2580.7533   -36609.272    362.32988    242.72196 
   92450    133.24647   -145.86749    127102.89   -34055.906    2512.9731   -36568.879    362.80457    236.34718 
   92500    135.16634   -387.85066    127142.21   -34056.446    2549.1812   -36605.627    363.21999    239.75258 
   92550     131.9825    166.44352    127216.63   -34067.148    2489.1352   -36556.283    363.35936     234.1052 
   92600    135.44402   -262.43332    127225.59   -34106.111     2554.418   -36660.529    363.05571    240.24511 
   92650    137.33173   -24.518397    127231.39   -34073.068    2590.0194   -36663.088    363.29851    243.59345 
   92700    133.16476   -84.622926    127299.92   -34086.183    2511.4321   -36597.615    363.19104    236.20225 
   92750    133.80833   -181.78964    127343.94   -34136.165    2523.5696   -36659.735    363.81144    237.34379 
   92800    133.05846   -116.09978    127377.98   -34074.231    2509.4273   -36583.658    363.76254     236.0137 
   92850     135.6283    -460.1359    127340.78   -34092.495    2557.8934   -36650.388    363.79774    240.57197 
   92900    134.90508    -172.1709    127226.42   -34116.476    2544.2539    -36660.73    364.05311    239.28917 
   92950    132.82312   -154.29949    127197.17   -34075.968     2504.989   -36580.957    364.36101    235.59627 
   93000    135.78891    54.834679    127226.56   -34051.704    2560.9225   -36612.626    364.41378    240.85686 
   93050    133.98998   -322.90164    127277.06   -34027.123    2526.9954   -36554.118    364.75053    237.66599 
   93100     138.5325   -228.48752    127344.88   -34047.668    2612.6655   -36660.333    365.22221    245.72333 
   93150    135.29968   -26.299157    127382.62   -34021.921    2551.6958   -36573.617    365.83875    239.98909 
   93200    133.34949   -152.23883    127446.59   -34044.211     2514.916   -36559.127    366.30037    236.52991 
   93250    136.13906   -195.14334    127626.76   -34041.897    2567.5261   -36609.423    366.27534    241.47794 
   93300    135.17714   -357.89485    127576.33   -33979.896    2549.3849    -36529.28    366.72802    239.77174 
   93350    135.34461   -191.87603     127593.4    -33981.81    2552.5431   -36534.354    366.99909    240.06878 
   93400    138.03222   -393.47495     127560.7   -33996.843    2603.2303   -36600.073    367.33068    244.83595 
   93450    136.38055    60.010458    127583.82    -33961.51    2572.0805    -36533.59    367.08537    241.90629 
   93500    137.03655   -175.81813    127628.27   -33985.873    2584.4526   -36570.325    367.19926    243.06988 
   93550    135.34601     -286.474    127636.09   -33991.509    2552.5696   -36544.079    367.79988    240.07127 
   93600    132.22181    24.467217    127698.64    -33953.01    2493.6485   -36446.659    368.22729    234.52969 
   93650     136.7071   -469.72362    127601.81   -33926.252    2578.2391   -36504.492    368.19387    242.48551 
   93700    134.06918   -438.46636     127535.4   -33942.308     2528.489   -36470.797    368.59832    237.80647 
   93750    136.64199   -146.46775    127528.03   -33967.757    2577.0113   -36544.768    369.08889    242.37003 
   93800    134.15602   -356.01604    127592.97   -33992.348    2530.1269   -36522.475    369.63372    237.96051 
   93850    136.50068   -597.54811    127586.99   -34007.415    2574.3462   -36581.761    369.40369    242.11937 
   93900    134.89925   -440.11944    127536.39   -34070.182    2544.1438   -36614.326    369.98114    239.27881 
   93950    134.58155   -140.98243    127493.86   -34052.878    2538.1521    -36591.03    370.27403    238.71529 
   94000    137.19214   -550.15321    127514.21   -33977.784    2587.3868   -36565.171    370.40734    243.34585 
   94050    134.09343   -615.93506    127447.97   -34017.919    2528.9464   -36546.865    370.18738    237.84949 
   94100    135.59229    -216.7441    127516.21   -34074.304    2557.2144   -36631.519    369.88375    240.50811 
   94150    133.82551   -381.78249    127528.67   -34085.759    2523.8936   -36609.652     370.6301    237.37426 
   94200    132.91049   -435.72304    127498.91   -34080.123    2506.6367    -36586.76    371.19591    235.75124 
   94250    137.53681   -198.23871    127442.11   -34083.122    2593.8872   -36677.009     371.0952    243.95722 
   94300    131.30498   -438.75769    127432.47   -34116.488    2476.3575   -36592.846    371.21092    232.90346 
   94350    134.03937    -555.6829     127428.9   -34090.724    2527.9269    -36618.65    371.57747     237.7536 
   94400    133.78756   -169.30826    127481.81    -34073.28    2523.1778   -36596.458    371.40512    237.30695 
   94450    132.22903   -98.747133    127570.86   -34089.625    2493.7846   -36583.409     371.6346    234.54249 
   94500    133.49571   -305.51321    127559.68   -34091.389    2517.6737   -36609.063    371.52179    236.78927 
   94550    134.25357   -215.93291    127603.61   -34062.893    2531.9667    -36594.86    371.61208    238.13355 
   94600    133.87648   -335.71085    127498.83   -34079.446    2524.8549   -36604.301    371.27249    237.46467 
   94650    133.01349   -226.89721    127506.02   -34067.614    2508.5793   -36576.194    371.64525    235.93394 
   94700    133.63332   -328.31464    127478.86   -34057.513    2520.2689   -36577.782    371.68494    237.03336 
   94750    137.83451   -84.922455    127470.09   -34062.272    2599.5016   -36661.773     372.2008    244.48526 
   94800    132.52432   -331.97386    127529.69   -34067.763    2499.3537   -36567.117    372.82595    235.06627 
   94850    136.93634   -40.772393    127620.79   -34031.014    2582.5626   -36613.577    372.80165    242.89213 
   94900    135.73014   -224.64196    127673.74   -34005.115    2559.8141   -36564.929    372.76814    240.75261 
   94950    136.75317   -395.08519    127710.61   -34031.302    2579.1081    -36610.41    373.15096    242.56723 
   95000    136.50656    -494.4688    127715.65    -34029.22     2574.457   -36603.677    373.50936    242.12979 
   95050    135.82648   -318.10965    127690.84   -34058.931    2561.6311   -36620.562     373.6984    240.92351 
   95100    137.77557   -143.18682    127745.97   -34017.359    2598.3901   -36615.749    373.89223    244.38072 
   95150     133.5294   -257.94867    127788.27   -34016.686     2518.309   -36534.995    373.72113    236.84903 
   95200    136.86891    -260.1078    127830.22   -34082.058    2581.2909   -36663.349    373.66757    242.77252 
   95250    135.78605   -55.988338    127829.08   -34107.951    2560.8685    -36668.82    374.04724    240.85178 
   95300    133.02224   -117.00304    127761.11   -34101.825    2508.7443   -36610.569     374.3442    235.94946 
   95350    133.04417   -339.06166    127714.73   -34103.967    2509.1578   -36613.124    374.24186    235.98835 
   95400    131.16273   -369.83283    127636.98   -34097.967    2473.6747   -36571.642     374.0466    232.65114 
   95450    133.33611   -369.40602    127623.18   -34067.638    2514.6636   -36582.301    374.15937    236.50618 
   95500    137.56417    23.988218    127518.15   -34087.878    2594.4032   -36682.281    374.15777    244.00575 
   95550    134.96798   -195.53946    127527.97   -34081.538    2545.4401   -36626.978    374.59511    239.40073 
   95600    135.44858   -390.11303    127518.77   -34036.163     2554.504   -36590.667    375.15359    240.25319 
   95650    137.06234   -269.54652    127477.95   -34008.714    2584.9388   -36593.652    374.68218    243.11561 
   95700    134.25552    -221.0099    127567.04   -34035.979    2532.0034   -36567.982    375.23927      238.137 
   95750    137.48368   -319.25637    127520.68   -34047.193    2592.8853   -36640.078    375.21048    243.86299 
   95800    136.12714   -271.31634    127467.31   -34027.592    2567.3013   -36594.893    375.80806     241.4568 
   95850    135.85885   -300.03593    127461.45   -34029.322    2562.2416   -36591.564    375.43464    240.98092 
   95900    137.46935   -126.26215    127356.73   -34049.168    2592.6149   -36641.782    375.35097    243.83756 
   95950    135.53672    -278.1651    127347.72   -34075.061    2556.1663   -36631.227    375.81819    240.40954 
   96000    133.98103   -669.88599    127340.14   -34105.522    2526.8267   -36632.349    375.95292    237.65013 
   96050    135.86459   -108.71208    127298.02   -34107.096    2562.3498   -36669.445     375.8498     240.9911 
   96100    135.31097   -93.607012    127307.09   -34077.234    2551.9088   -36629.142    376.07903    240.00912 
   96150    135.99161   -106.42282    127387.73     -34105.6    2564.7453   -36670.345    376.55122     241.2164 
   96200    136.06848   -53.247247    127456.83   -34093.365     2566.195    -36659.56     377.0417    241.35275 
   96250    134.44727   -319.50929    127459.92   -34125.631    2535.6198   -36661.251    376.91402    238.47712 
   96300    133.66282   -408.54564    127402.42    -34172.87    2520.8253   -36693.695    377.07752    237.08569 
   96350    134.21957    -318.9465    127366.13   -34132.789    2531.3255   -36664.115    377.19743    238.07324 
   96400     133.1112   -378.08771    127324.32   -34152.566     2510.422   -36662.988    377.25966    236.10725 
   96450    135.50437    44.953983    127354.22   -34177.123    2555.5563   -36732.679    376.93082    240.35217 
   96500    135.50093   -96.177429    127395.83   -34168.923    2555.4913   -36724.415    377.29384    240.34605 
   96550     134.7567    -132.8327    127439.95   -34146.107    2541.4554   -36687.562    377.94533    239.02596 
   96600    135.05044   -46.880779    127471.03   -34146.583    2546.9952   -36693.579    377.57154    239.54699 
   96650    135.03056   -78.797983    127484.97   -34102.339    2546.6203   -36648.959    378.07812    239.51173 
   96700    134.62846   -408.84092    127466.83    -34111.41     2539.037   -36650.447    378.53077    238.79851 
   96750    133.04599    -120.9333    127421.83   -34139.494    2509.1922   -36648.686    378.73371    235.99158 
   96800    133.21466   -280.57577    127412.07   -34118.206    2512.3733   -36630.579    378.83732    236.29077 
   96850    133.42394   -246.90713    127419.87   -34149.604    2516.3202   -36665.924    378.95762    236.66198 
   96900    132.71721    -18.71978    127446.59   -34128.358    2502.9915    -36631.35    378.99445     235.4084 
   96950    134.18229   -472.21742    127421.16   -34144.167    2530.6224    -36674.79    379.24071    238.00711 
   97000    131.52314   -231.74211    127280.87   -34138.794    2480.4719   -36619.266    379.59621    233.29042 
   97050    135.03137   -163.22487    127225.84    -34103.87    2546.6356   -36650.506    380.01984    239.51317 
   97100    132.98932   -292.21593    127181.02   -34115.558    2508.1235   -36623.681    379.97981    235.89107 
   97150    135.23584   -117.51536     127225.6   -34110.477    2550.4919   -36660.968    380.26187    239.87586 
   97200     137.7488   -94.497832    127294.02   -34052.118    2597.8853   -36650.003    380.65328    244.33324 
   97250    136.45077   -154.57877       127320   -34068.971    2573.4049   -36642.376    380.28283    242.03084 
   97300    139.46325   -152.12684    127258.49   -34044.098    2630.2191   -36674.317    380.55275    247.37426 
   97350    135.03959     13.69193    127206.84    -34042.74    2546.7906    -36589.53    380.76549    239.52775 
   97400    132.74936   -60.641616    127296.04    -34064.64    2503.5978   -36568.238    381.53486    235.46543 
   97450    134.99086   -295.75724    127267.03   -34109.284    2545.8717   -36655.155    381.56225    239.44132 
   97500     135.0801   -58.469367    127244.52   -34100.175    2547.5547    -36647.73    381.41488    239.59961 
   97550    134.39823   -450.08951    127216.58   -34113.573    2534.6949   -36648.268    381.61805    238.39014 
   97600    133.29697   -356.78067    127192.07   -34089.668    2513.9256   -36603.594    381.48658    236.43676 
   97650    134.08365   -60.744763    127273.21   -34035.035     2528.762   -36563.797    381.16569    237.83214 
   97700    133.74513   -235.05921    127218.38   -34008.841    2522.3777   -36531.219    381.73625    237.23169 
   97750    136.00299    -417.1763    127214.94   -33992.196      2564.96   -36557.156    381.71237    241.23659 
   97800    135.20735   -191.89567    127220.81   -34009.531    2549.9544   -36559.486    382.13146    239.82531 
   97850    134.05941   -425.94849    127199.48   -34000.189    2528.3048   -36528.494     382.0093    237.78914 
   97900    135.12513    52.821865    127226.82   -34025.731    2548.4038   -36574.134       382.31    239.67947 
   97950    131.84584   -297.25111    127296.54   -34088.762    2486.5579    -36575.32    382.85392    233.86281 
   98000    134.20992   -131.87527    127240.03    -34095.65    2531.1434   -36626.794    383.25153    238.05611 
   98050    130.74431   -110.37372    127285.14   -34094.258    2465.7835   -36560.041    383.34476    231.90896 
   98100    134.31891   -374.16501    127242.14   -34084.166    2533.1989   -36617.365    383.51387    238.24943 
   98150    134.36352   -398.40588    127222.78   -34054.077    2534.0402   -36588.118    383.52925    238.32856 
   98200    135.50648   -507.85222    127144.87   -34055.391     2555.596   -36610.987    384.09376     240.3559 
   98250    134.44984   -190.58475     127140.9   -34061.719    2535.6682   -36597.387    384.31547    238.48168 
   98300    136.78879   -396.33859    127106.66   -34024.735    2579.7799   -36604.515      384.262    242.63041 
   98350     133.9525   -136.05317    127052.81   -34013.315    2526.2886   -36539.603    384.33234    237.59951 
   98400    135.29525   -203.59429    127059.36   -34036.881    2551.6124   -36588.493    384.55778    239.98124 
   98450    138.21341   -208.25679    127068.87   -34014.207    2606.6475   -36620.854    384.58742    245.15734 
   98500     134.5854   -250.80039    127189.14   -34061.674    2538.2249   -36599.899    385.00909    238.72213 
   98550    137.14712    48.331692    127261.16   -34012.065    2586.5378   -36598.603    385.34671    243.26601 
   98600    137.03827    -193.3887    127429.56   -34022.706    2584.4849   -36607.191    385.79512    243.07292 
   98650    133.08726   -267.15857    127503.91   -33987.549    2509.9706    -36497.52    386.26219    236.06479 
   98700    136.30696   -96.444742    127514.33   -33974.292    2570.6928   -36544.985    386.80041    241.77577 
   98750    135.81918   -365.73055    127516.73    -34006.09    2561.4934   -36567.583    386.78362    240.91056 
   98800    135.85511   -323.63324    127472.94   -33981.722     2562.171   -36543.893    387.07847    240.97428 
   98850    135.07991   -281.43273    127424.59   -33996.329     2547.551    -36543.88    387.25201    239.59926 
   98900    135.29738    -236.4285    127359.57   -34012.129    2551.6525   -36563.781    387.30947    239.98502 
   98950    138.04935   -47.841389    127456.22   -33972.774    2603.5534   -36576.328    387.73131    244.86633 
   99000    136.08352   -198.31962    127400.82   -34036.835    2566.4787   -36603.314    387.79879    241.37943 
   99050    133.65968   -291.97729    127400.95    -34057.58    2520.7661   -36578.346    387.40996    237.08012 
   99100    135.64616   -111.16306    127413.05   -34046.942    2558.2303   -36605.173    387.85879    240.60366 
   99150    135.43994   -304.04569    127335.51   -34033.235    2554.3412   -36587.576    388.21015    240.23788 
   99200    134.18506   -264.51303    127242.02    -34001.12    2530.6746   -36531.794    388.11971    238.01202 
   99250    134.06977   -84.382215    127278.37   -34056.234    2528.5002   -36584.734    388.57221    237.80752 
   99300    136.19747   -481.67696    127178.93   -34004.417    2568.6277   -36573.044    389.02007    241.58154 
   99350    136.17861   -316.52487    127138.85   -33980.012    2568.2721   -36548.285    389.10476     241.5481 
   99400    135.89991   -149.54347    127154.53   -34009.578     2563.016   -36572.594    389.13747    241.05376 
   99450    137.03773    66.610449    127144.76     -34017.3    2584.4748   -36601.774    389.09983    243.07197 
   99500    138.13727   -298.28692    127131.66   -34032.236    2605.2116   -36637.448    389.78072    245.02229 
   99550    134.27091   -200.65586    127176.92   -34079.337    2532.2936   -36611.631    389.56159    238.16429 
   99600    135.44797    -29.12086    127238.75   -34088.852    2554.4925   -36643.344    389.35733    240.25211 
   99650    137.34547    54.993256     127334.9   -34046.509    2590.2787   -36636.788    389.77376    243.61784 
   99700    134.29188   -105.13805    127345.74   -34137.537    2532.6891   -36670.226    389.81886    238.20149 
   99750    135.04095   -92.182601    127337.51   -34113.265    2546.8162   -36660.082    389.54429    239.53016 
   99800    131.77407   -458.54792    127220.63   -34132.737    2485.2044   -36617.941    390.06735    233.73551 
   99850    133.34248   -124.07478    127178.87   -34124.618    2514.7839   -36639.402    390.68218    236.51749 
   99900    133.02274   -166.30362    127229.56   -34102.954    2508.7537   -36611.707    390.91212    235.95035 
   99950    131.46031    -220.1025    127323.19   -34120.369    2479.2869   -36599.656    391.00546    233.17897 
  100000    135.99173    -163.1519    127308.65   -34089.717    2564.7475   -36654.464    390.94233    241.21661 
Loop time of 57.1847 on 90 procs for 100000 steps with 6328 atoms

Performance: 755.447 ns/day, 0.032 hours/ns, 1748.719 timesteps/s
97.3% CPU use with 90 MPI tasks x no OpenMP threads

MPI task timing breakdown:
Section |  min time  |  avg time  |  max time  |%varavg| %total
---------------------------------------------------------------
Pair    | 7.8093     | 18.768     | 40.44      | 298.8 | 32.82
Neigh   | 0.56324    | 1.2996     | 3.2477     |  78.3 |  2.27
Comm    | 5.9987     | 19.283     | 42.556     | 311.0 | 33.72
Output  | 0.14647    | 0.14946    | 0.15843    |   0.5 |  0.26
Modify  | 3.3444     | 16.898     | 39.263     | 380.7 | 29.55
Other   |            | 0.7864     |            |       |  1.38

Nlocal:    70.3111 ave 153 max 40 min
Histogram: 57 3 0 5 10 0 0 0 0 15
Nghost:    716.133 ave 1051 max 450 min
Histogram: 30 0 0 30 0 0 0 0 15 15
Neighs:    0 ave 0 max 0 min
Histogram: 90 0 0 0 0 0 0 0 0 0
FullNghs:  5777.2 ave 18662 max 1542 min
Histogram: 60 0 0 0 15 0 0 0 0 15

Total # of neighbors = 519948
Ave neighs/atom = 82.1662
Neighbor list builds = 6003
Dangerous builds = 0

write_data		${DIR}/data.eq-${NAME}-${TEMP}
write_data		run_9/data.eq-${NAME}-${TEMP}
write_data		run_9/data.eq-het_freeze_9-${TEMP}
write_data		run_9/data.eq-het_freeze_9-240
undump          1

reset_timestep  0

unfix           2
unfix           3
unfix           4


################################################
#######         Run Simulation         #########
################################################

log				${DIR}/log.run_${NAME}
log				run_9/log.run_${NAME}
log				run_9/log.run_het_freeze_9
