LAMMPS data file via write_data, version 16 Mar 2018, timestep = 100000

6489 atoms
2 atom types

0.0000000000000000e+00 4.9219999999999999e+01 xlo xhi
0.0000000000000000e+00 4.9019635930410494e+01 ylo yhi
2.0439021288925971e+00 5.8018097871107862e+01 zlo zhi

Masses

1 18.015
2 12.01

Atoms # atomic

1542 1 1.0846867707020682e+00 2.3343792414456348e+00 5.7246755265956670e+00 0 0 1
1642 1 1.9172619928016505e+00 2.2489234923525925e+00 2.8758563605652157e+00 0 1 0
3079 1 6.0834813877558753e+00 7.9097007613216408e-01 5.5042700505495485e+00 0 1 1
4606 1 9.4327282829813601e+00 3.1258493678017367e+00 5.1019507434542026e+00 0 1 0
3384 1 7.0903211883932160e+00 2.2261659684050463e+00 3.5179700396162632e+00 -1 0 1
186 1 1.9357993252039449e+00 6.8238063559674460e+00 5.9122384916536905e+00 1 0 0
1511 1 4.3337137102080945e+00 5.2571426741856060e+00 5.8344605574158610e+00 1 1 0
6471 1 5.8084939483137852e+00 5.9954559506974601e+00 3.4468051939554174e+00 1 1 1
387 1 7.7804115917978640e+00 8.1044369123456530e+00 3.1605498379295049e+00 1 1 0
3259 1 4.3966508910999860e+00 8.2029460131584351e+00 2.5835121511206678e+00 0 0 1
1725 1 2.5047437289793821e+00 9.3003324015518398e+00 4.6765143041014809e+00 0 1 1
4860 1 4.3788290240725924e+00 1.0166362085208190e+01 6.6507350285140054e+00 0 1 0
2017 1 2.3227552925839348e+00 1.0590931654219620e+01 2.0453694467053656e+00 0 -1 1
6145 1 7.1058247766207234e+00 1.1340645716455075e+01 3.2851315898652427e+00 1 0 0
3300 1 8.9285884536432771e+00 9.2071091089707231e+00 5.5650041583513641e+00 -1 -1 0
6304 1 3.6862672867924240e+00 1.5823734820156060e+01 6.3373453673325963e+00 0 -1 0
1941 1 2.2740921843554704e+00 1.3464349702442840e+01 5.6311019060475358e+00 0 1 0
3010 1 2.1061569801896285e+00 1.3355840896892682e+01 2.6168241986413174e+00 0 1 1
4498 1 7.1902990863077356e+00 1.3601411608563369e+01 5.5653388187491650e+00 0 0 1
5102 1 6.3357403557296887e+00 1.4735592780036873e+01 2.9620915931614027e+00 1 1 0
92 1 2.4502052919506419e+00 3.0219087198295114e-01 8.7758408605114155e+00 1 1 0
6154 1 3.2319556503546529e+00 3.0853616455777604e+00 7.5399188416243437e+00 0 1 1
2909 1 3.5994729263129557e+00 1.6883387922618363e+00 1.0954694653800873e+01 1 0 1
6295 1 6.7384753781631925e+00 3.0539406859608582e+00 6.9672690882257804e+00 0 0 0
4892 1 5.7514248297852824e+00 2.2361838596497106e+00 9.4650096087108118e+00 1 1 0
3657 1 7.6733949598627325e+00 1.1707154855847131e+00 1.1134147730205584e+01 1 1 0
1477 1 9.5999615328938219e+00 2.9014897336713004e+00 1.0399584812985522e+01 0 1 1
1866 1 2.2761802312056276e+00 4.3316059086842209e+00 9.7196216882187798e+00 0 0 0
4665 1 5.7936901397932794e-01 6.3353787231026502e+00 8.1831951006362793e+00 1 0 1
4541 1 8.9710723852345424e+00 7.8858505688683209e+00 1.0003269403112355e+01 0 0 1
3299 1 8.9992680583937741e+00 4.7510135144549261e+00 7.9169192517317883e+00 0 1 0
495 1 5.4864307484068968e+00 4.9955520516486249e+00 1.0154034579752864e+01 -1 0 0
3801 1 5.3694557383514878e+00 6.6178432580387785e+00 8.1048227746054202e+00 0 -1 0
1364 1 7.8240623172496333e+00 7.4193568324195098e+00 7.4479116811919654e+00 0 1 1
1380 1 7.6289900377751962e-02 1.0739445895663930e+01 7.6941322181352509e+00 1 0 1
2910 1 4.8018795465223585e+00 9.9794005013073477e+00 1.1125523694900007e+01 0 1 1
3178 1 1.3233414426709471e+00 8.5502546799938806e+00 9.4953373261037584e+00 0 0 1
5081 1 2.5960712695831645e+00 1.1646629672921128e+01 7.6605242689521615e+00 1 0 0
6249 1 4.1071908021263530e+00 8.8829542536425130e+00 8.9424123579790837e+00 0 0 0
3308 1 7.1989481462453009e+00 1.0869436592036994e+01 6.9389401969402291e+00 1 1 0
153 1 6.8243597854776787e+00 1.1945901450857134e+01 1.1077281886717547e+01 1 0 1
5308 1 8.7658807832747812e+00 1.0565328313716893e+01 9.5176305373156307e+00 0 0 0
4878 1 2.9535351271701029e+00 1.3389916130567395e+01 9.8413887539322715e+00 1 0 1
1597 1 1.1558078503042646e+00 1.5407632884817145e+01 1.0108524663463335e+01 0 2 0
3227 1 5.8283825809882917e+00 1.4231104257450770e+01 9.8789864548506827e+00 0 1 1
58 1 6.3965498607025646e+00 1.5492430026268565e+01 7.4732579141773883e+00 0 0 0
5150 1 1.9525465319370783e+00 3.1763178869535538e+00 1.2751737742579374e+01 1 0 0
3092 1 3.2997883117720410e+00 1.7178884216995638e+00 1.5844814680928025e+01 0 0 1
1851 1 5.5958780205868164e-01 2.2870143042833616e-01 1.3317147872127389e+01 1 0 0
4733 1 5.7953860969312805e+00 1.7083059826828535e+00 1.3294726175655779e+01 0 1 0
6313 1 6.8012614435343783e+00 3.4847541526165987e-01 1.5386514532836754e+01 1 1 1
1670 1 3.8532877722020413e+00 5.8671894015114416e+00 1.2321811189444041e+01 0 -1 0
1844 1 3.2619672374332818e+00 4.4879526520342319e+00 1.4933413927147516e+01 1 1 0
1988 1 1.6732785228743816e+00 7.7317373911377674e+00 1.2252519260623851e+01 1 0 0
5373 1 1.2854785134338542e+00 8.0696092751818540e+00 1.5318506330740798e+01 0 1 1
4681 1 5.9789391199138917e+00 4.3020653736432308e+00 1.4459577730537129e+01 1 0 1
3395 1 8.0257492820988450e+00 7.9433582346616545e+00 1.2541916559999915e+01 1 0 0
1285 1 7.4022108511628710e+00 5.3049662296581088e+00 1.2344008465462563e+01 0 1 1
286 1 2.1197406082861061e+00 1.2178567422088515e+01 1.6030788306002862e+01 0 0 0
5444 1 3.0000561048290804e+00 1.1819660922627232e+01 1.1986728691559497e+01 0 0 1
1802 1 3.7810496619077077e-01 1.0795603915958157e+01 1.1429798231356857e+01 0 1 1
4580 1 5.2060980397898522e+00 8.2769616824083929e+00 1.3068476649006774e+01 0 0 1
443 1 5.9124347080003412e+00 9.6094971578110844e+00 1.5247370882945431e+01 1 0 0
1665 1 7.3583699097553410e+00 1.2139417441261374e+01 1.3618519411280436e+01 0 1 1
171 1 3.4001791269144936e+00 1.4023372361676030e+01 1.4035555953756264e+01 0 0 1
3531 1 7.1599062006813918e-01 1.4564846331983114e+01 1.2941283033833239e+01 1 0 1
3462 1 5.3500870022521791e+00 1.5213034740024447e+01 1.2313379376891591e+01 0 -1 0
244 1 5.5743236922549304e+00 1.2807205297653704e+01 1.5933554521706291e+01 1 1 0
1964 1 7.8909341393521073e+00 1.4932458213279856e+01 1.3844394549606589e+01 0 0 0
3427 1 1.5426125397001391e+00 1.6824830729632432e+00 1.9666620190813031e+01 1 0 0
1750 1 7.9937302943531618e-01 1.9939401763177189e+00 1.7160998744692737e+01 -1 1 0
4905 1 8.9039567960099273e+00 1.6728203479448895e+00 1.6995278558635938e+01 1 1 1
5396 1 6.7699256353547881e+00 3.7545415393916861e+00 1.7114637071780777e+01 1 0 0
210 1 5.4286880675958393e+00 1.2738269522980166e+00 1.7843354371264695e+01 0 1 0
1884 1 1.0945656670581598e+00 5.7607575825134401e+00 1.6203855486431337e+01 1 0 0
1419 1 8.7976132233724014e-01 6.2185390503249787e+00 1.8969182549867014e+01 0 1 1
217 1 3.3388700715941346e+00 5.7979165242626394e+00 2.0105394142032264e+01 1 0 0
4952 1 9.5381070686793592e+00 4.5994577429416559e+00 2.0045082008231123e+01 0 1 1
1961 1 9.6077074177328274e+00 4.8314838958203712e+00 1.7216063154464095e+01 0 0 1
4692 1 9.1603658072036200e+00 7.5760133062747874e+00 1.7075904723996391e+01 0 1 1
5292 1 5.6610760257963966e+00 5.8367930414857412e+00 1.8647840328943829e+01 1 0 0
6429 1 2.8974675657628710e+00 1.0088071355708555e+01 1.9062563447865621e+01 0 1 0
2012 1 3.4888368958006413e+00 9.8469278396300925e+00 1.6353350938596940e+01 1 0 0
1736 1 4.5341024368773492e-01 8.9676023669457283e+00 1.8900360623062326e+01 0 0 1
3718 1 6.1308637951697440e+00 9.3200250148225052e+00 2.0394523724821155e+01 1 0 0
1337 1 6.7913268996099339e+00 8.3997086214192134e+00 1.7939089811188019e+01 1 0 1
3583 1 3.2357985106739506e+00 1.2495231078849534e+01 2.0352224114438322e+01 0 0 0
352 1 1.8436381920024985e+00 1.3758802702695736e+01 1.8408982268897951e+01 0 0 0
5008 1 2.9610744552636765e+00 1.6204931288948334e+01 1.8006568115403766e+01 0 0 0
2046 1 6.0165846117079607e+00 1.3703440554191735e+01 2.0434688689730446e+01 1 0 0
4 1 6.5667629298845327e+00 1.4218874465850188e+01 1.7871927103013405e+01 1 -1 0
5281 1 8.8851538345315451e+00 1.5091110358754683e+01 1.6417148965511057e+01 0 0 0
408 1 3.3281004925228759e+00 1.1384114633286413e+00 2.4740345877613148e+01 0 2 0
6247 1 3.1411077943615155e+00 3.1866050008358173e+00 2.1259094561263343e+01 0 1 1
182 1 2.9516040473289200e+00 3.9012494247530558e+00 2.3893686328715752e+01 1 0 1
3546 1 1.1990529977142412e+00 7.2888914012864348e-02 2.3441321942852742e+01 0 1 0
4778 1 8.3072672630984012e+00 2.8922438091793836e+00 2.4691431359634276e+01 1 0 1
5383 1 5.9038592566344681e+00 1.0696744853816662e+00 2.4019003996343603e+01 1 0 0
2071 1 8.7286265656258593e+00 1.9700837207838793e+00 2.0967454219978020e+01 2 -1 0
5084 1 5.6725743130709310e+00 2.2389607036434076e+00 2.1437412032714285e+01 1 0 1
3573 1 1.4633789045788430e+00 6.2292168252680540e+00 2.4472411709631981e+01 1 2 0
565 1 3.9531688214637120e+00 8.0569628395748705e+00 2.3911862850916222e+01 1 0 0
5220 1 4.0359799115798012e-02 4.7984888197039526e+00 2.1492076525163881e+01 1 1 0
2086 1 6.1868909982638263e+00 6.9557226882706713e+00 2.4684178406349403e+01 1 0 0
6328 1 7.3392368384612121e+00 7.4677846995380639e+00 2.2201532999527569e+01 0 0 1
393 1 5.8510177390595652e+00 4.2678863433688301e+00 2.4053886271411290e+01 0 1 0
1286 1 6.9587448809672301e+00 5.0433636025518584e+00 2.1088396102506920e+01 0 0 1
3518 1 3.7919757248819863e+00 1.0661387356661344e+01 2.4495922586788080e+01 1 0 0
5160 1 1.3725949620497360e-01 8.8838031982415675e+00 2.4112147310482165e+01 1 0 0
5167 1 3.9235022209064918e+00 8.4698178014628258e+00 2.1372408531216486e+01 1 -1 0
304 1 9.9827088539682127e-02 1.1860117499991597e+01 2.4295133631383660e+01 1 0 1
3230 1 8.2999949620391771e+00 9.3328309126826596e+00 2.4346073382089504e+01 1 -1 1
7 1 6.6122152972521260e+00 1.1343550904195284e+01 2.3979988555539776e+01 0 0 1
4767 1 7.1664015026623211e+00 1.1551444852489507e+01 2.1204670386983867e+01 0 0 1
6408 1 2.6154849720794733e+00 1.2512226042706706e+01 2.3014801148216137e+01 1 1 0
2966 1 2.8526005536891477e+00 1.5266911702359563e+01 2.4162400993192019e+01 -1 1 1
3173 1 7.3878572931183326e+00 1.5939785557617009e+01 2.1675459639189889e+01 0 1 1
3165 1 7.3592638570770665e+00 1.4223054163543564e+01 2.4516719975175086e+01 1 0 0
572 2 0.0000000000000000e+00 2.8417180249513345e+00 2.6878754408390250e+01 0 0 0
574 2 0.0000000000000000e+00 0.0000000000000000e+00 2.6878754408390250e+01 0 0 0
576 2 1.2305000000000001e+00 7.1042950623783474e-01 2.6878754408390250e+01 0 0 0
583 2 1.2305000000000001e+00 2.1312885187134998e+00 2.6878754408390250e+01 0 0 0
585 2 2.4610000000000003e+00 2.8417180249513345e+00 2.6878754408390250e+01 0 0 0
587 2 2.4610000000000003e+00 0.0000000000000000e+00 2.6878754408390250e+01 0 0 0
589 2 3.6915000000000004e+00 7.1042950623783474e-01 2.6878754408390250e+01 0 0 0
604 2 3.6914999999999996e+00 2.1312885187134998e+00 2.6878754408390250e+01 0 0 0
606 2 4.9220000000000006e+00 2.8417180249513332e+00 2.6878754408390250e+01 0 0 0
608 2 4.9220000000000006e+00 0.0000000000000000e+00 2.6878754408390250e+01 0 0 0
610 2 6.1524999999999999e+00 7.1042950623783407e-01 2.6878754408390250e+01 0 0 0
633 2 6.1524999999999999e+00 2.1312885187134989e+00 2.6878754408390250e+01 0 0 0
635 2 7.3829999999999991e+00 2.8417180249513345e+00 2.6878754408390250e+01 0 0 0
637 2 7.3829999999999991e+00 0.0000000000000000e+00 2.6878754408390250e+01 0 0 0
639 2 8.6134999999999984e+00 7.1042950623783407e-01 2.6878754408390250e+01 0 0 0
670 2 8.6134999999999984e+00 2.1312885187135002e+00 2.6878754408390250e+01 0 0 0
579 2 0.0000000000000000e+00 4.2625770374269996e+00 2.6878754408390250e+01 0 0 0
581 2 1.2305000000000001e+00 4.9730065436648339e+00 2.6878754408390250e+01 0 0 0
596 2 1.2305000000000001e+00 6.3938655561404980e+00 2.6878754408390250e+01 0 0 0
600 2 2.4610000000000003e+00 4.2625770374269996e+00 2.6878754408390250e+01 0 0 0
602 2 3.6914999999999996e+00 4.9730065436648339e+00 2.6878754408390250e+01 0 0 0
625 2 3.6914999999999996e+00 6.3938655561404980e+00 2.6878754408390250e+01 0 0 0
577 2 0.0000000000000000e+00 7.1042950623783341e+00 2.6878754408390250e+01 0 0 0
598 2 2.4610000000000003e+00 7.1042950623783341e+00 2.6878754408390250e+01 0 0 0
629 2 4.9220000000000006e+00 4.2625770374269978e+00 2.6878754408390250e+01 0 0 0
631 2 6.1524999999999999e+00 4.9730065436648339e+00 2.6878754408390250e+01 0 0 0
662 2 6.1524999999999999e+00 6.3938655561404980e+00 2.6878754408390250e+01 0 0 0
666 2 7.3829999999999991e+00 4.2625770374269996e+00 2.6878754408390250e+01 0 0 0
668 2 8.6135000000000002e+00 4.9730065436648339e+00 2.6878754408390250e+01 0 0 0
707 2 8.6135000000000002e+00 6.3938655561404980e+00 2.6878754408390250e+01 0 0 0
627 2 4.9220000000000006e+00 7.1042950623783341e+00 2.6878754408390250e+01 0 0 0
664 2 7.3830000000000009e+00 7.1042950623783341e+00 2.6878754408390250e+01 0 0 0
592 2 0.0000000000000000e+00 8.5251540748539991e+00 2.6878754408390250e+01 0 0 0
594 2 1.2305000000000001e+00 9.2355835810918343e+00 2.6878754408390250e+01 0 0 0
621 2 2.4610000000000003e+00 8.5251540748539991e+00 2.6878754408390250e+01 0 0 0
623 2 3.6915000000000004e+00 9.2355835810918343e+00 2.6878754408390250e+01 0 0 0
590 2 0.0000000000000000e+00 1.1366872099805333e+01 2.6878754408390250e+01 0 0 0
617 2 1.2305000000000001e+00 1.0656442593567498e+01 2.6878754408390250e+01 0 0 0
619 2 2.4610000000000003e+00 1.1366872099805333e+01 2.6878754408390250e+01 0 0 0
654 2 3.6914999999999996e+00 1.0656442593567499e+01 2.6878754408390250e+01 0 0 0
658 2 4.9220000000000006e+00 8.5251540748539991e+00 2.6878754408390250e+01 0 0 0
660 2 6.1524999999999999e+00 9.2355835810918343e+00 2.6878754408390250e+01 0 0 0
703 2 7.3830000000000009e+00 8.5251540748539991e+00 2.6878754408390250e+01 0 0 0
705 2 8.6134999999999984e+00 9.2355835810918343e+00 2.6878754408390250e+01 0 0 0
656 2 4.9220000000000006e+00 1.1366872099805333e+01 2.6878754408390250e+01 0 0 0
699 2 6.1524999999999999e+00 1.0656442593567499e+01 2.6878754408390250e+01 0 0 0
701 2 7.3829999999999991e+00 1.1366872099805333e+01 2.6878754408390250e+01 0 0 0
746 2 8.6134999999999984e+00 1.0656442593567498e+01 2.6878754408390250e+01 0 0 0
648 2 2.4610000000000003e+00 1.5629449137232328e+01 2.6878754408390250e+01 0 0 0
691 2 3.6915000000000004e+00 1.4919019630994494e+01 2.6878754408390250e+01 0 0 0
613 2 0.0000000000000000e+00 1.2787731112280996e+01 2.6878754408390250e+01 0 0 0
615 2 1.2305000000000001e+00 1.3498160618518829e+01 2.6878754408390250e+01 0 0 0
650 2 2.4610000000000003e+00 1.2787731112280996e+01 2.6878754408390250e+01 0 0 0
652 2 3.6915000000000004e+00 1.3498160618518829e+01 2.6878754408390250e+01 0 0 0
611 2 0.0000000000000000e+00 1.5629449137232333e+01 2.6878754408390250e+01 0 0 0
646 2 1.2305000000000001e+00 1.4919019630994494e+01 2.6878754408390250e+01 0 0 0
695 2 4.9220000000000006e+00 1.2787731112280996e+01 2.6878754408390250e+01 0 0 0
738 2 6.1524999999999990e+00 1.4919019630994494e+01 2.6878754408390250e+01 0 0 0
693 2 4.9220000000000006e+00 1.5629449137232333e+01 2.6878754408390250e+01 0 0 0
740 2 7.3829999999999991e+00 1.5629449137232333e+01 2.6878754408390250e+01 0 0 0
785 2 8.6135000000000002e+00 1.4919019630994494e+01 2.6878754408390250e+01 0 0 0
697 2 6.1524999999999990e+00 1.3498160618518829e+01 2.6878754408390250e+01 0 0 0
744 2 8.6135000000000002e+00 1.3498160618518835e+01 2.6878754408390250e+01 0 0 0
742 2 7.3829999999999991e+00 1.2787731112280996e+01 2.6878754408390250e+01 0 0 0
573 2 0.0000000000000000e+00 1.4208590124756650e+00 3.0031000000000535e+01 0 0 0
575 2 0.0000000000000000e+00 0.0000000000000000e+00 3.0031000000000535e+01 0 0 0
584 2 1.2305000000000001e+00 2.1312885187134998e+00 3.0031000000000535e+01 0 0 0
586 2 2.4610000000000003e+00 1.4208590124756650e+00 3.0031000000000535e+01 0 0 0
588 2 2.4610000000000003e+00 0.0000000000000000e+00 3.0031000000000535e+01 0 0 0
605 2 3.6914999999999996e+00 2.1312885187134998e+00 3.0031000000000535e+01 0 0 0
582 2 1.2305000000000001e+00 3.5521475311891644e+00 3.0031000000000535e+01 0 0 0
603 2 3.6914999999999996e+00 3.5521475311891644e+00 3.0031000000000535e+01 0 0 0
901 2 0.0000000000000000e+00 2.8417180249513345e+00 3.3183245591611026e+01 0 0 0
902 2 0.0000000000000000e+00 0.0000000000000000e+00 3.3183245591611026e+01 0 0 0
903 2 1.2305000000000001e+00 7.1042950623783474e-01 3.3183245591611026e+01 0 0 0
907 2 1.2305000000000001e+00 2.1312885187134998e+00 3.3183245591611026e+01 0 0 0
908 2 2.4610000000000003e+00 2.8417180249513345e+00 3.3183245591611026e+01 0 0 0
909 2 2.4610000000000003e+00 0.0000000000000000e+00 3.3183245591611026e+01 0 0 0
910 2 3.6915000000000004e+00 7.1042950623783474e-01 3.3183245591611026e+01 0 0 0
918 2 3.6914999999999996e+00 2.1312885187134998e+00 3.3183245591611026e+01 0 0 0
607 2 4.9220000000000006e+00 1.4208590124756650e+00 3.0031000000000535e+01 0 0 0
609 2 4.9220000000000006e+00 0.0000000000000000e+00 3.0031000000000535e+01 0 0 0
634 2 6.1524999999999999e+00 2.1312885187134989e+00 3.0031000000000535e+01 0 0 0
636 2 7.3829999999999991e+00 1.4208590124756659e+00 3.0031000000000535e+01 0 0 0
638 2 7.3829999999999991e+00 0.0000000000000000e+00 3.0031000000000535e+01 0 0 0
671 2 8.6134999999999984e+00 2.1312885187135002e+00 3.0031000000000535e+01 0 0 0
632 2 6.1524999999999999e+00 3.5521475311891644e+00 3.0031000000000535e+01 0 0 0
669 2 8.6134999999999984e+00 3.5521475311891657e+00 3.0031000000000535e+01 0 0 0
919 2 4.9220000000000006e+00 2.8417180249513332e+00 3.3183245591611026e+01 0 0 0
920 2 4.9220000000000006e+00 0.0000000000000000e+00 3.3183245591611026e+01 0 0 0
921 2 6.1524999999999999e+00 7.1042950623783407e-01 3.3183245591611026e+01 0 0 0
933 2 6.1524999999999999e+00 2.1312885187134989e+00 3.3183245591611026e+01 0 0 0
934 2 7.3829999999999991e+00 2.8417180249513345e+00 3.3183245591611026e+01 0 0 0
935 2 7.3829999999999991e+00 0.0000000000000000e+00 3.3183245591611026e+01 0 0 0
936 2 8.6134999999999984e+00 7.1042950623783407e-01 3.3183245591611026e+01 0 0 0
952 2 8.6134999999999984e+00 2.1312885187135002e+00 3.3183245591611026e+01 0 0 0
578 2 0.0000000000000000e+00 5.6834360499026637e+00 3.0031000000000535e+01 0 0 0
580 2 0.0000000000000000e+00 4.2625770374269996e+00 3.0031000000000535e+01 0 0 0
597 2 1.2305000000000001e+00 6.3938655561404980e+00 3.0031000000000535e+01 0 0 0
599 2 2.4610000000000003e+00 5.6834360499026637e+00 3.0031000000000535e+01 0 0 0
601 2 2.4610000000000003e+00 4.2625770374269996e+00 3.0031000000000535e+01 0 0 0
626 2 3.6914999999999996e+00 6.3938655561404980e+00 3.0031000000000535e+01 0 0 0
595 2 1.2305000000000001e+00 7.8147245686161639e+00 3.0031000000000535e+01 0 0 0
624 2 3.6914999999999996e+00 7.8147245686161639e+00 3.0031000000000535e+01 0 0 0
905 2 0.0000000000000000e+00 4.2625770374269996e+00 3.3183245591611026e+01 0 0 0
906 2 1.2305000000000001e+00 4.9730065436648339e+00 3.3183245591611026e+01 0 0 0
914 2 1.2305000000000001e+00 6.3938655561404980e+00 3.3183245591611026e+01 0 0 0
916 2 2.4610000000000003e+00 4.2625770374269996e+00 3.3183245591611026e+01 0 0 0
917 2 3.6914999999999996e+00 4.9730065436648339e+00 3.3183245591611026e+01 0 0 0
929 2 3.6914999999999996e+00 6.3938655561404980e+00 3.3183245591611026e+01 0 0 0
904 2 0.0000000000000000e+00 7.1042950623783341e+00 3.3183245591611026e+01 0 0 0
915 2 2.4610000000000003e+00 7.1042950623783341e+00 3.3183245591611026e+01 0 0 0
628 2 4.9220000000000006e+00 5.6834360499026637e+00 3.0031000000000535e+01 0 0 0
630 2 4.9220000000000006e+00 4.2625770374269978e+00 3.0031000000000535e+01 0 0 0
663 2 6.1524999999999999e+00 6.3938655561404980e+00 3.0031000000000535e+01 0 0 0
665 2 7.3829999999999991e+00 5.6834360499026637e+00 3.0031000000000535e+01 0 0 0
667 2 7.3829999999999991e+00 4.2625770374269996e+00 3.0031000000000535e+01 0 0 0
708 2 8.6135000000000002e+00 6.3938655561404980e+00 3.0031000000000535e+01 0 0 0
661 2 6.1524999999999999e+00 7.8147245686161639e+00 3.0031000000000535e+01 0 0 0
706 2 8.6135000000000002e+00 7.8147245686161639e+00 3.0031000000000535e+01 0 0 0
931 2 4.9220000000000006e+00 4.2625770374269978e+00 3.3183245591611026e+01 0 0 0
932 2 6.1524999999999999e+00 4.9730065436648339e+00 3.3183245591611026e+01 0 0 0
948 2 6.1524999999999999e+00 6.3938655561404980e+00 3.3183245591611026e+01 0 0 0
950 2 7.3829999999999991e+00 4.2625770374269996e+00 3.3183245591611026e+01 0 0 0
951 2 8.6135000000000002e+00 4.9730065436648339e+00 3.3183245591611026e+01 0 0 0
971 2 8.6135000000000002e+00 6.3938655561404980e+00 3.3183245591611026e+01 0 0 0
930 2 4.9220000000000006e+00 7.1042950623783341e+00 3.3183245591611026e+01 0 0 0
949 2 7.3830000000000009e+00 7.1042950623783341e+00 3.3183245591611026e+01 0 0 0
591 2 0.0000000000000000e+00 9.9460130873296642e+00 3.0031000000000535e+01 0 0 0
593 2 0.0000000000000000e+00 8.5251540748539991e+00 3.0031000000000535e+01 0 0 0
620 2 2.4610000000000003e+00 9.9460130873296642e+00 3.0031000000000535e+01 0 0 0
622 2 2.4610000000000003e+00 8.5251540748539991e+00 3.0031000000000535e+01 0 0 0
616 2 1.2305000000000001e+00 1.2077301606043163e+01 3.0031000000000535e+01 0 0 0
618 2 1.2305000000000001e+00 1.0656442593567498e+01 3.0031000000000535e+01 0 0 0
653 2 3.6914999999999996e+00 1.2077301606043163e+01 3.0031000000000535e+01 0 0 0
655 2 3.6914999999999996e+00 1.0656442593567499e+01 3.0031000000000535e+01 0 0 0
912 2 0.0000000000000000e+00 8.5251540748539991e+00 3.3183245591611026e+01 0 0 0
913 2 1.2305000000000001e+00 9.2355835810918343e+00 3.3183245591611026e+01 0 0 0
927 2 2.4610000000000003e+00 8.5251540748539991e+00 3.3183245591611026e+01 0 0 0
928 2 3.6915000000000004e+00 9.2355835810918343e+00 3.3183245591611026e+01 0 0 0
911 2 0.0000000000000000e+00 1.1366872099805333e+01 3.3183245591611026e+01 0 0 0
925 2 1.2305000000000001e+00 1.0656442593567498e+01 3.3183245591611026e+01 0 0 0
926 2 2.4610000000000003e+00 1.1366872099805333e+01 3.3183245591611026e+01 0 0 0
944 2 3.6914999999999996e+00 1.0656442593567499e+01 3.3183245591611026e+01 0 0 0
657 2 4.9220000000000006e+00 9.9460130873296642e+00 3.0031000000000535e+01 0 0 0
659 2 4.9220000000000006e+00 8.5251540748539991e+00 3.0031000000000535e+01 0 0 0
702 2 7.3830000000000009e+00 9.9460130873296642e+00 3.0031000000000535e+01 0 0 0
704 2 7.3830000000000009e+00 8.5251540748539991e+00 3.0031000000000535e+01 0 0 0
698 2 6.1524999999999999e+00 1.2077301606043163e+01 3.0031000000000535e+01 0 0 0
700 2 6.1524999999999999e+00 1.0656442593567499e+01 3.0031000000000535e+01 0 0 0
745 2 8.6135000000000002e+00 1.2077301606043163e+01 3.0031000000000535e+01 0 0 0
747 2 8.6134999999999984e+00 1.0656442593567498e+01 3.0031000000000535e+01 0 0 0
946 2 4.9220000000000006e+00 8.5251540748539991e+00 3.3183245591611026e+01 0 0 0
947 2 6.1524999999999999e+00 9.2355835810918343e+00 3.3183245591611026e+01 0 0 0
969 2 7.3830000000000009e+00 8.5251540748539991e+00 3.3183245591611026e+01 0 0 0
970 2 8.6134999999999984e+00 9.2355835810918343e+00 3.3183245591611026e+01 0 0 0
945 2 4.9220000000000006e+00 1.1366872099805333e+01 3.3183245591611026e+01 0 0 0
967 2 6.1524999999999999e+00 1.0656442593567499e+01 3.3183245591611026e+01 0 0 0
968 2 7.3829999999999991e+00 1.1366872099805333e+01 3.3183245591611026e+01 0 0 0
991 2 8.6134999999999984e+00 1.0656442593567498e+01 3.3183245591611026e+01 0 0 0
614 2 0.0000000000000000e+00 1.2787731112280996e+01 3.0031000000000535e+01 0 0 0
651 2 2.4610000000000003e+00 1.2787731112280996e+01 3.0031000000000535e+01 0 0 0
612 2 0.0000000000000000e+00 1.4208590124756663e+01 3.0031000000000535e+01 0 0 0
647 2 1.2305000000000001e+00 1.4919019630994494e+01 3.0031000000000535e+01 0 0 0
649 2 2.4610000000000003e+00 1.4208590124756663e+01 3.0031000000000535e+01 0 0 0
692 2 3.6915000000000004e+00 1.4919019630994494e+01 3.0031000000000535e+01 0 0 0
923 2 0.0000000000000000e+00 1.2787731112280996e+01 3.3183245591611026e+01 0 0 0
924 2 1.2305000000000001e+00 1.3498160618518829e+01 3.3183245591611026e+01 0 0 0
942 2 2.4610000000000003e+00 1.2787731112280996e+01 3.3183245591611026e+01 0 0 0
943 2 3.6915000000000004e+00 1.3498160618518829e+01 3.3183245591611026e+01 0 0 0
922 2 0.0000000000000000e+00 1.5629449137232333e+01 3.3183245591611026e+01 0 0 0
940 2 1.2305000000000001e+00 1.4919019630994494e+01 3.3183245591611026e+01 0 0 0
941 2 2.4610000000000003e+00 1.5629449137232328e+01 3.3183245591611026e+01 0 0 0
963 2 3.6915000000000004e+00 1.4919019630994494e+01 3.3183245591611026e+01 0 0 0
696 2 4.9220000000000006e+00 1.2787731112280996e+01 3.0031000000000535e+01 0 0 0
743 2 7.3829999999999991e+00 1.2787731112280996e+01 3.0031000000000535e+01 0 0 0
694 2 4.9220000000000006e+00 1.4208590124756663e+01 3.0031000000000535e+01 0 0 0
739 2 6.1524999999999990e+00 1.4919019630994494e+01 3.0031000000000535e+01 0 0 0
741 2 7.3830000000000009e+00 1.4208590124756663e+01 3.0031000000000535e+01 0 0 0
786 2 8.6135000000000002e+00 1.4919019630994494e+01 3.0031000000000535e+01 0 0 0
965 2 4.9220000000000006e+00 1.2787731112280996e+01 3.3183245591611026e+01 0 0 0
966 2 6.1524999999999990e+00 1.3498160618518829e+01 3.3183245591611026e+01 0 0 0
989 2 7.3829999999999991e+00 1.2787731112280996e+01 3.3183245591611026e+01 0 0 0
990 2 8.6135000000000002e+00 1.3498160618518835e+01 3.3183245591611026e+01 0 0 0
964 2 4.9220000000000006e+00 1.5629449137232333e+01 3.3183245591611026e+01 0 0 0
987 2 6.1524999999999990e+00 1.4919019630994494e+01 3.3183245591611026e+01 0 0 0
988 2 7.3829999999999991e+00 1.5629449137232333e+01 3.3183245591611026e+01 0 0 0
1011 2 8.6135000000000002e+00 1.4919019630994494e+01 3.3183245591611026e+01 0 0 0
6486 1 3.5420547038052947e+00 2.0158582160918379e+00 3.6127212107866832e+01 1 0 -1
1609 1 2.9802254987920445e+00 5.8283513578004664e-01 3.8771223305604302e+01 0 1 -1
1329 1 7.9565881951324718e-02 3.3992951072110494e-01 3.8601374177068458e+01 0 0 0
1879 1 8.4894682318649277e+00 2.6199695649211243e+00 3.5763229680435046e+01 1 0 -1
458 1 6.2756734566406092e+00 1.2263765080227647e+00 3.6052741946775967e+01 0 0 0
3326 1 7.3303445818025565e+00 1.2685151972269432e-01 3.8872109097156383e+01 1 0 -1
3138 1 2.8946916991182383e+00 4.6129910596341652e+00 3.6922059844644615e+01 -1 1 0
4779 1 8.5880494055870515e-01 5.8115142026588469e+00 3.5710541955952948e+01 0 0 0
6310 1 7.9418085153551115e+00 5.8843535463213996e+00 3.9005339284703886e+01 0 0 0
6386 1 7.7866871974357297e+00 5.5427888235276281e+00 3.5816050768946980e+01 0 1 -1
4603 1 5.0166345053561772e+00 6.3541768924395212e+00 3.6224356582452913e+01 1 0 0
4537 1 5.2606128114564639e+00 7.1328512638753381e+00 3.9168149847726319e+01 0 1 0
1748 1 9.5026253879127154e+00 7.6959886659985468e+00 3.5949811577333847e+01 0 1 -1
3302 1 9.7233655956425906e+00 8.0099234637182235e+00 3.9085107386618866e+01 1 0 -1
1450 1 7.8583451610798050e-01 8.5573021564421072e+00 3.6489431314454762e+01 0 1 0
2933 1 1.0597988594124397e+00 8.9837467630917160e+00 3.9237748642381725e+01 0 1 0
3678 1 2.8306158402299610e+00 1.0215498827805776e+01 3.5914573606505456e+01 1 1 0
6143 1 3.8867278218041705e+00 9.5461958886062437e+00 3.8697029771439098e+01 1 1 -1
6256 1 9.5108905523438541e+00 1.0775814620737195e+01 3.5794107014750104e+01 1 0 -1
4607 1 7.1624507496918755e+00 1.2186064869453059e+01 3.5758157329499610e+01 1 0 0
3139 1 5.6759395283847951e+00 9.3173542546343597e+00 3.5771048161592283e+01 0 0 0
5093 1 4.9593949276549321e+00 1.1922755883467770e+01 3.7740069324175330e+01 -1 0 0
81 1 9.4756279218000543e+00 1.0773281194696146e+01 3.8676872413594147e+01 -1 0 0
1731 1 3.2308050301542806e+00 1.6267615828000565e+01 3.5942216201658084e+01 0 1 0
3762 1 1.6079311455521310e+00 1.2724532551011370e+01 3.5658581523390339e+01 0 1 0
3047 1 3.0268609039825689e+00 1.4233778348372191e+01 3.7681366362990097e+01 0 1 -1
6342 1 7.9980200647597863e+00 1.4979387615719805e+01 3.9116717885335937e+01 0 0 0
1452 1 7.9793094027506051e+00 1.4910718346085980e+01 3.5984742694869588e+01 0 1 0
4703 1 7.3056396836635145e+00 1.2374673682091665e+01 3.9306727494969913e+01 -1 0 0
98 1 2.4771350628309268e+00 1.4615254848046018e+00 4.3031439233163447e+01 1 1 -1
1589 1 3.5514195835732711e+00 2.5817909959640835e+00 4.0433572706061291e+01 -1 1 0
2031 1 3.9549744159853045e-01 2.5569185464256678e+00 4.1097921059307886e+01 0 1 -1
4759 1 7.8321963190130743e+00 3.8469986552486439e+00 4.0931689080430367e+01 0 0 0
4820 1 6.3680680579645959e+00 1.4702370355750518e+00 4.1218993876077235e+01 0 0 -1
4576 1 4.3850581136731952e+00 6.4055788770089359e+00 4.2060962380125176e+01 0 0 -1
3488 1 2.9680426302485436e+00 5.2491344648368203e+00 3.9403183924650392e+01 0 0 -1
1344 1 5.6306591212457391e-01 5.0888196566726478e+00 4.2261806186379836e+01 1 0 0
3199 1 4.1020421894083786e-01 6.2960450995026402e+00 3.9911049589044069e+01 1 -1 -1
1376 1 6.4302788105997539e+00 4.9367726048298675e+00 4.3134617745870685e+01 0 0 -1
2108 1 3.6750046387762194e+00 1.0476617579766557e+01 4.1380683774438289e+01 0 0 0
359 1 1.1844285031170174e+00 1.1695622367688030e+01 4.2621558063692262e+01 0 0 -1
4755 1 5.9062759115022088e+00 1.2184665849915113e+01 4.1738795282349862e+01 1 -1 0
2217 1 4.9729627231213156e+00 8.9147529461094237e+00 4.3276330625896044e+01 0 -1 0
5030 1 9.0088684114345039e+00 9.0182805811774926e+00 4.1905626615979237e+01 0 0 0
4627 1 7.7838538933828572e+00 1.1278031298296657e+01 4.3323994992286217e+01 0 0 0
1838 1 2.6372854739288161e+00 1.4078688607314040e+01 4.1678944800148031e+01 1 1 -1
1469 1 1.3173354366172076e+00 1.5364252555820375e+01 3.9733312470842186e+01 0 0 0
567 1 5.1958574318019934e+00 1.4892551144998061e+01 4.1037895043200059e+01 1 0 0
490 1 9.4330236370686755e+00 1.6252127943924069e+01 4.2473649000765178e+01 1 0 0
4507 1 2.6419283595665437e+00 1.6589143065618783e-01 4.6157692182478428e+01 -1 0 0
2868 1 2.1661509481092751e+00 3.1471969929785595e+00 4.5212034032658664e+01 1 1 0
1316 1 7.8008303193234489e+00 1.4957205838921841e+00 4.8402264403390426e+01 1 0 -1
4941 1 6.1301181292538951e+00 3.2705428471686457e+00 4.5483630914291162e+01 -1 0 -1
1392 1 7.3217898202238185e+00 9.3454099032660332e-01 4.5870880231878068e+01 0 0 0
5118 1 9.7057836224867806e+00 3.3712425651928574e-01 4.4750779614908737e+01 0 1 -1
5320 1 4.2792879351284334e+00 4.0879629231356756e+00 4.7389800949741833e+01 0 0 -1
1431 1 2.1592354330843007e+00 7.9723747994259835e+00 4.5986014353665830e+01 0 0 0
6367 1 3.6897461295734191e+00 6.9268166437840968e+00 4.8023135367625258e+01 0 0 0