LAMMPS data file via write_data, version 16 Mar 2018, timestep = 100000

6768 atoms
2 atom types

2.9359326010217046e-01 4.8926406739898226e+01 xlo xhi
2.9239810487255369e-01 4.8727237825538836e+01 ylo yhi
-6.6793281396384430e-01 6.0729932813964197e+01 zlo zhi

Masses

1 18.015
2 12.01

Atoms # atomic

4973 1 3.7968697117886281e+00 1.4762608185644831e+01 1.1352298504875403e+01 0 1 1
203 1 1.2340370436292670e+01 1.6467316764752130e+01 4.8333668759855373e+00 1 0 0
125 1 6.5989816397406269e+00 3.7935117298295689e+00 2.2585862555436385e+00 0 2 0
265 1 4.2831384580916634e+00 3.6055249283058650e+00 7.1382629761164385e-01 0 1 0
3626 1 1.2068435562023664e+01 1.7799348908195903e+01 7.5958160872387772e+00 1 0 0
3795 1 1.0792227164763476e+01 3.8267987740242413e+00 2.1696429373899058e+00 1 1 0
3066 1 8.0943333541267002e+00 2.3871799861385476e+01 5.2982369960404672e+00 0 1 1
545 1 1.0059069936503310e+01 5.3266027924097807e+00 1.1300225716933001e+01 0 -1 1
1672 1 4.0098609087967176e+00 6.1990072611787603e+00 1.6440682178639698e+00 -1 0 0
3634 1 5.2862666896500548e+00 2.4040080777758860e+01 5.2316132461297933e+00 0 1 0
1392 1 8.7198508231862526e+00 4.9917745411349896e+00 8.5913593095484453e-01 1 -1 1
1855 1 6.2188304542053086e-01 2.9979681489366059e+00 3.4556167732197345e+00 0 0 0
6373 1 5.8617226210293119e+00 7.6809164890421688e-01 5.1914935866830243e+00 2 2 0
1777 1 5.2673520767424531e+00 7.0917840818218583e+00 -4.0370835916474090e-01 -1 0 0
3637 1 5.4645165095812365e+00 1.2725474258489369e+01 -3.3759556841619104e-01 1 -1 0
5397 1 3.8596975628411578e+00 8.1342485395163955e+00 1.1211670279297465e+01 1 1 0
34 1 7.1516934844241771e+00 8.8943935113263262e+00 6.5858767309651656e-01 1 0 0
3483 1 9.5597105708058834e+00 1.3266513890063505e+01 -1.8721901457704915e-01 -1 2 0
1401 1 1.2438145658740716e+01 1.3708763490702236e+01 3.6493799468021804e+00 0 1 1
2333 1 1.0372993743599677e+01 1.2402847436380311e+01 2.2822844175052923e+00 0 1 1
3338 1 1.1144293676131294e+01 9.9043435908033111e+00 1.5002082834889721e+00 -1 1 1
6446 1 3.3288391722117177e+00 1.4205785867647501e+01 1.1175211851198896e+00 1 0 1
5608 1 9.8253233770784310e-01 9.5762893399683939e+00 1.0689965262750221e+00 2 1 0
5160 1 7.6821437070595016e+00 1.5287642799053756e+01 2.5943571822636660e+00 0 0 0
528 1 8.5049655836483353e+00 1.5802970535080657e+01 2.3070401160231235e-01 0 1 0
1988 1 1.0081756863727220e+01 2.1662476689453275e+01 1.1148997955055272e+01 1 0 0
2106 1 5.2051115544071651e+00 5.8920506330802942e+00 1.1349541651548002e+01 0 2 0
1324 1 2.3490277062553533e+00 1.8448343454026688e+01 1.1903476545699363e+00 0 0 1
4839 1 4.1815816826946568e+00 1.7957898041518156e+01 3.2192852842691355e+00 0 1 1
3853 1 6.4300537441110901e+00 2.0376670995371764e+01 1.0581176849891186e+01 1 1 0
5587 1 7.7778882908988809e+00 2.0507859575887917e+01 2.0099031393454259e+00 1 1 1
5481 1 1.1136136172278000e+01 1.6438097620859999e+01 5.4313761455116971e-01 0 -1 0
1964 1 3.9145726809194725e+00 2.2558017358871460e+01 3.4147762467836378e+00 1 1 0
410 1 1.7986091422758639e+00 2.0746766247641975e+00 1.0951580099927907e+00 0 -1 0
1356 1 8.5690640937515834e+00 1.3926500631507919e+01 1.1031982056516799e+01 0 1 1
3065 1 2.7205208904699671e+00 2.1161477225563061e+01 1.0706721680946598e+00 0 0 1
5091 1 5.1264475340903992e+00 2.3963526868040926e+01 7.9978435366207226e+00 1 0 1
336 1 8.7156176019603020e+00 2.2894392617120413e+01 2.8963777060197184e+00 1 -1 0
3158 1 1.1358029921003530e+01 2.2904813749884909e+01 2.1973917388344515e+00 0 -1 1
3904 1 2.2862276295889092e+00 8.2104056350571819e-01 1.0898032450651696e+01 0 -1 0
3752 1 4.8752060461790290e+00 3.1761183535365056e+00 5.4866981486942281e+00 0 1 1
5398 1 2.3943262941920729e+00 2.5659005235552939e+00 5.6502080651456366e+00 1 0 0
3668 1 1.1322438999910887e+01 1.8656600256185236e+01 3.2435335287789591e+00 0 -1 0
3669 1 6.0131664011908148e+00 3.3992082320973656e+00 7.9920950237403510e+00 1 2 0
6564 1 6.1164196456415487e-01 1.4599267642471711e+01 7.5686205216523081e+00 0 1 1
3785 1 1.0298864315511294e+01 2.6800463110097694e+00 4.3572393855684597e+00 0 1 0
5685 1 5.4572738601686650e+00 5.4072312534947411e+00 4.1008288721555299e+00 0 1 1
1902 1 3.5167897892446076e+00 6.3506654127954620e+00 6.5813037979144404e+00 1 1 1
3454 1 8.5373765754748412e+00 7.3274713953541131e+00 2.6030198371678570e+00 -1 1 1
3564 1 9.8559509906812153e+00 5.1587852546071415e+00 5.4893488162429902e+00 0 -1 1
5409 1 8.7909086715442708e+00 1.9277501542854861e+01 1.1228015455324098e+01 2 -2 0
3631 1 1.0702720058664235e+01 8.2813331190716433e+00 3.4587871185896422e+00 0 0 0
1560 1 1.2347054718604630e+01 6.2641398703128965e+00 4.6603329731982548e+00 0 0 1
3738 1 9.4913896874227344e-01 7.2298922479505414e+00 4.9241188178881279e+00 1 -1 0
3466 1 4.6296333796851910e+00 1.0289959469321589e+01 4.4246652259485337e+00 2 0 0
113 1 6.1657407447129478e+00 1.1232377275419676e+01 2.0679717119554573e+00 0 0 1
2184 1 1.0540472556397209e+01 9.2710992962278702e+00 6.1110519221026580e+00 0 0 1
5290 1 2.1646279247203606e+00 1.7179776231849697e+01 1.1173017611179132e+01 1 0 0
5577 1 2.6590504418057583e+00 1.2339560622058345e+01 5.1534960078194345e+00 0 1 1
1834 1 4.9587575761337357e+00 1.5243925096409166e+01 3.0047787104587389e+00 0 1 1
3242 1 1.1009860710747195e+00 1.3262350847239761e+01 3.0905863817579031e+00 0 1 1
5487 1 8.0673234271490291e+00 1.2443819394651323e+01 3.6085543113676621e+00 0 0 0
1829 1 5.3259587348597686e+00 1.7055705823304834e+01 9.5516492050012296e+00 1 0 0
5271 1 1.0768738191628849e+01 1.3967099152003144e+01 6.1301227300207435e+00 0 1 0
3884 1 8.2378650225975516e+00 1.5230533849819647e+01 5.9386706750428324e+00 -1 0 1
5523 1 7.6046682988015437e+00 1.6908155283312214e+00 3.5780185928089621e+00 1 0 0
6516 1 8.3037534432974986e+00 1.8224890042299236e+01 6.3936452027116752e+00 1 -1 1
1708 1 5.6147680573378089e+00 2.0224771712273274e+01 3.7846971360193455e+00 1 -1 1
1633 1 1.0292773035444538e+01 2.0327167146135178e+01 5.7873768940863659e+00 0 -1 0
5005 1 8.9315448303435279e+00 1.8013397906956172e+01 2.9806625122929775e+00 0 2 1
1438 1 1.7673167945077939e+00 2.2020187934665074e+01 5.3087045381321349e+00 1 2 1
5648 1 2.4288412766983063e+00 2.2187231700237437e+01 9.5438737963083593e+00 0 -1 1
2147 1 7.7790763872297060e+00 2.2081724696768042e+01 7.2532562963760139e+00 -1 1 0
3308 1 9.7714450751263005e-01 1.2136528146027810e+01 4.3436216118819493e-01 1 1 0
3590 1 7.6673537705416395e-01 1.9845609898615457e+01 6.3239402852627462e+00 1 0 0
4809 1 4.0321193588132864e+00 3.2619404344239054e+00 9.9474479969042218e+00 0 0 1
5537 1 8.3295161778203699e+00 1.8324055988078161e+00 9.1698390373465219e+00 1 1 1
3961 1 7.4578053366471453e+00 5.6350939013972408e+00 7.6814353992442719e+00 0 1 1
3549 1 9.9714181820948458e+00 4.1266956450638741e+00 8.3274041627356468e+00 1 1 0
3359 1 1.2422339328783139e+01 2.8976240376058562e+00 7.9437860315626025e+00 0 1 0
5069 1 2.0910821336242842e+00 1.7665288364425631e+01 5.0747826348185185e+00 1 1 1
3603 1 2.6449145893325485e+00 5.2216825869099042e+00 8.9409014795405781e+00 0 0 0
6519 1 1.4425018384797053e+00 5.9239416115788188e+00 9.3707248782286201e-01 0 0 1
150 1 7.3494574704991118e+00 6.9365081871970853e+00 5.1825429458435899e+00 0 1 0
3502 1 2.7414245962405062e+00 8.4919908506646529e+00 3.0135537718107033e+00 1 -1 0
3088 1 6.8301228857339105e+00 9.4628877175742083e+00 6.2918682041631868e+00 -1 1 1
2031 1 7.2861496218044879e+00 8.1548532422948696e+00 9.3411530742788251e+00 0 0 0
5689 1 6.1864480667268111e+00 2.0038246928278298e+01 6.3760633703200353e+00 0 -1 1
5142 1 4.6886962405075714e+00 8.6933100572487145e+00 7.7379716802245309e+00 0 0 1
2193 1 3.3052995178556119e+00 1.0870305676844572e+01 8.2485774463508985e+00 1 1 0
5657 1 4.6885159055288961e+00 1.2513692360912659e+01 1.0030566927943555e+01 0 0 1
3344 1 6.9659691708071376e+00 1.2981119544040451e+01 8.9885358306321343e+00 0 0 0
109 1 8.7794696396840326e+00 1.1429578992240565e+01 6.3881084393778993e+00 0 -2 0
244 1 2.5615394420001203e+00 1.6282346479494564e+01 -1.7872868066198011e-01 1 1 0
5310 1 9.4953007460502263e+00 1.0054187872938620e+01 9.4262779957345835e+00 1 0 0
3097 1 1.0440026131732624e+01 7.3263767861912008e+00 8.2149914712672629e+00 0 1 1
2160 1 9.2730943471111704e+00 1.7875651085175299e+01 8.9055773521481232e+00 1 0 0
1530 1 2.7979193367819626e+00 1.6074440984114702e+01 7.0487692755545348e+00 0 0 1
2175 1 6.2904645288278891e+00 1.4982271139824796e+01 7.8447931300979992e+00 0 0 0
3648 1 4.4511783586071569e+00 1.4474941491400200e+01 5.5904390151778705e+00 2 0 0
1357 1 1.0486290262226721e+01 1.5544361727869834e+01 1.0047474879751784e+01 0 0 1
1442 1 1.0057939153478937e+01 2.2333799050776900e+01 8.6776704587064497e+00 0 -1 1
1452 1 3.1295362712780017e+00 1.8513301047571897e+01 8.7425780807254299e+00 1 1 1
4720 1 4.7711397726460838e+00 2.1074849739153997e+01 8.6329872508704284e+00 2 0 1
1566 1 8.3093207107183764e-01 3.6679062437355836e+00 7.5776006375909599e+00 0 2 1
5038 1 1.1730845002772771e+01 1.6465215591265878e+00 5.0282266004394915e-01 0 1 1
513 1 1.2301778190780711e+01 2.2329845766450134e+01 -3.6157746655764905e-01 0 -1 1
3207 1 6.2540108144659925e+00 1.2440868826112068e+00 -3.2140967530184383e-01 0 1 1
3219 1 7.3551692510781508e-01 6.2816178572211765e+00 1.0731943059467335e+01 0 1 0
3455 1 2.0538042028878851e+00 2.3735072244850688e+01 7.3859880969869440e+00 -1 2 0
6 1 1.2144306216333380e+01 1.4024104332328930e+01 8.5509045283350833e+00 0 0 0
3092 1 1.2350036335236258e+01 1.3683113140232537e+00 5.8073798998254027e+00 0 1 1
1459 1 1.2376972334946421e+01 2.0993771612240199e+01 7.6784948107538273e+00 1 1 1
3016 1 9.5328297603885357e+00 1.9523679097332256e+01 -4.8712729401513444e-01 -1 2 1
1986 1 1.4139147595963639e+00 1.0660263796709469e+01 1.0326071216055199e+01 1 1 0
5532 1 9.3645853565849979e-01 1.9934939464604462e+01 9.0277240145574762e+00 1 0 0
3419 1 7.1462582785489437e-01 1.1726318518555049e+01 7.1463244358588769e+00 1 2 0
3210 1 1.1963295143975744e+01 1.7063263916825569e+01 1.1560883082070710e+01 1 1 0
3606 1 4.6654948812120729e+00 1.2253680499366206e+00 1.6095206031399634e+01 1 1 0
2119 1 8.3752407363385384e+00 1.4790391187509999e+00 1.5278784771064792e+01 0 1 0
3696 1 6.1180493606774773e+00 2.0118598799924983e+00 1.4020632812165447e+01 1 1 0
5207 1 8.5452597426385442e+00 2.8707783012030150e+00 1.2141670403347513e+01 1 0 0
6494 1 8.3407733992253685e-01 1.3262113823248403e+00 1.4312003795305857e+01 1 0 1
1842 1 9.0071784988859782e-01 2.3670410767768137e+00 1.9141934419076154e+01 1 1 0
3571 1 1.0902098248366284e+01 5.0504763591349748e+00 1.4113469825589052e+01 1 1 0
139 1 8.9722064424036478e+00 2.1353378250283505e+01 2.1228916058608878e+01 1 0 1
5155 1 2.6608957988619166e+00 5.0684629009069431e+00 1.5888237132127038e+01 0 1 0
258 1 3.3753736772643766e-01 4.5725230354944335e+00 1.2677221174806961e+01 0 1 0
5646 1 1.3940778891369303e+00 1.2855567198794709e+01 1.1752481410870761e+01 1 0 0
128 1 5.0749863765819176e+00 4.5919539174341955e+00 1.3986525355918300e+01 0 0 0
3999 1 8.0581957598784211e+00 7.5853650882622050e+00 1.4200950691990213e+01 0 0 1
3443 1 1.0715638293542971e+01 7.7990387547643101e+00 1.4745453632875007e+01 0 1 0
5645 1 3.5220188756083317e+00 1.1994304189700673e+01 1.4396436220218229e+01 0 0 1
3021 1 2.3729187607352387e+00 1.0004329218803770e+01 1.6536106358681870e+01 1 1 1
533 1 7.0726897532700734e+00 1.0313904713525405e+01 1.3258761612881047e+01 0 0 1
3225 1 4.6401355236509589e+00 1.0685188011635889e+01 1.1974391960296279e+01 0 0 1
3705 1 9.3173365927880223e+00 1.2097286243970805e+01 1.2606012296831564e+01 1 2 0
1974 1 2.3236678106416369e+00 1.2577097455471192e+01 2.3217348251427786e+01 0 1 0
1912 1 3.4644467078393060e+00 1.4502135104955411e+01 1.4046658323850227e+01 0 0 0
3960 1 3.0031826113302329e+00 1.8470506499540495e+01 2.3076159547124416e+01 0 0 1
5109 1 1.3220566790264092e+00 1.6525744237126215e+01 1.6437485615959432e+01 1 0 0
1924 1 6.9467480727277424e+00 1.5472962628704394e+01 1.2522278786533562e+01 -1 1 0
3829 1 6.6328068807880047e+00 1.1742741783117811e+01 1.5359636732733847e+01 0 1 0
352 1 1.1471821510136994e+01 2.0457865657205090e+01 1.7060431150982613e+01 1 0 0
5162 1 7.3051477056003078e+00 1.9210951348488454e+01 2.1110554577119245e+01 0 1 0
2033 1 8.6002086226106229e+00 1.6178126251068768e+01 1.4528635024016257e+01 -1 1 0
554 1 1.7979657244716827e+00 3.9648465301319002e+00 2.0672329884120174e+01 0 0 1
1984 1 3.0137286006228221e+00 1.8686353956599302e+01 1.3596287655867306e+01 -1 1 0
5159 1 1.9073213971832044e+00 2.3188255473874943e+01 1.2104256439917076e+01 0 0 0
2222 1 5.7964966971571661e+00 1.7964316481613633e+01 1.2345855550129716e+01 1 1 0
4953 1 9.2041727210451825e+00 2.0570554259514328e+01 1.5405958781008017e+01 0 1 1
51 1 9.9094412506974230e+00 1.8375081667636351e+01 1.3680039796051844e+01 1 2 0
1595 1 6.2203080752096063e-01 6.4890689953536915e+00 1.9024777604662436e+01 0 0 1
1436 1 2.5469101438397956e+00 2.1209087494505027e+01 1.4027243813613405e+01 1 0 1
2316 1 6.2080094685563898e+00 2.2479432993081897e+01 1.2134846396957741e+01 1 0 1
2124 1 5.2481901825930048e+00 2.1901499610748733e+01 1.4593037848315994e+01 1 1 0
3258 1 8.7371397522430705e+00 2.2486728091833790e+01 1.3378986742389690e+01 0 1 1
1549 1 1.3631462349514780e+00 8.4970015198556812e+00 1.1901296784693990e+01 -1 1 1
1476 1 1.2088331756161187e+01 2.0491351527337503e+01 1.2008291777018016e+01 1 2 1
158 1 4.2722037011291345e+00 3.7280798613956363e+00 1.9538655071556121e+01 0 0 0
2321 1 2.0566050371652613e+00 2.5115250717017497e+00 1.6494388092512764e+01 0 0 0
2199 1 5.5711679403352550e+00 1.1540386371861429e+00 1.8315654700253436e+01 0 1 0
3186 1 5.7156267369496501e+00 1.8991760940169044e+01 2.3457809566889210e+01 -1 0 1
5103 1 9.0914730874769436e+00 4.2223805803307846e+00 1.6088576144647355e+01 1 -1 0
1941 1 3.6621963043559531e+00 5.1263975844240548e+00 2.3354264872550775e+01 1 1 0
2057 1 1.1111626004464286e+01 4.2609800918162186e+00 1.7947848978505462e+01 2 1 0
1336 1 9.5975323855979351e+00 1.1875479614358744e+00 1.9652909572741592e+01 1 1 1
114 1 2.4471851019036830e+00 3.0267511957034010e+00 1.2923795407904709e+01 0 -1 0
1955 1 2.6926419374119894e+00 7.7809335192512936e+00 1.8308697362965056e+01 0 1 0
313 1 6.6694231761149751e+00 5.6864977783732904e+00 1.5844668108144898e+01 0 1 0
105 1 4.4850036232252597e+00 5.9039907542231589e+00 1.7803569333453421e+01 1 1 1
173 1 6.1462231449657843e+00 7.4749468913065744e+00 1.9701691324086390e+01 0 2 0
2327 1 7.3601518344257757e+00 8.2805009992518244e+00 1.7638403382540169e+01 0 -1 1
1651 1 1.1868030517675363e+01 6.8131190554758971e+00 1.8448951628200970e+01 -1 1 1
1547 1 1.1375921640629969e+01 2.1140423908524703e+01 2.0023575026970555e+01 1 0 1
6631 1 4.3432910568568897e+00 1.2188767282805285e+01 1.9397971729343602e+01 2 1 1
2206 1 5.3225913184856815e+00 1.0458946466179354e+01 1.7492891939401392e+01 0 0 0
30 1 1.0370776481038323e+01 1.0863562554121662e+01 1.8355779758313112e+01 1 1 0
1458 1 1.0087070854298592e+01 8.3286353470923178e+00 1.7283987665629432e+01 0 0 1
3635 1 1.7530645273052210e+00 2.8058574502265827e+00 2.3605306993310307e+01 3 1 0
4779 1 8.2353707639227203e+00 8.4941460923888599e+00 2.3460855402226471e+01 0 1 1
556 1 6.0027898315328754e+00 2.3984636910765641e+01 1.6720745785771566e+01 1 1 1
3073 1 3.1298489000166754e+00 1.5044720375093291e+01 2.0685877422555194e+01 -1 1 1
5085 1 5.4240097413090176e+00 1.5761639176242095e+01 1.5632205119070068e+01 1 0 1
1322 1 6.4102506047458920e+00 1.5484699551931941e+01 1.8355306089516699e+01 2 1 1
5062 1 8.9986108561959544e+00 1.2435900799341141e+01 1.6746874538628450e+01 1 1 0
5459 1 1.0164504909903176e+01 1.3794948368916645e+01 1.4918215190381206e+01 1 0 0
3237 1 3.7489808834313054e+00 1.7908715116888882e+01 1.6122279991516244e+01 0 0 0
3047 1 3.6903028427805440e+00 1.9681843993205966e+01 1.8183627586581743e+01 0 0 1
4786 1 6.4602741768639280e+00 1.9344991141192967e+01 1.4842118296766859e+01 0 0 1
3370 1 7.8742976032832699e+00 1.7629987563585349e+01 1.6996714346912118e+01 2 1 1
3690 1 6.5737021183105577e+00 1.9648666756542166e+01 1.8447835467776557e+01 1 0 0
4791 1 7.7968765998407790e+00 7.0274102747082470e+00 1.1686375111057972e+01 1 -2 1
3353 1 9.2759845574848239e+00 1.7227582343419641e+01 2.1214429108801994e+01 0 0 1
1333 1 1.0293251170401646e+01 1.7956542384897826e+01 1.8112304772450717e+01 -1 -1 1
1697 1 2.0915300960273218e+00 2.1343093655175942e+01 1.6817252723027732e+01 0 -1 1
4806 1 8.4246548548309808e-01 8.7875996896930602e+00 1.4686883980750682e+01 0 0 1
267 1 7.5599396126375735e+00 2.1832298433334778e+01 1.7300601625798762e+01 1 0 0
121 1 7.2679525744857729e+00 2.3321550740222911e+01 2.0298348549303977e+01 0 0 0
3540 1 1.0546663084081221e+01 2.3296791958216243e+01 1.7514961941974189e+01 1 -1 0
1332 1 5.4180629520361623e-01 2.0757581108105136e+01 2.0468727354921644e+01 1 0 0
2091 1 1.1518408007254585e+01 1.8730428718019962e+01 2.0961324615399789e+01 1 1 0
3742 1 6.8359085277436771e-01 1.2242730840314982e+01 1.6470411715958914e+01 2 0 0
3412 1 7.3382921581842755e+00 3.7301272039992273e+00 2.2476092887268447e+01 0 1 0
6738 1 9.7758592319906654e+00 3.4786427653635839e+00 2.1173277335125260e+01 0 1 0
4901 1 1.2377502315148115e+01 1.3332978623872394e+01 2.3697960954983063e+01 1 1 0
1371 1 7.3916495653680481e-01 1.5429321956606717e+01 1.4261015223228121e+01 -1 1 1
3761 1 5.0728059655868263e+00 9.5069411450077244e+00 2.1660697955200007e+01 1 -1 0
3245 1 2.1314116468368152e+00 1.8369067155578140e+01 2.0424783265498906e+01 0 1 1
3941 1 1.1011446517240362e+01 1.5631647323371061e+00 1.2102057287416148e+01 0 1 0
2302 1 1.1226085380253419e+01 1.0479517278738411e+01 1.1747043099474791e+01 1 0 1
171 1 5.4295567058119047e+00 5.1081815488627429e+00 2.1331083769961559e+01 0 0 0
5275 1 8.9637921940816678e+00 8.0208782094415838e+00 2.0754061699870562e+01 1 0 1
6705 1 6.2883297778112626e+00 1.4856687315005879e+00 2.3633697468863051e+01 0 0 1
481 1 1.1096731676584476e+01 6.0122922255063971e+00 2.0953703021140885e+01 0 -1 0
163 1 2.5539537822003986e+00 9.2681369403438829e+00 2.0450872983519186e+01 1 1 0
5215 1 1.7368543548532864e+00 1.2070037549088399e+01 2.0624113975454115e+01 0 1 1
4896 1 4.6826921794612737e+00 2.1898545439217862e+01 2.0189020047362472e+01 1 0 1
3146 1 2.3016393901018262e+00 2.3162334302722595e+01 2.0579463803360657e+01 0 2 1
6590 1 6.2972587334384098e+00 1.1709793683524930e+01 2.1273079488904489e+01 1 -1 0
1506 1 9.2618130137672754e+00 1.0769070855718155e+01 2.0996314942432782e+01 0 1 1
2027 1 1.1428300411055643e+01 1.0923762695260463e+01 2.2678881562430949e+01 0 0 0
5424 1 5.6008111739230664e+00 1.6634072377192137e+01 2.0462763229079783e+01 1 1 0
3281 1 9.6409015330545633e-01 1.5294702208323336e+01 1.8922577617670690e+01 1 1 0
3731 1 6.4006511725009059e+00 1.3193955005107679e+01 2.3649049480094558e+01 0 1 0
5690 1 7.9243876950326468e+00 1.3345000838147548e+01 1.9318313765154443e+01 0 0 1
2000 1 1.9427557817348609e+00 2.3821573704362262e+01 1.8270118761858420e+01 2 1 0
433 1 1.0149073410329247e+01 1.4314081239422645e+01 2.0972276412093944e+01 0 0 0
4740 1 2.4486263550143410e+00 2.2615775838844357e+01 2.3573758922028574e+01 0 0 1
4859 1 1.1704177267893220e+01 1.5529245572324816e+01 1.6858551605761964e+01 0 1 1
5597 1 1.2296359872108093e+01 1.5013716816551666e+01 1.9550064438284746e+01 0 -1 1
3340 1 1.0914223009627896e+01 2.6165773688782243e+00 2.3445471174339151e+01 2 0 1
5132 1 1.2207189874363321e+01 1.8732351440938508e+01 2.3615722387185318e+01 0 1 0
5365 1 5.0148659795941928e+00 2.1594700503415389e+01 2.2967138877844555e+01 1 0 0
6456 1 8.2191293278762767e-01 2.0684665106321866e+01 2.3678611496010504e+01 0 1 1
2105 1 9.9293418362845642e+00 2.4369887800652069e+01 1.4790747926035200e+01 2 0 0
5306 1 1.2030969380638036e+01 1.7443063296973651e+00 1.8604507272998049e+01 1 2 1
1347 1 7.0853190534589503e+00 2.3129785573316138e+01 2.3758414063031957e+01 1 -1 1
3428 1 5.6667774784116300e+00 1.6155354291756364e+01 2.3777623146931742e+01 1 0 1
5240 1 2.3118575995218280e+00 1.5671174933069354e+01 2.3704953239793468e+01 1 1 0
623 2 2.9359326010217046e-01 3.1002149002734316e+00 2.6751485244410777e+01 0 0 0
625 2 2.9359326010217046e-01 2.9239810487255369e-01 2.6751485244410777e+01 0 0 0
627 2 1.5094135970970979e+00 9.9435230372278161e-01 2.6751485244410777e+01 0 0 0
634 2 1.5094135970970979e+00 2.3982607014231734e+00 2.6751485244410777e+01 0 0 0
636 2 2.7252339340920253e+00 3.1002149002734316e+00 2.6751485244410777e+01 0 0 0
638 2 2.7252339340920253e+00 2.9239810487255369e-01 2.6751485244410777e+01 0 0 0
640 2 3.9410542710867049e+00 9.9435230372278161e-01 2.6751485244410777e+01 0 0 0
655 2 3.9410542710867049e+00 2.3982607014231734e+00 2.6751485244410777e+01 0 0 0
657 2 5.1568746080818801e+00 3.1002149002734316e+00 2.6751485244410777e+01 0 0 0
659 2 5.1568746080818801e+00 2.9239810487255369e-01 2.6751485244410777e+01 0 0 0
661 2 6.3726949450766757e+00 9.9435230372278161e-01 2.6751485244410777e+01 0 0 0
684 2 6.3726949450766757e+00 2.3982607014231734e+00 2.6751485244410777e+01 0 0 0
686 2 7.5885152820712394e+00 3.1002149002734316e+00 2.6751485244410777e+01 0 0 0
688 2 7.5885152820712394e+00 2.9239810487255369e-01 2.6751485244410777e+01 0 0 0
690 2 8.8043356190660891e+00 9.9435230372278161e-01 2.6751485244410777e+01 0 0 0
721 2 8.8043356190660891e+00 2.3982607014231734e+00 2.6751485244410777e+01 0 0 0
723 2 1.0020155956061590e+01 3.1002149002734316e+00 2.6751485244410777e+01 0 0 0
725 2 1.0020155956061590e+01 2.9239810487255369e-01 2.6751485244410777e+01 0 0 0
727 2 1.1235976293056028e+01 9.9435230372278161e-01 2.6751485244410777e+01 0 0 0
766 2 1.1235976293056028e+01 2.3982607014231734e+00 2.6751485244410777e+01 0 0 0
768 2 1.2451796630051181e+01 3.1002149002734316e+00 2.6751485244410777e+01 0 0 0
770 2 1.2451796630051181e+01 2.9239810487255369e-01 2.6751485244410777e+01 0 0 0
487 1 7.9597030666047086e+00 5.7754901387049173e+00 2.4244224350950393e+01 -1 0 1
628 2 2.9359326010217046e-01 7.3119400933745533e+00 2.6751485244410777e+01 0 0 0
630 2 2.9359326010217046e-01 4.5041232979737931e+00 2.6751485244410777e+01 0 0 0
632 2 1.5094135970970979e+00 5.2060774968239762e+00 2.6751485244410777e+01 0 0 0
647 2 1.5094135970970979e+00 6.6099858945246330e+00 2.6751485244410777e+01 0 0 0
649 2 2.7252339340920253e+00 7.3119400933745533e+00 2.6751485244410777e+01 0 0 0
651 2 2.7252339340920253e+00 4.5041232979737931e+00 2.6751485244410777e+01 0 0 0
653 2 3.9410542710867049e+00 5.2060774968239762e+00 2.6751485244410777e+01 0 0 0
676 2 3.9410542710867049e+00 6.6099858945246330e+00 2.6751485244410777e+01 0 0 0
678 2 5.1568746080818801e+00 7.3119400933745533e+00 2.6751485244410777e+01 0 0 0
680 2 5.1568746080818801e+00 4.5041232979737931e+00 2.6751485244410777e+01 0 0 0
682 2 6.3726949450766757e+00 5.2060774968239762e+00 2.6751485244410777e+01 0 0 0
713 2 6.3726949450766757e+00 6.6099858945246330e+00 2.6751485244410777e+01 0 0 0
715 2 7.5885152820712394e+00 7.3119400933745533e+00 2.6751485244410777e+01 0 0 0
717 2 7.5885152820712394e+00 4.5041232979737931e+00 2.6751485244410777e+01 0 0 0
172 1 9.4086904241257461e+00 2.1459822568886516e+01 2.4035071726766255e+01 0 0 0
719 2 8.8043356190660891e+00 5.2060774968239762e+00 2.6751485244410777e+01 0 0 0
758 2 8.8043356190660891e+00 6.6099858945246330e+00 2.6751485244410777e+01 0 0 0
760 2 1.0020155956061590e+01 7.3119400933745533e+00 2.6751485244410777e+01 0 0 0
762 2 1.0020155956061590e+01 4.5041232979737931e+00 2.6751485244410777e+01 0 0 0
764 2 1.1235976293056028e+01 5.2060774968239762e+00 2.6751485244410777e+01 0 0 0
805 2 1.1235976293056028e+01 6.6099858945246330e+00 2.6751485244410777e+01 0 0 0
807 2 1.2451796630051181e+01 7.3119400933745533e+00 2.6751485244410777e+01 0 0 0
809 2 1.2451796630051181e+01 4.5041232979737931e+00 2.6751485244410777e+01 0 0 0
641 2 2.9359326010217046e-01 1.1523665286476065e+01 2.6751485244410777e+01 0 0 0
643 2 2.9359326010217046e-01 8.7158484910750325e+00 2.6751485244410777e+01 0 0 0
645 2 1.5094135970970979e+00 9.4178026899252494e+00 2.6751485244410777e+01 0 0 0
668 2 1.5094135970970979e+00 1.0821711087625687e+01 2.6751485244410777e+01 0 0 0
670 2 2.7252339340920253e+00 1.1523665286476065e+01 2.6751485244410777e+01 0 0 0
672 2 2.7252339340920253e+00 8.7158484910750325e+00 2.6751485244410777e+01 0 0 0
674 2 3.9410542710867049e+00 9.4178026899252494e+00 2.6751485244410777e+01 0 0 0
705 2 3.9410542710867049e+00 1.0821711087625687e+01 2.6751485244410777e+01 0 0 0
707 2 5.1568746080818801e+00 1.1523665286476065e+01 2.6751485244410777e+01 0 0 0
709 2 5.1568746080818801e+00 8.7158484910750325e+00 2.6751485244410777e+01 0 0 0
711 2 6.3726949450766757e+00 9.4178026899252494e+00 2.6751485244410777e+01 0 0 0
750 2 6.3726949450766757e+00 1.0821711087625687e+01 2.6751485244410777e+01 0 0 0
752 2 7.5885152820712394e+00 1.1523665286476065e+01 2.6751485244410777e+01 0 0 0
754 2 7.5885152820712394e+00 8.7158484910750325e+00 2.6751485244410777e+01 0 0 0
756 2 8.8043356190660891e+00 9.4178026899252494e+00 2.6751485244410777e+01 0 0 0
797 2 8.8043356190660891e+00 1.0821711087625687e+01 2.6751485244410777e+01 0 0 0
799 2 1.0020155956061590e+01 1.1523665286476065e+01 2.6751485244410777e+01 0 0 0
801 2 1.0020155956061590e+01 8.7158484910750325e+00 2.6751485244410777e+01 0 0 0
803 2 1.1235976293056028e+01 9.4178026899252494e+00 2.6751485244410777e+01 0 0 0
844 2 1.1235976293056028e+01 1.0821711087625687e+01 2.6751485244410777e+01 0 0 0
846 2 1.2451796630051181e+01 1.1523665286476065e+01 2.6751485244410777e+01 0 0 0
848 2 1.2451796630051181e+01 8.7158484910750325e+00 2.6751485244410777e+01 0 0 0
5089 1 1.0872220214804374e+01 8.8976465431432707e+00 2.4353161016759120e+01 1 1 1
662 2 2.9359326010217046e-01 1.5735390479577244e+01 2.6751485244410777e+01 0 0 0
664 2 2.9359326010217046e-01 1.2927573684176712e+01 2.6751485244410777e+01 0 0 0
666 2 1.5094135970970979e+00 1.3629527883026885e+01 2.6751485244410777e+01 0 0 0
697 2 1.5094135970970979e+00 1.5033436280727322e+01 2.6751485244410777e+01 0 0 0
699 2 2.7252339340920253e+00 1.5735390479577244e+01 2.6751485244410777e+01 0 0 0
701 2 2.7252339340920253e+00 1.2927573684176712e+01 2.6751485244410777e+01 0 0 0
703 2 3.9410542710867049e+00 1.3629527883026885e+01 2.6751485244410777e+01 0 0 0
742 2 3.9410542710867049e+00 1.5033436280727322e+01 2.6751485244410777e+01 0 0 0
1437 1 7.2128580341906421e+00 1.9187274482013777e+01 3.5668533930755281e+01 1 1 0
744 2 5.1568746080818801e+00 1.5735390479577244e+01 2.6751485244410777e+01 0 0 0
746 2 5.1568746080818801e+00 1.2927573684176712e+01 2.6751485244410777e+01 0 0 0
748 2 6.3726949450766757e+00 1.3629527883026885e+01 2.6751485244410777e+01 0 0 0
789 2 6.3726949450766757e+00 1.5033436280727322e+01 2.6751485244410777e+01 0 0 0
791 2 7.5885152820712394e+00 1.5735390479577244e+01 2.6751485244410777e+01 0 0 0
793 2 7.5885152820712394e+00 1.2927573684176712e+01 2.6751485244410777e+01 0 0 0
795 2 8.8043356190660891e+00 1.3629527883026885e+01 2.6751485244410777e+01 0 0 0
836 2 8.8043356190660891e+00 1.5033436280727322e+01 2.6751485244410777e+01 0 0 0
838 2 1.0020155956061590e+01 1.5735390479577244e+01 2.6751485244410777e+01 0 0 0
840 2 1.0020155956061590e+01 1.2927573684176712e+01 2.6751485244410777e+01 0 0 0
842 2 1.1235976293056028e+01 1.3629527883026885e+01 2.6751485244410777e+01 0 0 0
878 2 1.1235976293056028e+01 1.5033436280727322e+01 2.6751485244410777e+01 0 0 0
880 2 1.2451796630051181e+01 1.5735390479577244e+01 2.6751485244410777e+01 0 0 0
882 2 1.2451796630051181e+01 1.2927573684176712e+01 2.6751485244410777e+01 0 0 0
1092 2 8.8043356190660891e+00 2.3456886666929435e+01 3.3310514755590560e+01 0 0 0
691 2 2.9359326010217046e-01 1.9947115672678244e+01 2.6751485244410777e+01 0 0 0
693 2 2.9359326010217046e-01 1.7139298877277511e+01 2.6751485244410777e+01 0 0 0
695 2 1.5094135970970979e+00 1.7841253076127579e+01 2.6751485244410777e+01 0 0 0
734 2 1.5094135970970979e+00 1.9245161473828375e+01 2.6751485244410777e+01 0 0 0
736 2 2.7252339340920253e+00 1.9947115672678244e+01 2.6751485244410777e+01 0 0 0
738 2 2.7252339340920253e+00 1.7139298877277511e+01 2.6751485244410777e+01 0 0 0
740 2 3.9410542710867049e+00 1.7841253076127579e+01 2.6751485244410777e+01 0 0 0
781 2 3.9410542710867049e+00 1.9245161473828375e+01 2.6751485244410777e+01 0 0 0
75 1 3.9393274655360493e+00 3.5207460910194452e+00 3.5938962682010654e+01 -1 -1 -1
3970 1 9.6722059564766365e+00 1.9410476197088045e+01 3.6078311385780275e+01 0 0 0
2039 1 1.0651818414292967e+01 5.2750449686058083e+00 2.4246478548392407e+01 0 2 0
783 2 5.1568746080818801e+00 1.9947115672678244e+01 2.6751485244410777e+01 0 0 0
785 2 5.1568746080818801e+00 1.7139298877277511e+01 2.6751485244410777e+01 0 0 0
787 2 6.3726949450766757e+00 1.7841253076127579e+01 2.6751485244410777e+01 0 0 0
828 2 6.3726949450766757e+00 1.9245161473828375e+01 2.6751485244410777e+01 0 0 0
830 2 7.5885152820712394e+00 1.9947115672678244e+01 2.6751485244410777e+01 0 0 0
832 2 7.5885152820712394e+00 1.7139298877277511e+01 2.6751485244410777e+01 0 0 0
834 2 8.8043356190660891e+00 1.7841253076127579e+01 2.6751485244410777e+01 0 0 0
870 2 8.8043356190660891e+00 1.9245161473828375e+01 2.6751485244410777e+01 0 0 0
872 2 1.0020155956061590e+01 1.9947115672678244e+01 2.6751485244410777e+01 0 0 0
874 2 1.0020155956061590e+01 1.7139298877277511e+01 2.6751485244410777e+01 0 0 0
876 2 1.1235976293056028e+01 1.7841253076127579e+01 2.6751485244410777e+01 0 0 0
904 2 1.1235976293056028e+01 1.9245161473828375e+01 2.6751485244410777e+01 0 0 0
908 2 1.2451796630051181e+01 1.7139298877277511e+01 2.6751485244410777e+01 0 0 0
728 2 2.9359326010217046e-01 2.4158840865779879e+01 2.6751485244410777e+01 0 0 0
730 2 2.9359326010217046e-01 2.1351024070378820e+01 2.6751485244410777e+01 0 0 0
732 2 1.5094135970970979e+00 2.2052978269229477e+01 2.6751485244410777e+01 0 0 0
773 2 1.5094135970970979e+00 2.3456886666929435e+01 2.6751485244410777e+01 0 0 0
775 2 2.7252339340920253e+00 2.4158840865779879e+01 2.6751485244410777e+01 0 0 0
777 2 2.7252339340920253e+00 2.1351024070378820e+01 2.6751485244410777e+01 0 0 0