
# Create simulation box and atoms

read_data data.graphite_substrate_1000
  orthogonal box = (0 0 -1.03859) to (49.22 49.0196 61.1006)
  4 by 2 by 5 MPI processor grid
  reading atoms ...
  6768 atoms
  reading velocities ...
  6768 velocities
group water type 1
4008 atoms in group water
group graphite type 2
2760 atoms in group graphite

# Define potential

pair_style sw
pair_coeff * * mWC.sw mW C
Reading potential file mWC.sw with DATE: 2019-02-27


# Fix graphite atoms in place

fix 5 graphite setforce 0.0 0.0 0.0
velocity graphite set 0.0 0.0 0.0


# Equilibration of molecular water

# Add velocity/set timestep

velocity	    water create ${TEMP} ${SEED} rot yes dist gaussian
velocity	    water create 225 ${SEED} rot yes dist gaussian
velocity	    water create 225 28306 rot yes dist gaussian
timestep	    5.0

# Define output

compute			1 water msd
compute			3 water temp
thermo	    	50
thermo_style	custom step temp press vol etotal ke pe c_1[4] c_3

# Neighbor lists

neigh_modify    delay 0 every 1 check yes

# Set fixes

fix             1 water momentum 10 linear 1 1 1 rescale
fix             2 water nve
fix             3 water temp/csvr ${TEMP} ${TEMP} 500.0 ${SEED}
fix             3 water temp/csvr 225 ${TEMP} 500.0 ${SEED}
fix             3 water temp/csvr 225 225 500.0 ${SEED}
fix             3 water temp/csvr 225 225 500.0 28306
fix             4 water press/berendsen iso ${PRES} ${PRES} 1000.0 modulus 20000
fix             4 water press/berendsen iso -1000 ${PRES} 1000.0 modulus 20000
fix             4 water press/berendsen iso -1000 -1000 1000.0 modulus 20000

# Run 0.5 ns equilibration

dump		    1 all atom 2000 ${DIR}/eq.${NAME}-${TEMP}.dump
dump		    1 all atom 2000 run_5/eq.${NAME}-${TEMP}.dump
dump		    1 all atom 2000 run_5/eq.het_freeze_5-${TEMP}.dump
dump		    1 all atom 2000 run_5/eq.het_freeze_5-225.dump

reset_timestep  0

run	            100000
Neighbor list info ...
  update every 1 steps, delay 0 steps, check yes
  max neighbors/atom: 2000, page size: 100000
  master list distance cutoff = 7.76
  ghost atom cutoff = 7.76
  binsize = 3.88, bins = 13 13 17
  1 neighbor lists, perpetual/occasional/extra = 1 0 0
  (1) pair sw, perpetual
      attributes: full, newton on
      pair build: full/bin/atomonly
      stencil: full/bin/3d
      bin: standard
Per MPI rank memory allocation (min/avg/max) = 4.107 | 4.219 | 4.543 Mbytes
Step Temp Press Volume TotEng KinEng PotEng c_1[4] c_3 
       0    133.23112   -1309.3276    149926.08   -35971.017    2687.4238   -38658.441            0          225 
      50    174.17793   -1508.3159    148710.94   -36445.916    3513.3677   -39959.283   0.88527396    294.15075 
     100    165.21682   -1420.2598    147854.33   -36847.703    3332.6118   -40180.314    2.0060093    279.01727 
     150    165.35118   -1390.8242    147303.75   -37120.861    3335.3221   -40456.183    2.8915747    279.24418 
     200    157.90992    -1377.138    146609.45   -37362.255    3185.2233   -40547.478    3.7215774    266.67742 
     250    156.20784   -1028.0448    145853.65   -37640.447    3150.8905   -40791.338    4.5230434    263.80296 
     300    150.85625   -1091.9983    145534.17   -37866.484    3042.9428   -40909.427    5.2752385    254.76522 
     350    151.01073   -1152.8023    145200.35   -38069.876    3046.0589   -41115.935    5.9149261    255.02611 
     400    149.83615   -1242.2552    144857.76   -38237.058    3022.3662   -41259.425    6.4830937    253.04248 
     450    147.70557   -1138.5039     144481.5   -38377.848      2979.39   -41357.238     7.127962    249.44438 
     500    145.20984   -994.72117    144566.23   -38486.867    2929.0482   -41415.915     7.685497    245.22959 
     550    144.60835   -973.64018    144569.88   -38588.901    2916.9154   -41505.816    8.1499314    244.21379 
     600    142.08302   -1082.8889    144622.98   -38723.513    2865.9768    -41589.49    8.5114815    239.94904 
     650    143.62055   -1100.2972    144586.71   -38795.647    2896.9904   -41692.637     8.964091     242.5456 
     700    139.77739    -1161.743    144318.99   -38871.968    2819.4696   -41691.438    9.4268319    236.05531 
     750    138.58932   -1103.0297     144194.1    -39006.98    2795.5048   -41802.485    9.8220477    234.04889 
     800    137.45598   -935.75765    143980.69   -39070.937    2772.6441   -41843.581    10.192315    232.13492 
     850    138.29728   -1119.5758    143927.16     -39049.5     2789.614   -41839.114    10.586176     233.5557 
     900    139.05683    -951.0657    143769.64   -39101.414     2804.935   -41906.349    10.930268    234.83843 
     950    139.80273   -833.81267    143912.85   -39071.297    2819.9807   -41891.278    11.027942     236.0981 
    1000    138.65231    -922.5302     143873.9   -39101.265    2796.7753    -41898.04    11.327943    234.15527 
    1050    137.70348   -928.52564    143842.92   -39125.931    2777.6364   -41903.567    11.688163    232.55289 
    1100    139.39404   -1260.6052    143776.23   -39229.927     2811.737   -42041.664    12.043387    235.40791 
    1150    137.62682   -941.46211    143646.95   -39211.318    2776.0902   -41987.408    12.540887    232.42344 
    1200    138.32531   -1056.2496    143689.93   -39210.186    2790.1794   -42000.366     12.88119    233.60303 
    1250    135.92666   -999.46138    143704.26   -39263.038     2741.796   -42004.834    13.067997    229.55222 
    1300    135.44972    -1058.475    143720.95   -39280.063    2732.1756   -42012.238    13.248983    228.74676 
    1350    134.64047   -980.66618    143630.36   -39305.512     2715.852   -42021.364    13.557683     227.3801 
    1400    136.97585   -910.41576    143789.13   -39303.583    2762.9592   -42066.542    13.762333    231.32407 
    1450    136.30024   -826.95066    143831.63   -39341.589    2749.3315   -42090.921    14.077032    230.18312 
    1500    134.21362   -1032.1541    144042.71   -39370.061    2707.2419   -42077.303    14.311149    226.65923 
    1550    133.15648   -989.24419    143883.64   -39423.501    2685.9183   -42109.419    14.762714    224.87395 
    1600    134.02499   -1138.7337    143939.15   -39460.654     2703.437   -42164.091    15.068854    226.34068 
    1650      132.384   -1076.0685    143814.46   -39469.645    2670.3364   -42139.981    15.238364    223.56939 
    1700    135.54795   -1040.1039     143833.1   -39509.865    2734.1568   -42244.022    15.433434    228.91264 
    1750    132.02823   -936.62187     143864.6   -39499.035    2663.1602   -42162.195    15.807307    222.96857 
    1800    134.99551   -947.42815    143759.47   -39423.077    2723.0136    -42146.09    16.114704    227.97969 
    1850    134.87645   -882.55699    143920.72   -39402.077    2720.6119   -42122.688    16.483587    227.77861 
    1900    134.26359   -1115.9719    143998.77   -39401.342    2708.2498   -42109.591    16.744766    226.74362 
    1950    135.03617   -942.87552    143973.21   -39462.599    2723.8337   -42186.433    17.080058    228.04836 
    2000    136.20866   -1097.0661    144009.83   -39460.928    2747.4841   -42208.412    17.170921    230.02845 
    2050    134.57322   -915.34167    144111.52   -39492.023    2714.4954   -42206.519    17.544938    227.26652 
    2100    133.10858   -945.19346    144219.42   -39450.617    2684.9519   -42135.569    17.716806    224.79305 
    2150    135.29508   -1023.9288    144280.83   -39439.075    2729.0563   -42168.131    17.957865    228.48561 
    2200     135.9361   -913.63331    144303.35   -39461.283    2741.9863   -42203.269    18.211342    229.56815 
    2250    136.05871   -1011.0781    144486.86   -39463.372    2744.4596   -42207.832     18.45763    229.77522 
    2300    135.40018   -999.62766     144529.1   -39479.845    2731.1761   -42211.021    18.742357    228.66309 
    2350    137.05149   -894.82635    144551.36   -39441.505     2764.485    -42205.99    18.990381    231.45182 
    2400    136.64985   -938.00752    144540.43   -39483.457    2756.3834    -42239.84    19.268883    230.77353 
    2450    135.01011   -1191.9994     144493.2   -39455.106     2723.308   -42178.414     19.50431    228.00434 
    2500     137.1483   -888.37943     144500.4   -39405.862    2766.4378   -42172.299    19.688432    231.61531 
    2550     138.7892   -1046.3033    144716.74   -39440.496    2799.5366   -42240.033     20.10465    234.38646 
    2600    137.26532   -984.04839    144937.27   -39445.762    2768.7982   -42214.561    20.472048    231.81293 
    2650    135.88488    -961.9549     145074.6   -39445.664    2740.9532   -42186.617    20.682945    229.48165 
    2700    136.89122   -1021.2603    144974.51   -39465.785    2761.2522   -42227.038    21.007879    231.18115 
    2750    136.27466   -1059.2029    144999.53   -39481.857    2748.8155   -42230.672    21.273301    230.13991 
    2800    136.01487   -957.71365    145094.34   -39471.217    2743.5752   -42214.792    21.367651    229.70118 
    2850    136.36347   -1142.0909    144911.69   -39501.122    2750.6069   -42251.729    21.498288     230.2899 
    2900    138.56101   -1039.0576    144885.95   -39478.493    2794.9338   -42273.427    21.784183    234.00109 
    2950    135.75967   -1051.1705    144891.12   -39490.898    2738.4275   -42229.326    22.108359    229.27019 
    3000    135.13003   -987.28479    144750.18    -39528.94     2725.727   -42254.667    22.400725    228.20687 
    3050      137.995    -1056.963    144673.83   -39586.418    2783.5167   -42369.935    22.725784    233.04521 
    3100    135.50764   -1043.4662    144622.35   -39625.853    2733.3437   -42359.196     22.98253    228.84457 
    3150    132.44237    -977.5041    144634.88   -39663.865    2671.5138   -42335.379    23.245652    223.66796 
    3200    134.85339   -959.85608    144614.78   -39661.226    2720.1468   -42381.372    23.536597    227.73968 
    3250     136.7936   -912.04926    144832.02   -39665.418    2759.2831   -42424.701    23.720703     231.0163 
    3300     131.2277   -1041.6573    144988.67   -39671.435    2647.0125   -42318.448    23.928485    221.61663 
    3350    133.73726   -928.64831    144901.04   -39702.075    2697.6331   -42399.708    24.256039    225.85476 
    3400     133.9319   -929.29875    144982.04   -39680.492    2701.5594   -42382.052    24.351346    226.18348 
    3450    136.63251   -1210.3866     145003.8   -39695.758    2756.0337   -42451.792    24.563017    230.74425 
    3500    133.70613   -977.42078    144853.76   -39681.718    2697.0054   -42378.724    24.737609     225.8022 
    3550    133.97353   -901.48089    144892.97   -39610.921     2702.399    -42313.32    24.869551    226.25377 
    3600    135.34525   -937.01672    145026.91   -39655.674    2730.0683   -42385.742    25.024167    228.57033 
    3650    137.33206   -1069.5126    144914.88   -39677.601    2770.1445   -42447.746    25.143921    231.92565 
    3700    130.76303   -1076.7232    144806.16   -39744.183    2637.6396   -42381.822    25.382502     220.8319 
    3750    132.60972   -999.75698     144708.4    -39764.38    2674.8893   -42439.269    25.561939    223.95057 
    3800    133.71784   -1067.8008    144727.29   -39705.941    2697.2414   -42403.182    25.784461    225.82196 
    3850    134.01187   -1011.1701    144738.85   -39721.054    2703.1724   -42424.226     25.98509    226.31852 
    3900    133.42579   -1035.0419    144734.22   -39717.692    2691.3505   -42409.042    26.178181    225.32876 
    3950    133.70723   -1140.9909    144699.21   -39724.074    2697.0276   -42421.102    26.384044    225.80406 
    4000    135.20264   -1026.5742    144671.18   -39753.318    2727.1916   -42480.509    26.483488    228.32949 
    4050    133.21217   -997.40602    144537.28   -39756.725    2687.0415   -42443.766    26.647018    224.96799 
    4100    134.48717    -1096.408    144551.82    -39711.32    2712.7597    -42424.08    26.850711    227.12121 
    4150    134.86732    -977.0051    144466.75   -39700.221    2720.4277   -42420.648    27.257053     227.7632 
    4200    136.56396   -1102.1856    144396.38   -39736.212    2754.6511   -42490.863    27.554617    230.62849 
    4250    132.53515    -1056.345    144328.64   -39804.336    2673.3854   -42477.722    27.659964    223.82466 
    4300    134.85143   -968.95094    144503.74   -39810.975    2720.1073   -42531.083    27.711934    227.73637 
    4350    133.59686   -873.85122    144629.73   -39786.546    2694.8011   -42481.347    27.809435    225.61765 
    4400    133.41547   -974.39614    144649.86   -39806.085    2691.1423   -42497.227     27.94723    225.31132 
    4450    133.50111   -1109.3931    144667.74   -39785.503    2692.8698   -42478.372    28.146948    225.45595 
    4500    134.89916   -814.34067    144695.86    -39766.24      2721.07    -42487.31    28.277959    227.81697 
    4550    134.69924   -1039.6633    144836.64   -39739.889    2717.0375   -42456.927    28.379846    227.47935 
    4600    134.66617   -1037.4701    144748.25   -39723.693    2716.3703   -42440.064    28.510765     227.4235 
    4650      132.099   -1184.0981    144605.39   -39754.824    2664.5877   -42419.412    28.716064    223.08808 
    4700    133.65083   -920.28321    144488.81   -39765.659    2695.8898   -42461.548    28.778602     225.7088 
    4750    134.89075   -831.56442    144591.52   -39730.936    2720.9004   -42451.836    29.025581    227.80277 
    4800     130.1885   -902.48449     144613.3   -39738.789    2626.0506   -42364.839    29.194212    219.86163 
    4850    130.61109   -1129.5817    144676.19   -39767.804    2634.5748   -42402.379    29.474643    220.57531 
    4900    131.42766    -983.0823    144630.52   -39782.355     2651.046   -42433.401    29.586247    221.95433 
    4950    132.18853   -779.88353    144587.89   -39792.629    2666.3935   -42459.022    29.738884    223.23927 
    5000    132.67971   -1050.7381    144691.76   -39791.244    2676.3012   -42467.546    29.968366    224.06878 
    5050    132.24249   -995.63735    144650.94   -39770.866    2667.4821   -42438.348    30.102066    223.33041 
    5100    132.14007   -1101.9184    144595.32   -39768.533    2665.4161   -42433.949    30.181693    223.15744 
    5150    130.74175   -1040.7042    144466.79   -39796.627    2637.2104   -42433.837    30.349224    220.79596 
    5200    134.05699   -822.57454    144459.83   -39776.424    2704.0825   -42480.507    30.372045    226.39472 
    5250    134.08552   -1072.6448    144452.98   -39786.301     2704.658   -42490.959     30.26248    226.44291 
    5300    134.43237   -970.28053    144606.45   -39753.387    2711.6544   -42465.041    30.288772    227.02867 
    5350    133.53588   -773.80165    144664.72   -39769.481    2693.5712   -42463.052    30.464589    225.51468 
    5400     133.0321   -839.10785    144863.51   -39722.617    2683.4092   -42406.026    30.460924    224.66389 
    5450    133.36168   -986.11718    144971.23   -39723.384    2690.0573   -42413.441    30.664432    225.22048 
    5500    133.35211   -1171.7343    144835.45   -39727.553    2689.8643   -42417.417     30.84097    225.20432 
    5550    135.08639   -1067.5152    144748.51   -39691.295    2724.8467   -42416.142    31.046472    228.13317 
    5600    134.02299      -1031.2    144692.36   -39735.775    2703.3966   -42439.172    31.252947    226.33729 
    5650    131.23394   -1066.6119    144533.16   -39827.751    2647.1384    -42474.89    31.425486    221.62717 
    5700    130.25322   -979.76341    144476.77   -39786.565    2627.3562   -42413.921    31.694114    219.97094 
    5750    132.74419   -1069.8773    144408.47   -39778.152    2677.6018   -42455.754    31.967376    224.17767 
    5800    130.83522    -763.3778    144557.68   -39767.593    2639.0957   -42406.689    32.103401    220.95381 
    5850    132.10458    -1144.177    144683.83   -39837.634    2664.7002   -42502.334    32.195667     223.0975 
    5900    131.14243   -796.92402    144675.18   -39833.164    2645.2926   -42478.457    32.235412    221.47263 
    5950    131.44784   -1018.3127    144732.83   -39843.746    2651.4529   -42495.199    32.573463     221.9884 
    6000    131.07678   -975.69412    144752.78   -39812.286    2643.9682   -42456.254    32.609396    221.36176 
    6050    130.82182   -1076.0496    144595.51   -39789.016    2638.8255   -42427.842    32.774595    220.93119 
    6100    134.06389     -1063.17    144508.12   -39798.223    2704.2217   -42502.445    32.795293    226.40637 
    6150    134.75773   -887.67558    144669.99   -39749.499    2718.2172   -42467.716    32.684644    227.57813 
    6200     134.3198   -1010.2112    144780.17   -39739.227    2709.3837   -42448.611    32.829412    226.83855 
    6250    135.63059   -986.62077    144661.62   -39686.563    2735.8239   -42422.387     33.04075    229.05221 
    6300    135.70219   -984.05476       144818   -39638.034    2737.2682   -42375.302    33.117729    229.17313 
    6350    133.94699   -1025.5483    144887.26    -39660.28    2701.8637   -42362.144    33.321861    226.20896 
    6400    134.48905   -1094.4321    144825.73   -39680.485    2712.7976   -42393.283    33.546769    227.12438 
    6450    134.77994   -889.42189    144648.78   -39691.835    2718.6652   -42410.501    33.797332    227.61563 
    6500    138.35294   -989.97717    144645.13   -39656.368    2790.7367   -42447.105    34.021051     233.6497 
    6550    133.44056   -1043.5919       144552   -39738.769    2691.6483   -42430.418    34.067055    225.35369 
    6600    131.13137   -1000.3123    144372.12   -39779.398    2645.0695   -42424.468    34.242784    221.45396 
    6650    134.74125   -935.34674    144288.51   -39742.001    2717.8849   -42459.886    34.371528     227.5503 
    6700    133.78821   -1052.9305    144417.79   -39737.533     2698.661   -42436.194    34.559525    225.94082 
    6750     129.7969   -961.63904    144262.87   -39777.061    2618.1517   -42395.212    34.860207    219.20031 
    6800    135.94573   -1083.9696    144391.68   -39794.891    2742.1805   -42537.071    34.999335    229.58441 
    6850    132.71121   -897.51832    144399.58   -39790.975    2676.9366   -42467.911    35.170472    224.12198 
    6900    135.17533   -1052.4361    144601.13   -39781.389    2726.6408    -42508.03    35.305885    228.28337 
    6950    133.44997   -979.56759    144619.37   -39749.966    2691.8383   -42441.805    35.522318    225.36959 
    7000     133.0048     -880.512    144524.04   -39760.393    2682.8586   -42443.251    35.613227    224.61779 
    7050    131.61039   -1016.7405    144616.51   -39756.174    2654.7318   -42410.906    35.741891    222.26292 
    7100    134.46967   -888.24223    144668.16   -39732.226    2712.4067   -42444.632    35.816666    227.09165 
    7150    133.47059   -927.05063     144760.4   -39752.239    2692.2541   -42444.493    35.901976    225.40441 
    7200    131.51461   -970.33188    144770.86   -39736.638    2652.7999   -42389.438     35.89784    222.10117 
    7250    134.61054    -1017.219    144797.82   -39700.668    2715.2483   -42415.916    36.053763    227.32956 
    7300     135.9347   -911.59982    144819.79   -39705.525     2741.958   -42447.483    36.306112    229.56578 
    7350    135.52899   -1115.1989    144680.32   -39692.664    2733.7744   -42426.438     36.42477    228.88062 
    7400    133.73788   -993.30437    144667.15   -39654.144    2697.6457   -42351.789    36.642557    225.85581 
    7450    132.41729   -905.88224    144690.94   -39719.879    2671.0079   -42390.887     36.95217     223.6256 
    7500    133.28453   -1013.6656    144757.81   -39709.739    2688.5011    -42398.24    37.220474    225.09019 
    7550    134.50802   -1004.5044    144664.87   -39723.624    2713.1804   -42436.804    37.395446    227.15643 
    7600    132.89142   -1125.6904    144568.62   -39741.869    2680.5716    -42422.44    37.626823    224.42631 
    7650    131.89808   -915.07263    144652.41   -39726.699    2660.5349   -42387.234    37.831641    222.74877 
    7700    133.45792   -1223.3283    144594.34   -39712.484    2691.9986   -42404.482    37.901764    225.38302 
    7750    134.22186   -910.21296    144494.11    -39691.79    2707.4081   -42399.198    38.095588    226.67315 
    7800    136.60879   -1040.2544    144475.14    -39662.37    2755.5552   -42417.926    38.147593    230.70418 
    7850    136.08696   -1182.7456    144343.89   -39708.851    2745.0294   -42453.881    38.439439    229.82293 
    7900    133.62296   -1137.0454    144240.81   -39760.964    2695.3276   -42456.292    38.777758    225.66173 
    7950    131.95892   -883.14952    144316.41   -39792.163     2661.762   -42453.925    38.932514    222.85151 
    8000    133.93909   -926.96363    144369.78   -39766.139    2701.7044   -42467.844    39.219276    226.19561 
    8050    131.98244   -1028.8727     144463.4   -39741.764    2662.2365   -42404.001    39.409779    222.89124 
    8100    134.85147    -904.0535    144491.06   -39746.689    2720.1081   -42466.797    39.586276    227.73644 
    8150     134.0215   -968.88164    144718.94   -39801.652    2703.3667   -42505.019    39.788336    226.33479 
    8200    131.91416   -1214.4201    144692.44   -39805.872    2660.8592   -42466.731    39.958638    222.77592 
    8250    132.71846   -1008.2825    144474.25   -39797.461    2677.0828   -42474.543    40.329129    224.13422 
    8300    133.46368   -1012.5119    144536.79   -39737.755    2692.1149    -42429.87     40.32949    225.39275 
    8350    136.87423   -974.93987     144673.3   -39706.794    2760.9095   -42467.704    40.361542    231.15246 
    8400    133.74789   -898.30545    144807.29   -39732.593    2697.8476    -42430.44      40.4858    225.87271 
    8450    135.40158   -999.87063    144813.02   -39697.766    2731.2045    -42428.97    40.738803    228.66546 
    8500    132.79873   -920.39807    144984.78   -39672.287     2678.702   -42350.989    40.959398    224.26978 
    8550    138.35153   -957.06615    145026.26   -39683.327    2790.7084   -42474.035    41.079145    233.64732 
    8600    137.58128   -913.25309    145126.28   -39632.582    2775.1714   -42407.754    41.374815    232.34652 
    8650    132.34506   -899.48047    145251.16   -39691.864     2669.551   -42361.415    41.503132    223.50363 
    8700    134.71258   -1094.0411     145279.4   -39705.475    2717.3065   -42422.781    41.660191    227.50187 
    8750    134.44694   -1023.0583    145139.71   -39754.918    2711.9483   -42466.866    41.740143    227.05327 
    8800    134.68585   -972.10605    145255.08   -39777.081    2716.7673   -42493.848     41.93546    227.45673 
    8850    137.09715   -913.00553     145198.1   -39767.717     2765.406   -42533.123     42.05717    231.52892 
    8900    135.11799   -1057.3851    145241.95   -39752.265    2725.4842   -42477.749    42.255232    228.18654 
    8950    135.27948   -1225.5069    145026.78   -39754.605    2728.7416   -42483.347    42.366451    228.45926 
    9000    132.42586   -1080.6373     144866.1   -39781.536    2671.1807   -42452.716    42.505326    223.64007 
    9050      134.007     -955.971     144778.4   -39825.494    2703.0742   -42528.569    42.720653     226.3103 
    9100    130.28746   -1215.2255    144843.52   -39858.916    2628.0468   -42486.963    42.852145    220.02876 
    9150    132.94808   -984.02966    144657.82    -39896.87    2681.7146   -42578.585    42.990021    224.52201 
    9200    132.40701   -1054.9831    144545.75    -39886.83    2670.8006   -42557.631    43.167014    223.60825 
    9250     131.1347   -883.16913    144566.94    -39868.71    2645.1365   -42513.846    43.456684    221.45957 
    9300    133.18336   -1143.6446    144722.16   -39851.298    2686.4605   -42537.759    43.511221    224.91934 
    9350    136.80064   -1112.8375    144742.62   -39834.034    2759.4251   -42593.459    43.599159    231.02819 
    9400    133.71026   -1022.1633    144756.72   -39828.781    2697.0886    -42525.87    43.880975    225.80917 
    9450    132.16592   -961.36228    144917.27   -39882.319    2665.9376   -42548.256    44.083915     223.2011 
    9500    132.65123   -939.32557    145037.45   -39912.371    2675.7267   -42588.098    43.988227    224.02068 
    9550    134.29321   -955.78421    145075.55   -39932.489    2708.8473   -42641.336    44.092794    226.79364 
    9600    133.15286   -1048.0474    144949.99   -39914.143    2685.8452   -42599.989    44.336947    224.86783 
    9650    132.31021   -962.89924    144980.34   -39930.053    2668.8479   -42598.901    44.500729    223.44476 
    9700     134.0443   -1049.6759    145113.57   -39915.767    2703.8266   -42619.594    44.844872     226.3733 
    9750    131.11626   -1084.6021    145086.65   -39948.472    2644.7647   -42593.236    45.123488    221.42844 
    9800    131.16524    -920.8595    145053.42   -39958.421    2645.7526   -42604.174    45.190531    221.51115 
    9850    133.47737   -996.54374    145103.58   -39965.976    2692.3909   -42658.367    45.432317    225.41586 
    9900    129.53788   -1102.7784    145100.06   -39993.244    2612.9269   -42606.171    45.765227    218.76287 
    9950    130.16668    -960.4199    144970.51   -40047.957    2625.6106   -42673.568    46.078601     219.8248 
   10000    132.85107   -988.97933    145069.82   -39967.259    2679.7577   -42647.016    46.172441    224.35817 
   10050    132.18942   -861.39933    145174.29   -39935.399    2666.4116    -42601.81    46.314316    223.24079 
   10100    133.08738   -991.32586    145265.45   -39939.615    2684.5244   -42624.139    46.587008    224.75725 
   10150    133.89806   -1068.8065     145277.1   -39879.889    2700.8768   -42580.766    46.781529    226.12632 
   10200    135.03493   -953.56512    145333.74   -39810.383    2723.8087   -42534.192    46.982955    228.04626 
   10250    135.76031   -1089.7243    145258.25    -39813.36    2738.4404   -42551.801    47.082161    229.27128 
   10300    135.86662   -1021.6305    145213.66    -39857.48    2740.5849   -42598.065    47.193543    229.45082 
   10350    133.29204   -1087.9869    145147.49   -39796.644    2688.6526   -42485.296    47.181997    225.10288 
   10400    133.54528   -967.57251    145122.99   -39768.928    2693.7608   -42462.689    47.199049    225.53056 
   10450     136.1399   -1181.0494    145111.42   -39763.108    2746.0973   -42509.206    47.245586    229.91234 
   10500    134.48737   -1013.3475    144986.92   -39744.841    2712.7638   -42457.605    47.301618    227.12155 
   10550    133.56994   -1125.2505    144826.86   -39795.344    2694.2581   -42489.602     47.46401    225.57219 
   10600    134.09037   -988.30462    144898.39   -39758.848    2704.7558   -42463.604    47.488916    226.45109 
   10650    135.61989   -918.86793    144981.79   -39735.292     2735.608     -42470.9    47.692715    229.03414 
   10700    136.98178   -962.95458    145066.84   -39714.967    2763.0789   -42478.046    47.942209    231.33409 
   10750    136.05467   -1043.6139    145025.98   -39745.026     2744.378   -42489.404    48.083119     229.7684 
   10800    133.22644    -1183.024    144854.95   -39799.879    2687.3294   -42487.209    48.351276    224.99209 
   10850    134.17661   -1053.0728    144713.19   -39843.354    2706.4955   -42549.849    48.599323    226.59674 
   10900    132.53891   -1003.8021    144756.74   -39856.379    2673.4611    -42529.84    48.692528    223.83099 
   10950    134.26598   -915.09554    144738.81   -39809.646    2708.2981   -42517.944    48.813752    226.74767 
   11000    132.98401   -1106.1738    144827.11   -39801.606    2682.4392   -42484.046    49.081784    224.58267 
   11050    133.09691   -759.34041    144801.89   -39793.597    2684.7167   -42478.314    49.385312    224.77335 
   11100    132.67998   -1047.1638    144779.69   -39814.597    2676.3067   -42490.903    49.594346    224.06924 
   11150    135.28463    -960.0982    144777.97    -39801.21    2728.8454   -42530.055    49.757529    228.46795 
   11200    135.78048   -912.88234    144730.91   -39804.732    2738.8474   -42543.579    50.018261    229.30535 
   11250    133.39765   -1151.9916    144793.22   -39820.243    2690.7829   -42511.026    50.127566    225.28123 
   11300    132.54528   -1036.5044    144669.44   -39846.452    2673.5896   -42520.041    50.163754    223.84176 
   11350    135.05489   -1088.4878    144679.43   -39865.792    2724.2113   -42590.004    50.121123    228.07997 
   11400    132.88847   -997.59399    144753.45   -39879.091    2680.5121   -42559.603    50.074652    224.42133 
   11450     134.3589    -1057.972    144808.35   -39859.092    2710.1724   -42569.265    50.236913    226.90459 
   11500    134.04704   -857.09538    144780.71    -39805.46    2703.8817   -42509.342    50.442081    226.37791 
   11550    134.71588   -1036.9296    144865.41   -39792.742    2717.3731   -42510.115    50.606234    227.50745 
   11600    135.12476   -957.85713    144823.27   -39792.434    2725.6207   -42518.054    50.833447    228.19797 
   11650    133.58029   -1025.0381    144681.11   -39826.193    2694.4669    -42520.66    51.021068    225.58967 
   11700    133.36128   -1088.6509    144502.07    -39834.54    2690.0493   -42524.589    51.591639    225.21981 
   11750    133.87993   -1005.2584    144428.85   -39832.527     2700.511   -42533.038    51.837636    226.09571 
   11800    131.66825     -1043.43    144366.91   -39868.093    2655.8988   -42523.992    51.997169    222.36062 
   11850    131.58293   -1041.4559    144287.34   -39862.257    2654.1779   -42516.435    52.197272    222.21654 
   11900     132.4102   -982.69933    144297.46    -39842.65    2670.8649   -42513.515    52.399626    223.61363 
   11950    130.55349   -974.97871    144441.61   -39895.868    2633.4128   -42529.281    52.672834    220.47802 
   12000    134.49701   -1159.8441    144405.17   -39845.803    2712.9583   -42558.761    52.855177    227.13783 
   12050    134.51346   -896.61202    144509.49    -39838.89    2713.2901    -42552.18    53.117652    227.16561 
   12100    133.94292   -917.53776    144668.76   -39812.488    2701.7817   -42514.269    53.304913    226.20209 
   12150    135.13382   -952.60694    144688.09    -39799.41    2725.8035   -42525.213     53.59672    228.21328 
   12200    135.20482   -986.18024    144718.86   -39777.981    2727.2355   -42505.217    53.729517    228.33317 
   12250    138.74394   -992.64427    144879.81   -39790.682    2798.6236   -42589.305    53.710099    234.31001 
   12300    130.81059   -869.35722    145026.19   -39881.045    2638.5989   -42519.644    53.778945    220.91222 
   12350    132.59861   -1079.6734    144944.64     -39866.6    2674.6653   -42541.265    53.840792    223.93181 
   12400     133.8953   -1130.9584    144891.14   -39870.952     2700.821   -42571.773     54.06195    226.12166 
   12450    132.45825   -901.30713    144722.91   -39883.945    2671.8342    -42555.78    54.293381    223.69479 
   12500    131.25107   -982.13463    144844.13   -39888.368    2647.4839   -42535.852    54.401299     221.6561 
   12550    132.50268   -1005.9753    144976.95   -39861.263    2672.7302   -42533.993    54.607302     223.7698 
   12600    131.77823   -1037.6548    144905.93   -39862.851    2658.1174   -42520.968    55.042668    222.54637 
   12650    136.82988   -889.14293    145136.48   -39862.224    2760.0148   -42622.238    55.349857    231.07756 
   12700    130.30852    -1116.469    145030.02    -39863.77    2628.4716   -42492.242    55.708877    220.06432 
   12750    133.79635   -1001.8267    144941.58   -39825.102    2698.8251   -42523.927    55.797794    225.95456 
   12800     136.4816   -945.74904    144994.75   -39779.767    2752.9896   -42532.757    55.924593    230.48939 
   12850    135.65118   -1101.0367    144881.24   -39786.514    2736.2391   -42522.753    56.047935    229.08698 
   12900    132.26016   -999.62589    144848.79   -39793.513    2667.8384   -42461.352    56.426611    223.36024 
   12950    135.51235   -970.56993    144757.06   -39793.427    2733.4388   -42526.866    56.472609    228.85253 
   13000     131.6008   -909.20372    144864.14   -39836.666    2654.5385   -42491.204    56.680918    222.24673 
   13050    133.09145   -908.48603    144798.57    -39804.54    2684.6065   -42489.147    57.033634    224.76413 
   13100    134.14593   -1030.8269    144689.27   -39789.862    2705.8766   -42495.738    57.256239    226.54493 
   13150    136.52335   -903.23318    144602.96   -39777.941    2753.8319   -42531.773    57.409138     230.5599 
   13200    132.29437   -1169.1819    144495.18   -39826.343    2668.5286   -42494.872    57.623889    223.41803 
   13250    134.00749   -893.43778    144666.92   -39842.228     2703.084   -42545.312    57.780773    226.31112 
   13300    132.31441   -973.03301    144702.97   -39876.977    2668.9327    -42545.91    58.102332    223.45186 
   13350    132.27722   -1110.2144    144526.43   -39830.363    2668.1826   -42498.546    58.315573    223.38906 
   13400    134.15415   -854.51042    144565.91   -39846.454    2706.0424   -42552.496    58.366616    226.55881 
   13450    135.14999   -937.51232    144634.58   -39819.615    2726.1295   -42545.745    58.533272    228.24057 
   13500    130.13552   -942.88661    144898.21   -39844.147     2624.982   -42469.129    58.622983    219.77217 
   13550    134.71662   -982.45786    144836.12   -39833.149     2717.388   -42550.537    58.629037     227.5087 
   13600    132.49223   -1111.6422    144682.92     -39837.9    2672.5196   -42510.419    58.658007    223.75217 
   13650    132.13429   -903.37749    144625.87   -39830.977    2665.2994   -42496.276    59.027288    223.14767 
   13700    131.50623   -948.57861    144599.19   -39873.073    2652.6309   -42525.704    59.203862    222.08702 
   13750    130.68227   -1031.1297    144498.31   -39919.901    2636.0106   -42555.911    59.402333    220.69552 
   13800    130.84664   -971.23068     144527.6   -39944.837    2639.3262   -42584.163    59.716938    220.97311 
   13850    131.84113   -1044.5356    144575.02   -39874.776     2659.386   -42534.162    60.206409    222.65258 
   13900    134.74968   -1122.4598    144552.11   -39866.883    2718.0549   -42584.938       60.324    227.56454 
   13950    133.50028   -1021.8645    144547.02   -39842.704    2692.8531   -42535.557    60.595078    225.45455 
   14000    132.21207   -1065.4173    144453.06   -39832.367    2666.8684   -42499.235    60.706635    223.27903 
   14050     131.1711   -1056.0822    144394.47   -39836.636    2645.8709   -42482.507    60.561969    221.52105 
   14100    132.10345   -878.37112    144343.48   -39840.926    2664.6773   -42505.603    60.495541    223.09559 
   14150    130.59576   -942.10397    144340.81   -39853.532    2634.2656   -42487.797    60.804819    220.54942 
   14200    131.14632   -985.09326    144370.96   -39856.174     2645.371   -42501.545    60.961525     221.4792 
   14250    134.12328    -1021.787    144341.67   -39832.124    2705.4197   -42537.544    60.972397    226.50668 
   14300    133.48247   -932.08592    144335.24   -39861.002    2692.4939   -42553.496    61.052933    225.42448 
   14350    132.95638   -937.37671    144412.62   -39909.571     2681.882   -42591.453    61.309783    224.53602 
   14400    132.66382   -1006.5523     144506.9   -39859.864    2675.9806   -42535.844    61.489614    224.04194 
   14450    131.12053   -1108.3414    144450.48   -39923.263    2644.8508   -42568.114    61.790724    221.43565 
   14500    130.50841   -723.16943    144604.48   -39916.195    2632.5037   -42548.699    61.855929    220.40191 
   14550    134.06583   -937.11069     144717.1   -39849.978    2704.2609   -42554.239    61.912059    226.40966 
   14600    133.91041   -926.02379    144823.46   -39799.252    2701.1258   -42500.378    61.804586    226.14717 
   14650    132.38693   -950.59215    144683.39   -39832.298    2670.3956   -42502.693    62.081459    223.57434 
   14700    134.34043   -894.91344    144772.46   -39811.894    2709.7999   -42521.694    62.094462     226.8734 
   14750    135.91178      -920.35    144997.62   -39759.595    2741.4957   -42501.091    62.303919    229.52708 
   14800    133.56034   -938.65107    145138.15   -39763.719    2694.0646   -42457.783    62.428012    225.55599 
   14850    133.49384   -1024.9013    145092.06   -39807.004    2692.7231   -42499.727    62.238804    225.44368 
   14900    132.27421   -887.60685    145125.46   -39868.554    2668.1217   -42536.676    62.452618    223.38397 
   14950    132.66124   -927.24162    145149.28   -39872.523    2675.9287   -42548.452    62.464803    224.03759 
   15000    130.64679   -1112.3621    145101.77   -39892.681    2635.2949   -42527.976    62.593016    220.63559 
   15050    132.34743   -1144.1583    144958.01   -39901.213    2669.5987   -42570.812    63.028252    223.50762 
   15100    132.29668   -904.41576    144878.71   -39820.381    2668.5752   -42488.956    62.961063    223.42193 
   15150    133.07027    -1002.313    144887.08   -39789.294    2684.1793   -42473.474    63.196275    224.72836 
   15200    132.72357   -1189.3381    144653.26    -39800.18    2677.1859   -42477.365    63.262733    224.14285 
   15250    134.25878   -913.95075    144681.02   -39831.562    2708.1528   -42539.715    63.261215     226.7355 
   15300    131.79812   -1138.0285    144665.58   -39904.789    2658.5186   -42563.308     63.45751    222.57996 
   15350    130.04322   -1126.8208    144469.82   -39913.819    2623.1203   -42536.939    63.718615     219.6163 
   15400    130.23628   -1081.5085    144591.95   -39919.076    2627.0145    -42546.09    63.920498    219.94233 
   15450    134.25406   -1048.5221    144591.54   -39886.153    2708.0577   -42594.211    64.262185    226.72754 
   15500    131.55076   -1008.6961    144622.81   -39871.932    2653.5289   -42525.461    64.499954    222.16221 
   15550     131.8604   -940.85634    144720.47   -39853.042    2659.7748   -42512.817    64.941071    222.68513 
   15600    130.32506   -1070.6714    144600.69   -39920.012    2628.8053   -42548.818    65.071782    220.09226 
   15650    133.14233   -1035.2685    144485.44   -39906.432    2685.6328   -42592.064    65.226459    224.85005 
   15700    133.01379   -1014.6499    144461.14   -39863.413    2683.0401   -42546.453    65.204683    224.63298 
   15750    132.58488   -1206.2704    144429.68   -39852.676    2674.3883   -42527.064    65.406252    223.90863 
   15800      133.911   -889.12549    144476.67   -39814.037    2701.1377   -42515.174    65.637511    226.14817 
   15850    133.99544   -1037.8798    144581.86   -39859.702    2702.8411   -42562.543    65.734719    226.29078 
   15900    132.05531   -1052.5947    144507.88   -39897.317    2663.7064   -42561.024    66.089681     223.0143 
   15950    130.66531    -948.2285    144513.71   -39922.661    2635.6685    -42558.33    66.183482    220.66687 
   16000    131.65616   -1085.8901    144427.52   -39891.984     2655.655   -42547.639    66.402097    222.34021 
   16050    134.23933   -848.82595    144575.77   -39820.327    2707.7605   -42528.088    66.478415    226.70266 
   16100    133.36227    -1079.681    144652.75    -39854.28    2690.0692    -42544.35     66.47023    225.22148 
   16150    132.36655   -1192.4746    144626.04   -39889.481    2669.9844   -42559.465    66.461722    223.53992 
   16200    133.63958   -855.81428    144669.78   -39854.851    2695.6629   -42550.514    66.359921    225.68981 
   16250    132.63649   -993.15354    144737.96   -39854.508    2675.4294   -42529.937    66.711978    223.99579 
   16300    130.62155   -1002.7026    144609.14    -39871.05    2634.7858   -42505.836    66.789578    220.59297 
   16350    132.49389   -851.87058    144551.75   -39836.028    2672.5531   -42508.581    66.768728    223.75497 
   16400    134.36166    -1051.167    144647.88   -39828.248     2710.228   -42538.476    66.785739    226.90924 
   16450     133.7814   -901.65594    144793.01   -39836.856    2698.5236    -42535.38    67.037541    225.92931 
   16500    133.78831   -972.35679    144905.33   -39865.608    2698.6629   -42564.271     67.23499    225.94097 
   16550    131.40023   -1029.1598    144884.38    -39882.13    2650.4927   -42532.623    67.356916      221.908 
   16600    131.79094     -926.373    144894.43   -39895.678    2658.3737   -42554.052    67.683989    222.56783 
   16650    134.24437   -1010.7281    144976.55   -39813.032    2707.8623   -42520.894    67.894349    226.71118 
   16700    133.89221   -1174.7987    144793.92   -39844.464    2700.7587   -42545.222    68.201938    226.11644 
   16750    133.09513   -929.10563    144757.05   -39776.711    2684.6807   -42461.392    68.257681    224.77034 
   16800    132.78495   -986.06876    144716.32   -39854.236     2678.424    -42532.66    68.442563    224.24651 
   16850    131.53638   -1117.1988    144608.13   -39838.693     2653.239   -42491.932    68.581724    222.13794 
   16900    131.85231   -888.84738    144656.24   -39815.784    2659.6117   -42475.396    68.537846    222.67148 
   16950    133.03716   -940.01952    144675.32   -39827.366    2683.5114   -42510.878    68.414304    224.67244 
   17000    131.07395   -939.66313    144599.41   -39859.933    2643.9112   -42503.844    68.494306    221.35698 
   17050      133.462   -841.83333    144717.23   -39816.359    2692.0809    -42508.44    68.490457    225.38991 
   17100    136.29426   -1039.3949    144626.27    -39783.55    2749.2108   -42532.761    68.660855    230.17301 
   17150     132.8243   -1142.3633    144667.93   -39796.548    2679.2179   -42475.766    68.813464    224.31297 
   17200    132.32519   -1051.0657    144588.37   -39819.683    2669.1502   -42488.833     68.71289    223.47007 
   17250    130.37493    -960.4511     144752.8    -39832.16    2629.8112   -42461.971    68.770075    220.17648 
   17300     133.8874   -1055.0859     144797.3   -39813.232    2700.6617   -42513.894    68.916304    226.10832 
   17350    134.53403   -843.31655     144838.5   -39766.125    2713.7051    -42479.83    68.955106    227.20035 
   17400    135.58016   -1014.9628     144893.6   -39739.458    2734.8066   -42474.264    69.049347    228.96704 
   17450    133.82949   -1205.6706    144870.48    -39731.74    2699.4936   -42431.233    69.159745    226.01052 
   17500    136.52296   -1165.5238    144774.69   -39733.852     2753.824   -42487.676     69.10386    230.55924 
   17550    135.24172   -1028.9193    144662.25    -39784.68    2727.9799    -42512.66      69.1274    228.39549 
   17600    134.16507   -909.08894     144616.6   -39846.313    2706.2627   -42552.576     69.17672    226.57725 
   17650    134.26159   -1081.6485    144509.61   -39879.003    2708.2095   -42587.213    69.582532    226.74024 
   17700    131.75971   -1060.1069    144466.54   -39938.145    2657.7438   -42595.889    69.740491    222.51509 
   17750    130.71243   -959.75956    144445.54   -39913.185     2636.619   -42549.804    69.916724    220.74645 
   17800    130.23484   -1133.7259    144404.42   -39944.575    2626.9853    -42571.56    69.898951    219.93989 
   17850    129.11488   -1050.7991    144409.12   -39962.603    2604.3945   -42566.998    70.098778    218.04851 
   17900     132.2205   -830.19276    144491.91   -39946.686    2667.0385   -42613.725     70.34176    223.29327 
   17950    131.80539   -924.69649    144648.15   -39929.469    2658.6652   -42588.135    70.526928    222.59223 
   18000    133.50533   -1012.5363     144655.7   -39939.025    2692.9548    -42631.98    70.816059    225.46307 
   18050     133.5232   -933.63037    144815.23   -39924.961    2693.3154   -42618.276    71.115587    225.49326 
   18100    132.23802   -1077.6021    144773.86   -39909.898    2667.3918    -42577.29    71.224209    223.32285 
   18150    132.72524   -971.43731     144799.8   -39910.266    2677.2196   -42587.486    71.383707    224.14567 
   18200    133.12455   -1068.1277    144819.26   -39937.182    2685.2742   -42622.456    71.464274    224.82002 
   18250    133.21748   -1044.9774    144837.73   -39955.971    2687.1487    -42643.12    71.440929    224.97697 
   18300    133.48947    -954.5339    144913.66   -39947.222    2692.6351   -42639.857    71.511476     225.4363 
   18350     130.3271   -1054.6273    144858.29   -39976.294    2628.8464   -42605.141    71.583934     220.0957 
   18400    132.64095   -990.42096    144852.37   -39946.427    2675.5195   -42621.947    71.545085    224.00333 
   18450    131.45095   -1008.6708    144950.23   -39950.364    2651.5157    -42601.88    71.660844    221.99365 
   18500    130.83742   -1025.2353    145089.86    -39974.32      2639.14    -42613.46    71.936706    220.95752 
   18550     133.1524   -1104.1833    144979.48   -39956.335    2685.8359   -42642.171    72.147623    224.86705 
   18600    133.32746   -942.91038    144976.32   -39899.748     2689.367   -42589.115    72.187333    225.16269 
   18650    135.79584   -1020.9018    145078.82   -39825.834    2739.1572   -42564.992    72.553652    229.33129 
   18700    132.44027   -1046.6426    144962.23   -39867.481    2671.4715   -42538.953    72.844137    223.66442 
   18750    134.56163   -1023.7738    145028.13   -39850.576    2714.2618   -42564.838     72.71551    227.24696 
   18800    133.21005    -1086.556    145047.12   -39909.952    2686.9987   -42596.951    72.878846    224.96441 
   18850     134.9929   -1067.9007    144993.02   -39910.933     2722.961   -42633.894    72.912348    227.97529 
   18900    132.23104   -849.85081    145126.88   -39873.458    2667.2511    -42540.71     72.96095    223.31107 
   18950    134.43794   -1080.6793    145171.13   -39880.423    2711.7667    -42592.19    73.204264    227.03807 
   19000    133.78256   -1058.6423    145122.14   -39885.534     2698.547   -42584.081    73.383792    225.93127 
   19050    132.57262   -1014.0143     145053.8   -39887.237     2674.141   -42561.378    73.527892    223.88792 
   19100    131.19915   -906.97348    145068.17   -39834.277    2646.4366   -42480.714    73.823386    221.56841 
   19150     133.9661   -993.05984     145252.1   -39767.154    2702.2492   -42469.403    74.165247    226.24123 
   19200    131.97045   -1003.2048     145230.6    -39804.33    2661.9946   -42466.325    74.510553    222.87098 
   19250     133.3602   -1119.8006    145233.72    -39842.67    2690.0275   -42532.698    74.613218    225.21799 
   19300    134.16563   -1069.3042    145150.51   -39824.306    2706.2739    -42530.58      74.4986    226.57819 
   19350     132.1052   -962.08958    145106.76   -39854.334    2664.7127   -42519.047    74.801688    223.09855 
   19400    131.08508   -929.74224    145182.56   -39848.924    2644.1358    -42493.06    74.785983    221.37578 
   19450    133.10785   -1074.7227    145226.67   -39827.909    2684.9372   -42512.846     74.96054    224.79182 
   19500    129.50836   -985.78338    145145.61   -39878.836    2612.3315   -42491.168     75.24362    218.71303 
   19550    128.76611   -949.66951    145061.91   -39926.257    2597.3595   -42523.616    75.460849    217.45952 
   19600    130.68629   -1034.0094    145133.06   -39909.801    2636.0916   -42545.893    75.656395     220.7023 
   19650    129.71188   -952.04443    145067.73   -39939.683    2616.4368    -42556.12    75.837953    219.05673 
   19700    132.85903   -1150.2913    145155.85   -39925.926    2679.9183   -42605.844    76.069483    224.37161 
   19750    130.04618    -764.0974    145134.49   -39929.692    2623.1799   -42552.872    76.181582    219.62128 
   19800     130.6173    -953.7613    145167.46   -39928.526    2634.7002   -42563.226     76.21112     220.5858 
   19850    132.39003   -1025.3094    145231.09   -39930.557     2670.458   -42601.015    76.105069    223.57957 
   19900    131.56277   -1049.7607    145166.26   -39905.811    2653.7714   -42559.582    76.244663    222.18251 
   19950    129.14351   -968.17591    145164.53   -39917.345     2604.972   -42522.317    76.364601    218.09686 
   20000    129.84244   -1069.1318    145080.63   -39904.733    2619.0702   -42523.803    76.542658     219.2772 
   20050    132.69508   -1081.8086    145014.59   -39798.727    2676.6113   -42475.338    76.700863    224.09474 
   20100     133.1538   -955.78092     144940.4   -39866.547    2685.8642   -42552.411    76.809749    224.86942 
   20150    132.41251   -1004.6795    144750.96   -39887.714    2670.9116   -42558.625    76.980459    223.61754 
   20200    130.93126   -1038.0601    144659.76    -39925.24    2641.0329   -42566.273    77.099284      221.116 
   20250    128.86414   -1079.5507    144648.82   -39941.956    2599.3368   -42541.293    77.183081    217.62506 
   20300    130.44127   -917.92999    144877.63   -39904.812    2631.1493   -42535.961    77.443044    220.28851 
   20350    130.97905   -966.29959    144927.91   -39847.239     2641.997   -42489.236     77.50358    221.19672 
   20400    130.30501    -992.0341    145011.29   -39850.555    2628.4008   -42478.956    77.678583     220.0584 
   20450    135.88853   -967.38565    144961.09   -39816.734    2741.0267    -42557.76     77.92989    229.48781 
   20500    132.62578   -961.24562    145173.95   -39812.864    2675.2134   -42488.078    78.271794     223.9777 
   20550    133.12584   -923.15123    145228.07   -39836.566    2685.3002   -42521.867    78.235654     224.8222 
   20600    131.24633   -1086.6634    145258.04   -39892.841    2647.3884    -42540.23    78.300128     221.6481 
   20650    133.58837   -1135.1043    145257.81   -39884.635      2694.63   -42579.265    78.423336    225.60333 
   20700    135.34221   -1088.1132    145041.78   -39856.445    2730.0069   -42586.452    78.542839     228.5652 
   20750    132.14117   -1024.8828     145090.2   -39866.601    2665.4383   -42532.039    78.479554     223.1593 
   20800    132.29804   -1055.1439    144908.57   -39873.069    2668.6024   -42541.671    78.599282    223.42421 
   20850    134.90956   -850.13817    145029.79   -39879.957    2721.2799   -42601.237    78.684441    227.83454 
   20900    134.04507   -1066.0953    145061.76   -39872.209    2703.8421   -42576.052    79.037109    226.37459 
   20950     133.3155   -895.36976    145079.16   -39856.195    2689.1258   -42545.321    79.057217     225.1425 
   21000    137.97526   -1095.7082    145097.61   -39824.402    2783.1185    -42607.52    79.004591    233.01188 
   21050    134.56934   -908.84714    144986.19   -39790.139    2714.4171   -42504.556     79.18834    227.25997 
   21100     134.5189   -888.39745    145013.56   -39762.842    2713.3998   -42476.242    79.277162    227.17479 
   21150    133.72533   -879.39889    145075.88   -39767.939    2697.3925   -42465.331    79.421213    225.83461 
   21200    134.81572   -1123.1813    145052.22    -39789.52    2719.3869   -42508.907    79.758015    227.67606 
   21250    132.15745   -1056.9239    145072.68   -39779.155    2665.7666   -42444.921    79.985888    223.18679 
   21300     134.9699   -968.01216    145003.89   -39793.153     2722.497    -42515.65    80.005891    227.93644 
   21350    133.52711   -1031.4157    145076.48   -39773.614    2693.3942   -42467.008    80.034832    225.49986 
   21400     131.7319   -1056.6853     144961.2   -39809.488    2657.1828   -42466.671      80.1951    222.46812 
   21450    134.06504   -1218.2812    144892.94   -39811.854    2704.2449   -42516.099    80.299177    226.40831 
   21500    132.41209   -930.79349    144861.17   -39795.303    2670.9031   -42466.206    80.569276    223.61683 
   21550     132.0756   -1118.2303    144879.63   -39797.037    2664.1157   -42461.152    80.564202    223.04857 
   21600    132.74519   -894.07803    144773.51   -39798.368     2677.622    -42475.99    80.803465    224.17936 
   21650    134.27997   -876.75061     144853.6   -39774.851    2708.5803   -42483.431    81.075701    226.77129 
   21700    135.10877   -1051.1574       144991   -39754.867    2725.2982   -42480.166    81.264993    228.17097 
   21750    135.01357   -1004.1803    144935.28    -39708.08    2723.3779   -42431.458    81.295108     228.0102 
   21800     136.2138   -935.35514    145118.34   -39728.348    2747.5879   -42475.936    81.571479    230.03714 
   21850    133.53535   -1030.2857    145160.96   -39798.271    2693.5604   -42491.832      81.8716    225.51377 
   21900    136.48617   -1159.4603    145103.61   -39763.192    2753.0819   -42516.274    81.974653    230.49711 
   21950    131.88136   -1051.0087    144977.04    -39760.07    2660.1976   -42420.268    82.016486    222.72053 
   22000    134.85115    -1047.448    144875.19   -39777.848    2720.1017    -42497.95    81.989338     227.7359 
   22050    134.57055   -1017.4839    144899.69    -39787.14    2714.4415   -42501.581     82.29003    227.26201 
   22100    132.29365   -998.16467    145013.97   -39801.702    2668.5139   -42470.216     82.55256     223.4168 
   22150    132.49963   -888.98535    145061.03   -39815.428    2672.6688   -42488.097    82.539428    223.76466 
   22200    134.21996    -1051.529    144991.56   -39796.992    2707.3698   -42504.362    82.695038    226.66994 
   22250    133.18623   -1052.2495    144958.71   -39837.077    2686.5183   -42523.595    82.972187    224.92419 
   22300    134.77177   -927.93359     145002.3   -39765.555    2718.5005   -42484.056    83.185312    227.60184 
   22350    134.78228   -945.10425    144990.25   -39767.898    2718.7125   -42486.611    83.124216    227.61959 
   22400    136.09688   -909.42204    145101.95   -39760.266    2745.2295   -42505.496    83.472163    229.83969 
   22450    134.95577   -1060.4576    145076.13   -39779.399     2722.212   -42501.611    83.494506    227.91258 
   22500     135.0829   -842.94692    145203.33   -39746.474    2724.7764    -42471.25    83.963435    228.12728 
   22550    134.44954   -1046.5355    145187.06   -39821.957    2712.0008   -42533.958    84.236442    227.05766 
   22600    133.95863   -1092.7008    145037.85   -39824.165    2702.0984   -42526.263    84.286053    226.22861 
   22650    133.48134   -1138.4377    144896.39   -39832.336     2692.471   -42524.807     84.29868    225.42256 
   22700     135.0676   -948.25749    144748.32   -39807.079    2724.4677   -42531.547    84.304754    228.10144 
   22750    134.73974   -1076.5949    144741.55   -39841.283    2717.8544   -42559.137    84.266204    227.54774 
   22800    131.67236   -1113.0843       144619   -39871.028    2655.9819   -42527.009    84.450764    222.36758 
   22850    130.61047   -1007.5466    144499.42   -39912.933    2634.5622   -42547.495     84.27345    220.57425 
   22900    131.57246   -1057.5371    144523.85   -39921.247    2653.9668   -42575.214    84.181295    222.19886 
   22950    128.49043   -926.21516    144694.44   -39923.246    2591.7986   -42515.045    84.497323    216.99394 
   23000    131.73594   -1160.0877    144638.75   -39911.125    2657.2643   -42568.389    84.499606    222.47495 
   23050     132.9004   -1109.0814    144657.32   -39886.227    2680.7528    -42566.98    84.723089    224.44148 
   23100    129.74123    -980.3393    144627.26   -39882.254    2617.0287   -42499.283    84.682892    219.10629 
   23150    131.30665   -1117.6793    144566.57   -39895.487     2648.605   -42544.092    84.809489    221.74996 
   23200    131.66699   -1002.9999    144546.85   -39865.791    2655.8734   -42521.664    85.074876     222.3585 
   23250    133.07499   -913.10911    144663.35    -39842.72    2684.2745   -42526.994    85.295307    224.73633 
   23300    131.34054   -1130.6743    144625.02   -39848.513    2649.2886   -42497.802    85.571653    221.80719 
   23350    129.84748   -915.98657    144485.95   -39841.063    2619.1719   -42460.235     85.72637    219.28572 
   23400    131.79137   -949.85205    144731.89   -39869.202    2658.3823   -42527.585    85.702221    222.56855 
   23450     132.5226    -1031.213    144732.12    -39873.77    2673.1322   -42546.902    85.899727    223.80346 
   23500    131.66632   -860.89115    144687.52   -39892.721    2655.8599   -42548.581    86.290679    222.35737 
   23550    132.84443   -879.41961    144814.54   -39867.206    2679.6239    -42546.83    86.516415    224.34696 
   23600    130.97838   -948.69132    144942.15   -39862.004    2641.9834   -42503.988    86.688582    221.19558 
   23650    130.17815   -1073.8061    144976.75   -39819.896    2625.8418   -42445.738    86.902505    219.84415 
   23700    134.78252   -991.44225    144933.01    -39786.45    2718.7173   -42505.168    87.265715    227.61999 
   23750    134.80226    -956.9368    145017.95   -39732.604    2719.1155    -42451.72    87.481075    227.65333 
   23800    136.05791   -1112.0723    144970.34   -39761.526    2744.4433   -42505.969    87.566412    229.77386 
   23850    135.57039   -867.15865    144865.63   -39787.796    2734.6096   -42522.406    87.846565    228.95055 
   23900    133.38532   -894.42846    145077.94   -39712.462    2690.5341   -42402.997    87.950158    225.26041 
   23950    134.84387    -891.8334    145131.75   -39710.645    2719.9548     -42430.6    88.439016     227.7236 
   24000    138.32614   -973.84742     145242.5   -39696.483    2790.1962   -42486.679    88.505125    233.60444 
   24050     134.5824   -941.26117    145243.86   -39705.804    2714.6807   -42420.485    88.631648    227.28204 
   24100    135.89416   -869.16803    145169.89   -39689.738    2741.1403   -42430.878     88.63923    229.49732 
   24150     136.0122   -1068.1117       145174   -39699.763    2743.5214   -42443.284    89.054322    229.69668 
   24200    135.54052   -995.40771    145150.83   -39750.159    2734.0069   -42484.166    89.149285    228.90009 
   24250    137.04725   -883.28528    145203.72   -39731.264    2764.3995   -42495.664    89.379546    231.44466 
   24300    135.93352   -1086.3645    145369.19    -39744.18    2741.9343   -42486.114    89.466606     229.5638 
   24350    132.55213    -1090.644    145256.05    -39780.23    2673.7278   -42453.958    89.387172    223.85333 
   24400    134.71293   -998.55414    145133.96   -39790.908    2717.3136   -42508.221    89.566228    227.50247 
   24450    134.22692   -906.00191     145172.4   -39765.867    2707.5103   -42473.378    89.809168    226.68171 
   24500    135.06704   -948.99469    145312.74   -39779.253    2724.4565   -42503.709    90.086564    228.10049 
   24550    135.46344   -1082.7381    145259.74   -39776.205    2732.4522   -42508.657    90.543816    228.76992 
   24600    136.08925   -1188.3727    145211.97   -39761.819    2745.0755   -42506.894    90.670726    229.82679 
   24650     134.8154   -922.47981    145176.82    -39733.76    2719.3805    -42453.14    90.879152    227.67552 
   24700    135.17914   -1073.2446    145061.64   -39717.486    2726.7175   -42444.204    90.993279     228.2898 
   24750    135.43607   -999.31341       144951   -39817.783    2731.9001   -42549.683    90.929699     228.7237 
   24800    131.99301   -1198.3019    144734.24   -39847.568    2662.4497   -42510.018    91.214046    222.90908 
   24850    134.00174   -882.37015    144662.48   -39883.521    2702.9681   -42586.489    91.309679    226.30142 
   24900    135.66405    -998.3348    144795.28   -39849.915    2736.4987   -42586.414    91.353283    229.10871 
   24950    134.46185   -1019.0185    144654.89   -39865.988    2712.2491   -42578.237    91.612202    227.07845 
   25000    134.17906   -845.88263    144767.97   -39892.979    2706.5448   -42599.524    91.591076    226.60087 
   25050    134.14478   -1090.9197    144724.13   -39919.514    2705.8534   -42625.368    91.838233    226.54298 
   25100    132.77625   -1042.3586    144688.94   -39940.424    2678.2485   -42618.672    91.984349    224.23182 
   25150    131.38019   -855.04979    144770.12   -39902.461    2650.0884   -42552.549    91.906333    221.87416 
   25200    135.01094   -838.68588    144984.04   -39855.439    2723.3247   -42578.764    92.109476    228.00574 
   25250    132.24468   -1050.4638    145106.55   -39885.192    2667.5263   -42552.719    91.979051    223.33411 
   25300    131.48656   -839.45475     145120.5   -39883.898    2652.2341   -42536.132    92.154944     222.0538 
   25350    134.62681    -1026.157    145119.13   -39859.993    2715.5765   -42575.569    92.529153    227.35703 
   25400    133.21603   -950.00269    145174.86   -39873.779    2687.1194   -42560.898    92.855084    224.97451 
   25450    134.51527   -1055.1276     145198.5    -39868.57    2713.3265   -42581.897    93.262303    227.16866 
   25500    131.89604   -1099.4702    145143.16   -39862.831    2660.4938   -42523.325    93.431336    222.74533 
   25550    132.77888   -949.88351    145056.02   -39874.736    2678.3015   -42553.038    93.775877    224.23625 
   25600    133.10924   -1072.1147    144938.44    -39893.45    2684.9653   -42578.416    94.159554    224.79416 
   25650    133.37447   -849.80314     144939.8   -39852.693    2690.3153   -42543.008    94.324945    225.24209 
   25700    131.77094   -1084.2955    145002.22   -39956.747    2657.9703   -42614.717    94.379239    222.53405 
   25750    131.88721   -1032.9187    144910.74   -39984.011    2660.3155   -42644.326    94.516541     222.7304 
   25800    132.03828   -1019.3395    144963.34   -39949.749    2663.3627   -42613.111    94.725413    222.98553 
   25850      132.194   -991.90567    144946.63    -39905.55    2666.5038   -42572.054    94.831931    223.24851 
   25900    131.69656   -1073.2296    144892.98   -39913.961    2656.4699   -42570.431    94.880142    222.40843 
   25950    135.16515   -940.09416    144935.23   -39911.552    2726.4354   -42637.987    94.959551    228.26618 
   26000    134.42847   -1046.8896    144914.02   -39880.799    2711.5758   -42592.375     95.11881    227.02208 
   26050    133.64465   -954.89375    144921.93   -39871.331    2695.7651   -42567.096    95.214566    225.69836 
   26100     131.5714    -998.2936    144987.45   -39882.321    2653.9453   -42536.266    95.580019    222.19707 
   26150    133.17281    -992.1529    144979.57    -39871.96    2686.2476   -42558.207    95.714935    224.90152 
   26200    133.97777   -1109.2127    144888.84   -39869.285    2702.4845   -42571.769    95.948442    226.26093 
   26250    132.98482   -792.57672    145028.48    -39808.07    2682.4557   -42490.526    95.996628    224.58405 
   26300    134.09438   -1020.3451    145188.19   -39822.102    2704.8367   -42526.939    96.318703    226.45787 
   26350    133.47596    -1151.396    145072.04   -39816.978    2692.3626   -42509.341    96.288396    225.41349 
   26400    135.04465   -994.00687    145018.28   -39867.326    2724.0047   -42591.331    96.416428    228.06267 
   26450    133.49409   -1027.6783    145059.32   -39868.615    2692.7282   -42561.343    96.643329     225.4441 
   26500    135.28585   -1134.3799    145072.36    -39812.73      2728.87     -42541.6    96.763486    228.47001 
   26550    133.47411   -973.30606     144976.1   -39838.413    2692.3252   -42530.738    96.876507    225.41036 
   26600     130.6805   -965.98163    144984.69   -39875.384    2635.9748   -42511.359    96.921033    220.69252 
   26650    130.78731   -1014.9747    144937.76   -39936.154    2638.1294   -42574.284    97.028402    220.87291 
   26700    133.73421   -987.13949    144999.76   -39926.302    2697.5717   -42623.874    97.068788    225.84961 
   26750    129.43268   -1173.8544    144942.22   -39988.245     2610.805    -42599.05    97.298012    218.58522 
   26800    130.06203   -1069.7205       144805   -39938.835    2623.4995   -42562.334    97.168371    219.64805 
   26850    132.13482    -966.9628    144874.66   -39902.353    2665.3102   -42567.663    97.256722    223.14857 
   26900    131.02833   -1039.0305    144865.17   -39884.925    2642.9911   -42527.916    97.547705    221.27994 
   26950    132.72254   -829.33937    144994.43   -39882.692    2677.1651   -42559.857    97.769092     224.1411 
   27000    131.59045   -902.20334    145155.35   -39867.818    2654.3295   -42522.147    97.926751    222.22924 
   27050    129.87557   -1086.7098    145054.69   -39818.555    2619.7386   -42438.293    98.005025    219.33317 
   27100    132.97912   -967.93899     144988.2   -39757.904    2682.3406   -42440.244    97.889606    224.57442 
   27150    135.51241   -1040.5241    144956.24   -39760.587      2733.44   -42494.027     97.83081    228.85263 
   27200    135.12408   -1155.8022    144898.97   -39764.795    2725.6069   -42490.402    97.840778    228.19682 
   27250    136.45486   -925.64007    144887.38   -39779.424    2752.4504   -42531.874    98.034134    230.44424 
   27300    135.96835   -1014.9246    144948.73   -39805.714    2742.6368   -42548.351    98.408537    229.62261 
   27350    131.88563   -975.44798    144935.15   -39792.915    2660.2838   -42453.199    98.976748    222.72775 
   27400     134.3124    -954.6023    145040.03   -39805.539    2709.2344   -42514.773    99.045205    226.82605 
   27450    131.37743     -1095.61    144924.65   -39847.339    2650.0327   -42497.372    99.549655    221.86949 
   27500    133.11629    -935.9715    144777.68   -39902.951    2685.1076   -42588.059    99.768094    224.80608 
   27550    130.10048   -1002.7861    144905.02   -39881.565    2624.2753    -42505.84    99.788529    219.71299 
   27600    132.85578   -918.88626    144892.13   -39893.297    2679.8528    -42573.15    99.858335    224.36613 
   27650     129.4943   -910.04482    144923.85   -39872.783    2612.0479   -42484.831    100.13674    218.68928 
   27700    131.52617   -996.46553    144922.72   -39890.959     2653.033   -42543.992    100.20565    222.12068 
   27750    132.32153   -1034.1769    144898.19     -39844.2    2669.0763   -42513.277    100.34047    223.46389 
   27800    133.31245   -965.88809     145007.7    -39844.82    2689.0643   -42533.884    100.53342    225.13735 
   27850    132.71545   -1078.2697    145011.67   -39826.306    2677.0222   -42503.328    100.52168    224.12914 
   27900    129.66403   -941.22038    144948.25   -39863.989    2615.4714   -42479.461    100.68385    218.97591 
   27950     132.0941   -1068.8527    144932.79   -39849.542    2664.4888   -42514.031    100.99912    223.07981 
   28000    132.53294   -1030.8891    144749.33   -39844.773    2673.3407   -42518.114     101.2321    223.82091 
   28050    133.03987   -914.34033    144776.37   -39865.237    2683.5661   -42548.803    101.51813    224.67702 
   28100    132.25909   -902.50106    144635.03   -39862.474    2667.8169   -42530.291    101.82691    223.35844 
   28150    135.06165   -950.25516    144704.49   -39828.443    2724.3476    -42552.79    102.03139    228.09138 
   28200    134.06664   -823.08277    144755.07   -39791.511    2704.2773   -42495.789    102.21377    226.41103 
   28250    134.83463   -926.60823    144775.07   -39716.619    2719.7684   -42436.387    102.31257      227.708 
   28300    133.68487   -956.23111    144699.69   -39728.352    2696.5764   -42424.929    102.29591    225.76628 
   28350    132.90593   -974.33966    144616.76   -39750.522    2680.8644   -42431.386    102.78488    224.45082 
   28400    133.41141   -1074.0847    144599.41   -39805.751    2691.0605   -42496.812    102.81552    225.30448 
   28450    133.65909   -986.90958    144741.41   -39812.794    2696.0564    -42508.85    103.11949    225.72275 
   28500    135.89823   -882.11172    144756.58   -39782.238    2741.2225    -42523.46    103.60029     229.5042 
   28550    134.01758   -917.71169    144948.97   -39780.565    2703.2876   -42483.853    103.38477    226.32817 
   28600    135.03937   -1011.1837    144956.24   -39775.321    2723.8983   -42499.219    103.84083    228.05376 
   28650    137.12146   -887.34369    144964.27   -39762.814    2765.8963   -42528.711    104.20524    231.56997 
   28700    131.55482   -1085.6418    144916.52     -39827.5     2653.611    -42481.11    104.34558    222.16908 
   28750    134.84184   -1070.8388    144730.22   -39810.306    2719.9139    -42530.22    104.50317    227.72018 
   28800    131.30508   -949.20449    144813.74   -39799.134    2648.5733   -42447.707    104.88519    221.74731 
   28850    137.53445   -1089.4776     144776.4   -39779.153    2774.2268    -42553.38    105.16879    232.26743 
   28900    133.86433   -1043.3761    144792.94   -39774.475    2700.1965   -42474.671    105.75461    226.06937 
   28950    132.55048   -843.09044    144758.55   -39788.723    2673.6945   -42462.418      106.009    223.85054 
   29000    131.21874   -933.96551    144653.84   -39785.943    2646.8319   -42432.775    106.22065    221.60151 
   29050    132.33348   -886.12799    144743.51   -39747.766    2669.3173   -42417.083    106.56884    223.48407 
   29100    134.40533   -1038.9218    144743.51   -39787.543     2711.109   -42498.652    106.80314      226.983 
   29150    132.47403   -904.31886    144857.25   -39786.247    2672.1525   -42458.399    107.02139    223.72143 
   29200    134.58188   -963.10735    144812.38   -39779.482    2714.6701   -42494.152    107.38906    227.28115 
   29250    135.68548   -1065.9397    144953.91   -39806.876    2736.9311   -42543.808    107.43925    229.14491 
   29300    134.58489   -844.70395    144996.29    -39799.76    2714.7308   -42514.491    107.39778    227.28623 
   29350    133.89276   -1049.1172    144841.91   -39781.588    2700.7697   -42482.358    107.26033    226.11737 
   29400    134.59164   -951.73958    145050.68   -39790.654    2714.8671   -42505.521    107.36827    227.29764 
   29450    133.63455   -1051.8872    145099.59   -39830.681    2695.5614   -42526.242    107.73454     225.6813 
   29500    130.93143   -1064.7217     145069.8   -39859.542    2641.0365   -42500.578    107.89147     221.1163 
   29550    129.92079   -1072.3608    144920.96   -39897.795    2620.6507   -42518.446    108.03291    219.40953 
   29600    131.12263   -1061.5707    144865.18   -39892.611     2644.893   -42537.504    108.10514    221.43918 
   29650    131.85563   -989.15987    144843.85   -39908.236    2659.6786   -42567.915    108.36583    222.67708 
   29700    130.97562   -879.08255    144860.64   -39913.273    2641.9278   -42555.201    108.43296    221.19092 
   29750    129.73817   -966.88373    144957.08   -39901.372    2616.9669   -42518.339    108.69092    219.10112 
   29800     134.0859   -1170.3639    144877.03   -39895.531    2704.6657   -42600.197    108.71452    226.44355 
   29850    134.89784   -1067.1808    144651.99   -39858.017    2721.0435   -42579.061    109.01759    227.81475 
   29900    132.99229    -811.2471    144697.72   -39860.106    2682.6063   -42542.713    109.00779    224.59666 
   29950    132.82182   -1134.9393    144629.73    -39867.19    2679.1676   -42546.358    109.19939    224.30877 
   30000    134.05307   -1021.6278    144496.07   -39848.746    2704.0034   -42552.749    109.36599    226.38809 
   30050    133.66177   -812.18087    144653.02   -39867.928    2696.1104   -42564.038    109.39148    225.72727 
   30100    131.33471   -1101.8641    144641.61    -39881.97     2649.171   -42531.141    109.35708    221.79735 
   30150    131.94507   -1066.7534    144524.99   -39886.197    2661.4828    -42547.68     109.3975    222.82813 
   30200    131.06406   -1012.9147    144434.94   -39897.867    2643.7118   -42541.579    109.76508    221.34028 
   30250    131.75974   -1127.5803    144307.81    -39843.01    2657.7443   -42500.755    109.70875    222.51513 
   30300    134.83305    -1149.005     144273.4   -39883.451    2719.7365   -42603.188    109.85994    227.70533 
   30350    134.55809   -920.22164    144255.11   -39867.545    2714.1903   -42581.736    110.00421    227.24098 
   30400    131.23151   -980.67785    144316.99   -39891.776    2647.0893   -42538.866    110.14667    221.62306 
   30450    132.90488   -1013.4853    144384.85   -39890.806    2680.8431   -42571.649    110.15135    224.44904 
   30500    132.91006   -1031.9935    144292.78   -39925.334    2680.9477   -42606.282    110.34557     224.4578 
   30550     131.2069   -983.36129    144327.76   -39883.405     2646.593   -42529.998     110.3791    221.58151 
   30600    132.05662    -819.3215    144408.17   -39864.202    2663.7328   -42527.935     110.6005    223.01651 
   30650     132.5519   -1105.3252    144622.62   -39880.215    2673.7231   -42553.938     110.7866    223.85293 
   30700    135.96489   -1018.1002    144527.88   -39846.636    2742.5671   -42589.203    110.80964    229.61678 
   30750    132.86716   -1044.3923    144399.18   -39869.466    2680.0823   -42549.548    110.68909    224.38534 
   30800    130.62639   -1021.4828    144294.07   -39841.178    2634.8835   -42476.061    110.80936    220.60115 
   30850    134.27083   -899.26559    144325.86    -39871.56     2708.396   -42579.956    110.95852    226.75586 
   30900    132.72041   -948.38847    144342.56   -39868.197    2677.1221   -42545.319    111.08665    224.13751 
   30950    134.60944   -885.46025    144624.87   -39872.771    2715.2261   -42587.997    111.31962     227.3277 
   31000    136.00281    -1048.569    144595.57   -39833.428     2743.332    -42576.76    111.22163    229.68081 
   31050    132.57906    -834.9375    144496.17   -39881.547    2674.2709   -42555.817    111.34411     223.8988 
   31100    133.27027   -947.72155    144682.11   -39881.005    2688.2135   -42569.218    111.56349    225.06612 
   31150    132.30492   -1082.7912    144851.85   -39908.235    2668.7413   -42576.977    111.92488    223.43584 
   31200    130.81193   -880.23733    144919.73   -39914.502    2638.6261   -42553.128     111.7438    220.91449 
   31250    133.65652   -1083.4917     145090.8   -39907.659    2696.0046   -42603.664    111.89902    225.71841 
   31300    130.93789   -1113.3742    144838.29   -39899.407    2641.1668   -42540.574    111.96969    221.12721 
   31350    133.20942   -1168.3469    144606.95   -39878.424     2686.986    -42565.41    111.99733    224.96334 
   31400    134.76318   -1033.4183    144510.47   -39843.346    2718.3271   -42561.673    112.02443    227.58733 
   31450    134.51099   -859.75491    144590.49   -39840.047    2713.2403   -42553.288    112.13995    227.16144 
   31500     133.8162   -993.42051    144692.28   -39808.137    2699.2255   -42507.363    112.19515    225.98807 
   31550     135.9232   -1015.0717    144754.39   -39805.706    2741.7261   -42547.432    112.24598    229.54637 
   31600    135.99723    -983.8771    144651.35   -39813.576    2743.2194   -42556.796    112.39497    229.67139 
   31650    133.87317   -1081.8965    144610.86    -39849.58    2700.3748   -42549.954    112.77126     226.0843 
   31700    129.78156   -1090.5129    144458.18    -39849.93    2617.8423   -42467.772    113.14775    219.17441 
   31750    132.68191   -958.97274    144452.81   -39873.095    2676.3455   -42549.441    113.24916    224.07249 
   31800    134.18089   -887.18335    144522.23   -39828.873    2706.5817   -42535.455    113.61462    226.60396 
   31850    132.68379   -1028.4323    144714.84   -39843.817    2676.3835   -42520.201    113.97742    224.07567 
   31900    131.69846   -1103.8931    144564.62   -39884.274    2656.5083   -42540.782    114.22089    222.41165 
   31950    132.98786    -942.2376    144496.06   -39904.303     2682.517    -42586.82    114.00948    224.58918 
   32000    129.79194   -898.11207    144459.27   -39978.733    2618.0517   -42596.785     114.2132    219.19193 
   32050     130.6427   -898.40254    144454.41   -39939.212    2635.2123   -42574.424    114.40614    220.62868 
   32100    132.08984   -912.63189    144643.25   -39898.393    2664.4029   -42562.796    114.58624    223.07261 
   32150    132.31982   -896.11139     144619.8   -39867.024    2669.0418   -42536.066    114.75635    223.46099 
   32200    134.21906   -1013.5603    144744.33   -39830.819    2707.3517    -42538.17     115.0212    226.66842 
   32250    135.53657   -1174.3792    144669.93   -39799.028    2733.9274   -42532.956    115.24853    228.89343 
   32300    134.70785   -1003.4694    144689.26    -39806.25    2717.2111   -42523.461    115.46525    227.49389 
   32350    132.20119   -1148.5108    144556.57   -39860.386     2666.649   -42527.035    115.69985    223.26066 
   32400    133.34372   -941.63049    144558.16   -39881.899    2689.6952   -42571.594    115.87706    225.19016 
   32450    132.48156   -1044.2506    144582.23   -39891.706    2672.3044    -42564.01     116.1025    223.73415 
   32500    131.36142   -948.30775    144640.09   -39856.935    2649.7098   -42506.645    116.19353    221.84245 
   32550    131.24213   -1051.1567    144570.14   -39869.631    2647.3036   -42516.935    116.67317    221.64101 
   32600     131.4138   -1002.7362    144470.93   -39914.364    2650.7664    -42565.13    116.92007    221.93092 
   32650    130.36834    -990.5701    144534.23   -39889.891    2629.6782   -42519.569    116.80093    220.16534 
   32700    134.17235   -1105.5395    144482.34   -39843.466    2706.4094   -42549.876    117.08165    226.58954 
   32750    133.66211   -997.98334     144326.6    -39811.26    2696.1173   -42507.377     117.2468    225.72785 
   32800    135.17894   -1056.2175    144372.26   -39816.465    2726.7135   -42543.178    117.28156    228.28946 
   32850    131.26717   -818.44549    144452.67   -39850.765    2647.8087   -42498.573    117.77257    221.68329 
   32900    134.79554   -1072.7208    144432.24   -39804.067    2718.9798   -42523.047      118.047    227.64197 
   32950    131.36501   -1077.7038    144367.99   -39873.875    2649.7822   -42523.657    118.27409    221.84852 
   33000     131.3268   -1054.4055    144217.09   -39864.817    2649.0115   -42513.828    118.22982    221.78399 
   33050    135.36834   -943.02019    144254.76   -39849.105     2730.534   -42579.639      118.429    228.60932 
   33100    132.06572   -798.93161    144373.29   -39849.488    2663.9163   -42513.404    118.87097    223.03188 
   33150     130.4961   -990.23091    144483.31   -39849.345    2632.2553     -42481.6    118.92599    220.38111 
   33200    131.14186   -902.55682    144554.73   -39797.907     2645.281   -42443.188    118.88548    221.47166 
   33250    133.64458   -859.08147    144678.06       -39804    2695.7638   -42499.764    119.08478    225.69825 
   33300    135.37692    -891.0082    144949.58   -39794.691    2730.7071   -42525.398    119.23161    228.62382 
   33350    135.73218   -1077.6711    144894.35   -39743.608     2737.873   -42481.481    119.12033    229.22377 
   33400    133.91493   -934.84356     144885.7   -39782.904    2701.2169   -42484.121    119.25322     226.1548 
   33450    133.27224   -1055.1842    144770.81   -39817.493    2688.2533   -42505.747    119.40077    225.06945 
   33500    134.25053   -1050.0916    144861.67   -39814.972    2707.9864   -42522.959    119.41621    226.72157 
   33550    133.94759   -1066.6713    144664.64   -39814.105    2701.8759   -42515.981    119.55169    226.20998 
   33600    130.57504   -1010.9732    144586.09   -39852.933    2633.8476    -42486.78    119.67134    220.51442 
   33650    133.57012   -1002.5043    144661.94   -39850.369    2694.2618   -42544.631     119.9435     225.5725 
   33700    130.47849   -1056.0239    144675.76   -39883.098       2631.9   -42514.998    120.32689    220.35136 
   33750    130.70032   -1233.4496    144554.61   -39885.159    2636.3747   -42521.533    120.38467      220.726 
   33800    132.92805   -1020.5545     144469.2   -39892.657    2681.3106   -42573.968    120.10086    224.48818 
   33850    131.26952   -1013.1266     144573.3   -39866.868    2647.8561   -42514.725    120.21016    221.68726 
   33900     127.6879   -1071.6794    144634.93   -39903.214    2575.6107   -42478.824    120.16247    215.63864 
   33950    132.74663   -995.07696    144657.26   -39832.525    2677.6511   -42510.176    120.36646     224.1818 
[...]
   92000    132.47702   -961.09609    145037.08   -39884.646    2672.2128   -42556.859    289.72039    223.72648 
   92050    133.06604   -939.74129     145122.4    -39892.75     2684.094   -42576.844    289.83525    224.72122 
   92100     132.9454   -891.24946    145284.04   -39905.891    2681.6604   -42587.552     290.4227    224.51747 
   92150    135.10968   -1019.6423    145283.75   -39877.597    2725.3165   -42602.913    290.82203     228.1725 
   92200    132.59044   -1051.7653    145096.25   -39864.575    2674.5005   -42539.075    290.87039    223.91802 
   92250    134.17152   -1060.0539    144988.48   -39850.136    2706.3927   -42556.529    291.32593    226.58813 
   92300    130.78288   -960.47739    144901.85   -39897.239    2638.0399   -42535.278    291.38162    220.86542 
   92350    133.67424   -1030.7332    144868.78   -39850.491    2696.3619   -42546.853    291.54421    225.74833 
   92400    133.87722   -1228.6277     144746.3   -39851.826    2700.4563   -42552.283    291.89477    226.09113 
   92450    129.98628   -1049.8804     144678.7     -39895.1    2621.9717   -42517.071    291.67405    219.52013 
   92500    132.15946   -967.59596    144632.46   -39940.959    2665.8071   -42606.767    291.49103    223.19018 
   92550    130.20842   -879.36451    144632.72   -39963.749    2626.4524   -42590.201    291.48072    219.89527 
   92600    133.19079   -1080.4058    144620.01   -39950.269    2686.6104    -42636.88    291.36357    224.93189 
   92650    130.83921   -1070.3306    144581.65   -39956.751    2639.1762   -42595.927    291.64799    220.96055 
   92700    131.02383   -1035.9159    144558.18     -39955.3    2642.9003     -42598.2    292.17915    221.27234 
   92750    134.65868   -961.06256    144542.35   -39886.632    2716.2193   -42602.851     293.0416    227.41085 
   92800    134.83528   -903.12458    144605.11   -39859.259    2719.7815   -42579.041    293.33466    227.70909 
   92850    133.14883   -1055.4146    144521.73   -39917.151     2685.764   -42602.915    294.01716    224.86103 
   92900    132.81215   -905.42251    144535.93   -39945.788    2678.9727   -42624.761     294.3724    224.29244 
   92950    133.99547   -909.05098    144670.93   -39932.891    2702.8415   -42635.732    294.50418    226.29082 
   93000    132.19263   -926.17471    144861.66   -39929.322    2666.4764   -42595.798    294.86325    223.24621 
   93050    129.55632   -1090.7755    144861.95    -39992.75     2613.299   -42606.049    294.79838    218.79402 
   93100    131.04288   -1027.1015    144876.94   -40025.416    2643.2845   -42668.701    294.81623    221.30451 
   93150    130.60453   -1045.1407    144812.75   -40038.985    2634.4425   -42673.428    295.10836    220.56423 
   93200    132.25371   -1197.1491    144709.63   -40023.369    2667.7084   -42691.077    295.25155    223.34936 
   93250    129.14144   -1154.6902    144523.39   -40058.704    2604.9303   -42663.634    295.23966    218.09337 
   93300    133.48634   -714.05525    144603.01   -39960.345    2692.5719   -42652.917    295.52067    225.43101 
   93350    134.54697   -1011.2044    144791.86   -39945.298    2713.9661   -42659.264    295.50783    227.22221 
   93400    130.16045   -1047.6656    144754.35   -39950.818    2625.4849   -42576.303    295.70739    219.81427 
   93450     133.0472   -825.89363    144842.26    -39945.31    2683.7139   -42629.024    295.78098     224.6894 
   93500    131.44452    -1101.386    144835.44   -39963.401     2651.386   -42614.787    295.83144    221.98279 
   93550    133.07577   -1002.5325    144886.71   -39942.806    2684.2903   -42627.096     296.2627    224.73765 
   93600    132.68861   -1003.7891    144923.22    -39995.41    2676.4807   -42671.891    296.18904    224.08381 
   93650    130.08979    -858.4035    145117.47   -40020.621    2624.0596   -42644.681    296.66572    219.69494 
   93700     131.9507   -934.48363     145067.2   -39994.577    2661.5962   -42656.173    296.46344    222.83762 
   93750    128.75371   -1046.9904    145020.91   -39994.428    2597.1092   -42591.537    296.90749    217.43856 
   93800    133.62052   -1064.2491    144951.67   -39967.078    2695.2784   -42662.356     297.1424    225.65761 
   93850    131.60008   -849.73458    145000.71   -40003.114    2654.5238   -42657.638    297.21201     222.2455 
   93900    131.67406   -921.42141    145017.24   -39985.542    2656.0162   -42641.558    297.06554    222.37045 
   93950    130.79131   -1058.9188    145048.95   -39956.766      2638.21   -42594.976    297.19753    220.87966 
   94000    130.69411   -1024.2259    144999.57   -39919.835    2636.2495   -42556.085    297.13325    220.71552 
   94050    134.11699   -961.07971    145106.42   -39884.205    2705.2928   -42589.498    297.06847    226.49605 
   94100    134.72678   -1108.6844    145076.18   -39873.762     2717.593   -42591.355    297.43412    227.52587 
   94150    131.94473   -1058.1865    145006.71   -39921.636    2661.4759   -42583.112    297.55309    222.82755 
   94200    132.43202   -1018.7614    145131.39   -39899.287     2671.305   -42570.592    297.76509    223.65048 
   94250    133.60996   -975.60785    145027.97   -39892.965    2695.0654    -42588.03    297.86186    225.63978 
   94300    134.36568   -1046.9434    145162.09    -39918.67    2710.3092   -42628.979     298.3885    226.91604 
   94350    134.06092   -1053.6836    145180.96   -39909.203    2704.1618   -42613.365    298.91422    226.40136 
   94400    133.04186   -968.60845    145131.34   -39960.556    2683.6062   -42644.162    299.28966    224.68037 
   94450    134.52802   -830.60232    145329.62   -39960.117    2713.5838     -42673.7    300.05208     227.1902 
   94500    132.93677   -1052.6008    145363.55   -39939.442    2681.4864   -42620.928    299.70829     224.5029 
   94550    132.78111   -1047.9269     145223.5   -39990.797    2678.3466   -42669.144     299.4574    224.24002 
   94600    132.36438     -1072.33    145286.95   -39997.189    2669.9406    -42667.13     299.4063    223.53625 
   94650     133.2702   -1085.3921    145349.17   -39968.939    2688.2122   -42657.151    299.75598      225.066 
   94700    135.23868   -1062.5058    145265.29   -39966.085    2727.9186   -42694.003    299.64355    228.39035 
   94750    134.32339   -1144.6769     145234.9   -39964.128    2709.4561   -42673.585    299.35534    226.84461 
   94800    135.42922   -1031.6141    144989.28    -39943.23    2731.7621   -42674.992    298.95082    228.71214 
   94850    133.63535    -896.8458       145026   -39992.455    2695.5776   -42688.033    299.11628    225.68266 
   94900    132.48636   -901.65218    145086.27   -39971.409     2672.401    -42643.81    299.26058    223.74224 
   94950    133.70098   -974.76953    145108.43   -39941.817    2696.9015   -42638.719    299.12439     225.7935 
   95000    134.92674   -1006.0737    145260.79   -39939.725    2721.6264   -42661.351    299.14742    227.86356 
   95050    133.38721   -1147.6708    145295.94   -39950.624    2690.5722   -42641.196    298.76949     225.2636 
   95100    133.71785    -969.4203     145300.6   -39920.056    2697.2417   -42617.297    298.89064    225.82199 
   95150    134.01526   -1060.0451    145325.24   -39895.282    2703.2408   -42598.523     298.8931    226.32425 
   95200    134.18223   -895.29822    145356.73   -39884.612    2706.6087   -42591.221    298.66974    226.60622 
   95250    130.94951   -995.79128     145274.1   -39946.979    2641.4012    -42588.38    298.44405    221.14683 
   95300    133.94814   -1091.4252    145200.57   -39956.223    2701.8869    -42658.11    298.64859     226.2109 
   95350    131.46114   -973.79262    145149.56   -40015.026    2651.7213   -42666.748    298.55449    222.01087 
   95400    131.99404   -1012.5005    145108.36   -40018.566    2662.4704   -42681.036    298.96305    222.91082 
   95450    131.48879   -999.16716    145111.39   -40010.488    2652.2789   -42662.766    298.90535    222.05755 
   95500    132.80935   -869.08315     145108.2   -39989.575    2678.9162   -42668.491    298.90622    224.28771 
   95550    130.85173   -984.72467    145266.67   -39980.658    2639.4287   -42620.087    299.37514    220.98169 
   95600    133.65237   -1046.2644    145377.18   -39990.792    2695.9209   -42686.713    300.05616     225.7114 
   95650    132.59759    -983.4154    145321.43   -40051.163    2674.6447   -42725.807    300.36903    223.93009 
   95700    135.94528   -1020.8777    145425.97   -40016.409    2742.1716    -42758.58    300.23659    229.58366 
   95750    129.63167   -982.25219    145451.72   -40010.291    2614.8187    -42625.11    300.96019    218.92126 
   95800     132.5483   -970.85289    145381.25   -39981.463    2673.6505   -42655.114    301.10662    223.84685 
   95850    133.87537   -1170.2444    145210.45   -39977.411     2700.419    -42677.83    300.77066      226.088 
   95900     130.6885   -965.10326    145239.58   -39997.324    2636.1363   -42633.461    301.28997    220.70604 
   95950    130.43752   -975.34321    145121.58   -39986.886    2631.0736    -42617.96    301.08401    220.28217 
   96000    132.78872   -1084.5897     144977.4   -39977.872       2678.5   -42656.372    301.11701    224.25287 
   96050    133.11903   -1066.6857    144842.32   -40000.953    2685.1628   -42686.116     301.1279     224.8107 
   96100    132.84882   -983.50277    144939.16   -39981.946    2679.7124   -42661.658    301.50776    224.35438 
   96150     129.7537    -938.8356    145045.02   -39986.394    2617.2802   -42603.674    301.74472    219.12734 
   96200    133.33032   -1029.9036    144941.81   -39969.158    2689.4247   -42658.582    302.20969    225.16752 
   96250    132.90544   -959.94078     144948.9   -39972.929    2680.8544   -42653.783    302.74455    224.44998 
   96300    131.38953   -1022.2071    144967.52   -39981.861    2650.2769   -42632.138    303.06743    221.88994 
   96350    133.44333   -1146.5027    144877.09   -39950.013    2691.7043   -42641.717    302.57088    225.35838 
   96400    132.19269   -891.22593    144990.01   -39951.243    2666.4775    -42617.72    302.72773    223.24631 
   96450    134.34746   -1033.2691    145052.02   -39921.168    2709.9416    -42631.11    302.79197    226.88526 
   96500    131.96219   -1022.2599    145063.63   -39977.679    2661.8281   -42639.507    302.83538    222.85704 
   96550    133.96768   -995.97185    145003.35   -39905.049    2702.2811    -42607.33     302.9641     226.2439 
   96600    132.04822    -1113.594    144879.36   -39987.366    2663.5632   -42650.929    302.89224    223.00231 
   96650    131.97683   -1081.9834    144829.62   -39993.441    2662.1234   -42655.564    303.15149    222.88177 
   96700    133.21695   -859.43498    144905.86   -40021.373     2687.138   -42708.511    303.21976    224.97607 
   96750    131.56697   -850.85715    145087.47   -40047.329    2653.8559   -42701.185    303.75486    222.18958 
   96800    132.69846   -1092.7874    145088.24   -40042.463    2676.6795   -42719.142    303.83263    224.10045 
   96850    134.91851    -870.1274    145197.35   -40004.424    2721.4604   -42725.885    304.12841    227.84966 
   96900     133.8537   -1060.1232    145251.51   -40015.289     2699.982   -42715.271    304.34301    226.05141 
   96950    134.70551   -909.66615    145308.21   -40021.524     2717.164   -42738.687    304.70709    227.48994 
   97000    131.07943   -973.61415     145297.9   -39980.404    2644.0218   -42624.426    304.64432    221.36624 
   97050    132.22471   -999.53568    145247.63   -39984.687    2667.1234    -42651.81    304.67342    223.30038 
   97100    132.74782   -996.38643    145177.99   -39977.113    2677.6751   -42654.788    304.70572     224.1838 
   97150    133.91755   -1228.8743    145114.85   -39953.232    2701.2699   -42654.502    304.61816    226.15924 
   97200    132.15772   -1022.9881    144957.36    -39986.83     2665.772   -42652.602    304.01106    223.18724 
   97250    132.43467   -895.04907    144900.35    -39974.21    2671.3585   -42645.568    304.21993    223.65495 
   97300    135.66791    -987.5868    144767.16   -39982.909    2736.5766   -42719.486     304.0836    229.11523 
   97350    130.21288   -1000.4606    144742.39     -40003.6    2626.5425   -42630.142    304.42872    219.90281 
   97400    131.30264   -1129.8295    144626.67   -39968.889    2648.5242   -42617.413    304.44346     221.7432 
   97450    132.61092   -1010.4995     144796.6    -39939.22    2674.9136   -42614.134    304.31635    223.95261 
   97500    135.02176   -875.50031    144832.17   -39899.314    2723.5431   -42622.857    304.51683    228.02402 
   97550    132.79787   -1027.5883    144961.22   -39935.339    2678.6846   -42614.023    304.97464    224.26832 
   97600    131.21222    -1040.923    144950.86   -39959.858    2646.7004   -42606.559    304.48145     221.5905 
   97650    133.31075   -964.13712       145039   -39955.061    2689.0299   -42644.091    304.66773    225.13447 
   97700    135.83404   -933.87051    145128.23   -39882.379    2739.9276   -42622.306    305.19414    229.39579 
   97750    135.08142   -1044.3576    145141.67    -39881.93    2724.7465   -42606.676    305.11686    228.12478 
   97800     134.7352   -1002.9163     145159.4     -39906.2    2717.7629   -42623.962    305.27121    227.54009 
   97850    134.15013   -1096.4349    145137.72   -39921.478    2705.9614   -42627.439    305.88008    226.55202 
   97900    135.85764   -1066.8483     145087.2   -39910.973    2740.4038   -42651.376    306.27966    229.43566 
   97950    132.40603   -944.79826    145121.29   -39941.065    2670.7807   -42611.846     306.7151    223.60659 
   98000    134.44404   -818.69454     145272.2    -39911.84    2711.8897    -42623.73    307.19475    227.04837 
   98050    134.23933   -1107.1452    145205.03    -39937.41    2707.7606    -42645.17    307.16172    226.70266 
   98100     133.9627   -1075.3322    145107.31   -39952.621    2702.1806   -42654.801    306.71765    226.23549 
   98150    133.46507   -852.05135    145241.37     -39916.7    2692.1428   -42608.843    307.51846    225.39509 
   98200    130.33183    -1053.981     145186.8   -39953.654    2628.9417   -42582.596    307.98762    220.10369 
   98250    132.99321    -1076.128    145013.74     -39986.7    2682.6249   -42669.325    307.89754    224.59821 
   98300    132.57007   -1005.0367    144950.44   -40002.877    2674.0896   -42676.967    307.78835    223.88361 
   98350    131.94158   -1014.8064    144943.15   -40004.922    2661.4123   -42666.334    307.65716    222.82223 
   98400    131.76391   -965.09246    144882.49   -40023.376    2657.8286   -42681.204    307.94391    222.52219 
   98450    129.63404   -898.22005     144977.7   -40007.328    2614.8665   -42622.195    307.88574    218.92527 
   98500    131.83177   -1144.8678    144897.09   -39965.603    2659.1974   -42624.801    308.27338    222.63679 
   98550    132.26892   -1064.2475    144766.12   -39964.686    2668.0152   -42632.701    308.44133    223.37504 
   98600    129.99972    -984.0596    144753.81   -39975.229    2622.2428   -42597.472    308.57839    219.54283 
   98650    132.14687   -984.30337    144658.06   -39990.565    2665.5533   -42656.118    308.44966    223.16893 
   98700    131.97985   -767.27122    144853.67   -39911.593    2662.1842   -42573.777    308.78408    222.88686 
   98750    133.33082   -995.53448    145015.01   -39847.497    2689.4348   -42536.932    309.01503    225.16836 
   98800    132.77571   -1025.1636    144898.31   -39899.963    2678.2377   -42578.201    309.15234    224.23091 
   98850    133.00269   -1093.5646    144907.99   -39918.483    2682.8161   -42601.299    309.03924    224.61423 
   98900    131.72024   -919.97754    144819.29   -39928.526    2656.9476   -42585.474    308.94431    222.44843 
   98950    132.37906   -1039.7386    144687.24   -39963.835    2670.2368   -42634.071    308.85173    223.56104 
   99000    131.02993   -1058.5373    144701.67   -39942.978    2643.0232   -42586.001    309.68995    221.28263 
   99050    133.92113   -924.89088    144714.97   -39883.949    2701.3422   -42585.291    309.80606    226.16529 
   99100    134.75113   -997.80703    144775.57   -39882.011     2718.084   -42600.095    310.15476    227.56697 
   99150    135.03967   -1051.1637    144796.97   -39867.961    2723.9042   -42591.865    310.16282    228.05426 
   99200    132.08124   -1023.7596    144858.94    -39919.99    2664.2295    -42584.22    310.79485    223.05809 
   99250    133.10202   -1018.7778    144885.54   -39943.844    2684.8197   -42628.664    311.02214    224.78198 
   99300    132.69716   -955.66529    145000.31   -39942.996    2676.6532   -42619.649    311.22049    224.09825 
   99350    131.21885   -1068.2579    144903.45   -39966.153    2646.8341   -42612.987     311.0316    221.60169 
   99400    132.13438   -1073.5772    144806.95   -40003.185    2665.3012   -42668.487    311.55645    223.14782 
   99450    133.20821   -933.12513    144692.56   -39948.679    2686.9617   -42635.641    311.32012    224.96131 
   99500     132.9334   -929.48919     144852.5   -39994.858    2681.4185   -42676.277    311.26671    224.49722 
   99550    129.98994   -1006.4597    144933.45   -40003.708    2622.0455   -42625.753    311.64746    219.52631 
   99600    133.32709     -948.419    144940.14   -40018.369    2689.3597   -42707.729    311.73389    225.16208 
   99650    132.02601   -1141.5249    144901.73   -40011.673    2663.1153   -42674.789    311.62723    222.96481 
   99700    132.29356   -995.46027    144859.22    -40026.58    2668.5122   -42695.092    312.16819    223.41665 
   99750    131.43753   -1060.4086    144879.98   -39948.491     2651.245   -42599.736    312.29775    221.97099 
   99800    130.09637   -964.91162    144777.44   -39935.714    2624.1923   -42559.906    312.58205    219.70605 
   99850    132.79036    -1030.369    144784.95   -39920.908    2678.5331   -42599.441    312.90988    224.25564 
   99900    131.75719   -818.65441    144664.29   -39903.722    2657.6929   -42561.415    312.79739    222.51083 
   99950    132.14029   -1033.3829    144690.56    -39912.34    2665.4206    -42577.76    312.80305    223.15781 
  100000    133.95496   -977.74839    144624.06   -39912.859    2702.0246   -42614.883    312.90573    226.22242 
Loop time of 341.478 on 40 procs for 100000 steps with 6768 atoms

Performance: 126.509 ns/day, 0.190 hours/ns, 292.844 timesteps/s
99.6% CPU use with 40 MPI tasks x no OpenMP threads

MPI task timing breakdown:
Section |  min time  |  avg time  |  max time  |%varavg| %total
---------------------------------------------------------------
Pair    | 50.634     | 137.27     | 284.91     | 679.0 | 40.20
Neigh   | 1.9312     | 4.1155     | 12.268     | 166.2 |  1.21
Comm    | 32.292     | 130.51     | 176.08     | 382.0 | 38.22
Output  | 0.17178    | 0.17816    | 0.27721    |   3.8 |  0.05
Modify  | 6.8166     | 68.001     | 153.96     | 832.9 | 19.91
Other   |            | 1.413      |            |       |  0.41

Nlocal:    169.2 ave 411 max 111 min
Histogram: 32 0 0 0 0 0 0 2 3 3
Nghost:    1282.75 ave 1659 max 858 min
Histogram: 16 0 0 0 0 0 0 0 17 7
Neighs:    0 ave 0 max 0 min
Histogram: 40 0 0 0 0 0 0 0 0 0
FullNghs:  20149.5 ave 75180 max 6961 min
Histogram: 32 0 0 0 0 0 0 1 3 4

Total # of neighbors = 805982
Ave neighs/atom = 119.087
Neighbor list builds = 6131
Dangerous builds = 0

write_data		${DIR}/data.eq-${NAME}-${TEMP}
write_data		run_5/data.eq-${NAME}-${TEMP}
write_data		run_5/data.eq-het_freeze_5-${TEMP}
write_data		run_5/data.eq-het_freeze_5-225
undump          1

reset_timestep  0

unfix           2
unfix           3
unfix           4


################################################
#######         Run Simulation         #########
################################################

log				${DIR}/log.run_${NAME}
log				run_5/log.run_${NAME}
log				run_5/log.run_het_freeze_5
