LAMMPS data file via write_data, version 16 Mar 2018, timestep = 100000

4560 atoms
2 atom types

0.0000000000000000e+00 4.9219999999999999e+01 xlo xhi
0.0000000000000000e+00 4.9019635930410494e+01 ylo yhi
1.1981090404991033e+00 3.2741890959501340e+01 zlo zhi

Masses

1 18.015
2 12.01

Atoms # atomic

147 2 0.0000000000000000e+00 2.8417180249513345e+00 3.2891310007638870e+00 0 0 0
149 2 0.0000000000000000e+00 0.0000000000000000e+00 3.2891310007638870e+00 0 0 0
151 2 1.2305000000000001e+00 7.1042950623783474e-01 3.2891310007638870e+00 0 0 0
158 2 1.2305000000000001e+00 2.1312885187134998e+00 3.2891310007638870e+00 0 0 0
160 2 2.4610000000000003e+00 2.8417180249513345e+00 3.2891310007638870e+00 0 0 0
162 2 2.4610000000000003e+00 0.0000000000000000e+00 3.2891310007638870e+00 0 0 0
164 2 3.6915000000000004e+00 7.1042950623783474e-01 3.2891310007638870e+00 0 0 0
179 2 3.6914999999999996e+00 2.1312885187134998e+00 3.2891310007638870e+00 0 0 0
181 2 4.9220000000000006e+00 2.8417180249513332e+00 3.2891310007638870e+00 0 0 0
183 2 4.9220000000000006e+00 0.0000000000000000e+00 3.2891310007638870e+00 0 0 0
185 2 6.1524999999999999e+00 7.1042950623783407e-01 3.2891310007638870e+00 0 0 0
208 2 6.1524999999999999e+00 2.1312885187134989e+00 3.2891310007638870e+00 0 0 0
210 2 7.3829999999999991e+00 2.8417180249513345e+00 3.2891310007638870e+00 0 0 0
212 2 7.3829999999999991e+00 0.0000000000000000e+00 3.2891310007638870e+00 0 0 0
214 2 8.6134999999999984e+00 7.1042950623783407e-01 3.2891310007638870e+00 0 0 0
245 2 8.6134999999999984e+00 2.1312885187135002e+00 3.2891310007638870e+00 0 0 0
247 2 9.8440000000000012e+00 2.8417180249513332e+00 3.2891310007638870e+00 0 0 0
249 2 9.8440000000000012e+00 0.0000000000000000e+00 3.2891310007638870e+00 0 0 0
251 2 1.1074500000000002e+01 7.1042950623783330e-01 3.2891310007638870e+00 0 0 0
290 2 1.1074500000000002e+01 2.1312885187135002e+00 3.2891310007638870e+00 0 0 0
154 2 0.0000000000000000e+00 4.2625770374269996e+00 3.2891310007638870e+00 0 0 0
156 2 1.2305000000000001e+00 4.9730065436648339e+00 3.2891310007638870e+00 0 0 0
171 2 1.2305000000000001e+00 6.3938655561404980e+00 3.2891310007638870e+00 0 0 0
175 2 2.4610000000000003e+00 4.2625770374269996e+00 3.2891310007638870e+00 0 0 0
177 2 3.6914999999999996e+00 4.9730065436648339e+00 3.2891310007638870e+00 0 0 0
200 2 3.6914999999999996e+00 6.3938655561404980e+00 3.2891310007638870e+00 0 0 0
152 2 0.0000000000000000e+00 7.1042950623783341e+00 3.2891310007638870e+00 0 0 0
173 2 2.4610000000000003e+00 7.1042950623783341e+00 3.2891310007638870e+00 0 0 0
204 2 4.9220000000000006e+00 4.2625770374269978e+00 3.2891310007638870e+00 0 0 0
206 2 6.1524999999999999e+00 4.9730065436648339e+00 3.2891310007638870e+00 0 0 0
237 2 6.1524999999999999e+00 6.3938655561404980e+00 3.2891310007638870e+00 0 0 0
241 2 7.3829999999999991e+00 4.2625770374269996e+00 3.2891310007638870e+00 0 0 0
202 2 4.9220000000000006e+00 7.1042950623783341e+00 3.2891310007638870e+00 0 0 0
239 2 7.3830000000000009e+00 7.1042950623783341e+00 3.2891310007638870e+00 0 0 0
243 2 8.6135000000000002e+00 4.9730065436648339e+00 3.2891310007638870e+00 0 0 0
282 2 8.6135000000000002e+00 6.3938655561404980e+00 3.2891310007638870e+00 0 0 0
286 2 9.8440000000000012e+00 4.2625770374270004e+00 3.2891310007638870e+00 0 0 0
288 2 1.1074500000000002e+01 4.9730065436648339e+00 3.2891310007638870e+00 0 0 0
329 2 1.1074500000000002e+01 6.3938655561404980e+00 3.2891310007638870e+00 0 0 0
284 2 9.8440000000000012e+00 7.1042950623783341e+00 3.2891310007638870e+00 0 0 0
167 2 0.0000000000000000e+00 8.5251540748539991e+00 3.2891310007638870e+00 0 0 0
169 2 1.2305000000000001e+00 9.2355835810918343e+00 3.2891310007638870e+00 0 0 0
196 2 2.4610000000000003e+00 8.5251540748539991e+00 3.2891310007638870e+00 0 0 0
198 2 3.6915000000000004e+00 9.2355835810918343e+00 3.2891310007638870e+00 0 0 0
165 2 0.0000000000000000e+00 1.1366872099805333e+01 3.2891310007638870e+00 0 0 0
192 2 1.2305000000000001e+00 1.0656442593567498e+01 3.2891310007638870e+00 0 0 0
194 2 2.4610000000000003e+00 1.1366872099805333e+01 3.2891310007638870e+00 0 0 0
229 2 3.6914999999999996e+00 1.0656442593567499e+01 3.2891310007638870e+00 0 0 0
233 2 4.9220000000000006e+00 8.5251540748539991e+00 3.2891310007638870e+00 0 0 0
235 2 6.1524999999999999e+00 9.2355835810918343e+00 3.2891310007638870e+00 0 0 0
278 2 7.3830000000000009e+00 8.5251540748539991e+00 3.2891310007638870e+00 0 0 0
231 2 4.9220000000000006e+00 1.1366872099805333e+01 3.2891310007638870e+00 0 0 0
274 2 6.1524999999999999e+00 1.0656442593567499e+01 3.2891310007638870e+00 0 0 0
276 2 7.3829999999999991e+00 1.1366872099805333e+01 3.2891310007638870e+00 0 0 0
280 2 8.6134999999999984e+00 9.2355835810918343e+00 3.2891310007638870e+00 0 0 0
325 2 9.8440000000000012e+00 8.5251540748539956e+00 3.2891310007638870e+00 0 0 0
327 2 1.1074500000000002e+01 9.2355835810918343e+00 3.2891310007638870e+00 0 0 0
321 2 8.6134999999999984e+00 1.0656442593567498e+01 3.2891310007638870e+00 0 0 0
323 2 9.8440000000000012e+00 1.1366872099805333e+01 3.2891310007638870e+00 0 0 0
368 2 1.1074500000000002e+01 1.0656442593567498e+01 3.2891310007638870e+00 0 0 0
370 2 1.2304999999999998e+01 1.1366872099805333e+01 3.2891310007638870e+00 0 0 0
148 2 0.0000000000000000e+00 1.4208590124756650e+00 6.2895648347688340e+00 0 0 0
150 2 0.0000000000000000e+00 0.0000000000000000e+00 6.2895648347688340e+00 0 0 0
159 2 1.2305000000000001e+00 2.1312885187134998e+00 6.2895648347688340e+00 0 0 0
161 2 2.4610000000000003e+00 1.4208590124756650e+00 6.2895648347688340e+00 0 0 0
163 2 2.4610000000000003e+00 0.0000000000000000e+00 6.2895648347688340e+00 0 0 0
180 2 3.6914999999999996e+00 2.1312885187134998e+00 6.2895648347688340e+00 0 0 0
157 2 1.2305000000000001e+00 3.5521475311891644e+00 6.2895648347688340e+00 0 0 0
178 2 3.6914999999999996e+00 3.5521475311891644e+00 6.2895648347688340e+00 0 0 0
182 2 4.9220000000000006e+00 1.4208590124756650e+00 6.2895648347688340e+00 0 0 0
184 2 4.9220000000000006e+00 0.0000000000000000e+00 6.2895648347688340e+00 0 0 0
209 2 6.1524999999999999e+00 2.1312885187134989e+00 6.2895648347688340e+00 0 0 0
211 2 7.3829999999999991e+00 1.4208590124756659e+00 6.2895648347688340e+00 0 0 0
213 2 7.3829999999999991e+00 0.0000000000000000e+00 6.2895648347688340e+00 0 0 0
207 2 6.1524999999999999e+00 3.5521475311891644e+00 6.2895648347688340e+00 0 0 0
246 2 8.6134999999999984e+00 2.1312885187135002e+00 6.2895648347688340e+00 0 0 0
248 2 9.8440000000000012e+00 1.4208590124756659e+00 6.2895648347688340e+00 0 0 0
250 2 9.8440000000000012e+00 0.0000000000000000e+00 6.2895648347688340e+00 0 0 0
291 2 1.1074500000000002e+01 2.1312885187135002e+00 6.2895648347688340e+00 0 0 0
244 2 8.6134999999999984e+00 3.5521475311891657e+00 6.2895648347688340e+00 0 0 0
289 2 1.1074500000000002e+01 3.5521475311891644e+00 6.2895648347688340e+00 0 0 0
153 2 0.0000000000000000e+00 5.6834360499026637e+00 6.2895648347688340e+00 0 0 0
155 2 0.0000000000000000e+00 4.2625770374269996e+00 6.2895648347688340e+00 0 0 0
172 2 1.2305000000000001e+00 6.3938655561404980e+00 6.2895648347688340e+00 0 0 0
174 2 2.4610000000000003e+00 5.6834360499026637e+00 6.2895648347688340e+00 0 0 0
176 2 2.4610000000000003e+00 4.2625770374269996e+00 6.2895648347688340e+00 0 0 0
201 2 3.6914999999999996e+00 6.3938655561404980e+00 6.2895648347688340e+00 0 0 0
170 2 1.2305000000000001e+00 7.8147245686161639e+00 6.2895648347688340e+00 0 0 0
199 2 3.6914999999999996e+00 7.8147245686161639e+00 6.2895648347688340e+00 0 0 0
203 2 4.9220000000000006e+00 5.6834360499026637e+00 6.2895648347688340e+00 0 0 0
205 2 4.9220000000000006e+00 4.2625770374269978e+00 6.2895648347688340e+00 0 0 0
238 2 6.1524999999999999e+00 6.3938655561404980e+00 6.2895648347688340e+00 0 0 0
240 2 7.3829999999999991e+00 5.6834360499026637e+00 6.2895648347688340e+00 0 0 0
242 2 7.3829999999999991e+00 4.2625770374269996e+00 6.2895648347688340e+00 0 0 0
236 2 6.1524999999999999e+00 7.8147245686161639e+00 6.2895648347688340e+00 0 0 0
283 2 8.6135000000000002e+00 6.3938655561404980e+00 6.2895648347688340e+00 0 0 0
285 2 9.8440000000000012e+00 5.6834360499026637e+00 6.2895648347688340e+00 0 0 0
287 2 9.8440000000000012e+00 4.2625770374270004e+00 6.2895648347688340e+00 0 0 0
330 2 1.1074500000000002e+01 6.3938655561404980e+00 6.2895648347688340e+00 0 0 0
281 2 8.6135000000000002e+00 7.8147245686161639e+00 6.2895648347688340e+00 0 0 0
328 2 1.1074500000000002e+01 7.8147245686161639e+00 6.2895648347688340e+00 0 0 0
166 2 0.0000000000000000e+00 9.9460130873296642e+00 6.2895648347688340e+00 0 0 0
168 2 0.0000000000000000e+00 8.5251540748539991e+00 6.2895648347688340e+00 0 0 0
195 2 2.4610000000000003e+00 9.9460130873296642e+00 6.2895648347688340e+00 0 0 0
197 2 2.4610000000000003e+00 8.5251540748539991e+00 6.2895648347688340e+00 0 0 0
191 2 1.2305000000000001e+00 1.2077301606043163e+01 6.2895648347688340e+00 0 0 0
193 2 1.2305000000000001e+00 1.0656442593567498e+01 6.2895648347688340e+00 0 0 0
228 2 3.6914999999999996e+00 1.2077301606043163e+01 6.2895648347688340e+00 0 0 0
230 2 3.6914999999999996e+00 1.0656442593567499e+01 6.2895648347688340e+00 0 0 0
232 2 4.9220000000000006e+00 9.9460130873296642e+00 6.2895648347688340e+00 0 0 0
234 2 4.9220000000000006e+00 8.5251540748539991e+00 6.2895648347688340e+00 0 0 0
277 2 7.3830000000000009e+00 9.9460130873296642e+00 6.2895648347688340e+00 0 0 0
279 2 7.3830000000000009e+00 8.5251540748539991e+00 6.2895648347688340e+00 0 0 0
273 2 6.1524999999999999e+00 1.2077301606043163e+01 6.2895648347688340e+00 0 0 0
275 2 6.1524999999999999e+00 1.0656442593567499e+01 6.2895648347688340e+00 0 0 0
322 2 8.6134999999999984e+00 1.0656442593567498e+01 6.2895648347688340e+00 0 0 0
367 2 1.1074500000000002e+01 1.2077301606043163e+01 6.2895648347688340e+00 0 0 0
369 2 1.1074500000000002e+01 1.0656442593567498e+01 6.2895648347688340e+00 0 0 0
324 2 9.8440000000000012e+00 9.9460130873296642e+00 6.2895648347688340e+00 0 0 0
326 2 9.8440000000000012e+00 8.5251540748539956e+00 6.2895648347688340e+00 0 0 0
320 2 8.6135000000000002e+00 1.2077301606043163e+01 6.2895648347688340e+00 0 0 0
476 2 0.0000000000000000e+00 2.8417180249513345e+00 9.2899986687736078e+00 0 0 0
477 2 0.0000000000000000e+00 0.0000000000000000e+00 9.2899986687736078e+00 0 0 0
478 2 1.2305000000000001e+00 7.1042950623783474e-01 9.2899986687736078e+00 0 0 0
482 2 1.2305000000000001e+00 2.1312885187134998e+00 9.2899986687736078e+00 0 0 0
483 2 2.4610000000000003e+00 2.8417180249513345e+00 9.2899986687736078e+00 0 0 0
484 2 2.4610000000000003e+00 0.0000000000000000e+00 9.2899986687736078e+00 0 0 0
485 2 3.6915000000000004e+00 7.1042950623783474e-01 9.2899986687736078e+00 0 0 0
493 2 3.6914999999999996e+00 2.1312885187134998e+00 9.2899986687736078e+00 0 0 0
1173 1 1.8114245266944884e+00 3.3718021743155715e+00 1.2349056609840501e+01 0 1 0
3172 1 1.1495123297281118e+01 3.4874149685213003e+00 1.1603386949347918e+01 1 -1 0
1190 1 4.1739512606832667e+00 3.1578648321108607e+00 1.1689222936789628e+01 0 0 0
494 2 4.9220000000000006e+00 2.8417180249513332e+00 9.2899986687736078e+00 0 0 0
495 2 4.9220000000000006e+00 0.0000000000000000e+00 9.2899986687736078e+00 0 0 0
496 2 6.1524999999999999e+00 7.1042950623783407e-01 9.2899986687736078e+00 0 0 0
508 2 6.1524999999999999e+00 2.1312885187134989e+00 9.2899986687736078e+00 0 0 0
509 2 7.3829999999999991e+00 2.8417180249513345e+00 9.2899986687736078e+00 0 0 0
510 2 7.3829999999999991e+00 0.0000000000000000e+00 9.2899986687736078e+00 0 0 0
3513 1 8.8351751585633931e+00 2.9270367528004497e+00 1.2017493956563136e+01 0 1 0
511 2 8.6134999999999984e+00 7.1042950623783407e-01 9.2899986687736078e+00 0 0 0
527 2 8.6134999999999984e+00 2.1312885187135002e+00 9.2899986687736078e+00 0 0 0
528 2 9.8440000000000012e+00 2.8417180249513332e+00 9.2899986687736078e+00 0 0 0
529 2 9.8440000000000012e+00 0.0000000000000000e+00 9.2899986687736078e+00 0 0 0
530 2 1.1074500000000002e+01 7.1042950623783330e-01 9.2899986687736078e+00 0 0 0
550 2 1.1074500000000002e+01 2.1312885187135002e+00 9.2899986687736078e+00 0 0 0
1236 1 1.4202202962627264e+00 5.2415814201230280e+00 1.5593297517542494e+01 0 0 0
2292 1 1.6205818255696101e+00 1.0340830815303747e+01 1.5956493105934086e+01 1 0 0
480 2 0.0000000000000000e+00 4.2625770374269996e+00 9.2899986687736078e+00 0 0 0
481 2 1.2305000000000001e+00 4.9730065436648339e+00 9.2899986687736078e+00 0 0 0
489 2 1.2305000000000001e+00 6.3938655561404980e+00 9.2899986687736078e+00 0 0 0
491 2 2.4610000000000003e+00 4.2625770374269996e+00 9.2899986687736078e+00 0 0 0
492 2 3.6914999999999996e+00 4.9730065436648339e+00 9.2899986687736078e+00 0 0 0
504 2 3.6914999999999996e+00 6.3938655561404980e+00 9.2899986687736078e+00 0 0 0
479 2 0.0000000000000000e+00 7.1042950623783341e+00 9.2899986687736078e+00 0 0 0
490 2 2.4610000000000003e+00 7.1042950623783341e+00 9.2899986687736078e+00 0 0 0
3480 1 3.0284526079311362e+00 8.2918659973426934e+00 1.4938916316114566e+01 0 0 0
3323 1 7.2109918738051415e-01 8.9270606297260824e-01 1.1553140239045497e+01 0 1 0
506 2 4.9220000000000006e+00 4.2625770374269978e+00 9.2899986687736078e+00 0 0 0
507 2 6.1524999999999999e+00 4.9730065436648339e+00 9.2899986687736078e+00 0 0 0
523 2 6.1524999999999999e+00 6.3938655561404980e+00 9.2899986687736078e+00 0 0 0
525 2 7.3829999999999991e+00 4.2625770374269996e+00 9.2899986687736078e+00 0 0 0
505 2 4.9220000000000006e+00 7.1042950623783341e+00 9.2899986687736078e+00 0 0 0
524 2 7.3830000000000009e+00 7.1042950623783341e+00 9.2899986687736078e+00 0 0 0
906 1 7.3824068983603812e+00 7.7406092450872492e+00 1.1879366272792119e+01 0 1 0
3374 1 6.3361382955090635e+00 4.6548587686535976e+00 1.2434001118865583e+01 0 -1 0
526 2 8.6135000000000002e+00 4.9730065436648339e+00 9.2899986687736078e+00 0 0 0
546 2 8.6135000000000002e+00 6.3938655561404980e+00 9.2899986687736078e+00 0 0 0
548 2 9.8440000000000012e+00 4.2625770374270004e+00 9.2899986687736078e+00 0 0 0
549 2 1.1074500000000002e+01 4.9730065436648339e+00 9.2899986687736078e+00 0 0 0
570 2 1.1074500000000002e+01 6.3938655561404980e+00 9.2899986687736078e+00 0 0 0
547 2 9.8440000000000012e+00 7.1042950623783341e+00 9.2899986687736078e+00 0 0 0
962 1 2.1208595374999915e+00 8.0039958120530628e+00 1.2007659890298248e+01 0 2 0
487 2 0.0000000000000000e+00 8.5251540748539991e+00 9.2899986687736078e+00 0 0 0
488 2 1.2305000000000001e+00 9.2355835810918343e+00 9.2899986687736078e+00 0 0 0
502 2 2.4610000000000003e+00 8.5251540748539991e+00 9.2899986687736078e+00 0 0 0
503 2 3.6915000000000004e+00 9.2355835810918343e+00 9.2899986687736078e+00 0 0 0
486 2 0.0000000000000000e+00 1.1366872099805333e+01 9.2899986687736078e+00 0 0 0
500 2 1.2305000000000001e+00 1.0656442593567498e+01 9.2899986687736078e+00 0 0 0
501 2 2.4610000000000003e+00 1.1366872099805333e+01 9.2899986687736078e+00 0 0 0
519 2 3.6914999999999996e+00 1.0656442593567499e+01 9.2899986687736078e+00 0 0 0
521 2 4.9220000000000006e+00 8.5251540748539991e+00 9.2899986687736078e+00 0 0 0
522 2 6.1524999999999999e+00 9.2355835810918343e+00 9.2899986687736078e+00 0 0 0
544 2 7.3830000000000009e+00 8.5251540748539991e+00 9.2899986687736078e+00 0 0 0
520 2 4.9220000000000006e+00 1.1366872099805333e+01 9.2899986687736078e+00 0 0 0
542 2 6.1524999999999999e+00 1.0656442593567499e+01 9.2899986687736078e+00 0 0 0
543 2 7.3829999999999991e+00 1.1366872099805333e+01 9.2899986687736078e+00 0 0 0
1222 1 4.8519482598940256e+00 9.1759531353461341e+00 1.2800237500878733e+01 -1 0 0
110 1 1.2090710954237887e+01 5.9406007105261125e+00 1.4459365119695455e+01 0 0 0
4250 1 5.1387542717571257e+00 4.7042001655941540e-01 1.6215626903042732e+01 1 1 0
4306 1 9.8168418746304180e+00 9.0744214460700086e+00 1.2000762079934361e+01 1 1 -1
545 2 8.6134999999999984e+00 9.2355835810918343e+00 9.2899986687736078e+00 0 0 0
568 2 9.8440000000000012e+00 8.5251540748539956e+00 9.2899986687736078e+00 0 0 0
569 2 1.1074500000000002e+01 9.2355835810918343e+00 9.2899986687736078e+00 0 0 0
566 2 8.6134999999999984e+00 1.0656442593567498e+01 9.2899986687736078e+00 0 0 0
567 2 9.8440000000000012e+00 1.1366872099805333e+01 9.2899986687736078e+00 0 0 0
590 2 1.1074500000000002e+01 1.0656442593567498e+01 9.2899986687736078e+00 0 0 0
591 2 1.2304999999999998e+01 1.1366872099805333e+01 9.2899986687736078e+00 0 0 0
2150 1 1.6865010016781112e+00 2.0915100404211491e+00 1.5063003194995451e+01 0 2 0
1176 1 3.6713110361239796e+00 3.2814889405495733e+00 1.6657791823050520e+01 1 -1 0
2183 1 6.2972947740304770e+00 3.7940056328394713e+00 1.5386331027537128e+01 0 1 -1
4339 1 6.5754436310363280e+00 6.5928774788444811e+00 1.6774857513986873e+01 0 -1 0
2195 1 3.9106171205267648e+00 6.4068801420776609e+00 1.6818154588032428e+01 0 0 0
2096 1 5.0388897420877639e+00 1.1940970749557927e+01 1.2379404290792012e+01 0 -1 0
1283 1 7.8745036818614000e-01 5.7062926877053819e+00 1.2997917028211916e+01 0 0 0
1108 1 8.2223838807025924e+00 6.3724669900079549e+00 1.4495278256649103e+01 1 0 0
3281 1 9.5945080439402943e+00 8.6009700290568318e+00 1.5011974511316433e+01 0 1 0
2099 1 9.8473852056801956e+00 1.1809293044659762e+01 1.1792280409910809e+01 0 1 0
4497 1 1.0011539442093678e+01 4.1132496672933501e+00 1.4865850807255212e+01 1 1 0
2031 1 2.9484091692253001e-01 1.0202675264265494e+01 1.2083816882489945e+01 0 1 0
2152 1 7.2045991090244357e+00 1.1435874315741081e+00 1.4454463486234117e+01 0 0 0
4476 1 9.5892877380373953e+00 1.1522104659251704e+01 1.4884101207491367e+01 1 -1 -1
881 1 5.0025305178560275e+00 4.5754371428967289e-01 1.1764954084498854e+01 1 0 0
1061 1 1.6522442019485595e+00 1.2195623499192255e+01 1.3878450668322213e+01 0 0 0
4538 1 1.1407007160530796e+01 4.9204190665062131e-01 1.4928777725770180e+01 1 1 0
1273 1 1.2295517654608028e+01 8.6157069244068452e-01 1.2224354992887944e+01 1 1 0
4526 1 7.5813630037204938e+00 9.1972889252016170e+00 1.6622038362380259e+01 1 0 0
3508 1 2.2667736971665260e+00 3.4131970403594485e+00 2.1579750991817093e+01 1 0 0
2090 1 3.7756899878939132e+00 2.3531738875884827e+00 1.9464012115736885e+01 0 1 0
2355 1 1.6599026250760212e+00 6.3773754080097218e+00 2.1438062467667258e+01 0 -1 1
4417 1 8.1663660756672911e+00 1.5075512037062684e+00 2.1941588976897847e+01 0 1 0
2361 1 8.9002877283435904e+00 3.3388576430977750e+00 1.7399728210318003e+01 0 0 0
61 1 4.5023070959036549e+00 1.0486297003623379e+01 2.2058310590156857e+01 0 0 0
3301 1 3.0859979880323829e+00 7.5558018370381159e+00 1.9321215975409061e+01 0 1 0
1214 1 5.4785755685113218e+00 6.5996948403363582e+00 2.0768854478363281e+01 0 1 0
3532 1 1.0259859120905872e+01 6.9303526557660851e+00 2.2385989066564107e+01 0 1 1
4357 1 6.5415689380405571e+00 2.3662077430022235e+00 1.9878303399765429e+01 1 0 0
937 1 9.7033272417127883e+00 6.7076210063409336e+00 1.9560482901077748e+01 0 0 0
986 1 7.1831984913393523e+00 5.1368003269067630e+00 1.9119076847772206e+01 1 1 0
3560 1 5.4469441996995771e+00 1.1187709569945401e+01 1.7551200834543785e+01 1 1 0
934 1 8.4307296756769752e+00 6.6043368811904344e+00 2.4441444211544074e+01 0 0 0
4515 1 7.3220750469309284e+00 1.1975712993959725e+01 2.3760136681193885e+01 1 -1 0
4519 1 9.2924840649975753e+00 9.8416023413273130e+00 1.8830167238432736e+01 0 1 0
2316 1 8.4627367858404607e+00 1.1192943271668288e+01 2.1280641224992522e+01 1 0 0
3303 1 1.0851936604145592e+01 9.6080825064347497e+00 2.2610640551727727e+01 0 0 0
111 1 2.7814175948241160e+00 3.2222185054090025e+00 2.4353862162313810e+01 1 1 0
4243 1 1.0951931550678280e+01 3.4169775132197922e+00 1.9359900957049703e+01 0 0 0
99 1 4.1522189081977192e+00 5.8637103693231687e+00 2.3443343209231671e+01 1 1 0
3589 1 6.6318342044885643e+00 4.6757103486167981e+00 2.4444319877390562e+01 1 2 0
2022 1 3.7389550596982866e+00 1.0255882331406644e+01 1.9607984334901445e+01 0 1 0
4478 1 7.8645310042966772e+00 2.2077548024434419e+00 2.4489321808125901e+01 -1 1 0
4359 1 8.9488451419966064e-01 3.6165006925309253e+00 1.8344609282216517e+01 -1 0 0
3440 1 1.0762420989198061e+01 2.6949321678332114e+00 2.2212765357117647e+01 1 1 0
2156 1 7.4806849267495323e+00 7.8348849324877723e-01 1.7682091343875079e+01 0 1 0
3266 1 1.0848337650778253e+00 1.0724251863680017e+01 1.8685035669449370e+01 0 0 0
1125 1 3.5573957210126489e-01 7.9939972629093212e+00 2.3317761413165947e+01 1 0 0
3206 1 2.8238329094674737e+00 9.5039018831261100e+00 2.3960021247224340e+01 1 0 0
1137 1 6.8084119975197961e+00 8.7709653206087275e+00 2.1987194684177815e+01 0 0 0
2089 1 1.1621223864715001e+01 1.1792442993004318e+01 1.7303101181384484e+01 0 1 0
32 1 1.1268112413949499e+01 7.5003801590520958e+00 1.7210524402167906e+01 0 0 0
1118 1 2.7691651256666412e+00 2.3087015487892519e+00 2.8715007084942073e+01 0 0 0
4313 1 1.7718535837748994e+00 1.1663259083491608e+01 2.4906229221569262e+01 1 0 0
3316 1 5.7472722875741846e+00 4.7708963474456700e+00 2.7044521142332762e+01 1 0 0
3499 1 1.0026037551883814e+01 1.4499628319145390e+00 2.8268915074821123e+01 0 0 -1
3454 1 2.2849380515005496e-01 6.4210865289086128e+00 2.5538177942869368e+01 -1 0 -1
3258 1 1.1670969812048206e+01 2.7847838749505449e+00 3.0280589902295183e+01 0 1 -1
874 1 3.0614152425384562e+00 5.8104983722709633e+00 2.6275566389147770e+01 0 0 0
2076 1 1.7499069020098150e+00 1.2099792872212683e+01 2.8087588274606901e+01 0 -1 0
4424 1 7.9051553626372186e+00 5.5422465312488454e+00 2.9305010669047199e+01 1 1 0
3342 1 9.4341320239804229e+00 6.0433172265020492e+00 2.6820484612451921e+01 -1 0 0
2384 1 1.0401672994118259e+01 8.7308664866622969e+00 2.7521654507139232e+01 1 1 0
4328 1 8.9654552642284386e+00 1.0675083282295450e+01 3.1675781896639165e+01 1 0 0
2425 1 1.0454160888394805e+01 8.2578573604824914e+00 3.2526108753360070e+01 0 0 1
1111 1 5.5633139570424515e+00 9.5352410815070883e+00 2.7890396161064729e+01 0 0 0
3262 1 6.6357870620497144e+00 8.8502055841074458e+00 3.1736069830692124e+01 1 0 0
3154 1 1.1068920814728791e+01 5.5768676087570404e+00 3.0801181320938596e+01 1 1 0
973 1 2.7147999720106428e+00 1.8865989656635176e+00 3.1699835026127232e+01 1 1 0
901 1 8.0756125215089885e+00 9.9314614038405349e+00 2.8920063822367844e+01 0 1 0
3472 1 5.1458502437526841e+00 4.6076481556454885e-01 3.2198966869759850e+01 1 0 0
4472 1 7.6984524998292816e+00 2.7771429998178059e+00 2.9523528202718261e+01 0 0 0
1175 1 7.3077978631217944e+00 2.3437775179724500e+00 3.2243571934831252e+01 -1 0 1
37 1 1.0201784895813381e+01 1.5107892608835762e+00 3.2599773618711808e+01 0 1 0
2231 1 4.4249787003775625e+00 8.1174306538059078e+00 2.5579711782191204e+01 0 0 0
2165 1 2.2416168520982791e+00 8.0533038581690697e+00 2.9550166548636597e+01 1 0 -1
4334 1 3.7885367747795269e+00 7.3422792111169413e+00 3.2253158114640975e+01 1 0 -1
1242 1 2.6686397091169058e+00 4.6119548091020928e+00 3.2441657681609499e+01 0 1 0
3174 1 5.3163220995547418e+00 7.0739637936415942e+00 2.9371046753084570e+01 0 0 -1
4374 1 1.9319801442374236e+00 1.0966537882230357e+01 3.2380460904117705e+01 2 1 -1
1138 1 3.1641898705400582e+00 5.2396905430098935e+00 2.9262150888394665e+01 0 1 -1
40 1 8.3787652008549482e+00 6.3294508412215515e+00 3.1990424607121078e+01 0 1 0
4272 1 1.2132308516942251e+01 6.5296046850408764e+00 2.8446763742233422e+01 0 1 -1
4346 1 6.9765081786031740e+00 9.2170275340708212e+00 2.4964602645986474e+01 1 0 -1
3413 1 3.5575195668803024e+00 1.0652745626124769e+01 2.9625525398118555e+01 -1 0 0
831 1 4.7864384498187711e+00 1.1133435676385604e+01 3.2394223389866944e+01 1 0 0
3353 1 5.4384421077430032e+00 2.0586113924102336e+00 2.7795880815074433e+01 1 0 0
2026 1 7.7063570614743337e-01 8.3103193718012527e+00 3.2045304148897777e+01 1 1 0
3229 1 1.1260945269610787e+01 1.0347370746780618e+01 2.5435863867743173e+01 -1 0 0
3486 1 9.8617737094295830e+00 3.4359244009430356e+00 2.5911461408177907e+01 0 1 0
4460 1 4.2765112749913503e-01 2.3377376206891807e+00 2.5366076870536745e+01 0 0 0
1116 1 6.0649119596636707e+00 4.7930521936721000e+00 3.2548562569799074e+01 -1 0 -1
1268 1 5.0916955403939861e+00 1.4228427129617507e+00 2.5009467073374893e+01 0 1 0
2188 1 1.1344374024724679e+01 3.0769323227145873e-01 2.5553554446678959e+01 0 1 0
2395 1 1.2293877118509393e+01 1.2067501737357247e+01 2.8366761970805669e+01 0 0 0
1017 1 2.8619459869791319e-01 5.4941342869162524e-01 3.2501043360913194e+01 0 0 0
188 2 0.0000000000000000e+00 1.2787731112280996e+01 3.2891310007638870e+00 0 0 0
190 2 1.2305000000000001e+00 1.3498160618518829e+01 3.2891310007638870e+00 0 0 0
225 2 2.4610000000000003e+00 1.2787731112280996e+01 3.2891310007638870e+00 0 0 0
227 2 3.6915000000000004e+00 1.3498160618518829e+01 3.2891310007638870e+00 0 0 0
186 2 0.0000000000000000e+00 1.5629449137232333e+01 3.2891310007638870e+00 0 0 0
221 2 1.2305000000000001e+00 1.4919019630994494e+01 3.2891310007638870e+00 0 0 0
223 2 2.4610000000000003e+00 1.5629449137232328e+01 3.2891310007638870e+00 0 0 0
266 2 3.6915000000000004e+00 1.4919019630994494e+01 3.2891310007638870e+00 0 0 0
270 2 4.9220000000000006e+00 1.2787731112280996e+01 3.2891310007638870e+00 0 0 0
272 2 6.1524999999999990e+00 1.3498160618518829e+01 3.2891310007638870e+00 0 0 0
317 2 7.3829999999999991e+00 1.2787731112280996e+01 3.2891310007638870e+00 0 0 0
268 2 4.9220000000000006e+00 1.5629449137232333e+01 3.2891310007638870e+00 0 0 0
313 2 6.1524999999999990e+00 1.4919019630994494e+01 3.2891310007638870e+00 0 0 0
315 2 7.3829999999999991e+00 1.5629449137232333e+01 3.2891310007638870e+00 0 0 0
319 2 8.6135000000000002e+00 1.3498160618518835e+01 3.2891310007638870e+00 0 0 0
364 2 9.8440000000000012e+00 1.2787731112280996e+01 3.2891310007638870e+00 0 0 0
366 2 1.1074500000000002e+01 1.3498160618518829e+01 3.2891310007638870e+00 0 0 0
360 2 8.6135000000000002e+00 1.4919019630994494e+01 3.2891310007638870e+00 0 0 0
362 2 9.8440000000000012e+00 1.5629449137232328e+01 3.2891310007638870e+00 0 0 0
402 2 1.1074500000000002e+01 1.4919019630994494e+01 3.2891310007638870e+00 0 0 0
217 2 0.0000000000000000e+00 1.7050308149707998e+01 3.2891310007638870e+00 0 0 0
262 2 2.4610000000000003e+00 1.7050308149707998e+01 3.2891310007638870e+00 0 0 0
215 2 0.0000000000000000e+00 1.9892026174659328e+01 3.2891310007638870e+00 0 0 0
219 2 1.2305000000000001e+00 1.7760737655945832e+01 3.2891310007638870e+00 0 0 0
258 2 1.2305000000000001e+00 1.9181596668421495e+01 3.2891310007638870e+00 0 0 0
260 2 2.4610000000000003e+00 1.9892026174659328e+01 3.2891310007638870e+00 0 0 0
264 2 3.6914999999999996e+00 1.7760737655945832e+01 3.2891310007638870e+00 0 0 0
305 2 3.6914999999999996e+00 1.9181596668421495e+01 3.2891310007638870e+00 0 0 0
309 2 4.9220000000000006e+00 1.7050308149707998e+01 3.2891310007638870e+00 0 0 0
356 2 7.3830000000000009e+00 1.7050308149707998e+01 3.2891310007638870e+00 0 0 0
307 2 4.9220000000000006e+00 1.9892026174659328e+01 3.2891310007638870e+00 0 0 0
311 2 6.1524999999999999e+00 1.7760737655945832e+01 3.2891310007638870e+00 0 0 0
352 2 6.1524999999999999e+00 1.9181596668421495e+01 3.2891310007638870e+00 0 0 0
354 2 7.3829999999999991e+00 1.9892026174659328e+01 3.2891310007638870e+00 0 0 0
398 2 9.8440000000000012e+00 1.7050308149707998e+01 3.2891310007638870e+00 0 0 0
432 2 1.2304999999999998e+01 1.7050308149707998e+01 3.2891310007638870e+00 0 0 0
358 2 8.6134999999999984e+00 1.7760737655945832e+01 3.2891310007638870e+00 0 0 0
394 2 8.6135000000000002e+00 1.9181596668421495e+01 3.2891310007638870e+00 0 0 0
396 2 9.8440000000000012e+00 1.9892026174659335e+01 3.2891310007638870e+00 0 0 0
400 2 1.1074500000000002e+01 1.7760737655945835e+01 3.2891310007638870e+00 0 0 0
428 2 1.1074500000000002e+01 1.9181596668421495e+01 3.2891310007638870e+00 0 0 0
252 2 0.0000000000000000e+00 2.4154603212086325e+01 3.2891310007638870e+00 0 0 0
254 2 0.0000000000000000e+00 2.1312885187134999e+01 3.2891310007638870e+00 0 0 0
256 2 1.2304999999999993e+00 2.2023314693372832e+01 3.2891310007638870e+00 0 0 0
297 2 1.2304999999999993e+00 2.3444173705848499e+01 3.2891310007638870e+00 0 0 0
299 2 2.4610000000000003e+00 2.4154603212086325e+01 3.2891310007638870e+00 0 0 0
301 2 2.4610000000000003e+00 2.1312885187134995e+01 3.2891310007638870e+00 0 0 0
303 2 3.6914999999999996e+00 2.2023314693372832e+01 3.2891310007638870e+00 0 0 0
344 2 3.6915000000000004e+00 2.3444173705848499e+01 3.2891310007638870e+00 0 0 0
346 2 4.9220000000000006e+00 2.4154603212086325e+01 3.2891310007638870e+00 0 0 0
348 2 4.9220000000000006e+00 2.1312885187134995e+01 3.2891310007638870e+00 0 0 0
350 2 6.1524999999999990e+00 2.2023314693372832e+01 3.2891310007638870e+00 0 0 0
386 2 6.1524999999999999e+00 2.3444173705848499e+01 3.2891310007638870e+00 0 0 0
388 2 7.3830000000000009e+00 2.4154603212086336e+01 3.2891310007638870e+00 0 0 0
390 2 7.3829999999999991e+00 2.1312885187134999e+01 3.2891310007638870e+00 0 0 0
392 2 8.6135000000000002e+00 2.2023314693372832e+01 3.2891310007638870e+00 0 0 0
420 2 8.6134999999999984e+00 2.3444173705848499e+01 3.2891310007638870e+00 0 0 0
422 2 9.8440000000000012e+00 2.4154603212086336e+01 3.2891310007638870e+00 0 0 0
424 2 9.8440000000000012e+00 2.1312885187134999e+01 3.2891310007638870e+00 0 0 0
426 2 1.1074500000000002e+01 2.2023314693372832e+01 3.2891310007638870e+00 0 0 0
446 2 1.1074500000000002e+01 2.3444173705848499e+01 3.2891310007638870e+00 0 0 0
189 2 0.0000000000000000e+00 1.2787731112280996e+01 6.2895648347688340e+00 0 0 0
226 2 2.4610000000000003e+00 1.2787731112280996e+01 6.2895648347688340e+00 0 0 0
187 2 0.0000000000000000e+00 1.4208590124756663e+01 6.2895648347688340e+00 0 0 0
222 2 1.2305000000000001e+00 1.4919019630994494e+01 6.2895648347688340e+00 0 0 0
224 2 2.4610000000000003e+00 1.4208590124756663e+01 6.2895648347688340e+00 0 0 0
267 2 3.6915000000000004e+00 1.4919019630994494e+01 6.2895648347688340e+00 0 0 0
271 2 4.9220000000000006e+00 1.2787731112280996e+01 6.2895648347688340e+00 0 0 0
318 2 7.3829999999999991e+00 1.2787731112280996e+01 6.2895648347688340e+00 0 0 0
269 2 4.9220000000000006e+00 1.4208590124756663e+01 6.2895648347688340e+00 0 0 0
314 2 6.1524999999999990e+00 1.4919019630994494e+01 6.2895648347688340e+00 0 0 0
316 2 7.3830000000000009e+00 1.4208590124756663e+01 6.2895648347688340e+00 0 0 0