LAMMPS data file via write_data, version 16 Mar 2018, timestep = 100000

6328 atoms
2 atom types

0.0000000000000000e+00 4.9219999999999999e+01 xlo xhi
0.0000000000000000e+00 4.9019635930410494e+01 ylo yhi
3.6908255712409535e+00 5.6371174428761037e+01 zlo zhi

Masses

1 18.015
2 12.01

Atoms # atomic

4831 1 3.9459042618987104e+00 1.4508397400078202e+01 1.1510589064375131e+01 1 0 0
1860 1 2.2758561203257970e+00 4.1878352561392758e+00 5.0735207184514657e+00 0 0 0
294 1 4.6184152305321557e+00 6.7410496324519475e-01 5.9623976134926870e+00 2 0 0
1542 1 6.5448766752598218e+00 2.5481413175799408e+00 6.7099644834725032e+00 0 0 1
250 1 8.8893554879014882e+00 1.9156741553479715e+00 8.1653423460729400e+00 1 0 0
4769 1 4.7703506889670813e+00 1.2405060641664218e+01 7.9825544087473963e+00 0 0 1
1675 1 6.7468796242505391e+00 8.2417408043099680e+00 9.5591059737520645e+00 0 0 0
498 1 8.1628015067607418e+00 1.5400313106617492e+01 8.3955892004471018e+00 0 0 1
5122 1 1.2694163580480216e+00 1.4455067577220289e+01 1.2270533494048196e+01 2 0 1
4609 1 4.2920745334300818e+00 5.7148721147643053e+00 5.9443512127936780e+00 1 -1 0
215 1 9.9707218602952852e-01 7.2511678666155461e+00 3.9420557657314186e+00 -1 0 0
167 1 8.2944603979872937e+00 7.2160893988142396e+00 4.6834671811288597e+00 -1 -1 0
4806 1 9.1628609988486840e+00 5.6457848181039507e+00 6.7776878763581125e+00 0 1 0
1999 1 1.1184639764640067e+00 1.3600382412540327e+01 4.7453081379304729e+00 1 0 0
4883 1 7.8602055473198025e+00 1.1983389700451211e+01 1.1347393911765710e+01 1 0 1
5239 1 2.6979060343047307e+00 9.5087561413444970e+00 4.4090244891827464e+00 1 1 0
465 1 3.9253776781934833e+00 8.4567335794021616e+00 6.4103262199774793e+00 0 0 0
1499 1 6.0908864500534516e+00 1.0043909282670123e+01 7.4490402900453034e+00 0 2 0
2804 1 7.5788518012756692e+00 1.0235384465340902e+01 4.9790448846015467e+00 1 -1 1
3266 1 6.2230202199237530e+00 1.3715213881531058e+01 9.9119944031049876e+00 -1 0 1
5032 1 5.3854791600372121e+00 1.3965103311809942e+01 5.6134865228383113e+00 1 0 0
277 1 2.7118844794633090e+00 1.1703241286015100e+01 1.1701208410078511e+01 0 1 0
4927 1 9.5499655158216878e+00 1.5887929892333901e+01 1.0736454836630612e+01 -1 0 0
1586 1 7.8984623414185773e+00 1.3141817019469086e+01 5.0445043621331189e+00 1 2 0
3063 1 9.1544059628757584e+00 9.1521291676621352e+00 8.8830402419280841e+00 0 0 1
404 1 3.7087888308884835e+00 3.1321226048255681e+00 1.1695183574802144e+01 0 1 1
1700 1 3.4420796337704362e+00 1.9975838669072066e+00 8.9020599769184745e+00 1 -1 1
5272 1 1.5086055430071827e+00 2.9871874011464938e+00 7.5362180685698821e+00 0 0 1
4930 1 2.3680486644461789e+00 1.1420967661271126e+01 8.8918804466553389e+00 1 1 0
1425 1 7.4371485602473006e+00 2.8437908472589144e+00 4.0496688841085655e+00 0 1 0
2827 1 4.6186170348709297e+00 3.7561921997057081e-02 1.2222167580157100e+01 1 1 0
4931 1 9.4098600384445419e+00 6.3955378705427313e+00 1.2142282585015089e+01 0 0 1
5049 1 5.1471226218402402e+00 4.4944464187213322e+00 8.1593343803560821e+00 1 -1 0
3219 1 3.0419978618115477e+00 5.8095388361422655e+00 9.8012433324033665e+00 0 1 0
288 1 5.1942832530871752e-01 1.3186898622696718e+01 7.4936514408071062e+00 1 2 1
2142 1 7.3549486834835269e+00 5.6495581344130192e+00 8.7690985593022415e+00 1 0 1
3482 1 8.3155390613310463e+00 3.5702893067103374e+00 1.0242964061167369e+01 0 1 0
1715 1 2.8115361684961110e-01 1.0567034149222373e+01 5.6608777535373651e+00 1 0 1
5288 1 2.2078031254696491e+00 8.5072246556875424e+00 8.8726013221605378e+00 -1 0 1
1817 1 2.8397350688917405e-01 4.9852485633579082e+00 9.3849976159596480e+00 0 0 1
412 1 6.6196847647618275e+00 9.5178222559706711e+00 1.1961596215006390e+01 0 2 1
3111 1 1.1450176010090163e+00 1.5629214775426826e+01 7.9979001146844704e+00 0 0 1
1255 1 6.2358586081420579e+00 5.5766684866709992e+00 3.9560542672321164e+00 1 -1 1
3596 1 6.7352957183487252e+00 5.4178127038334409e+00 1.2064088119039436e+01 1 0 0
3610 1 5.8252891380300715e+00 1.6194452971471797e+01 7.4009387733751861e+00 -1 0 0
3415 1 3.6540755053381004e+00 1.5968137422388642e+01 9.1369787033726411e+00 -1 0 0
360 1 4.0604390498430023e+00 6.0970873554250637e+00 1.2310988746059115e+01 1 0 0
4841 1 6.1635592601153748e+00 1.6110745854304128e+01 3.9480455217546497e+00 0 0 1
6070 1 9.8014479122791531e+00 1.3571240333712117e+01 7.1419946408562129e+00 0 1 1
1615 1 4.4309907834768980e+00 2.0072241853219044e+00 1.5887036354912766e+01 0 1 0
343 1 2.2527357896582809e+00 2.1287189301790330e+00 1.3782262508513348e+01 1 0 0
213 1 7.2195261740755816e+00 1.4545588898083130e+01 1.8687173377874181e+01 0 1 0
48 1 1.0162481084685211e+00 4.2741495723464631e+00 1.5274400383900307e+01 1 0 1
3392 1 9.3774977724010160e+00 2.5559117493104839e+00 1.5284945316676817e+01 0 0 1
2928 1 4.1979257888758594e+00 9.4397848135420190e+00 1.3170203318536643e+01 0 1 1
5984 1 3.8439577903583944e+00 7.0640451691435331e+00 1.7074428571669785e+01 0 0 0
4970 1 9.8638313237395370e-01 1.5755559569431606e+01 1.4792344703748888e+01 1 -1 0
4996 1 6.0273182091641848e+00 5.7433758749108044e-01 1.8310044033349346e+01 1 0 0
5026 1 7.2602521466471561e+00 4.4043779664915252e+00 1.5061552358203306e+01 1 0 1
3354 1 8.4876736281285385e+00 1.0167907004535701e+01 1.8126064198506150e+01 0 0 0
3690 1 7.7508299692669365e+00 7.0888843711415124e+00 1.4834594017257777e+01 1 1 1
4490 1 1.8083846208976864e+00 1.6471175542913802e-01 1.9346201066315185e+01 1 0 1
3369 1 1.3269818005454790e+00 8.9518129110744606e+00 1.2887433572502896e+01 2 -1 0
1638 1 5.2793071488019887e+00 1.0955988794849523e+01 1.5297060929337187e+01 1 0 0
1870 1 1.0235531001441529e+00 1.5067345605626507e+01 1.8649711667605168e+01 0 0 0
240 1 5.0050278308902385e+00 8.8614124238254721e+00 1.9479965007076689e+01 1 0 0
2801 1 8.3275137453926185e+00 1.0033887506939710e+01 1.4182964085188450e+01 1 0 0
3506 1 5.5445106949783849e+00 1.4634781326722205e+01 1.6002538427522772e+01 1 -1 0
2081 1 6.4343148575014100e+00 4.5747704382730259e+00 1.9681959108654510e+01 0 0 0
1588 1 8.4570159550919737e+00 1.4198365090189027e+01 1.2915894727754008e+01 2 1 1
2795 1 4.5715429654114219e+00 1.6182919487123783e+01 1.3776248125208157e+01 1 1 1
6121 1 7.7388634818984618e+00 1.2493720282407418e+01 1.5265562737766960e+01 1 1 1
6053 1 9.2068919643330087e+00 1.2455225659723329e+01 1.7594178955145338e+01 0 1 1
5998 1 4.5353263353127993e+00 1.4010157276714967e+01 2.0532307218700556e+01 1 0 1
503 1 1.2512453949324067e+00 4.1174726554118077e+00 1.8063188668873096e+01 0 1 0
345 1 3.0022945487953714e+00 2.4050775099537138e+00 1.8250701304654118e+01 1 1 0
4537 1 3.3361877599656022e+00 1.3729993914034585e+01 1.7720346203435128e+01 -1 0 0
5035 1 5.3281164266784860e+00 4.7126927982986944e+00 1.7174164786861049e+01 0 0 0
3296 1 8.1340564216671822e+00 2.4448440773922431e+00 1.7815707844765278e+01 1 0 0
6109 1 6.4189870626947689e+00 8.9258346964262678e+00 1.6794355413418060e+01 0 1 1
4644 1 2.0025922397437976e+00 6.4714883414777873e+00 1.9183466269786749e+01 1 0 0
165 1 2.2871703611107845e+00 6.6423779184302862e+00 1.4602749544096842e+01 1 0 0
1467 1 9.2114023354563255e+00 5.1596943771428494e+00 1.8729815739008863e+01 0 0 1
1914 1 2.1895024679699118e+00 9.5509567320904569e+00 1.8688079389357362e+01 0 -1 1
537 1 2.7716642644797482e+00 1.1447155420062684e+01 1.6649220406145673e+01 0 1 1
3559 1 4.5697005825028469e+00 2.1770720006248800e+00 2.0655166257519401e+01 1 1 0
4530 1 6.7901087001007934e+00 2.4298379552742255e+00 1.2582419619076390e+01 1 1 1
3143 1 7.9282090672041257e+00 3.8178639835948053e-01 1.4088028629422533e+01 0 0 0
4858 1 4.4606679608555250e-01 1.0712913909913828e+01 1.5382284317316039e+01 0 1 0
2874 1 3.1328877704696023e-01 1.3214035958131021e+01 2.0558819471678930e+01 1 1 0
322 1 7.5308190576422076e+00 1.0498693523520796e+01 2.0701591671890725e+01 1 0 1
2116 1 1.8602248702635380e+00 1.1121487746256470e+01 2.1149745861213518e+01 1 1 0
1458 1 2.1252367305658160e+00 3.5165844985925232e+00 2.1906905377012119e+01 1 0 0
303 1 4.5663797751864958e+00 1.1135197674258396e+01 2.1538640161711246e+01 0 0 0
4835 1 3.4501496610379858e+00 2.2046076890438275e+00 2.4011902623245092e+01 0 1 0
2954 1 8.9847657677270494e+00 5.0010879597481068e+00 2.3838560756552926e+01 0 1 1
720 2 7.3829999999999991e+00 1.5629449137232333e+01 2.6887292077014752e+01 0 0 0
1950 1 8.1010444681305316e+00 7.8758745745400267e+00 2.1544591035278177e+01 1 0 0
593 2 0.0000000000000000e+00 1.2787731112280996e+01 2.6887292077014752e+01 0 0 0
1584 1 7.7897239821884193e-02 9.9922025740772891e-01 2.1674852677705079e+01 2 1 0
4689 1 1.6516918593633569e+00 6.2820590976639465e+00 2.4415191897478895e+01 0 1 1
675 2 4.9220000000000006e+00 1.2787731112280996e+01 2.6887292077014752e+01 0 0 0
718 2 6.1524999999999990e+00 1.4919019630994494e+01 2.6887292077014752e+01 0 0 0
4949 1 5.9299641825042277e+00 3.4435766750171086e+00 2.4357517692796200e+01 1 0 0
4501 1 5.6716610990247833e+00 6.6829265777937934e+00 2.4075813656207277e+01 1 0 1
677 2 6.1524999999999990e+00 1.3498160618518829e+01 2.6887292077014752e+01 0 0 0
595 2 1.2305000000000001e+00 1.3498160618518829e+01 2.6887292077014752e+01 0 0 0
765 2 8.6135000000000002e+00 1.4919019630994494e+01 2.6887292077014752e+01 0 0 0
5091 1 1.2822000710254529e+00 1.0934288826518726e+01 2.4080431248021544e+01 1 0 0
1395 1 4.2440381146785802e+00 1.1617693751700415e+01 2.4315919781386430e+01 0 0 1
362 1 3.5373124849256512e+00 8.5884769209219289e+00 2.4654364186535236e+01 1 -1 0
628 2 2.4610000000000003e+00 1.5629449137232328e+01 2.6887292077014752e+01 0 0 0
6234 1 7.2225463031596480e+00 1.1356133698418990e+01 2.3619061637131065e+01 1 -1 1
5117 1 6.5161388153336386e-01 8.5871160321335829e+00 2.1446212588707340e+01 1 0 0
1744 1 3.8287022489189670e+00 1.4791878437417520e+01 2.4423128542623214e+01 1 -1 0
2050 1 8.1117700338265468e+00 8.4919785437381545e+00 2.4378877463535968e+01 0 1 0
673 2 4.9220000000000006e+00 1.5629449137232333e+01 2.6887292077014752e+01 0 0 0
4664 1 9.2265274267936415e-01 1.3802319657249381e+01 2.4674924350399024e+01 2 0 0
724 2 8.6135000000000002e+00 1.3498160618518835e+01 2.6887292077014752e+01 0 0 0
174 1 6.9644667988433211e+00 1.4298010017340916e+01 2.4512069162035399e+01 0 -1 1
722 2 7.3829999999999991e+00 1.2787731112280996e+01 2.6887292077014752e+01 0 0 0
552 2 0.0000000000000000e+00 2.8417180249513345e+00 2.6887292077014752e+01 0 0 0
554 2 0.0000000000000000e+00 0.0000000000000000e+00 2.6887292077014752e+01 0 0 0
556 2 1.2305000000000001e+00 7.1042950623783474e-01 2.6887292077014752e+01 0 0 0
563 2 1.2305000000000001e+00 2.1312885187134998e+00 2.6887292077014752e+01 0 0 0
565 2 2.4610000000000003e+00 2.8417180249513345e+00 2.6887292077014752e+01 0 0 0
567 2 2.4610000000000003e+00 0.0000000000000000e+00 2.6887292077014752e+01 0 0 0
569 2 3.6915000000000004e+00 7.1042950623783474e-01 2.6887292077014752e+01 0 0 0
584 2 3.6914999999999996e+00 2.1312885187134998e+00 2.6887292077014752e+01 0 0 0
586 2 4.9220000000000006e+00 2.8417180249513332e+00 2.6887292077014752e+01 0 0 0
588 2 4.9220000000000006e+00 0.0000000000000000e+00 2.6887292077014752e+01 0 0 0
590 2 6.1524999999999999e+00 7.1042950623783407e-01 2.6887292077014752e+01 0 0 0
613 2 6.1524999999999999e+00 2.1312885187134989e+00 2.6887292077014752e+01 0 0 0
615 2 7.3829999999999991e+00 2.8417180249513345e+00 2.6887292077014752e+01 0 0 0
617 2 7.3829999999999991e+00 0.0000000000000000e+00 2.6887292077014752e+01 0 0 0
619 2 8.6134999999999984e+00 7.1042950623783407e-01 2.6887292077014752e+01 0 0 0
650 2 8.6134999999999984e+00 2.1312885187135002e+00 2.6887292077014752e+01 0 0 0
559 2 0.0000000000000000e+00 4.2625770374269996e+00 2.6887292077014752e+01 0 0 0
561 2 1.2305000000000001e+00 4.9730065436648339e+00 2.6887292077014752e+01 0 0 0
576 2 1.2305000000000001e+00 6.3938655561404980e+00 2.6887292077014752e+01 0 0 0
580 2 2.4610000000000003e+00 4.2625770374269996e+00 2.6887292077014752e+01 0 0 0
582 2 3.6914999999999996e+00 4.9730065436648339e+00 2.6887292077014752e+01 0 0 0
605 2 3.6914999999999996e+00 6.3938655561404980e+00 2.6887292077014752e+01 0 0 0
557 2 0.0000000000000000e+00 7.1042950623783341e+00 2.6887292077014752e+01 0 0 0
578 2 2.4610000000000003e+00 7.1042950623783341e+00 2.6887292077014752e+01 0 0 0
609 2 4.9220000000000006e+00 4.2625770374269978e+00 2.6887292077014752e+01 0 0 0
611 2 6.1524999999999999e+00 4.9730065436648339e+00 2.6887292077014752e+01 0 0 0
642 2 6.1524999999999999e+00 6.3938655561404980e+00 2.6887292077014752e+01 0 0 0
646 2 7.3829999999999991e+00 4.2625770374269996e+00 2.6887292077014752e+01 0 0 0
648 2 8.6135000000000002e+00 4.9730065436648339e+00 2.6887292077014752e+01 0 0 0
687 2 8.6135000000000002e+00 6.3938655561404980e+00 2.6887292077014752e+01 0 0 0
607 2 4.9220000000000006e+00 7.1042950623783341e+00 2.6887292077014752e+01 0 0 0
644 2 7.3830000000000009e+00 7.1042950623783341e+00 2.6887292077014752e+01 0 0 0
572 2 0.0000000000000000e+00 8.5251540748539991e+00 2.6887292077014752e+01 0 0 0
574 2 1.2305000000000001e+00 9.2355835810918343e+00 2.6887292077014752e+01 0 0 0
601 2 2.4610000000000003e+00 8.5251540748539991e+00 2.6887292077014752e+01 0 0 0
603 2 3.6915000000000004e+00 9.2355835810918343e+00 2.6887292077014752e+01 0 0 0
570 2 0.0000000000000000e+00 1.1366872099805333e+01 2.6887292077014752e+01 0 0 0
597 2 1.2305000000000001e+00 1.0656442593567498e+01 2.6887292077014752e+01 0 0 0
599 2 2.4610000000000003e+00 1.1366872099805333e+01 2.6887292077014752e+01 0 0 0
634 2 3.6914999999999996e+00 1.0656442593567499e+01 2.6887292077014752e+01 0 0 0
638 2 4.9220000000000006e+00 8.5251540748539991e+00 2.6887292077014752e+01 0 0 0
640 2 6.1524999999999999e+00 9.2355835810918343e+00 2.6887292077014752e+01 0 0 0
683 2 7.3830000000000009e+00 8.5251540748539991e+00 2.6887292077014752e+01 0 0 0
685 2 8.6134999999999984e+00 9.2355835810918343e+00 2.6887292077014752e+01 0 0 0
636 2 4.9220000000000006e+00 1.1366872099805333e+01 2.6887292077014752e+01 0 0 0
679 2 6.1524999999999999e+00 1.0656442593567499e+01 2.6887292077014752e+01 0 0 0
681 2 7.3829999999999991e+00 1.1366872099805333e+01 2.6887292077014752e+01 0 0 0
726 2 8.6134999999999984e+00 1.0656442593567498e+01 2.6887292077014752e+01 0 0 0
630 2 2.4610000000000003e+00 1.2787731112280996e+01 2.6887292077014752e+01 0 0 0
632 2 3.6915000000000004e+00 1.3498160618518829e+01 2.6887292077014752e+01 0 0 0
671 2 3.6915000000000004e+00 1.4919019630994494e+01 2.6887292077014752e+01 0 0 0
591 2 0.0000000000000000e+00 1.5629449137232333e+01 2.6887292077014752e+01 0 0 0
626 2 1.2305000000000001e+00 1.4919019630994494e+01 2.6887292077014752e+01 0 0 0
3068 1 7.8303162929347758e-01 1.5338827441368357e+01 2.2202286090794932e+01 0 -1 1
1939 1 9.6677267586244895e+00 1.2836737125582914e+01 2.4411182147211793e+01 0 0 0
2894 1 2.7272094874498989e+00 6.2763885575826164e+00 2.1727315721365340e+01 1 0 1
6097 1 7.3877946067644382e+00 2.7865465411466088e+00 2.1917125290589361e+01 1 1 1
1857 1 8.1360237197297192e+00 1.4347505423056708e+00 2.4493078490297325e+01 0 0 0
5960 1 7.0636906219620119e+00 1.4249991459061574e+01 2.1784419324297637e+01 0 0 1
5111 1 5.4763506161123523e+00 6.5926356086667610e+00 2.1335425732193862e+01 1 0 0
553 2 0.0000000000000000e+00 1.4208590124756650e+00 3.0031000000001050e+01 0 0 0
555 2 0.0000000000000000e+00 0.0000000000000000e+00 3.0031000000001050e+01 0 0 0
564 2 1.2305000000000001e+00 2.1312885187134998e+00 3.0031000000001050e+01 0 0 0
566 2 2.4610000000000003e+00 1.4208590124756650e+00 3.0031000000001050e+01 0 0 0
568 2 2.4610000000000003e+00 0.0000000000000000e+00 3.0031000000001050e+01 0 0 0
585 2 3.6914999999999996e+00 2.1312885187134998e+00 3.0031000000001050e+01 0 0 0
562 2 1.2305000000000001e+00 3.5521475311891644e+00 3.0031000000001050e+01 0 0 0
583 2 3.6914999999999996e+00 3.5521475311891644e+00 3.0031000000001050e+01 0 0 0
881 2 0.0000000000000000e+00 2.8417180249513345e+00 3.3174707922986272e+01 0 0 0
882 2 0.0000000000000000e+00 0.0000000000000000e+00 3.3174707922986272e+01 0 0 0
883 2 1.2305000000000001e+00 7.1042950623783474e-01 3.3174707922986272e+01 0 0 0
887 2 1.2305000000000001e+00 2.1312885187134998e+00 3.3174707922986272e+01 0 0 0
888 2 2.4610000000000003e+00 2.8417180249513345e+00 3.3174707922986272e+01 0 0 0
889 2 2.4610000000000003e+00 0.0000000000000000e+00 3.3174707922986272e+01 0 0 0
890 2 3.6915000000000004e+00 7.1042950623783474e-01 3.3174707922986272e+01 0 0 0
898 2 3.6914999999999996e+00 2.1312885187134998e+00 3.3174707922986272e+01 0 0 0
587 2 4.9220000000000006e+00 1.4208590124756650e+00 3.0031000000001050e+01 0 0 0
589 2 4.9220000000000006e+00 0.0000000000000000e+00 3.0031000000001050e+01 0 0 0
614 2 6.1524999999999999e+00 2.1312885187134989e+00 3.0031000000001050e+01 0 0 0
616 2 7.3829999999999991e+00 1.4208590124756659e+00 3.0031000000001050e+01 0 0 0
618 2 7.3829999999999991e+00 0.0000000000000000e+00 3.0031000000001050e+01 0 0 0
651 2 8.6134999999999984e+00 2.1312885187135002e+00 3.0031000000001050e+01 0 0 0
612 2 6.1524999999999999e+00 3.5521475311891644e+00 3.0031000000001050e+01 0 0 0
649 2 8.6134999999999984e+00 3.5521475311891657e+00 3.0031000000001050e+01 0 0 0
899 2 4.9220000000000006e+00 2.8417180249513332e+00 3.3174707922986272e+01 0 0 0
900 2 4.9220000000000006e+00 0.0000000000000000e+00 3.3174707922986272e+01 0 0 0
901 2 6.1524999999999999e+00 7.1042950623783407e-01 3.3174707922986272e+01 0 0 0
913 2 6.1524999999999999e+00 2.1312885187134989e+00 3.3174707922986272e+01 0 0 0
914 2 7.3829999999999991e+00 2.8417180249513345e+00 3.3174707922986272e+01 0 0 0
915 2 7.3829999999999991e+00 0.0000000000000000e+00 3.3174707922986272e+01 0 0 0
916 2 8.6134999999999984e+00 7.1042950623783407e-01 3.3174707922986272e+01 0 0 0
932 2 8.6134999999999984e+00 2.1312885187135002e+00 3.3174707922986272e+01 0 0 0
558 2 0.0000000000000000e+00 5.6834360499026637e+00 3.0031000000001050e+01 0 0 0
560 2 0.0000000000000000e+00 4.2625770374269996e+00 3.0031000000001050e+01 0 0 0
577 2 1.2305000000000001e+00 6.3938655561404980e+00 3.0031000000001050e+01 0 0 0
579 2 2.4610000000000003e+00 5.6834360499026637e+00 3.0031000000001050e+01 0 0 0
581 2 2.4610000000000003e+00 4.2625770374269996e+00 3.0031000000001050e+01 0 0 0
606 2 3.6914999999999996e+00 6.3938655561404980e+00 3.0031000000001050e+01 0 0 0
575 2 1.2305000000000001e+00 7.8147245686161639e+00 3.0031000000001050e+01 0 0 0
604 2 3.6914999999999996e+00 7.8147245686161639e+00 3.0031000000001050e+01 0 0 0
885 2 0.0000000000000000e+00 4.2625770374269996e+00 3.3174707922986272e+01 0 0 0
886 2 1.2305000000000001e+00 4.9730065436648339e+00 3.3174707922986272e+01 0 0 0
894 2 1.2305000000000001e+00 6.3938655561404980e+00 3.3174707922986272e+01 0 0 0
896 2 2.4610000000000003e+00 4.2625770374269996e+00 3.3174707922986272e+01 0 0 0
897 2 3.6914999999999996e+00 4.9730065436648339e+00 3.3174707922986272e+01 0 0 0
909 2 3.6914999999999996e+00 6.3938655561404980e+00 3.3174707922986272e+01 0 0 0
884 2 0.0000000000000000e+00 7.1042950623783341e+00 3.3174707922986272e+01 0 0 0
895 2 2.4610000000000003e+00 7.1042950623783341e+00 3.3174707922986272e+01 0 0 0
608 2 4.9220000000000006e+00 5.6834360499026637e+00 3.0031000000001050e+01 0 0 0
610 2 4.9220000000000006e+00 4.2625770374269978e+00 3.0031000000001050e+01 0 0 0
643 2 6.1524999999999999e+00 6.3938655561404980e+00 3.0031000000001050e+01 0 0 0
645 2 7.3829999999999991e+00 5.6834360499026637e+00 3.0031000000001050e+01 0 0 0
647 2 7.3829999999999991e+00 4.2625770374269996e+00 3.0031000000001050e+01 0 0 0
688 2 8.6135000000000002e+00 6.3938655561404980e+00 3.0031000000001050e+01 0 0 0
641 2 6.1524999999999999e+00 7.8147245686161639e+00 3.0031000000001050e+01 0 0 0
686 2 8.6135000000000002e+00 7.8147245686161639e+00 3.0031000000001050e+01 0 0 0
911 2 4.9220000000000006e+00 4.2625770374269978e+00 3.3174707922986272e+01 0 0 0
912 2 6.1524999999999999e+00 4.9730065436648339e+00 3.3174707922986272e+01 0 0 0
928 2 6.1524999999999999e+00 6.3938655561404980e+00 3.3174707922986272e+01 0 0 0
930 2 7.3829999999999991e+00 4.2625770374269996e+00 3.3174707922986272e+01 0 0 0
931 2 8.6135000000000002e+00 4.9730065436648339e+00 3.3174707922986272e+01 0 0 0
951 2 8.6135000000000002e+00 6.3938655561404980e+00 3.3174707922986272e+01 0 0 0
910 2 4.9220000000000006e+00 7.1042950623783341e+00 3.3174707922986272e+01 0 0 0
929 2 7.3830000000000009e+00 7.1042950623783341e+00 3.3174707922986272e+01 0 0 0
571 2 0.0000000000000000e+00 9.9460130873296642e+00 3.0031000000001050e+01 0 0 0
573 2 0.0000000000000000e+00 8.5251540748539991e+00 3.0031000000001050e+01 0 0 0
600 2 2.4610000000000003e+00 9.9460130873296642e+00 3.0031000000001050e+01 0 0 0
602 2 2.4610000000000003e+00 8.5251540748539991e+00 3.0031000000001050e+01 0 0 0
596 2 1.2305000000000001e+00 1.2077301606043163e+01 3.0031000000001050e+01 0 0 0
598 2 1.2305000000000001e+00 1.0656442593567498e+01 3.0031000000001050e+01 0 0 0
633 2 3.6914999999999996e+00 1.2077301606043163e+01 3.0031000000001050e+01 0 0 0
635 2 3.6914999999999996e+00 1.0656442593567499e+01 3.0031000000001050e+01 0 0 0
892 2 0.0000000000000000e+00 8.5251540748539991e+00 3.3174707922986272e+01 0 0 0
893 2 1.2305000000000001e+00 9.2355835810918343e+00 3.3174707922986272e+01 0 0 0
907 2 2.4610000000000003e+00 8.5251540748539991e+00 3.3174707922986272e+01 0 0 0
908 2 3.6915000000000004e+00 9.2355835810918343e+00 3.3174707922986272e+01 0 0 0
891 2 0.0000000000000000e+00 1.1366872099805333e+01 3.3174707922986272e+01 0 0 0
905 2 1.2305000000000001e+00 1.0656442593567498e+01 3.3174707922986272e+01 0 0 0
906 2 2.4610000000000003e+00 1.1366872099805333e+01 3.3174707922986272e+01 0 0 0
924 2 3.6914999999999996e+00 1.0656442593567499e+01 3.3174707922986272e+01 0 0 0
637 2 4.9220000000000006e+00 9.9460130873296642e+00 3.0031000000001050e+01 0 0 0
639 2 4.9220000000000006e+00 8.5251540748539991e+00 3.0031000000001050e+01 0 0 0
682 2 7.3830000000000009e+00 9.9460130873296642e+00 3.0031000000001050e+01 0 0 0
684 2 7.3830000000000009e+00 8.5251540748539991e+00 3.0031000000001050e+01 0 0 0
678 2 6.1524999999999999e+00 1.2077301606043163e+01 3.0031000000001050e+01 0 0 0
680 2 6.1524999999999999e+00 1.0656442593567499e+01 3.0031000000001050e+01 0 0 0
725 2 8.6135000000000002e+00 1.2077301606043163e+01 3.0031000000001050e+01 0 0 0
727 2 8.6134999999999984e+00 1.0656442593567498e+01 3.0031000000001050e+01 0 0 0
926 2 4.9220000000000006e+00 8.5251540748539991e+00 3.3174707922986272e+01 0 0 0
927 2 6.1524999999999999e+00 9.2355835810918343e+00 3.3174707922986272e+01 0 0 0
949 2 7.3830000000000009e+00 8.5251540748539991e+00 3.3174707922986272e+01 0 0 0
950 2 8.6134999999999984e+00 9.2355835810918343e+00 3.3174707922986272e+01 0 0 0
925 2 4.9220000000000006e+00 1.1366872099805333e+01 3.3174707922986272e+01 0 0 0
947 2 6.1524999999999999e+00 1.0656442593567499e+01 3.3174707922986272e+01 0 0 0
948 2 7.3829999999999991e+00 1.1366872099805333e+01 3.3174707922986272e+01 0 0 0
971 2 8.6134999999999984e+00 1.0656442593567498e+01 3.3174707922986272e+01 0 0 0
594 2 0.0000000000000000e+00 1.2787731112280996e+01 3.0031000000001050e+01 0 0 0
631 2 2.4610000000000003e+00 1.2787731112280996e+01 3.0031000000001050e+01 0 0 0
592 2 0.0000000000000000e+00 1.4208590124756663e+01 3.0031000000001050e+01 0 0 0
627 2 1.2305000000000001e+00 1.4919019630994494e+01 3.0031000000001050e+01 0 0 0
629 2 2.4610000000000003e+00 1.4208590124756663e+01 3.0031000000001050e+01 0 0 0
672 2 3.6915000000000004e+00 1.4919019630994494e+01 3.0031000000001050e+01 0 0 0
903 2 0.0000000000000000e+00 1.2787731112280996e+01 3.3174707922986272e+01 0 0 0
904 2 1.2305000000000001e+00 1.3498160618518829e+01 3.3174707922986272e+01 0 0 0
922 2 2.4610000000000003e+00 1.2787731112280996e+01 3.3174707922986272e+01 0 0 0
923 2 3.6915000000000004e+00 1.3498160618518829e+01 3.3174707922986272e+01 0 0 0
902 2 0.0000000000000000e+00 1.5629449137232333e+01 3.3174707922986272e+01 0 0 0
920 2 1.2305000000000001e+00 1.4919019630994494e+01 3.3174707922986272e+01 0 0 0
921 2 2.4610000000000003e+00 1.5629449137232328e+01 3.3174707922986272e+01 0 0 0
943 2 3.6915000000000004e+00 1.4919019630994494e+01 3.3174707922986272e+01 0 0 0
676 2 4.9220000000000006e+00 1.2787731112280996e+01 3.0031000000001050e+01 0 0 0
723 2 7.3829999999999991e+00 1.2787731112280996e+01 3.0031000000001050e+01 0 0 0
674 2 4.9220000000000006e+00 1.4208590124756663e+01 3.0031000000001050e+01 0 0 0
719 2 6.1524999999999990e+00 1.4919019630994494e+01 3.0031000000001050e+01 0 0 0
721 2 7.3830000000000009e+00 1.4208590124756663e+01 3.0031000000001050e+01 0 0 0
766 2 8.6135000000000002e+00 1.4919019630994494e+01 3.0031000000001050e+01 0 0 0
945 2 4.9220000000000006e+00 1.2787731112280996e+01 3.3174707922986272e+01 0 0 0
946 2 6.1524999999999990e+00 1.3498160618518829e+01 3.3174707922986272e+01 0 0 0
969 2 7.3829999999999991e+00 1.2787731112280996e+01 3.3174707922986272e+01 0 0 0
970 2 8.6135000000000002e+00 1.3498160618518835e+01 3.3174707922986272e+01 0 0 0
944 2 4.9220000000000006e+00 1.5629449137232333e+01 3.3174707922986272e+01 0 0 0
967 2 6.1524999999999990e+00 1.4919019630994494e+01 3.3174707922986272e+01 0 0 0
968 2 7.3829999999999991e+00 1.5629449137232333e+01 3.3174707922986272e+01 0 0 0
991 2 8.6135000000000002e+00 1.4919019630994494e+01 3.3174707922986272e+01 0 0 0
1878 1 4.0469654763248775e+00 2.0937917315264998e+00 3.5477813872912662e+01 2 0 -1
489 1 5.5005833091798548e+00 1.3309025900510727e+01 3.6033421799913882e+01 1 0 0
1613 1 1.3132164017579733e+00 2.2281561438989756e+00 3.6104693510632046e+01 1 1 0
3071 1 8.4333971756311961e+00 2.0592101294435297e-01 3.6378773744562281e+01 -1 1 -1
5318 1 5.7265355140022978e+00 2.8693058675041540e-02 3.6036234359137865e+01 0 1 -1
1403 1 2.1000184026893143e+00 1.1897870281832724e+01 3.8466494178120101e+01 1 0 0
1479 1 8.3572483778949813e+00 1.3171583314824979e+01 3.6410707499882861e+01 0 0 0
5954 1 4.7215389858876016e+00 7.1279433073829406e+00 3.5440993433641026e+01 0 0 0
53 1 4.2903620223871091e+00 1.5886195383645227e+01 3.6004729875922337e+01 0 1 -1
1695 1 1.6580613635204720e+00 1.4763033444163943e+01 3.5644157254212992e+01 0 0 -1
4409 1 5.0328527614772804e+00 4.5455375022313760e+00 3.6244765550529550e+01 2 0 -1
4869 1 7.7234983325920092e+00 4.1554505160703119e+00 3.6285706220735705e+01 1 1 0
3660 1 8.7437462086701405e+00 6.8111642815510649e+00 3.5752739409319815e+01 0 1 0
4576 1 1.6823980582521150e+00 8.9135183352254010e+00 3.8783167607760433e+01 1 1 0
4718 1 2.2187134374046535e+00 8.5499287508415058e+00 3.5973337883184016e+01 1 0 0
1272 1 1.5614704801787196e+00 1.1108548270440506e+01 3.5666468661554781e+01 0 0 -1
510 1 4.8390308849142638e+00 1.0634411053974866e+01 3.6507679759758119e+01 0 1 0
3352 1 7.3039610975336160e+00 9.1866294677994347e+00 3.5686185631058038e+01 1 2 -1
1686 1 7.6872379106664130e+00 8.0318340103772208e+00 3.8525048916985440e+01 0 1 -1
1660 1 4.2399516314320289e+00 1.3517986232081183e+01 3.8607814828916787e+01 1 0 0
2059 1 9.8315693483617359e+00 1.5359587388496244e+01 3.5521150094616686e+01 0 0 0
521 1 2.9149335735538164e+00 1.2236267956148859e+00 3.9943097204262045e+01 0 0 0
2855 1 8.5767800955841693e+00 2.4330077711754372e+00 4.5275433827563546e+01 0 0 0
3654 1 4.3171628465182872e+00 3.2596434410748030e+00 4.1079359822275180e+01 -1 1 0
5224 1 2.9617456439087564e-01 4.1673980219486726e+00 4.3922654530198329e+01 0 1 0
1779 1 2.9777993189999106e+00 4.4370013744330619e+00 4.3234809880032799e+01 0 0 0
3306 1 3.8981190752011754e+00 7.5852278484380626e+00 3.9908155580909551e+01 1 0 -1
192 1 3.2218751094134750e+00 7.1213100519997594e+00 4.2649063109648552e+01 1 1 -1
4598 1 7.0064143555327290e+00 5.0790113295736194e+00 4.2524878987433993e+01 1 1 0
6174 1 6.9349774809007503e+00 5.6967980067964721e+00 3.9981000518402112e+01 0 1 -1
3116 1 6.3310638446671330e+00 2.6077380182008896e+00 4.3293320197605610e+01 0 1 0
1835 1 9.1123290935687296e-01 8.2880464030179137e+00 4.3641089048269393e+01 0 -1 0
1696 1 3.4488107617657842e+00 1.6114098671865918e+01 4.1998279885293783e+01 0 -1 -1
6287 1 5.4804576332319268e+00 1.1456016309400409e+01 4.3988651367404316e+01 1 1 -1
229 1 1.1950673682531998e+00 1.4321625970283392e+01 4.1019092364845875e+01 1 0 -1
4925 1 4.4358515501654869e+00 1.3904815784437940e+01 4.4300689301806003e+01 1 -1 0
6029 1 9.7337724665652559e+00 5.5464083380587894e+00 4.6329199533376254e+01 -1 0 0
3612 1 7.2807423679658818e+00 9.6152287833665468e+00 4.5245036618822184e+01 1 0 0
4859 1 6.7787813892328748e+00 1.0964434774491856e+01 4.1466189127024265e+01 0 1 -1
1462 1 6.2525129266784472e+00 1.3762240446931298e+01 4.0647887938240601e+01 0 0 0
384 1 2.7285799433561628e+00 1.6053199285672184e+00 4.4420680980816883e+01 -1 0 -1
3411 1 4.6282534710770534e-01 2.3576780467934628e+00 3.8956404300196809e+01 1 0 -1
6192 1 6.3973467682767826e-01 7.0107334543251456e+00 4.6091420727746694e+01 1 0 0
166 1 9.6564782811819754e+00 8.4024449484725654e+00 4.5403369786485072e+01 2 0 -1
445 1 9.4455439958227778e+00 4.7107408523395415e+00 4.3565461863046721e+01 0 1 0
1843 1 4.9449191209911308e-01 1.5892397620991373e+01 4.5543456435948144e+01 1 -1 -1
6189 1 8.4344177837066532e+00 3.7971490457330428e+00 3.8920661034969555e+01 0 1 0
3400 1 4.9065348202166348e+00 3.1203065133674994e+00 4.5616156704453175e+01 1 1 0
6027 1 9.0481809911471860e+00 1.3055810037163900e+01 4.6310377813043914e+01 0 1 -1
3407 1 1.6882173294047584e+00 1.2738087513705246e+01 4.4212923392024877e+01 1 0 -1
3155 1 5.2737918413446074e+00 5.8796336033024508e+00 4.6229168741002610e+01 0 1 0
4551 1 1.2061228991215833e+00 5.1201418108102139e+00 3.9765429699224683e+01 1 1 0
271 1 3.3723833939665115e+00 9.4915741912762659e+00 4.7129398749347487e+01 0 0 -1
1948 1 2.0166278673815881e+00 1.1573130971728169e+01 4.1252850635981588e+01 1 0 -1
1600 1 2.5325216281167133e+00 1.0100222851959504e+01 4.4585426855402218e+01 1 1 0
5973 1 1.4754416830730595e+00 2.0458496508544659e+00 4.6842163604829764e+01 1 0 -1
3102 1 7.6250241945047597e+00 1.3646814684377233e+01 4.3555586615110698e+01 1 0 -1
1266 1 5.8035602080042734e+00 7.3691280749154435e+00 4.3783281476855350e+01 1 0 0
466 1 4.5484939903556034e+00 1.4823104615682249e+01 4.7036976830042377e+01 0 0 -1