LAMMPS data file via write_data, version 16 Mar 2018, timestep = 8000000

6328 atoms
2 atom types

0.0000000000000000e+00 4.9219999999999999e+01 xlo xhi
0.0000000000000000e+00 4.9019635930410494e+01 ylo yhi
2.0811895907194291e+00 5.7980810409294975e+01 zlo zhi

Masses

1 18.015
2 12.01

Atoms # atomic

3364 1 2.7125645089795598e+00 1.3500468429314600e+01 8.4919531858356834e+00 0 0 0
3162 1 4.8512570640562549e+00 1.7218692835497733e+00 5.6663043377319742e+00 2 -2 0
3258 1 6.8025774951872293e+00 1.4728493965772380e+01 8.3148797554410230e+00 -1 -5 0
4669 1 7.2848880847350728e+00 1.2399443849085685e+00 4.7658311314554300e+00 -1 0 1
4582 1 8.9072809782941871e+00 3.3314300429547830e+00 5.4473616739738002e+00 -1 -4 1
1488 1 4.0147027060573359e+00 4.3367343637414013e+00 4.8133423645578919e+00 6 -1 1
1491 1 1.3639530587670432e+00 5.0186390887288619e+00 5.8718095220892579e+00 -2 2 1
30 1 3.7846935444789489e+00 1.1106961372776407e+01 9.4252886445722268e+00 5 6 1
5178 1 4.4732715517958308e+00 1.5410382225223724e+01 9.3646601776485845e+00 1 -1 0
5080 1 2.3948920509965865e-01 1.4185495317199065e+01 9.2882757571236567e+00 3 -1 0
1240 1 5.7937632818333622e+00 6.3018202631056095e+00 5.8770855795487016e+00 -3 -4 0
1935 1 8.0045084082323541e+00 5.5026715620195645e+00 4.6662362330166918e+00 1 -4 0
3014 1 7.8902504491597165e+00 1.2419755942726360e+01 9.1826913950068594e+00 2 2 1
250 1 4.6437190017859935e+00 8.6044712118799840e+00 4.8546033288602892e+00 0 0 0
3593 1 9.3845083882499292e-01 1.1444680546398532e+01 4.8376730239054524e+00 0 0 0
3723 1 2.1191354144977699e+00 9.1891116640613539e+00 5.6845404046965458e+00 -1 2 1
6018 1 6.4221408975319321e+00 1.0623594456369338e+01 5.7878234060205118e+00 -2 0 1
6083 1 8.9592351808403592e+00 1.0160277201963613e+01 4.9711183405437156e+00 0 -2 1
4807 1 2.3865902813195503e+00 9.0699259191657262e+00 8.4893281576471917e+00 3 2 -1
2100 1 5.0075720684005076e-01 6.8279882629238275e-01 6.3104098598753451e+00 1 3 0
1476 1 2.7007544498601250e+00 1.3546305339712513e+01 5.7959262580510433e+00 -1 1 1
3109 1 5.3303761583792166e+00 1.3297661129613061e+01 4.8655040372139178e+00 -1 2 0
1599 1 6.9011437923828449e+00 1.5231293841219959e+01 5.4243218906579527e+00 1 -2 0
1523 1 9.6001538841371978e+00 1.4711934320705009e+01 4.5863989037826229e+00 0 2 1
5009 1 1.6282168008030451e+00 1.5782784456662428e+01 4.6963322634108149e+00 1 -2 0
3116 1 4.4473029713269885e-01 4.7622932734910844e-01 8.8255928800949590e+00 0 -1 1
4893 1 2.1404945400191404e+00 2.5777013187636730e+00 9.2380662501176687e+00 -1 0 1
2119 1 4.9380627778335207e+00 1.7000299773562910e+00 8.5098930145167540e+00 1 -1 1
3270 1 9.0743957817006908e+00 3.1365719922089763e+00 8.2071446060784012e+00 2 -1 1
2935 1 6.8447932879940332e+00 3.6039916276117996e+00 9.6006716323095347e+00 1 3 1
6272 1 1.1205947738648026e+00 5.0643610651642259e+00 8.5975045559297421e+00 3 -4 1
2886 1 3.1113156539921203e+00 6.6830559856138851e+00 9.3770327430978941e+00 -1 1 1
3077 1 7.2302999396143814e+00 8.1064467778470348e+00 9.2852806674414197e+00 0 1 1
4515 1 5.7872525152268430e+00 6.0687511782451171e+00 8.6280251148052560e+00 -2 6 0
2864 1 6.2924921672210106e+00 1.0505668410437535e+01 8.4089641073531158e+00 -1 2 1
4643 1 9.5947273358085887e+00 7.2582587391223985e+00 8.3740194509754673e+00 -2 -2 1
1629 1 1.4811304066895073e-01 7.2748444185636494e+00 4.6312776208192137e+00 -2 3 0
120 1 9.6945283459582789e+00 7.5181114489393419e+00 5.7127635016169069e+00 2 1 1
182 1 1.7532029366382373e+00 1.6091235703708961e+01 2.1749863051246319e+00 4 0 1
1303 1 7.7069888846843904e-01 1.1576847643262019e+01 2.2292157734165987e+00 1 3 1
3616 1 8.7772976198727797e+00 1.0163443309797753e+01 2.3101725422920825e+00 2 0 1
1401 1 3.6848824155206659e+00 4.3601244555098280e+00 2.1196550949710797e+00 2 -4 1
1282 1 2.3042028630348947e+00 2.3916631935289852e+00 1.1911052441875759e+01 -1 -2 1
3018 1 4.7102450836369707e+00 1.8088036135143122e+00 1.3010589256339847e+01 -1 1 0
1867 1 4.8956264806686312e+00 1.7364337640439294e+00 1.5740966926965378e+01 -2 -2 1
4776 1 1.0111596987995268e-01 1.3832867385101935e+01 1.1878320466877513e+01 3 1 1
493 1 3.1921377857848428e+00 1.3105697137657256e+01 2.0395781714968457e+01 -3 0 1
288 1 9.3422207377012469e+00 3.1906438503442720e+00 1.3400528899004632e+01 1 3 1
4509 1 6.7261254730082403e+00 3.4516766561968573e+00 1.2326157539004058e+01 2 3 1
5100 1 9.2562840322967546e+00 3.1482461996875295e+00 1.6268906699569019e+01 0 1 0
465 1 1.4984051542844468e+00 4.7840329790739231e+00 1.3071844556166454e+01 0 1 0
4437 1 3.2370538890028326e+00 6.6386412061116298e+00 1.2156991197198746e+01 0 -3 1
4753 1 1.7638170987231112e+00 4.3658113322991099e+00 1.5661822937965875e+01 -1 -3 1
6312 1 4.3358095975381988e-01 1.3559341751435579e+01 1.9932915367036880e+01 -3 4 1
3294 1 5.5999367830693361e+00 5.9170518431050949e+00 1.3138276977668337e+01 1 1 0
1957 1 7.2724128454957127e+00 7.9590019601370203e+00 1.2129233180370335e+01 3 -2 0
2867 1 7.9578121016780710e+00 1.2565673703593440e+01 1.9596469052573603e+01 -5 1 1
230 1 2.3985858739696564e+00 9.1690620363101623e+00 1.2965654935296202e+01 -2 1 0
6029 1 3.9265547564769090e+00 1.1123080127133223e+01 1.2062795957931685e+01 -1 -1 1
221 1 6.4339731558721471e+00 1.0405707575817269e+01 1.3100460590378493e+01 -1 -1 0
1403 1 6.3482188120191063e+00 1.0664962271066631e+01 1.5964987336794060e+01 6 4 1
2983 1 9.6689557255151488e+00 7.7858231610470492e+00 1.5844568785790916e+01 0 2 1
4994 1 2.8138670615906460e+00 1.3579331512070780e+01 1.2879552164677456e+01 1 4 1
6195 1 4.5925047286310736e+00 1.5359142886342578e+01 1.2185467954582091e+01 -2 1 1
4968 1 2.8452641856354295e+00 1.3421755736392250e+01 1.5903238425425631e+01 5 -2 0
5282 1 8.0562696674985332e+00 1.2341124150314357e+01 1.1900857773478620e+01 1 3 1
3002 1 6.9685038651366877e+00 1.4573160502218030e+01 1.2957393212156420e+01 1 -3 0
1509 1 6.7294371539281794e+00 1.4995911370406036e+01 1.5717690680349920e+01 -1 -1 1
1804 1 2.2304719442679639e+00 2.0173537433165083e+00 1.6625991749392156e+01 1 -1 0
101 1 2.3027653228296980e+00 2.0595328206407415e+00 1.9503958003142774e+01 3 -3 0
3354 1 4.4112565205340131e+00 1.5275857289424826e+01 1.7170281828758963e+01 -2 -2 0
3099 1 2.3983139574359797e+00 8.5528883463345693e+00 2.0296826068863052e+01 -7 1 1
3056 1 7.6002250785561321e-01 5.6510457865699783e-02 1.5494235497874888e+01 1 3 1
3657 1 6.6429148494765444e+00 3.6285466594588383e+00 1.6945109529031452e+01 -1 -3 0
4758 1 6.4775613528850382e+00 3.8652589664583177e+00 1.9532722227635219e+01 2 1 1
4945 1 3.1879125130929782e+00 6.4309841639995389e+00 1.6715799106310449e+01 4 0 0
1418 1 3.2760955393773719e+00 5.8683255039520823e+00 1.9419824702081268e+01 -3 3 0
3351 1 5.6138789565126217e+00 6.0002151109379112e+00 1.5904207444389055e+01 2 -3 0
6120 1 7.4370560322188863e+00 8.1077827167940058e+00 1.9412831918350616e+01 2 3 1
2851 1 7.0848150009464304e+00 8.0311416146410259e+00 1.6607225874627435e+01 1 -4 1
4949 1 4.5659019093697906e-01 1.3635095374047433e+01 1.7210807332170198e+01 -3 -1 0
4636 1 2.2701076690153466e+00 9.0084153910789730e+00 1.5822488293042353e+01 2 -1 1
5138 1 3.8679892875393445e+00 1.0944911191324172e+01 1.6473387233276910e+01 0 0 0
3468 1 3.8997402256045146e+00 1.0916491267922597e+01 1.9299421136771656e+01 -1 2 0
6241 1 9.7557517224375090e+00 7.5801014624514211e+00 1.3211438038658953e+01 3 1 0
2044 1 7.8133598448062358e+00 1.2772484690617308e+01 1.6830975612215205e+01 -3 0 1
47 1 4.4499754044931628e+00 1.5390663567660290e+01 1.9845051250813420e+01 3 2 1
3690 1 5.0780457420886571e-01 4.2859189905433492e-01 1.2932409284766216e+01 -2 -3 1
4499 1 1.3780513335836155e+00 4.2917614963695394e+00 2.0601321257499475e+01 0 2 1
357 1 4.7139158780621067e+00 1.8554317155457525e+00 2.0583364921694823e+01 -1 2 1
4840 1 6.3151363669936345e+00 1.0474547342889949e+01 2.0145430587418396e+01 2 2 1
5235 1 9.8222724291084482e+00 7.6957706966317030e+00 2.0556493646629448e+01 3 2 1
3113 1 7.2874472107514698e-01 5.2477412017840182e-02 2.0300342215770154e+01 1 1 1
1432 1 8.8326180966152812e+00 3.3577894435802036e+00 2.0429080347234130e+01 1 -1 0
6185 1 2.3631861115340858e+00 2.0037054023696479e+00 2.3873274965880150e+01 5 2 1
677 2 6.1524999999999990e+00 1.3498160618518829e+01 2.6695181527478514e+01 0 0 0
2922 1 9.5056124331675456e+00 7.9574351024280530e+00 2.3265353576426481e+01 1 1 1
4839 1 5.0118314512671445e+00 1.8017269162569052e+00 2.3269341885152944e+01 -1 -1 1
547 1 9.1288290956396327e+00 3.0913332040588095e+00 2.3495127189831205e+01 2 -2 0
4946 1 6.5285877813117716e+00 3.6443285747671053e+00 2.4467192319028729e+01 1 -1 0
722 2 7.3829999999999991e+00 1.2787731112280996e+01 2.6695181527478514e+01 0 0 0
675 2 4.9220000000000006e+00 1.2787731112280996e+01 2.6695181527478514e+01 0 0 0
4841 1 1.5263844040684298e+00 4.2873680128976321e+00 2.3226940239060564e+01 2 -3 1
5145 1 2.9044766201890235e+00 6.4646022310670554e+00 2.4158212407542923e+01 -1 1 0
720 2 7.3829999999999991e+00 1.5629449137232333e+01 2.6695181527478514e+01 0 0 0
3085 1 5.7133903237392634e+00 5.9204734182081937e+00 2.3589304765968571e+01 2 0 1
1678 1 2.3068031893410246e+00 8.8969337406985094e+00 2.3155608934473324e+01 1 -2 0
3262 1 4.0582729191054003e+00 1.0665168569899105e+01 2.4150502570284662e+01 4 1 0
1718 1 7.0496286935594954e+00 8.0626719453220446e+00 2.4409472529714019e+01 2 3 1
4439 1 6.4205211037805379e+00 1.0342580539143825e+01 2.3054147471381658e+01 -1 0 1
765 2 8.6135000000000002e+00 1.4919019630994494e+01 2.6695181527478514e+01 0 0 0
4958 1 8.0517841243596722e-01 1.3340389478985404e+01 2.4264036924025628e+01 4 -2 1
5248 1 3.3811790158826791e+00 1.3053658791569527e+01 2.2982654320972554e+01 6 -2 1
4550 1 4.7956085698792705e+00 1.4941933478669698e+01 2.4305621663941437e+01 0 8 1
718 2 6.1524999999999990e+00 1.4919019630994494e+01 2.6695181527478514e+01 0 0 0
2059 1 8.2903477058311470e+00 1.2010153679141039e+01 2.4340765326086952e+01 1 0 1
1507 1 7.2497121970418608e+00 1.4372818401189683e+01 2.3505920609465807e+01 0 0 1
552 2 0.0000000000000000e+00 2.8417180249513345e+00 2.6695181527478514e+01 0 0 0
554 2 0.0000000000000000e+00 0.0000000000000000e+00 2.6695181527478514e+01 0 0 0
556 2 1.2305000000000001e+00 7.1042950623783474e-01 2.6695181527478514e+01 0 0 0
563 2 1.2305000000000001e+00 2.1312885187134998e+00 2.6695181527478514e+01 0 0 0
565 2 2.4610000000000003e+00 2.8417180249513345e+00 2.6695181527478514e+01 0 0 0
567 2 2.4610000000000003e+00 0.0000000000000000e+00 2.6695181527478514e+01 0 0 0
569 2 3.6915000000000004e+00 7.1042950623783474e-01 2.6695181527478514e+01 0 0 0
584 2 3.6914999999999996e+00 2.1312885187134998e+00 2.6695181527478514e+01 0 0 0
586 2 4.9220000000000006e+00 2.8417180249513332e+00 2.6695181527478514e+01 0 0 0
588 2 4.9220000000000006e+00 0.0000000000000000e+00 2.6695181527478514e+01 0 0 0
590 2 6.1524999999999999e+00 7.1042950623783407e-01 2.6695181527478514e+01 0 0 0
613 2 6.1524999999999999e+00 2.1312885187134989e+00 2.6695181527478514e+01 0 0 0
615 2 7.3829999999999991e+00 2.8417180249513345e+00 2.6695181527478514e+01 0 0 0
617 2 7.3829999999999991e+00 0.0000000000000000e+00 2.6695181527478514e+01 0 0 0
619 2 8.6134999999999984e+00 7.1042950623783407e-01 2.6695181527478514e+01 0 0 0
650 2 8.6134999999999984e+00 2.1312885187135002e+00 2.6695181527478514e+01 0 0 0
559 2 0.0000000000000000e+00 4.2625770374269996e+00 2.6695181527478514e+01 0 0 0
561 2 1.2305000000000001e+00 4.9730065436648339e+00 2.6695181527478514e+01 0 0 0
576 2 1.2305000000000001e+00 6.3938655561404980e+00 2.6695181527478514e+01 0 0 0
580 2 2.4610000000000003e+00 4.2625770374269996e+00 2.6695181527478514e+01 0 0 0
582 2 3.6914999999999996e+00 4.9730065436648339e+00 2.6695181527478514e+01 0 0 0
605 2 3.6914999999999996e+00 6.3938655561404980e+00 2.6695181527478514e+01 0 0 0
557 2 0.0000000000000000e+00 7.1042950623783341e+00 2.6695181527478514e+01 0 0 0
578 2 2.4610000000000003e+00 7.1042950623783341e+00 2.6695181527478514e+01 0 0 0
609 2 4.9220000000000006e+00 4.2625770374269978e+00 2.6695181527478514e+01 0 0 0
611 2 6.1524999999999999e+00 4.9730065436648339e+00 2.6695181527478514e+01 0 0 0
642 2 6.1524999999999999e+00 6.3938655561404980e+00 2.6695181527478514e+01 0 0 0
646 2 7.3829999999999991e+00 4.2625770374269996e+00 2.6695181527478514e+01 0 0 0
648 2 8.6135000000000002e+00 4.9730065436648339e+00 2.6695181527478514e+01 0 0 0
687 2 8.6135000000000002e+00 6.3938655561404980e+00 2.6695181527478514e+01 0 0 0
607 2 4.9220000000000006e+00 7.1042950623783341e+00 2.6695181527478514e+01 0 0 0
644 2 7.3830000000000009e+00 7.1042950623783341e+00 2.6695181527478514e+01 0 0 0
572 2 0.0000000000000000e+00 8.5251540748539991e+00 2.6695181527478514e+01 0 0 0
574 2 1.2305000000000001e+00 9.2355835810918343e+00 2.6695181527478514e+01 0 0 0
601 2 2.4610000000000003e+00 8.5251540748539991e+00 2.6695181527478514e+01 0 0 0
603 2 3.6915000000000004e+00 9.2355835810918343e+00 2.6695181527478514e+01 0 0 0
570 2 0.0000000000000000e+00 1.1366872099805333e+01 2.6695181527478514e+01 0 0 0
597 2 1.2305000000000001e+00 1.0656442593567498e+01 2.6695181527478514e+01 0 0 0
599 2 2.4610000000000003e+00 1.1366872099805333e+01 2.6695181527478514e+01 0 0 0
634 2 3.6914999999999996e+00 1.0656442593567499e+01 2.6695181527478514e+01 0 0 0
638 2 4.9220000000000006e+00 8.5251540748539991e+00 2.6695181527478514e+01 0 0 0
640 2 6.1524999999999999e+00 9.2355835810918343e+00 2.6695181527478514e+01 0 0 0
683 2 7.3830000000000009e+00 8.5251540748539991e+00 2.6695181527478514e+01 0 0 0
685 2 8.6134999999999984e+00 9.2355835810918343e+00 2.6695181527478514e+01 0 0 0
636 2 4.9220000000000006e+00 1.1366872099805333e+01 2.6695181527478514e+01 0 0 0
679 2 6.1524999999999999e+00 1.0656442593567499e+01 2.6695181527478514e+01 0 0 0
681 2 7.3829999999999991e+00 1.1366872099805333e+01 2.6695181527478514e+01 0 0 0
726 2 8.6134999999999984e+00 1.0656442593567498e+01 2.6695181527478514e+01 0 0 0
632 2 3.6915000000000004e+00 1.3498160618518829e+01 2.6695181527478514e+01 0 0 0
671 2 3.6915000000000004e+00 1.4919019630994494e+01 2.6695181527478514e+01 0 0 0
626 2 1.2305000000000001e+00 1.4919019630994494e+01 2.6695181527478514e+01 0 0 0
595 2 1.2305000000000001e+00 1.3498160618518829e+01 2.6695181527478514e+01 0 0 0
591 2 0.0000000000000000e+00 1.5629449137232333e+01 2.6695181527478514e+01 0 0 0
593 2 0.0000000000000000e+00 1.2787731112280996e+01 2.6695181527478514e+01 0 0 0
628 2 2.4610000000000003e+00 1.5629449137232328e+01 2.6695181527478514e+01 0 0 0
630 2 2.4610000000000003e+00 1.2787731112280996e+01 2.6695181527478514e+01 0 0 0
673 2 4.9220000000000006e+00 1.5629449137232333e+01 2.6695181527478514e+01 0 0 0
724 2 8.6135000000000002e+00 1.3498160618518835e+01 2.6695181527478514e+01 0 0 0
4619 1 5.8654982659372779e-01 1.4602020148119144e-01 2.3013950272035544e+01 -2 -2 1
245 1 1.3777012804420274e-01 8.8890198165786298e+00 2.4438940447424862e+01 0 -2 0
3012 1 6.9537928423488431e+00 1.4864414687683496e+01 2.0849379934336469e+01 -1 -1 1
2002 1 5.8251531430748900e+00 6.1911693987886363e+00 2.0731143559496388e+01 2 -1 0
553 2 0.0000000000000000e+00 1.4208590124756650e+00 3.0031000000007285e+01 0 0 0
555 2 0.0000000000000000e+00 0.0000000000000000e+00 3.0031000000007285e+01 0 0 0
564 2 1.2305000000000001e+00 2.1312885187134998e+00 3.0031000000007285e+01 0 0 0
566 2 2.4610000000000003e+00 1.4208590124756650e+00 3.0031000000007285e+01 0 0 0
568 2 2.4610000000000003e+00 0.0000000000000000e+00 3.0031000000007285e+01 0 0 0
585 2 3.6914999999999996e+00 2.1312885187134998e+00 3.0031000000007285e+01 0 0 0
562 2 1.2305000000000001e+00 3.5521475311891644e+00 3.0031000000007285e+01 0 0 0
583 2 3.6914999999999996e+00 3.5521475311891644e+00 3.0031000000007285e+01 0 0 0
881 2 0.0000000000000000e+00 2.8417180249513345e+00 3.3366818472561889e+01 0 0 0
882 2 0.0000000000000000e+00 0.0000000000000000e+00 3.3366818472561889e+01 0 0 0
883 2 1.2305000000000001e+00 7.1042950623783474e-01 3.3366818472561889e+01 0 0 0
887 2 1.2305000000000001e+00 2.1312885187134998e+00 3.3366818472561889e+01 0 0 0
888 2 2.4610000000000003e+00 2.8417180249513345e+00 3.3366818472561889e+01 0 0 0
889 2 2.4610000000000003e+00 0.0000000000000000e+00 3.3366818472561889e+01 0 0 0
890 2 3.6915000000000004e+00 7.1042950623783474e-01 3.3366818472561889e+01 0 0 0
898 2 3.6914999999999996e+00 2.1312885187134998e+00 3.3366818472561889e+01 0 0 0
587 2 4.9220000000000006e+00 1.4208590124756650e+00 3.0031000000007285e+01 0 0 0
589 2 4.9220000000000006e+00 0.0000000000000000e+00 3.0031000000007285e+01 0 0 0
614 2 6.1524999999999999e+00 2.1312885187134989e+00 3.0031000000007285e+01 0 0 0
616 2 7.3829999999999991e+00 1.4208590124756659e+00 3.0031000000007285e+01 0 0 0
618 2 7.3829999999999991e+00 0.0000000000000000e+00 3.0031000000007285e+01 0 0 0
651 2 8.6134999999999984e+00 2.1312885187135002e+00 3.0031000000007285e+01 0 0 0
612 2 6.1524999999999999e+00 3.5521475311891644e+00 3.0031000000007285e+01 0 0 0
649 2 8.6134999999999984e+00 3.5521475311891657e+00 3.0031000000007285e+01 0 0 0
899 2 4.9220000000000006e+00 2.8417180249513332e+00 3.3366818472561889e+01 0 0 0
900 2 4.9220000000000006e+00 0.0000000000000000e+00 3.3366818472561889e+01 0 0 0
901 2 6.1524999999999999e+00 7.1042950623783407e-01 3.3366818472561889e+01 0 0 0
913 2 6.1524999999999999e+00 2.1312885187134989e+00 3.3366818472561889e+01 0 0 0
914 2 7.3829999999999991e+00 2.8417180249513345e+00 3.3366818472561889e+01 0 0 0
915 2 7.3829999999999991e+00 0.0000000000000000e+00 3.3366818472561889e+01 0 0 0
916 2 8.6134999999999984e+00 7.1042950623783407e-01 3.3366818472561889e+01 0 0 0
932 2 8.6134999999999984e+00 2.1312885187135002e+00 3.3366818472561889e+01 0 0 0
558 2 0.0000000000000000e+00 5.6834360499026637e+00 3.0031000000007285e+01 0 0 0
560 2 0.0000000000000000e+00 4.2625770374269996e+00 3.0031000000007285e+01 0 0 0
577 2 1.2305000000000001e+00 6.3938655561404980e+00 3.0031000000007285e+01 0 0 0
579 2 2.4610000000000003e+00 5.6834360499026637e+00 3.0031000000007285e+01 0 0 0
581 2 2.4610000000000003e+00 4.2625770374269996e+00 3.0031000000007285e+01 0 0 0
606 2 3.6914999999999996e+00 6.3938655561404980e+00 3.0031000000007285e+01 0 0 0
575 2 1.2305000000000001e+00 7.8147245686161639e+00 3.0031000000007285e+01 0 0 0
604 2 3.6914999999999996e+00 7.8147245686161639e+00 3.0031000000007285e+01 0 0 0
885 2 0.0000000000000000e+00 4.2625770374269996e+00 3.3366818472561889e+01 0 0 0
886 2 1.2305000000000001e+00 4.9730065436648339e+00 3.3366818472561889e+01 0 0 0
894 2 1.2305000000000001e+00 6.3938655561404980e+00 3.3366818472561889e+01 0 0 0
896 2 2.4610000000000003e+00 4.2625770374269996e+00 3.3366818472561889e+01 0 0 0
897 2 3.6914999999999996e+00 4.9730065436648339e+00 3.3366818472561889e+01 0 0 0
909 2 3.6914999999999996e+00 6.3938655561404980e+00 3.3366818472561889e+01 0 0 0
884 2 0.0000000000000000e+00 7.1042950623783341e+00 3.3366818472561889e+01 0 0 0
895 2 2.4610000000000003e+00 7.1042950623783341e+00 3.3366818472561889e+01 0 0 0
608 2 4.9220000000000006e+00 5.6834360499026637e+00 3.0031000000007285e+01 0 0 0
610 2 4.9220000000000006e+00 4.2625770374269978e+00 3.0031000000007285e+01 0 0 0
643 2 6.1524999999999999e+00 6.3938655561404980e+00 3.0031000000007285e+01 0 0 0
645 2 7.3829999999999991e+00 5.6834360499026637e+00 3.0031000000007285e+01 0 0 0
647 2 7.3829999999999991e+00 4.2625770374269996e+00 3.0031000000007285e+01 0 0 0
688 2 8.6135000000000002e+00 6.3938655561404980e+00 3.0031000000007285e+01 0 0 0
641 2 6.1524999999999999e+00 7.8147245686161639e+00 3.0031000000007285e+01 0 0 0
686 2 8.6135000000000002e+00 7.8147245686161639e+00 3.0031000000007285e+01 0 0 0
911 2 4.9220000000000006e+00 4.2625770374269978e+00 3.3366818472561889e+01 0 0 0
912 2 6.1524999999999999e+00 4.9730065436648339e+00 3.3366818472561889e+01 0 0 0
928 2 6.1524999999999999e+00 6.3938655561404980e+00 3.3366818472561889e+01 0 0 0
930 2 7.3829999999999991e+00 4.2625770374269996e+00 3.3366818472561889e+01 0 0 0
931 2 8.6135000000000002e+00 4.9730065436648339e+00 3.3366818472561889e+01 0 0 0
951 2 8.6135000000000002e+00 6.3938655561404980e+00 3.3366818472561889e+01 0 0 0
910 2 4.9220000000000006e+00 7.1042950623783341e+00 3.3366818472561889e+01 0 0 0
929 2 7.3830000000000009e+00 7.1042950623783341e+00 3.3366818472561889e+01 0 0 0
571 2 0.0000000000000000e+00 9.9460130873296642e+00 3.0031000000007285e+01 0 0 0
573 2 0.0000000000000000e+00 8.5251540748539991e+00 3.0031000000007285e+01 0 0 0
600 2 2.4610000000000003e+00 9.9460130873296642e+00 3.0031000000007285e+01 0 0 0
602 2 2.4610000000000003e+00 8.5251540748539991e+00 3.0031000000007285e+01 0 0 0
596 2 1.2305000000000001e+00 1.2077301606043163e+01 3.0031000000007285e+01 0 0 0
598 2 1.2305000000000001e+00 1.0656442593567498e+01 3.0031000000007285e+01 0 0 0
633 2 3.6914999999999996e+00 1.2077301606043163e+01 3.0031000000007285e+01 0 0 0
635 2 3.6914999999999996e+00 1.0656442593567499e+01 3.0031000000007285e+01 0 0 0
892 2 0.0000000000000000e+00 8.5251540748539991e+00 3.3366818472561889e+01 0 0 0
893 2 1.2305000000000001e+00 9.2355835810918343e+00 3.3366818472561889e+01 0 0 0
907 2 2.4610000000000003e+00 8.5251540748539991e+00 3.3366818472561889e+01 0 0 0
908 2 3.6915000000000004e+00 9.2355835810918343e+00 3.3366818472561889e+01 0 0 0
891 2 0.0000000000000000e+00 1.1366872099805333e+01 3.3366818472561889e+01 0 0 0
905 2 1.2305000000000001e+00 1.0656442593567498e+01 3.3366818472561889e+01 0 0 0
906 2 2.4610000000000003e+00 1.1366872099805333e+01 3.3366818472561889e+01 0 0 0
924 2 3.6914999999999996e+00 1.0656442593567499e+01 3.3366818472561889e+01 0 0 0
637 2 4.9220000000000006e+00 9.9460130873296642e+00 3.0031000000007285e+01 0 0 0
639 2 4.9220000000000006e+00 8.5251540748539991e+00 3.0031000000007285e+01 0 0 0
682 2 7.3830000000000009e+00 9.9460130873296642e+00 3.0031000000007285e+01 0 0 0
684 2 7.3830000000000009e+00 8.5251540748539991e+00 3.0031000000007285e+01 0 0 0
678 2 6.1524999999999999e+00 1.2077301606043163e+01 3.0031000000007285e+01 0 0 0
680 2 6.1524999999999999e+00 1.0656442593567499e+01 3.0031000000007285e+01 0 0 0
725 2 8.6135000000000002e+00 1.2077301606043163e+01 3.0031000000007285e+01 0 0 0
727 2 8.6134999999999984e+00 1.0656442593567498e+01 3.0031000000007285e+01 0 0 0
926 2 4.9220000000000006e+00 8.5251540748539991e+00 3.3366818472561889e+01 0 0 0
927 2 6.1524999999999999e+00 9.2355835810918343e+00 3.3366818472561889e+01 0 0 0
949 2 7.3830000000000009e+00 8.5251540748539991e+00 3.3366818472561889e+01 0 0 0
950 2 8.6134999999999984e+00 9.2355835810918343e+00 3.3366818472561889e+01 0 0 0
925 2 4.9220000000000006e+00 1.1366872099805333e+01 3.3366818472561889e+01 0 0 0
947 2 6.1524999999999999e+00 1.0656442593567499e+01 3.3366818472561889e+01 0 0 0
948 2 7.3829999999999991e+00 1.1366872099805333e+01 3.3366818472561889e+01 0 0 0
971 2 8.6134999999999984e+00 1.0656442593567498e+01 3.3366818472561889e+01 0 0 0
594 2 0.0000000000000000e+00 1.2787731112280996e+01 3.0031000000007285e+01 0 0 0
631 2 2.4610000000000003e+00 1.2787731112280996e+01 3.0031000000007285e+01 0 0 0
592 2 0.0000000000000000e+00 1.4208590124756663e+01 3.0031000000007285e+01 0 0 0
627 2 1.2305000000000001e+00 1.4919019630994494e+01 3.0031000000007285e+01 0 0 0
629 2 2.4610000000000003e+00 1.4208590124756663e+01 3.0031000000007285e+01 0 0 0
672 2 3.6915000000000004e+00 1.4919019630994494e+01 3.0031000000007285e+01 0 0 0
903 2 0.0000000000000000e+00 1.2787731112280996e+01 3.3366818472561889e+01 0 0 0
904 2 1.2305000000000001e+00 1.3498160618518829e+01 3.3366818472561889e+01 0 0 0
922 2 2.4610000000000003e+00 1.2787731112280996e+01 3.3366818472561889e+01 0 0 0
923 2 3.6915000000000004e+00 1.3498160618518829e+01 3.3366818472561889e+01 0 0 0
902 2 0.0000000000000000e+00 1.5629449137232333e+01 3.3366818472561889e+01 0 0 0
920 2 1.2305000000000001e+00 1.4919019630994494e+01 3.3366818472561889e+01 0 0 0
921 2 2.4610000000000003e+00 1.5629449137232328e+01 3.3366818472561889e+01 0 0 0
943 2 3.6915000000000004e+00 1.4919019630994494e+01 3.3366818472561889e+01 0 0 0
676 2 4.9220000000000006e+00 1.2787731112280996e+01 3.0031000000007285e+01 0 0 0
723 2 7.3829999999999991e+00 1.2787731112280996e+01 3.0031000000007285e+01 0 0 0
674 2 4.9220000000000006e+00 1.4208590124756663e+01 3.0031000000007285e+01 0 0 0
719 2 6.1524999999999990e+00 1.4919019630994494e+01 3.0031000000007285e+01 0 0 0
721 2 7.3830000000000009e+00 1.4208590124756663e+01 3.0031000000007285e+01 0 0 0
766 2 8.6135000000000002e+00 1.4919019630994494e+01 3.0031000000007285e+01 0 0 0
945 2 4.9220000000000006e+00 1.2787731112280996e+01 3.3366818472561889e+01 0 0 0
946 2 6.1524999999999990e+00 1.3498160618518829e+01 3.3366818472561889e+01 0 0 0
969 2 7.3829999999999991e+00 1.2787731112280996e+01 3.3366818472561889e+01 0 0 0
970 2 8.6135000000000002e+00 1.3498160618518835e+01 3.3366818472561889e+01 0 0 0
944 2 4.9220000000000006e+00 1.5629449137232333e+01 3.3366818472561889e+01 0 0 0
967 2 6.1524999999999990e+00 1.4919019630994494e+01 3.3366818472561889e+01 0 0 0
968 2 7.3829999999999991e+00 1.5629449137232333e+01 3.3366818472561889e+01 0 0 0
991 2 8.6135000000000002e+00 1.4919019630994494e+01 3.3366818472561889e+01 0 0 0
1499 1 3.6489369345546683e+00 3.6945777617036084e+00 3.5904538564326359e+01 -1 4 -1
6234 1 1.0304519994197401e+00 4.7363192552450037e+00 3.5988516252606857e+01 1 0 0
6226 1 9.1836876001792884e+00 1.4498925599641588e+01 3.5565131712533926e+01 -3 0 0
4519 1 4.2139305593289214e+00 2.5628153912842011e+00 3.8641095373256746e+01 1 1 0
6256 1 1.4391863286661455e+00 1.6195679174209793e+01 3.5907077724020994e+01 0 -2 -1
1308 1 4.8756020529815478e+00 6.6823219494593777e-01 3.6278675399537619e+01 0 -7 0
1802 1 5.5401522644443368e-01 5.2931148989566843e+00 3.8506150061983959e+01 0 -1 -1
486 1 5.9178983747957563e+00 1.0516820567103663e+01 3.9071787355405746e+01 0 -4 -1
1894 1 1.3680888417079327e+00 9.2955758311671257e+00 3.9109282025411161e+01 -2 0 -1
301 1 4.9805882418415752e+00 1.2944823404494946e+01 3.5811722755964041e+01 0 0 -1
6055 1 5.5103326060991673e+00 5.4845183481944559e+00 3.6043421836203137e+01 2 5 -1
4816 1 8.1803394087197443e+00 4.7876607948712513e+00 3.6282609417556486e+01 1 -1 0
3488 1 8.4282111194144171e+00 3.8881719402313029e+00 3.8796409774872885e+01 3 4 0
5144 1 4.3603390306121499e+00 8.3379557678149148e+00 3.5706709390940802e+01 0 -4 -1
3127 1 4.9362273660345224e-01 1.1700156790711610e+01 3.5774349948883000e+01 2 -1 -1
2097 1 1.8618861360551884e+00 9.2911036310857824e+00 3.6275031130110719e+01 1 0 0
451 1 4.5757088648530813e+00 6.8899805274249957e+00 3.8595336673285928e+01 0 -2 0
203 1 6.2117606475996903e+00 1.0395707087896339e+01 3.6334232381099383e+01 -2 0 -1
1517 1 9.2544139929417728e+00 9.8678114614522165e+00 3.5823396096960522e+01 3 1 0
3261 1 2.1712858480102928e+00 1.3420768706141189e+01 3.8797344068294592e+01 3 0 -1
531 1 2.2937444091820209e+00 1.3659724429925593e+01 3.6079195781768703e+01 -1 0 0
1568 1 6.6454253633429747e+00 1.5264595832354658e+01 3.6413526753928579e+01 5 -4 0
2085 1 6.6770390443214263e+00 1.4942820250842747e+01 3.9017590758035382e+01 1 -3 0
6058 1 9.0536386044861175e+00 8.2188387255455879e+00 3.8489268311397893e+01 -4 1 0
6314 1 9.0222015002191203e+00 1.9629677173721374e+00 3.6028853661296395e+01 -1 -3 0
4975 1 1.6467938403616367e+00 2.7111536049328482e+00 4.2494206288081898e+01 -3 3 -1
4698 1 4.1869803400443049e+00 1.9551535763641912e+00 4.3459818526262836e+01 1 0 -1
85 1 1.3645871562474696e+00 2.7816246747327069e+00 3.9628471673092903e+01 3 -3 -1
3405 1 2.3102132018146131e+00 1.3447063422264806e+01 4.6038690739433136e+01 -1 1 0
4883 1 8.7932720237118591e+00 3.7473244936517647e+00 4.3217112665849655e+01 1 2 0
3587 1 9.5151647758389313e+00 1.1505135270706068e+00 4.2376808653492304e+01 1 -4 0
3392 1 7.6124969034770045e+00 1.2470224155545640e+01 4.7071661458976109e+01 -1 -1 0
3647 1 3.9304092748105535e+00 1.5508887463729648e+01 4.7158821106824846e+01 -2 0 -1
3418 1 6.5310568706353855e+00 1.5039878381770823e+01 4.6471789341775022e+01 4 1 -1
218 1 5.8857972308675741e+00 4.4075701317145413e+00 3.9486350179610398e+01 0 1 -1
3339 1 3.9121544136003356e-01 4.8586848059560257e+00 4.3583724409182295e+01 1 -1 -1
4786 1 2.3141214462796427e+00 6.5187902097906232e+00 4.2742736254549172e+01 1 1 -1
5040 1 6.0548374979698156e+00 3.8400548623714559e+00 4.2316911721427559e+01 3 -1 0
1655 1 4.7854583295346504e+00 5.8343420670204686e+00 4.3699990318377843e+01 2 -5 0
2114 1 9.1764505350072252e+00 8.1990633791859810e+00 4.6064511304703629e+01 -3 1 0
431 1 2.2295851073610726e+00 6.7328220758816704e+00 3.9840143570221912e+01 2 -1 -1
391 1 3.2463083354861473e+00 1.1132081514183083e+01 3.9773982498466651e+01 1 -4 -1
86 1 3.0798470646464127e+00 1.1048161527695877e+01 4.2456670278570542e+01 1 -2 -1
132 1 1.2812595133751798e+00 9.3702369014425422e+00 4.3348724379270053e+01 4 -1 0
5012 1 6.5286880515716774e+00 8.0349375754171817e+00 4.2732938830463141e+01 1 0 -1
4545 1 5.7585454443146400e+00 1.0866516852993385e+01 4.3320551826165811e+01 2 -2 0
1671 1 4.2173081472434184e+00 1.5316001638620911e+01 3.9637440628763073e+01 -3 1 0
495 1 2.4611768099565436e+00 1.3526857390122423e+01 4.3269726139327886e+01 -2 -1 0
300 1 4.0604650283494008e+00 1.5377969333933283e+01 4.2355531513468634e+01 0 1 -1
6035 1 7.9145240425795791e+00 1.2571552829539447e+01 4.2816940464176838e+01 3 0 -1
6239 1 6.6906846455602933e+00 1.4867206728176146e+01 4.3439815793730460e+01 -2 1 -1
1901 1 7.7017936133358109e+00 1.2623837567461825e+01 4.0023286206263720e+01 0 2 -1
4931 1 1.7153596572699032e+00 2.8805765859858896e+00 4.7102716127058287e+01 0 0 0
373 1 4.2073912545614052e+00 2.4675141561645479e+00 4.6051548704704985e+01 3 2 -1
5970 1 6.5022717930966341e+00 8.6249593419059671e+00 4.6708455715023945e+01 -1 1 -1
1856 1 8.6486220512107810e+00 4.0499461831982257e+00 4.6012853388689607e+01 0 -2 0
3564 1 5.6113354382492222e+00 1.1034866448607513e+01 4.6017447879500992e+01 3 2 -1
186 1 5.4341639411494291e-01 5.4345239064801509e+00 4.6301724493962155e+01 1 3 -1
225 1 2.3877307469235465e+00 7.1368281318267837e+00 4.7393118460026201e+01 -1 4 -1