LAMMPS data file via write_data, version 16 Mar 2018, timestep = 8000000

5031 atoms
2 atom types

0.0000000000000000e+00 4.9219999999999999e+01 xlo xhi
0.0000000000000000e+00 4.9019635930410494e+01 ylo yhi
1.0962154864218121e-01 3.9890378451374588e+01 zlo zhi

Masses

1 18.015
2 12.01

Atoms # atomic

140 2 0.0000000000000000e+00 2.8417180249513345e+00 2.2389671424281357e+00 0 0 0
142 2 0.0000000000000000e+00 0.0000000000000000e+00 2.2389671424281357e+00 0 0 0
144 2 1.2305000000000001e+00 7.1042950623783474e-01 2.2389671424281357e+00 0 0 0
151 2 1.2305000000000001e+00 2.1312885187134998e+00 2.2389671424281357e+00 0 0 0
153 2 2.4610000000000003e+00 2.8417180249513345e+00 2.2389671424281357e+00 0 0 0
155 2 2.4610000000000003e+00 0.0000000000000000e+00 2.2389671424281357e+00 0 0 0
157 2 3.6915000000000004e+00 7.1042950623783474e-01 2.2389671424281357e+00 0 0 0
172 2 3.6914999999999996e+00 2.1312885187134998e+00 2.2389671424281357e+00 0 0 0
174 2 4.9220000000000006e+00 2.8417180249513332e+00 2.2389671424281357e+00 0 0 0
176 2 4.9220000000000006e+00 0.0000000000000000e+00 2.2389671424281357e+00 0 0 0
178 2 6.1524999999999999e+00 7.1042950623783407e-01 2.2389671424281357e+00 0 0 0
201 2 6.1524999999999999e+00 2.1312885187134989e+00 2.2389671424281357e+00 0 0 0
203 2 7.3829999999999991e+00 2.8417180249513345e+00 2.2389671424281357e+00 0 0 0
205 2 7.3829999999999991e+00 0.0000000000000000e+00 2.2389671424281357e+00 0 0 0
207 2 8.6134999999999984e+00 7.1042950623783407e-01 2.2389671424281357e+00 0 0 0
238 2 8.6134999999999984e+00 2.1312885187135002e+00 2.2389671424281357e+00 0 0 0
147 2 0.0000000000000000e+00 4.2625770374269996e+00 2.2389671424281357e+00 0 0 0
149 2 1.2305000000000001e+00 4.9730065436648339e+00 2.2389671424281357e+00 0 0 0
164 2 1.2305000000000001e+00 6.3938655561404980e+00 2.2389671424281357e+00 0 0 0
168 2 2.4610000000000003e+00 4.2625770374269996e+00 2.2389671424281357e+00 0 0 0
170 2 3.6914999999999996e+00 4.9730065436648339e+00 2.2389671424281357e+00 0 0 0
193 2 3.6914999999999996e+00 6.3938655561404980e+00 2.2389671424281357e+00 0 0 0
145 2 0.0000000000000000e+00 7.1042950623783341e+00 2.2389671424281357e+00 0 0 0
166 2 2.4610000000000003e+00 7.1042950623783341e+00 2.2389671424281357e+00 0 0 0
197 2 4.9220000000000006e+00 4.2625770374269978e+00 2.2389671424281357e+00 0 0 0
199 2 6.1524999999999999e+00 4.9730065436648339e+00 2.2389671424281357e+00 0 0 0
230 2 6.1524999999999999e+00 6.3938655561404980e+00 2.2389671424281357e+00 0 0 0
234 2 7.3829999999999991e+00 4.2625770374269996e+00 2.2389671424281357e+00 0 0 0
236 2 8.6135000000000002e+00 4.9730065436648339e+00 2.2389671424281357e+00 0 0 0
275 2 8.6135000000000002e+00 6.3938655561404980e+00 2.2389671424281357e+00 0 0 0
195 2 4.9220000000000006e+00 7.1042950623783341e+00 2.2389671424281357e+00 0 0 0
232 2 7.3830000000000009e+00 7.1042950623783341e+00 2.2389671424281357e+00 0 0 0
160 2 0.0000000000000000e+00 8.5251540748539991e+00 2.2389671424281357e+00 0 0 0
162 2 1.2305000000000001e+00 9.2355835810918343e+00 2.2389671424281357e+00 0 0 0
189 2 2.4610000000000003e+00 8.5251540748539991e+00 2.2389671424281357e+00 0 0 0
191 2 3.6915000000000004e+00 9.2355835810918343e+00 2.2389671424281357e+00 0 0 0
158 2 0.0000000000000000e+00 1.1366872099805333e+01 2.2389671424281357e+00 0 0 0
185 2 1.2305000000000001e+00 1.0656442593567498e+01 2.2389671424281357e+00 0 0 0
187 2 2.4610000000000003e+00 1.1366872099805333e+01 2.2389671424281357e+00 0 0 0
222 2 3.6914999999999996e+00 1.0656442593567499e+01 2.2389671424281357e+00 0 0 0
226 2 4.9220000000000006e+00 8.5251540748539991e+00 2.2389671424281357e+00 0 0 0
228 2 6.1524999999999999e+00 9.2355835810918343e+00 2.2389671424281357e+00 0 0 0
271 2 7.3830000000000009e+00 8.5251540748539991e+00 2.2389671424281357e+00 0 0 0
273 2 8.6134999999999984e+00 9.2355835810918343e+00 2.2389671424281357e+00 0 0 0
224 2 4.9220000000000006e+00 1.1366872099805333e+01 2.2389671424281357e+00 0 0 0
267 2 6.1524999999999999e+00 1.0656442593567499e+01 2.2389671424281357e+00 0 0 0
269 2 7.3829999999999991e+00 1.1366872099805333e+01 2.2389671424281357e+00 0 0 0
314 2 8.6134999999999984e+00 1.0656442593567498e+01 2.2389671424281357e+00 0 0 0
141 2 0.0000000000000000e+00 1.4208590124756650e+00 5.4900998283615827e+00 0 0 0
143 2 0.0000000000000000e+00 0.0000000000000000e+00 5.4900998283615827e+00 0 0 0
152 2 1.2305000000000001e+00 2.1312885187134998e+00 5.4900998283615827e+00 0 0 0
154 2 2.4610000000000003e+00 1.4208590124756650e+00 5.4900998283615827e+00 0 0 0
156 2 2.4610000000000003e+00 0.0000000000000000e+00 5.4900998283615827e+00 0 0 0
173 2 3.6914999999999996e+00 2.1312885187134998e+00 5.4900998283615827e+00 0 0 0
150 2 1.2305000000000001e+00 3.5521475311891644e+00 5.4900998283615827e+00 0 0 0
171 2 3.6914999999999996e+00 3.5521475311891644e+00 5.4900998283615827e+00 0 0 0
469 2 0.0000000000000000e+00 2.8417180249513345e+00 8.7412325142896936e+00 0 0 0
470 2 0.0000000000000000e+00 0.0000000000000000e+00 8.7412325142896936e+00 0 0 0
471 2 1.2305000000000001e+00 7.1042950623783474e-01 8.7412325142896936e+00 0 0 0
475 2 1.2305000000000001e+00 2.1312885187134998e+00 8.7412325142896936e+00 0 0 0
476 2 2.4610000000000003e+00 2.8417180249513345e+00 8.7412325142896936e+00 0 0 0
477 2 2.4610000000000003e+00 0.0000000000000000e+00 8.7412325142896936e+00 0 0 0
478 2 3.6915000000000004e+00 7.1042950623783474e-01 8.7412325142896936e+00 0 0 0
486 2 3.6914999999999996e+00 2.1312885187134998e+00 8.7412325142896936e+00 0 0 0
175 2 4.9220000000000006e+00 1.4208590124756650e+00 5.4900998283615827e+00 0 0 0
177 2 4.9220000000000006e+00 0.0000000000000000e+00 5.4900998283615827e+00 0 0 0
202 2 6.1524999999999999e+00 2.1312885187134989e+00 5.4900998283615827e+00 0 0 0
204 2 7.3829999999999991e+00 1.4208590124756659e+00 5.4900998283615827e+00 0 0 0
206 2 7.3829999999999991e+00 0.0000000000000000e+00 5.4900998283615827e+00 0 0 0
239 2 8.6134999999999984e+00 2.1312885187135002e+00 5.4900998283615827e+00 0 0 0
200 2 6.1524999999999999e+00 3.5521475311891644e+00 5.4900998283615827e+00 0 0 0
237 2 8.6134999999999984e+00 3.5521475311891657e+00 5.4900998283615827e+00 0 0 0
487 2 4.9220000000000006e+00 2.8417180249513332e+00 8.7412325142896936e+00 0 0 0
488 2 4.9220000000000006e+00 0.0000000000000000e+00 8.7412325142896936e+00 0 0 0
489 2 6.1524999999999999e+00 7.1042950623783407e-01 8.7412325142896936e+00 0 0 0
501 2 6.1524999999999999e+00 2.1312885187134989e+00 8.7412325142896936e+00 0 0 0
502 2 7.3829999999999991e+00 2.8417180249513345e+00 8.7412325142896936e+00 0 0 0
503 2 7.3829999999999991e+00 0.0000000000000000e+00 8.7412325142896936e+00 0 0 0
504 2 8.6134999999999984e+00 7.1042950623783407e-01 8.7412325142896936e+00 0 0 0
520 2 8.6134999999999984e+00 2.1312885187135002e+00 8.7412325142896936e+00 0 0 0
146 2 0.0000000000000000e+00 5.6834360499026637e+00 5.4900998283615827e+00 0 0 0
148 2 0.0000000000000000e+00 4.2625770374269996e+00 5.4900998283615827e+00 0 0 0
165 2 1.2305000000000001e+00 6.3938655561404980e+00 5.4900998283615827e+00 0 0 0
167 2 2.4610000000000003e+00 5.6834360499026637e+00 5.4900998283615827e+00 0 0 0
169 2 2.4610000000000003e+00 4.2625770374269996e+00 5.4900998283615827e+00 0 0 0
194 2 3.6914999999999996e+00 6.3938655561404980e+00 5.4900998283615827e+00 0 0 0
163 2 1.2305000000000001e+00 7.8147245686161639e+00 5.4900998283615827e+00 0 0 0
192 2 3.6914999999999996e+00 7.8147245686161639e+00 5.4900998283615827e+00 0 0 0
473 2 0.0000000000000000e+00 4.2625770374269996e+00 8.7412325142896936e+00 0 0 0
474 2 1.2305000000000001e+00 4.9730065436648339e+00 8.7412325142896936e+00 0 0 0
482 2 1.2305000000000001e+00 6.3938655561404980e+00 8.7412325142896936e+00 0 0 0
484 2 2.4610000000000003e+00 4.2625770374269996e+00 8.7412325142896936e+00 0 0 0
485 2 3.6914999999999996e+00 4.9730065436648339e+00 8.7412325142896936e+00 0 0 0
497 2 3.6914999999999996e+00 6.3938655561404980e+00 8.7412325142896936e+00 0 0 0
472 2 0.0000000000000000e+00 7.1042950623783341e+00 8.7412325142896936e+00 0 0 0
483 2 2.4610000000000003e+00 7.1042950623783341e+00 8.7412325142896936e+00 0 0 0
196 2 4.9220000000000006e+00 5.6834360499026637e+00 5.4900998283615827e+00 0 0 0
198 2 4.9220000000000006e+00 4.2625770374269978e+00 5.4900998283615827e+00 0 0 0
231 2 6.1524999999999999e+00 6.3938655561404980e+00 5.4900998283615827e+00 0 0 0
233 2 7.3829999999999991e+00 5.6834360499026637e+00 5.4900998283615827e+00 0 0 0
235 2 7.3829999999999991e+00 4.2625770374269996e+00 5.4900998283615827e+00 0 0 0
276 2 8.6135000000000002e+00 6.3938655561404980e+00 5.4900998283615827e+00 0 0 0
229 2 6.1524999999999999e+00 7.8147245686161639e+00 5.4900998283615827e+00 0 0 0
274 2 8.6135000000000002e+00 7.8147245686161639e+00 5.4900998283615827e+00 0 0 0
499 2 4.9220000000000006e+00 4.2625770374269978e+00 8.7412325142896936e+00 0 0 0
500 2 6.1524999999999999e+00 4.9730065436648339e+00 8.7412325142896936e+00 0 0 0
516 2 6.1524999999999999e+00 6.3938655561404980e+00 8.7412325142896936e+00 0 0 0
518 2 7.3829999999999991e+00 4.2625770374269996e+00 8.7412325142896936e+00 0 0 0
519 2 8.6135000000000002e+00 4.9730065436648339e+00 8.7412325142896936e+00 0 0 0
539 2 8.6135000000000002e+00 6.3938655561404980e+00 8.7412325142896936e+00 0 0 0
498 2 4.9220000000000006e+00 7.1042950623783341e+00 8.7412325142896936e+00 0 0 0
517 2 7.3830000000000009e+00 7.1042950623783341e+00 8.7412325142896936e+00 0 0 0
159 2 0.0000000000000000e+00 9.9460130873296642e+00 5.4900998283615827e+00 0 0 0
161 2 0.0000000000000000e+00 8.5251540748539991e+00 5.4900998283615827e+00 0 0 0
188 2 2.4610000000000003e+00 9.9460130873296642e+00 5.4900998283615827e+00 0 0 0
190 2 2.4610000000000003e+00 8.5251540748539991e+00 5.4900998283615827e+00 0 0 0
184 2 1.2305000000000001e+00 1.2077301606043163e+01 5.4900998283615827e+00 0 0 0
186 2 1.2305000000000001e+00 1.0656442593567498e+01 5.4900998283615827e+00 0 0 0
221 2 3.6914999999999996e+00 1.2077301606043163e+01 5.4900998283615827e+00 0 0 0
223 2 3.6914999999999996e+00 1.0656442593567499e+01 5.4900998283615827e+00 0 0 0
480 2 0.0000000000000000e+00 8.5251540748539991e+00 8.7412325142896936e+00 0 0 0
481 2 1.2305000000000001e+00 9.2355835810918343e+00 8.7412325142896936e+00 0 0 0
495 2 2.4610000000000003e+00 8.5251540748539991e+00 8.7412325142896936e+00 0 0 0
496 2 3.6915000000000004e+00 9.2355835810918343e+00 8.7412325142896936e+00 0 0 0
479 2 0.0000000000000000e+00 1.1366872099805333e+01 8.7412325142896936e+00 0 0 0
493 2 1.2305000000000001e+00 1.0656442593567498e+01 8.7412325142896936e+00 0 0 0
494 2 2.4610000000000003e+00 1.1366872099805333e+01 8.7412325142896936e+00 0 0 0
512 2 3.6914999999999996e+00 1.0656442593567499e+01 8.7412325142896936e+00 0 0 0
537 2 7.3830000000000009e+00 8.5251540748539991e+00 8.7412325142896936e+00 0 0 0
535 2 6.1524999999999999e+00 1.0656442593567499e+01 8.7412325142896936e+00 0 0 0
266 2 6.1524999999999999e+00 1.2077301606043163e+01 5.4900998283615827e+00 0 0 0
536 2 7.3829999999999991e+00 1.1366872099805333e+01 8.7412325142896936e+00 0 0 0
538 2 8.6134999999999984e+00 9.2355835810918343e+00 8.7412325142896936e+00 0 0 0
513 2 4.9220000000000006e+00 1.1366872099805333e+01 8.7412325142896936e+00 0 0 0
559 2 8.6134999999999984e+00 1.0656442593567498e+01 8.7412325142896936e+00 0 0 0
227 2 4.9220000000000006e+00 8.5251540748539991e+00 5.4900998283615827e+00 0 0 0
313 2 8.6135000000000002e+00 1.2077301606043163e+01 5.4900998283615827e+00 0 0 0
225 2 4.9220000000000006e+00 9.9460130873296642e+00 5.4900998283615827e+00 0 0 0
272 2 7.3830000000000009e+00 8.5251540748539991e+00 5.4900998283615827e+00 0 0 0
270 2 7.3830000000000009e+00 9.9460130873296642e+00 5.4900998283615827e+00 0 0 0
514 2 4.9220000000000006e+00 8.5251540748539991e+00 8.7412325142896936e+00 0 0 0
268 2 6.1524999999999999e+00 1.0656442593567499e+01 5.4900998283615827e+00 0 0 0
515 2 6.1524999999999999e+00 9.2355835810918343e+00 8.7412325142896936e+00 0 0 0
315 2 8.6134999999999984e+00 1.0656442593567498e+01 5.4900998283615827e+00 0 0 0
2604 1 9.1059267226105622e-01 1.0408174528821848e-01 1.3830183348323509e+01 2 1 0
4214 1 6.9597469159498369e+00 1.0729662932837769e+01 1.8274265291353181e+01 0 3 -1
2684 1 6.0271175802597865e+00 8.0698158816246739e+00 1.7471518262276774e+01 2 1 -1
4987 1 1.0994379980376618e+00 3.2285592596599050e-01 1.1035975351873995e+01 -2 -2 0
1828 1 6.6775660823579495e+00 1.2045950445667770e+00 1.1663964469729565e+01 -2 4 0
744 1 6.4668149977355087e+00 9.9149842202939942e-01 1.4477302220570087e+01 -3 -2 0
4909 1 7.5207132414089699e+00 3.9078971294497751e+00 1.1264481539109338e+01 -2 0 0
1717 1 6.6555077836439587e+00 3.7945875976010197e+00 1.4306541066834756e+01 3 -2 0
713 1 1.4494731650595338e+00 4.9668196549760548e+00 1.1637464182758469e+01 -3 1 0
4269 1 1.3412254771114169e+00 5.1622144141453878e+00 1.4763853600850357e+01 4 3 0
1471 1 4.6106820497748338e+00 5.2254317980675342e+00 1.1597520911080075e+01 2 0 0
3456 1 4.3953053196375116e+00 5.4027559707184185e+00 1.4293372030700834e+01 1 -3 -1
844 1 1.9554559585702980e+00 1.0042800284468871e+01 1.7491658389233319e+01 2 -2 0
999 1 9.7025116816790860e+00 5.5619415173369022e+00 1.1941935367106840e+01 2 3 0
3237 1 7.8599914066768095e+00 6.2972216874570988e+00 1.8203124365671343e+01 -2 3 -1
871 1 9.0549477673319583e+00 5.1632746737284556e+00 1.4327471800283925e+01 1 2 -1
3498 1 8.6064864191089399e+00 8.0345171629327314e+00 1.1806281830579156e+01 2 1 0
120 1 8.6544831142023728e+00 8.0503935513592726e+00 1.4669165434503816e+01 -1 1 0
4059 1 5.6244897557829594e+00 7.8389660692693930e+00 1.4735174709910053e+01 -1 -3 0
748 1 5.6073126806679001e+00 7.8303569243961286e+00 1.1653510957556863e+01 2 -1 0
2495 1 1.4171504873332068e+00 1.0313462717333685e+01 1.1323411844672286e+01 2 4 -1
2405 1 1.6975896429141915e+00 1.0215422076691739e+01 1.4760792159103444e+01 1 5 1
954 1 4.2755836013496529e+00 1.0303787234283405e+01 1.4160874988449423e+01 -2 1 0
1629 1 4.3125638788914307e+00 1.0213936036742856e+01 1.1367327763346825e+01 3 1 0
3493 1 3.7606936478679551e+00 8.9219625568126981e-01 1.6851986148511092e+01 2 0 0
1495 1 1.3702852584587260e+00 3.1829645557245728e-01 1.8307662148301539e+01 1 1 0
2629 1 4.3377263174430558e+00 3.4776014557515120e+00 1.7523650141703758e+01 -1 2 0
2463 1 7.0948508936167745e+00 3.8205823532901895e+00 1.7062411962250213e+01 -2 0 -1
3306 1 8.8526036184320951e+00 1.9324880638308348e+00 1.7973635790586417e+01 1 0 -1
2404 1 2.4095556551036172e+00 5.4648167022085063e+00 1.7201629028880312e+01 -2 0 0
815 1 3.5485633179983256e+00 7.8519018981948934e+00 1.8387563389227601e+01 2 1 0
4227 1 9.3551949286038596e+00 1.1729536233086785e+01 1.7329007176869929e+01 0 0 0
4935 1 3.9938113377858055e+00 4.6549148090506703e-01 1.1152591526552353e+01 0 -1 0
2469 1 3.0509982131741425e-01 7.8866341871766199e+00 1.3982065593952305e+01 1 1 0
1570 1 1.4729810822145151e-01 7.7388221015228202e+00 1.1223021792053705e+01 0 3 0
2312 1 1.7092125677435210e+00 3.2465026527067460e+00 2.1613777262675129e+01 -3 2 0
3148 1 1.6570789029566453e+00 2.8710445966609082e+00 2.4462133562124158e+01 1 -2 0
4132 1 1.2792734000244146e+00 4.1170381914417276e-01 2.1266324035337444e+01 4 1 0
1691 1 4.4425133315240029e+00 3.5019277026390121e+00 2.0272114188668137e+01 2 0 -1
717 1 6.1952810239823561e+00 1.3460237193565643e+00 2.1209743757430630e+01 2 0 -1
670 1 8.8261321687442109e+00 1.8528530483072199e+00 2.0758816811282724e+01 0 0 0
4777 1 6.5276220174235400e+00 1.5243044577473461e+00 2.4021716574952553e+01 -2 0 -1
4875 1 5.4692893457144587e-01 7.3053840886810990e+00 2.1426901596322015e+01 1 1 1
4075 1 8.4862517706077922e-01 7.2482624788879253e+00 2.4263568034333385e+01 1 1 -1
2625 1 3.3595825595834752e+00 7.5292825194169763e+00 2.1036979406870561e+01 -1 0 1
4111 1 5.3023510887509131e+00 5.8418261025649389e+00 2.1611275432099387e+01 -1 3 0
2512 1 5.3966797594831224e+00 5.9225097643103677e+00 2.4191696376021014e+01 0 1 0
1492 1 7.9893248787888282e+00 6.3980226091531263e+00 2.0878130452407795e+01 1 4 0
4991 1 6.0800333188125268e+00 8.1815879407799343e+00 2.5337833611427794e+01 0 3 0
2444 1 4.7420727611973418e-01 5.1220778960807190e+00 2.9218205746870815e+01 -1 2 0
2663 1 4.1299215668014622e+00 1.0249678273866420e+01 2.1858278227534250e+01 -3 0 1
4891 1 4.0537610610787409e+00 1.0208263637421117e+01 2.4579340038732628e+01 1 1 0
715 1 8.6896083724212954e+00 9.0012536457878838e+00 2.4486702712298634e+01 -1 5 0
2670 1 6.3885188804893591e+00 1.1100935071958045e+01 2.0954340219320450e+01 2 0 0
21 1 8.3786566282687094e+00 9.0845022322272584e+00 2.1644238222972493e+01 -2 -2 0
4850 1 3.9336835458998021e+00 1.2088133004302763e+00 2.5217967549953737e+01 -2 0 0
3280 1 1.2660435579628120e+00 7.0484915525401215e-01 2.8770241189648132e+01 2 -1 -1
4199 1 3.8926440989578150e+00 1.4132539895270970e+00 2.7833765052201660e+01 -2 3 -1
759 1 4.4961307924894696e+00 3.9303297477396106e+00 2.8667574282953680e+01 0 -2 -1
1545 1 9.0230152526751475e+00 2.3702949052119346e+00 2.8989562510658846e+01 2 1 0
802 1 7.1302190397727436e+00 4.1256028057085619e+00 2.4968165590270253e+01 -1 0 0
4843 1 2.7556158069689887e+00 5.4438447390015634e+00 2.4976605427667330e+01 -3 -1 0
4323 1 2.7613310816379943e+00 5.6862323811864366e+00 2.7834156891004461e+01 2 -3 0
1527 1 9.4828960012450114e+00 1.1391359277137417e+01 2.5164750889809316e+01 0 -3 0
4322 1 7.1719459704690083e+00 4.2238347961888074e+00 2.7874901016347202e+01 3 1 1
3288 1 8.0238266746456244e+00 6.5827799047092492e+00 2.8904951661556094e+01 -1 3 -1
4914 1 3.6058880812970693e+00 7.9455374683516409e+00 2.9194554098497505e+01 -2 6 0
1791 1 1.7411538055051452e+00 9.9756080555516551e+00 2.8285282093795402e+01 2 0 -1
2309 1 1.4826838560721409e+00 9.8016218789736769e+00 2.5426730170557793e+01 1 1 0
3476 1 6.0376728862253186e+00 8.3427142048163034e+00 2.8059540476305777e+01 0 2 0
2446 1 7.0417320076682035e+00 1.1077937648772384e+01 2.8735630179318274e+01 -1 2 -1
2325 1 9.6188663210526748e+00 1.1384591986487614e+01 2.7912227095389770e+01 0 1 0
663 1 9.7542683741134564e+00 4.3672789123004305e+00 2.1902673829819204e+01 3 -2 -1
1810 1 2.2025029666443641e+00 1.1957946872224264e+01 2.1334976731526442e+01 1 1 0
4040 1 1.0995067595214094e+00 1.0191396705541838e+00 3.1446230116462576e+01 2 0 -1
3402 1 2.1274678882661977e+00 3.3866643002167995e+00 3.2665074880390343e+01 0 4 1
2688 1 4.7164827408212613e+00 3.7658852238779312e+00 3.1356292871237702e+01 -1 -1 0
32 1 6.3568363888435861e+00 1.8006127898552411e+00 3.2522984557244207e+01 3 -1 -1
4225 1 9.0680868436792821e+00 2.5628098617727222e+00 3.1777670956751333e+01 -2 -1 -1
2330 1 8.8276093259504207e-01 7.8492031435490999e+00 3.2843107387032973e+01 2 -2 0
1853 1 3.4653352941299675e+00 7.8713551605230689e+00 3.1807029969025603e+01 1 2 -1
960 1 3.2292492594754019e+00 8.1004611878220736e+00 3.8888079485557945e+01 0 -1 0
3412 1 5.6948338340049238e+00 6.1237959865755736e+00 3.2748958623251170e+01 1 -1 0
658 1 7.9995822436146060e+00 6.9203396335035521e+00 3.1632023191088109e+01 0 -1 0
4124 1 4.1887841504288259e+00 1.0627835467474670e+01 3.2489412171827354e+01 -2 -1 0
913 1 6.7896898680136335e+00 1.1462208037030194e+01 3.1649440562615418e+01 3 0 0
2665 1 8.7799169515943429e+00 9.4979513259318580e+00 3.2573758900697570e+01 -2 -1 0
3158 1 1.9310735541006585e+00 3.4030311925876902e+00 3.5401812162721811e+01 2 1 0
986 1 1.0583499287360836e+00 9.0649569726755896e-01 3.6045508996328159e+01 3 3 -1
1761 1 1.0599746288026624e+00 6.3094677084121176e-01 3.8679224899372088e+01 -2 1 0
3501 1 4.4625999239581207e+00 3.7613649560079319e+00 3.5790552218148967e+01 -2 0 0
853 1 4.6519531677393697e+00 3.7027947377758141e+00 3.8690739249248836e+01 -1 -2 -1
1613 1 1.9862084882240181e+00 3.0175692870381634e+00 3.9532822114296707e+01 1 1 0
2430 1 6.4315095383585534e+00 1.8135219350592477e+00 3.5144596021926802e+01 -1 -1 0
4100 1 6.6208708701670806e+00 1.9616170641126758e+00 3.9322783483278570e+01 1 -5 0
91 1 9.2463013219270316e+00 2.1157783783520978e+00 3.8951359035152485e+01 -1 1 0
2383 1 8.0361319580976143e-01 7.3543374042352818e+00 3.9839290390949479e+01 1 -1 -1
3497 1 8.9138331258332482e+00 9.0569488911793758e+00 3.9563870151545963e+01 0 0 0
3225 1 8.2971516485577634e-01 7.4612904223064440e+00 3.5480941031507804e+01 3 2 0
2696 1 6.9226505814049268e+00 1.0934626148164305e+01 3.9301267862520476e+01 1 3 1
4341 1 8.7707239620921094e+00 9.0845564161284322e+00 3.5283128052173431e+01 0 -1 0
3172 1 5.3224501452566368e+00 6.1656989088543552e+00 3.9448053532369016e+01 2 -2 0
4953 1 5.1994125337604720e+00 6.3522601814170772e+00 3.5215206794307505e+01 -1 2 0
695 1 7.9348614296599775e+00 6.4694934697842434e+00 3.8848121996433953e+01 2 -3 0
3274 1 7.7787323583890862e+00 6.2576620870525685e+00 3.6074909981800296e+01 2 1 0
1541 1 7.1589535572172087e+00 1.0979079135396782e+01 3.6543217710167717e+01 0 0 0
4265 1 9.1514118976003527e+00 2.3901231405626806e+00 3.6040685638398685e+01 6 -1 0
4856 1 4.3493105580788090e+00 1.0741799602271724e+01 3.5261295977859284e+01 -3 0 0
629 1 3.3814258135995092e+00 8.3811054470987241e+00 3.5927701009728573e+01 0 -1 -1
3291 1 8.6390086596016075e-02 1.1895388927198217e+01 3.9602215326929752e+01 1 1 0
1769 1 2.1918062552770814e-01 5.3137825666142762e+00 3.1839757922447763e+01 5 0 0
816 1 4.3369015161678472e+00 1.0527529522252818e+01 3.9805553802470513e+01 2 1 0
181 2 0.0000000000000000e+00 1.2787731112280996e+01 2.2389671424281357e+00 0 0 0
183 2 1.2305000000000001e+00 1.3498160618518829e+01 2.2389671424281357e+00 0 0 0
218 2 2.4610000000000003e+00 1.2787731112280996e+01 2.2389671424281357e+00 0 0 0
220 2 3.6915000000000004e+00 1.3498160618518829e+01 2.2389671424281357e+00 0 0 0
179 2 0.0000000000000000e+00 1.5629449137232333e+01 2.2389671424281357e+00 0 0 0
214 2 1.2305000000000001e+00 1.4919019630994494e+01 2.2389671424281357e+00 0 0 0
216 2 2.4610000000000003e+00 1.5629449137232328e+01 2.2389671424281357e+00 0 0 0
259 2 3.6915000000000004e+00 1.4919019630994494e+01 2.2389671424281357e+00 0 0 0
263 2 4.9220000000000006e+00 1.2787731112280996e+01 2.2389671424281357e+00 0 0 0
265 2 6.1524999999999990e+00 1.3498160618518829e+01 2.2389671424281357e+00 0 0 0
310 2 7.3829999999999991e+00 1.2787731112280996e+01 2.2389671424281357e+00 0 0 0
312 2 8.6135000000000002e+00 1.3498160618518835e+01 2.2389671424281357e+00 0 0 0
261 2 4.9220000000000006e+00 1.5629449137232333e+01 2.2389671424281357e+00 0 0 0
306 2 6.1524999999999990e+00 1.4919019630994494e+01 2.2389671424281357e+00 0 0 0
308 2 7.3829999999999991e+00 1.5629449137232333e+01 2.2389671424281357e+00 0 0 0
353 2 8.6135000000000002e+00 1.4919019630994494e+01 2.2389671424281357e+00 0 0 0
210 2 0.0000000000000000e+00 1.7050308149707998e+01 2.2389671424281357e+00 0 0 0
255 2 2.4610000000000003e+00 1.7050308149707998e+01 2.2389671424281357e+00 0 0 0
208 2 0.0000000000000000e+00 1.9892026174659328e+01 2.2389671424281357e+00 0 0 0
212 2 1.2305000000000001e+00 1.7760737655945832e+01 2.2389671424281357e+00 0 0 0
251 2 1.2305000000000001e+00 1.9181596668421495e+01 2.2389671424281357e+00 0 0 0
253 2 2.4610000000000003e+00 1.9892026174659328e+01 2.2389671424281357e+00 0 0 0
257 2 3.6914999999999996e+00 1.7760737655945832e+01 2.2389671424281357e+00 0 0 0
298 2 3.6914999999999996e+00 1.9181596668421495e+01 2.2389671424281357e+00 0 0 0
302 2 4.9220000000000006e+00 1.7050308149707998e+01 2.2389671424281357e+00 0 0 0
349 2 7.3830000000000009e+00 1.7050308149707998e+01 2.2389671424281357e+00 0 0 0
300 2 4.9220000000000006e+00 1.9892026174659328e+01 2.2389671424281357e+00 0 0 0
304 2 6.1524999999999999e+00 1.7760737655945832e+01 2.2389671424281357e+00 0 0 0
345 2 6.1524999999999999e+00 1.9181596668421495e+01 2.2389671424281357e+00 0 0 0
347 2 7.3829999999999991e+00 1.9892026174659328e+01 2.2389671424281357e+00 0 0 0
351 2 8.6134999999999984e+00 1.7760737655945832e+01 2.2389671424281357e+00 0 0 0
387 2 8.6135000000000002e+00 1.9181596668421495e+01 2.2389671424281357e+00 0 0 0
245 2 0.0000000000000000e+00 2.4154603212086325e+01 2.2389671424281357e+00 0 0 0
247 2 0.0000000000000000e+00 2.1312885187134999e+01 2.2389671424281357e+00 0 0 0
249 2 1.2304999999999993e+00 2.2023314693372832e+01 2.2389671424281357e+00 0 0 0
290 2 1.2304999999999993e+00 2.3444173705848499e+01 2.2389671424281357e+00 0 0 0
292 2 2.4610000000000003e+00 2.4154603212086325e+01 2.2389671424281357e+00 0 0 0
294 2 2.4610000000000003e+00 2.1312885187134995e+01 2.2389671424281357e+00 0 0 0
296 2 3.6914999999999996e+00 2.2023314693372832e+01 2.2389671424281357e+00 0 0 0
337 2 3.6915000000000004e+00 2.3444173705848499e+01 2.2389671424281357e+00 0 0 0
339 2 4.9220000000000006e+00 2.4154603212086325e+01 2.2389671424281357e+00 0 0 0
341 2 4.9220000000000006e+00 2.1312885187134995e+01 2.2389671424281357e+00 0 0 0
343 2 6.1524999999999990e+00 2.2023314693372832e+01 2.2389671424281357e+00 0 0 0
379 2 6.1524999999999999e+00 2.3444173705848499e+01 2.2389671424281357e+00 0 0 0
381 2 7.3830000000000009e+00 2.4154603212086336e+01 2.2389671424281357e+00 0 0 0
383 2 7.3829999999999991e+00 2.1312885187134999e+01 2.2389671424281357e+00 0 0 0
385 2 8.6135000000000002e+00 2.2023314693372832e+01 2.2389671424281357e+00 0 0 0
413 2 8.6134999999999984e+00 2.3444173705848499e+01 2.2389671424281357e+00 0 0 0
182 2 0.0000000000000000e+00 1.2787731112280996e+01 5.4900998283615827e+00 0 0 0
219 2 2.4610000000000003e+00 1.2787731112280996e+01 5.4900998283615827e+00 0 0 0
180 2 0.0000000000000000e+00 1.4208590124756663e+01 5.4900998283615827e+00 0 0 0
215 2 1.2305000000000001e+00 1.4919019630994494e+01 5.4900998283615827e+00 0 0 0
217 2 2.4610000000000003e+00 1.4208590124756663e+01 5.4900998283615827e+00 0 0 0
260 2 3.6915000000000004e+00 1.4919019630994494e+01 5.4900998283615827e+00 0 0 0
491 2 0.0000000000000000e+00 1.2787731112280996e+01 8.7412325142896936e+00 0 0 0
492 2 1.2305000000000001e+00 1.3498160618518829e+01 8.7412325142896936e+00 0 0 0
510 2 2.4610000000000003e+00 1.2787731112280996e+01 8.7412325142896936e+00 0 0 0
511 2 3.6915000000000004e+00 1.3498160618518829e+01 8.7412325142896936e+00 0 0 0
490 2 0.0000000000000000e+00 1.5629449137232333e+01 8.7412325142896936e+00 0 0 0
508 2 1.2305000000000001e+00 1.4919019630994494e+01 8.7412325142896936e+00 0 0 0
509 2 2.4610000000000003e+00 1.5629449137232328e+01 8.7412325142896936e+00 0 0 0
531 2 3.6915000000000004e+00 1.4919019630994494e+01 8.7412325142896936e+00 0 0 0
264 2 4.9220000000000006e+00 1.2787731112280996e+01 5.4900998283615827e+00 0 0 0
311 2 7.3829999999999991e+00 1.2787731112280996e+01 5.4900998283615827e+00 0 0 0
262 2 4.9220000000000006e+00 1.4208590124756663e+01 5.4900998283615827e+00 0 0 0
307 2 6.1524999999999990e+00 1.4919019630994494e+01 5.4900998283615827e+00 0 0 0
309 2 7.3830000000000009e+00 1.4208590124756663e+01 5.4900998283615827e+00 0 0 0
354 2 8.6135000000000002e+00 1.4919019630994494e+01 5.4900998283615827e+00 0 0 0
533 2 4.9220000000000006e+00 1.2787731112280996e+01 8.7412325142896936e+00 0 0 0
534 2 6.1524999999999990e+00 1.3498160618518829e+01 8.7412325142896936e+00 0 0 0
557 2 7.3829999999999991e+00 1.2787731112280996e+01 8.7412325142896936e+00 0 0 0
558 2 8.6135000000000002e+00 1.3498160618518835e+01 8.7412325142896936e+00 0 0 0
532 2 4.9220000000000006e+00 1.5629449137232333e+01 8.7412325142896936e+00 0 0 0
555 2 6.1524999999999990e+00 1.4919019630994494e+01 8.7412325142896936e+00 0 0 0
556 2 7.3829999999999991e+00 1.5629449137232333e+01 8.7412325142896936e+00 0 0 0
579 2 8.6135000000000002e+00 1.4919019630994494e+01 8.7412325142896936e+00 0 0 0
211 2 0.0000000000000000e+00 1.7050308149707998e+01 5.4900998283615827e+00 0 0 0
213 2 1.2305000000000001e+00 1.6339878643470165e+01 5.4900998283615827e+00 0 0 0
256 2 2.4610000000000003e+00 1.7050308149707998e+01 5.4900998283615827e+00 0 0 0
258 2 3.6915000000000004e+00 1.6339878643470165e+01 5.4900998283615827e+00 0 0 0
209 2 0.0000000000000000e+00 1.8471167162183658e+01 5.4900998283615827e+00 0 0 0
252 2 1.2305000000000001e+00 1.9181596668421495e+01 5.4900998283615827e+00 0 0 0
254 2 2.4610000000000003e+00 1.8471167162183658e+01 5.4900998283615827e+00 0 0 0
299 2 3.6914999999999996e+00 1.9181596668421495e+01 5.4900998283615827e+00 0 0 0
506 2 0.0000000000000000e+00 1.7050308149707998e+01 8.7412325142896936e+00 0 0 0
529 2 2.4610000000000003e+00 1.7050308149707998e+01 8.7412325142896936e+00 0 0 0
505 2 0.0000000000000000e+00 1.9892026174659328e+01 8.7412325142896936e+00 0 0 0
507 2 1.2305000000000001e+00 1.7760737655945832e+01 8.7412325142896936e+00 0 0 0
527 2 1.2305000000000001e+00 1.9181596668421495e+01 8.7412325142896936e+00 0 0 0
528 2 2.4610000000000003e+00 1.9892026174659328e+01 8.7412325142896936e+00 0 0 0
530 2 3.6914999999999996e+00 1.7760737655945832e+01 8.7412325142896936e+00 0 0 0
551 2 3.6914999999999996e+00 1.9181596668421495e+01 8.7412325142896936e+00 0 0 0
303 2 4.9220000000000006e+00 1.7050308149707998e+01 5.4900998283615827e+00 0 0 0
305 2 6.1524999999999999e+00 1.6339878643470165e+01 5.4900998283615827e+00 0 0 0
350 2 7.3830000000000009e+00 1.7050308149707998e+01 5.4900998283615827e+00 0 0 0
352 2 8.6134999999999984e+00 1.6339878643470165e+01 5.4900998283615827e+00 0 0 0
301 2 4.9220000000000006e+00 1.8471167162183658e+01 5.4900998283615827e+00 0 0 0
346 2 6.1524999999999999e+00 1.9181596668421495e+01 5.4900998283615827e+00 0 0 0
348 2 7.3829999999999991e+00 1.8471167162183658e+01 5.4900998283615827e+00 0 0 0
388 2 8.6135000000000002e+00 1.9181596668421495e+01 5.4900998283615827e+00 0 0 0
553 2 4.9220000000000006e+00 1.7050308149707998e+01 8.7412325142896936e+00 0 0 0
577 2 7.3830000000000009e+00 1.7050308149707998e+01 8.7412325142896936e+00 0 0 0
552 2 4.9220000000000006e+00 1.9892026174659328e+01 8.7412325142896936e+00 0 0 0
554 2 6.1524999999999999e+00 1.7760737655945832e+01 8.7412325142896936e+00 0 0 0
575 2 6.1524999999999999e+00 1.9181596668421495e+01 8.7412325142896936e+00 0 0 0
576 2 7.3829999999999991e+00 1.9892026174659328e+01 8.7412325142896936e+00 0 0 0
578 2 8.6134999999999984e+00 1.7760737655945832e+01 8.7412325142896936e+00 0 0 0
596 2 8.6135000000000002e+00 1.9181596668421495e+01 8.7412325142896936e+00 0 0 0