LAMMPS data file via write_data, version 29 Oct 2020, timestep = 250000

6337 atoms
2 atom types

0.0 49.22 xlo xhi
0.0 49.019635930410494 ylo yhi
2.3259858716011763 57.73601412839628 zlo zhi

Masses

1 18.015
2 12.01

Atoms # atomic

1984 1 4.101498832520344 0.42041920641914554 3.0155034057550565 0 1 0
5975 1 5.385767490080765 2.8849392519782557 3.023190597688246 1 1 1
4760 1 23.20961349532957 21.748019660456904 16.94310818102748 1 0 1
198 1 9.013920222025188 4.587353218750875 4.080623978748062 0 0 1
6321 1 23.229442338862462 18.041293029719927 14.54678903504961 0 -1 0
3191 1 23.454531023183417 15.335766406003227 18.978829596408374 1 0 1
1265 1 15.440168082207395 4.666286560826923 4.76633833538551 0 0 1
2089 1 16.312494964850632 2.6023649432701292 3.3096207919260734 0 1 1
4850 1 0.1546673104535528 7.876241903157452 16.915999396327752 1 1 0
3389 1 22.067895251342023 22.5931026480413 19.178093256376332 1 -1 1
1820 1 1.4862338990865704 5.207917353325502 4.334350646169438 0 0 0
1946 1 4.204119499528524 5.689817179769324 3.598495547719284 0 1 0
428 1 24.334592644772346 5.619536459783131 16.11876010166819 0 0 0
3334 1 7.777255758534467 7.0563168376923775 4.779205980691394 0 0 0
1940 1 13.069231051719346 6.247311711601335 4.424817759763515 1 0 0
1496 1 16.10108482273872 6.7735979395395844 3.0151614408313776 0 0 1
355 1 10.631608839091287 21.72845059182776 5.0567735476012405 0 0 0
6291 1 20.23638976552696 4.692576561335021 5.881109303049817 1 1 1
1879 1 3.628577848748718 22.36336071242466 20.60778194058924 0 0 0
5044 1 0.16418543380571476 18.21152215267482 8.770174025368956 1 0 0
190 1 12.373186373541238 3.4193643743075497 10.160555302926872 1 0 1
3364 1 1.8282612666551605 10.573046783171248 5.34661628837387 1 0 1
530 1 18.761043471300326 4.358396657949758 20.660228211711615 -1 1 0
2104 1 4.109452372416006 8.86086905777164 6.3646194187535 0 1 0
4875 1 5.988151889678393 22.966790735399147 19.03079178749445 1 -1 1
5106 1 11.705582623584124 10.439465186756745 4.399115443269861 1 -1 0
89 1 14.910517352792587 11.662043225974585 2.662768126914094 0 0 1
4655 1 13.796395415865936 8.878249342797607 3.504775470686101 1 0 1
168 1 19.915288956707613 8.8600633517904 4.235849598721314 1 0 1
1489 1 20.603596462627543 11.27693773692514 5.131305044492915 1 0 0
3545 1 24.477809828661137 7.071493765281936 13.313345792592187 0 1 0
6223 1 0.09880108947963606 14.668430019660878 4.988580281932423 1 0 1
4878 1 8.62337945412504 11.15736996396228 5.320190317036701 1 -1 1
540 1 23.243033731788582 3.0369012573475342 20.298093621998454 0 1 1
4424 1 21.724609159027892 0.385266415298882 13.688222746464964 1 0 1
1900 1 17.192407063411725 13.976703327330984 3.394131484773946 0 -1 0
1484 1 16.003337482705135 11.985915161124533 5.526674171276369 0 0 0
4599 1 21.192250290079006 13.073403653527798 3.3253606293674887 0 1 1
178 1 17.116273449894248 21.12698997494639 19.562341377751498 0 1 1
1343 1 23.59434122242071 13.814888464806565 4.260401309970736 0 1 1
188 1 24.454746192769417 15.960410477666194 16.291944225482162 0 0 0
366 1 1.1200386730869398 16.282559510626683 10.904628586594308 0 0 0
5016 1 4.334952759813192 14.067690150450012 4.234443456189522 1 1 0
187 1 0.7372254988033604 16.49337117055869 19.216472953990746 0 1 0
1616 1 11.906268672049924 17.553241915347463 4.895699349344113 1 0 1
3510 1 13.342283829345943 15.195552578451409 4.707968510346449 0 1 0
3590 1 16.415105825214546 18.960636101113256 4.343327797740109 0 -1 0
5034 1 24.498838178770782 13.766299800333814 10.207711124099951 0 0 0
1708 1 19.511062255156375 15.120845972520817 3.76405275949699 -1 1 1
3690 1 23.49821622786229 16.32305359093769 5.811943324726622 -1 1 0
1784 1 18.962650485558196 24.35845771065268 7.12110375586375 1 0 0
2167 1 3.1450866042276786 19.338370137801153 4.523100516682327 0 0 1
4561 1 4.0601501551920025 21.17100278330535 9.12604049681072 1 0 1
3330 1 5.698399278053137 17.349345253893286 20.232886349266106 1 0 1
2121 1 13.959660619444286 19.879358051657306 5.000496888363019 -1 1 0
4423 1 21.574339434483914 8.333743803976676 19.953729163206578 0 0 1
525 1 8.476081587078252 0.6155437456147383 3.7092160419693303 0 0 1
4529 1 22.228339671178 18.711368796118204 4.6492945251225075 1 1 1
3303 1 2.293098718237416 23.606592403531458 4.123231201336812 0 0 0
5182 1 4.308928229132467 21.82928169474988 2.7705732119829762 0 0 0
1538 1 6.882119711298725 20.689179315674256 3.63209629673272 1 0 0
354 1 17.419405341854297 24.213844252357685 9.838424239027827 0 0 0
6054 1 8.553054822660641 19.979659452205443 6.073101450831219 1 0 1
5068 1 8.050388162621815 21.385730458179584 8.540790437318755 0 0 0
4456 1 17.48508189243866 21.463471545912647 5.268056725843756 0 -1 1
552 1 22.155500113317224 20.846446843184435 6.358511064728542 -1 0 0
509 1 1.44783081115425 3.1915222477213554 6.458983492580241 0 0 1
1650 1 2.003146331435953 3.996438521247512 8.915873449053738 0 1 1
4506 1 7.037715012618303 2.836976902303911 4.997961047154831 1 1 1
4495 1 7.033003131826097 2.3484686568289455 7.950927371117949 1 0 0
6007 1 8.274936518955482 2.4029942879166124 20.307067063613513 1 0 1
3273 1 11.290770847482417 3.869669613626604 5.580087199769794 -1 0 1
2834 1 13.077809827967894 1.7159518142728898 6.157446436761777 0 1 1
2014 1 10.458800815658838 3.7089532118373976 8.132411547548411 0 0 0
399 1 17.673764697606618 16.026731736537215 20.238915112241337 -1 0 0
1364 1 17.85000690176903 3.7689671498254556 8.966968090931674 0 0 1
6221 1 1.496248005262774 12.511221558295007 10.883075019246546 1 1 1
365 1 21.69685116059396 1.3351921239570324 8.747318757709259 0 0 0
260 1 2.3891103136384375 10.655634564682238 2.8052394650053647 0 0 0
2956 1 5.336847446615345 6.296392020515532 6.0294603972716745 0 0 1
3352 1 4.205801215946928 5.641866044166838 8.759262822110351 1 1 0
6201 1 12.882433135596534 7.754254995520777 9.65890648259786 1 0 0
1662 1 17.58898010523235 5.384519709321829 6.689477107200699 0 1 0
207 1 21.683954590161758 7.222307383296916 5.469220576518717 1 1 1
6244 1 22.30622307885664 3.900783719153174 7.912056229272581 0 1 1
3201 1 16.09655325209573 0.3498253449592362 13.601183958554799 0 1 0
4882 1 9.384817420592091 8.038435291049302 7.0267203855522755 0 1 0
4885 1 11.95313931262538 7.035031139521204 7.071938833389607 0 0 0
310 1 15.424800767454945 9.828075541360851 7.196280694248432 0 0 0
4980 1 12.703319872566393 9.92404449394179 7.013116266559814 1 0 1
1464 1 17.123506874570353 8.025459138514265 5.27756291947933 -1 0 0
3455 1 22.795460461697573 8.81752997490495 7.282788198102882 1 0 1
1714 1 2.249409222837783 13.245844311309328 6.112819715908429 0 0 0
4808 1 3.160372116694774 13.59129292785197 8.841730545158658 1 0 0
6006 1 5.853270920126567 11.690876445152428 5.789459820311036 0 1 1
1690 1 4.153766525620934 8.458127328501552 9.158710104997983 -1 1 0
5158 1 8.909247464598883 10.322561060459018 8.469024888437648 1 1 0
3390 1 6.189439674086928 10.343052888574254 9.550583719594322 -1 0 0
2020 1 14.23817864487519 13.582110126462544 7.1337292277025055 0 1 0
31 1 10.512502376721962 13.447231833281094 5.637436254383546 -1 0 1
2078 1 18.521605174475464 12.845309012113674 6.727114523055731 1 1 1
1711 1 18.183247667273548 12.980238142570277 9.526899416274004 1 0 0
142 1 22.850444218571745 11.528650902807913 6.737572767845551 0 1 0
6199 1 22.08292450648359 13.063155104061652 9.062568510288678 1 1 1
6125 1 1.2017631630649919 18.829233643368372 12.011028593221827 2 0 1
2873 1 5.703614154827665 18.734065887150802 5.431950289705728 1 1 1
553 1 5.496760636201867 9.742253645264466 3.4546531720183165 1 1 1
3535 1 6.221073910386508 16.032173393772865 4.831739535286682 -1 -1 0
5092 1 8.314051803224004 15.40711550068318 6.615052276522104 0 0 0
3638 1 5.514554932191695 12.571257814349304 8.191702954320107 1 1 1
6232 1 14.278705141946492 15.301230038036596 9.513074326525736 0 0 0
13 1 17.56374261633371 17.86192527986517 6.702125411983384 0 0 1
3234 1 19.21043287411441 15.548737018509756 6.426533113516473 0 0 1
3200 1 17.213364334168514 15.258791978767327 13.009137991786927 0 1 0
445 1 21.637472083421027 15.680431274128615 7.7809039729905525 0 0 0
3302 1 12.335749813600936 21.68970194103784 19.664544205105493 1 0 0
338 1 4.728230453004785 10.542622969651907 20.655958089928706 0 0 0
3336 1 1.5313878350118233 20.875034239402098 8.237207218153737 -1 -1 0
3526 1 5.7046034727375945 19.119980034859115 8.32111400479814 1 2 1
4597 1 6.92580038161905 16.6682521082921 9.827531922641711 0 0 0
3141 1 14.095223382013746 21.746155770751283 6.960447499688486 0 0 0
3339 1 16.362792838018727 17.637226460538763 9.265522262354043 1 0 0
1346 1 14.789796141024944 20.652883866135475 9.416032386083895 0 0 1
6005 1 17.984788622396174 15.797755352706401 10.412762609144218 -1 0 1
1375 1 23.35477615050477 21.150536609726817 13.230133135214622 0 1 1
4911 1 20.38614352369923 17.074191834608555 9.648224968679681 0 0 0
3614 1 20.780828384679914 3.972899284282753 2.892616811086316 0 2 0
14 1 5.70870689601512 23.247388846223593 7.970761673782385 1 1 1
1815 1 9.440308311760841 23.781279587329536 8.437619828712574 0 0 0
4753 1 11.848140238308 23.113183246590786 6.908354305502263 0 0 1
2034 1 10.095998605122645 17.81109915059237 7.111704103254855 0 0 1
383 1 14.842192105937343 23.290099178529275 10.55162852721785 0 -1 0
537 1 16.04711606677844 23.983717513962404 7.068564071822615 0 0 1
5150 1 16.7315818175868 0.4830441140211812 8.64851548692025 0 0 0
4973 1 19.443089363011843 19.809820420811487 6.699412274718563 -1 -1 1
2122 1 21.00039148983646 23.8485114957751 9.34672867213371 -1 0 1
1335 1 19.259135514998466 19.75295655282389 9.332843724963766 0 0 1
4763 1 7.081666536389034 9.72963419762357 19.31876202028457 0 0 1
4691 1 15.638317869468068 23.75096124137489 4.254347139146406 1 0 0
1367 1 2.723957160825941 1.1645972663953996 9.388309447865277 0 2 1
1830 1 5.658623710587926 0.8217622553000135 9.603870501625382 1 1 1
6023 1 9.649818048621272 1.04473441199971 8.944321668707756 1 1 0
3081 1 22.836011088754734 3.653377111376985 17.69154785692215 -1 0 0
1454 1 16.616917422240746 3.1526756996267475 13.306525498652443 0 0 1
512 1 14.700761821959093 2.143397571417522 8.30958152382928 0 1 1
4915 1 15.006485174144958 4.710179099690435 9.640446044939786 0 1 0
1975 1 22.890873758575108 21.75919490898751 8.898822493012535 0 0 0
1632 1 18.28054554464336 11.951435902268877 20.450480290206745 0 0 1
33 1 2.167612936938104 5.509724526248222 13.658844512447105 0 0 0
5986 1 2.1043834302218727 3.2785051665175446 11.93808524586192 1 1 1
5245 1 6.713413124220587 4.5764945470454705 9.554255682824376 1 -1 1
1834 1 6.289696608052273 3.67985651703198 12.25555476009132 0 1 0
1368 1 11.929449777020949 5.6422599106450555 11.30631332863075 -1 1 1
2971 1 15.823225970266222 7.249647301974671 8.54741915125715 0 0 1
220 1 15.468731784632201 5.411984504173792 12.125496659299772 0 0 1
1901 1 19.122370882159288 5.4421256493203245 10.516103916271888 0 0 0
1963 1 21.798823356934843 5.821096463575589 10.17293597622236 1 1 0
3119 1 23.13096544028322 5.015766186273033 12.356044159639204 0 1 0
2961 1 2.2188295655346666 1.1958956728086403 16.448798924560258 0 1 1
4603 1 1.8758072450541308 9.119524838297986 12.447536148862477 1 2 1
4845 1 1.9643256025976759 9.993032187654777 9.855486444113666 0 1 0
4936 1 4.679861558127783 8.77507373962095 13.172339571061283 1 0 0
2118 1 8.92171795345436 5.960126771718691 8.841517852367899 0 1 0
6122 1 9.514970342423984 6.762412987706948 11.371585783864832 0 0 1
5022 1 11.077635749376045 9.925855667316766 10.101554298305546 1 1 0
5200 1 17.308704575328438 8.965666716719634 10.18996236416747 0 -1 0
1715 1 13.67663243200055 10.496424044490983 11.180892555543078 -1 0 1
4510 1 20.342708155907864 9.71993400513575 11.57783692050258 1 0 0
2075 1 22.182714546971138 8.554239962031197 9.982875926677139 0 1 1
3057 1 20.177270045233147 22.572592986360487 4.810605460068333 -1 1 1
6072 1 1.7866798840616887 17.15326303668943 4.420664923988417 1 0 1
3150 1 19.062926559372706 0.858346882279507 17.20450411583326 0 1 0
5291 1 6.945145663660156 10.449950202764205 12.160967869286639 1 2 0
2984 1 10.071642742930777 13.708271230893887 9.95439639975966 2 1 1
5058 1 11.867531126146549 12.63965409893582 8.076044637131439 0 0 0
3287 1 9.768949909306436 12.633314750963155 12.331349780716074 0 1 0
1537 1 15.235146878678496 13.73329231961038 11.512943073915372 0 0 1
3437 1 15.856864450860055 11.510634755699064 9.798325878406718 -1 -1 0
124 1 20.275271808955825 12.414774775189857 10.945354101168393 0 1 0
4840 1 18.363557505190514 10.891335821446049 15.252551025428014 0 0 0
1544 1 4.065765787672285 18.268869130712257 12.443383101309694 1 0 1
3648 1 4.108049216481704 15.945478326710548 10.491337247111856 1 0 0
444 1 4.9318866308330955 14.92555813495191 13.092772514602164 0 1 0
3323 1 7.637747212360188 14.082162552013378 8.914863945516672 1 0 0
164 1 12.676868376880668 12.501682755000134 13.11043269533123 0 0 0
3251 1 11.939003625428708 15.758284898749155 10.650811668889673 1 0 0
2052 1 11.8856867884977 15.523185940460587 13.441372412827171 0 -1 0
4810 1 16.106274903053848 17.75765531802807 13.198301256086264 1 0 0
1381 1 19.41970787414298 13.35904196029757 13.492756163765929 0 0 1
5217 1 21.006814408881414 15.780591617615892 13.570157226311748 1 0 0
5069 1 9.825062373257534 20.423595646738026 17.655657708551452 0 0 0
6262 1 5.0672158505762805 21.088275425023244 11.762278463918987 1 1 0
1839 1 12.333447307247239 20.476167549294267 10.986276448845093 1 1 0
4975 1 8.572270414168058 17.76021645305391 11.46485069513873 1 0 0
4967 1 8.044040253898068 17.576546701681774 14.165499053147926 0 0 0
4974 1 10.740362804095806 18.53272550173637 9.92526373083183 0 0 1
6062 1 12.078748353364892 19.507646028403723 16.26088679632022 0 0 1
1620 1 16.990838381782037 19.631282004039598 11.160814302274972 0 0 0
1394 1 22.508217013993605 17.47037824809215 11.533930879977266 0 0 1
1898 1 21.716829275733144 20.253320125732923 10.979265919658381 -1 0 0
5256 1 1.660058803087975 4.340798219350308 20.690045294095277 1 0 0
47 1 2.0701918583544776 0.7650862209335821 5.2980942264816 1 0 0
1729 1 3.0007299917971477 22.68163938703006 14.07100479172458 0 -1 0
4583 1 5.457259852336406 23.827065891304613 13.285646429797643 0 0 1
6200 1 7.841569546177421 20.622504996203368 11.216416924798148 1 -1 0
4926 1 11.749411781842259 23.126230508406113 10.334420958661084 0 0 0
6170 1 10.821204203653153 23.485221186442335 13.003198787202159 1 0 1
5047 1 12.487210989358703 21.18921788069265 13.81459772030147 -1 0 0
6195 1 19.84124061642558 20.014199943171704 13.016983391057538 -1 0 1
1953 1 19.08961429978921 22.394436577281493 11.11351165914729 -1 0 0
294 1 5.694905051136977 2.8387453783426158 20.628747728159155 0 2 0
3280 1 1.3407010494190243 21.731647761680055 18.18636736922422 1 0 1
5035 1 3.3845683268571576 6.2174457710650985 20.206962573767683 -1 1 0
44 1 4.394049964251667 1.6713196938850234 12.246263548242718 0 2 1
4543 1 6.204967321024395 1.6308345728041678 14.509408345356832 1 1 1
474 1 1.8248295990394678 21.631595318227852 11.744150384558884 0 0 0
6148 1 13.411834351240296 16.16897318605844 16.4405169781355 0 -1 0
2987 1 24.588387209158828 9.493447217164778 11.388624817331218 0 0 1
151 1 19.22335015372511 3.2726755121108075 12.278862562274924 0 1 0
239 1 15.37935928896444 16.275226525055793 3.357505455829725 0 0 0
380 1 14.114547454646427 14.180718071943422 20.010682147892744 -1 0 0
1505 1 19.32961162816678 0.29232716811570897 19.797767160192432 0 0 0
3100 1 5.339133858447656 4.67109635604701 16.53027574744086 0 0 1
1550 1 8.866448224500663 4.298985510834891 13.588935845874115 0 0 0
405 1 12.149107930307578 2.2445893152778953 12.627508265061305 1 0 0
4983 1 9.419274075156261 2.011525247428763 11.997343134934466 -1 1 0
4701 1 17.995352031747874 4.899987740782768 16.59198954462164 0 0 1
3014 1 12.52145968869786 3.7314351050541954 15.229765128587655 0 0 1
1882 1 18.350102136571795 7.03014890237647 14.94662890041257 0 1 0
5014 1 21.420414859857264 3.3503159527199613 14.101629254005596 0 1 0
396 1 1.0551784263188315 11.77287482240381 16.88057311493813 -2 0 0
6275 1 2.6623557533666617 3.98501610633057 15.93893872157663 0 1 1
2857 1 5.197964308673599 6.106072577746618 13.708456629421896 0 1 1
5054 1 10.342728619511037 6.458074465927881 14.868435958792087 1 1 0
185 1 7.499347513715605 6.96314659140525 15.784822564360631 1 0 0
5070 1 11.545271158589218 5.375938030087056 17.54886478460761 0 1 0
1639 1 13.323195424217777 6.477567891610876 13.419428932447024 1 1 0
1971 1 17.69804109483768 7.113197478258138 12.153190224946492 0 1 0
2006 1 0.32272545810451836 15.984210506562684 14.6081395166917 1 0 0
277 1 20.63541768115059 8.783014364150185 15.898551507818945 -1 0 0
3076 1 4.092102495525667 12.639103033655353 15.783154922669178 0 1 1
379 1 4.569975396075898 9.88254648814329 15.759281093632326 0 -1 0
186 1 7.21017004515202 12.67140404551345 15.922397844357436 0 0 0
3322 1 9.58613873991032 9.361330786071802 12.41569555941503 1 0 1
5082 1 11.245883817500461 9.635020044030933 14.422027725846847 1 0 0
5201 1 13.421440582306209 12.433451121465643 15.952906093606181 0 1 1
4499 1 13.803645401378025 9.030520284130338 13.570379968103873 0 1 1
3266 1 14.224220002212828 9.931595198756849 16.1570246573296 -1 -1 1
1623 1 20.22646312699652 10.372568736383634 18.213914567228695 0 0 0
2879 1 22.1961397778449 9.007821162970176 13.670356463213086 0 1 0
448 1 23.336650317268955 5.56332052589675 3.76032486886203 0 1 0
1419 1 12.00969505798123 8.538668285777318 20.4559105905047 1 0 1
2011 1 6.826080644016427 12.94428167001597 13.252121675746588 0 0 0
3593 1 9.14852026015654 14.960745917639258 14.081441763455082 0 0 1
3358 1 9.415596061529985 14.183678590009345 17.021628617475514 1 -1 0
370 1 13.27593286551398 17.99387314579306 14.05161231578807 0 0 1
1730 1 19.03890999377847 16.29126902531405 15.209883819252985 0 1 0
3249 1 22.743384910812306 14.203578220737448 14.87533969117651 0 -1 0
197 1 2.919537127262898 18.63779099245792 15.565651736678584 0 -1 0
167 1 5.447408788502469 16.916827025522423 14.770677913347134 -1 1 0
437 1 8.323612189121416 20.185400519598755 15.181999517308851 0 0 0
256 1 10.44788903791993 16.87865149041552 16.360684456484563 -1 0 0
5241 1 15.189369675145146 20.54999897122948 17.483836468791665 0 0 0
200 1 16.764620052421733 19.245819758167396 15.636054952233648 0 0 0
6224 1 19.941590914803168 19.10117600263202 15.62259824488924 0 0 1
245 1 22.32885298785057 19.349588084066244 16.805883801518267 0 0 1
3276 1 8.090096788122807 22.67242613536311 13.4389016094157 0 0 1
1878 1 13.087071930187644 22.477826179523923 16.76422677079718 -1 0 0
1700 1 14.620771164408655 22.843289535620727 13.200136797658574 0 0 1
3174 1 15.225143002550096 24.114785870992733 15.909358421997862 0 -1 0
1682 1 17.0265247017831 21.371463488293664 13.582471456710191 0 -1 0
1791 1 2.8444237819574663 8.895643104702057 19.767253467229935 0 0 1
4747 1 18.63133861955334 20.970545601151922 17.085933204223377 1 -1 0
4427 1 22.37799435149386 23.256577208469988 14.791761741988447 1 0 1
1278 1 0.34951052364693036 18.90661869107507 14.662283566266801 1 0 1
2013 1 1.2308951187194235 2.0396210813184363 19.561851011753074 0 1 0
3713 1 6.787320697960248 14.563673615155976 18.42414359688568 0 0 1
4795 1 4.17378757764359 0.7531499900329008 19.200315740084196 0 0 0
3346 1 23.407747668063436 11.408976894781683 14.49167563155901 -1 1 1
3683 1 8.33507330027932 23.140573950255444 4.429276271966083 0 -1 1
1520 1 7.901087210422516 0.036574291256215474 13.341156427336538 0 1 0
5213 1 11.871436830119235 1.5994092505082105 17.017287813039964 0 1 0
3639 1 22.87824686798113 18.01491068732739 19.114180463177586 0 0 0
4811 1 16.43026106993679 0.8292866960517714 16.252927354469243 0 0 0
6235 1 2.1073067671804093 14.517292857904035 13.14749622549906 1 0 0
3387 1 20.315956702358243 3.2385982647580427 16.822949797019177 0 0 1
3399 1 14.537633395018549 0.9010791576614239 4.239670412770177 1 0 0
2161 1 1.0791556794231367 5.312048427078464 17.76015817130706 1 1 1
1586 1 5.540717338105072 5.1350798431700335 19.23488413669784 0 0 0
1709 1 18.266337197382562 23.53808797533698 16.109841386952038 0 0 0
1667 1 9.500553762674771 5.065997974847914 19.00066451311598 1 1 0
457 1 7.502196059202535 3.0257308387295776 15.956419089423695 0 1 0
314 1 15.388285176481416 3.5293619914809047 16.297285292122595 1 0 0
350 1 19.44229367532586 6.108319827282251 18.734450532508284 0 0 0
322 1 13.66032768814498 0.8598383286044883 19.151369230321365 0 0 0
3422 1 8.791606954696025 1.8750818946472552 17.789669064470512 -1 0 0
1317 1 24.00493512384985 22.249629365804555 4.959092039942534 0 0 0
3378 1 2.1562105916738696 9.532938600286673 17.326991498209587 0 0 0
410 1 2.222987285127775 11.7129919061691 13.660129949706722 0 1 0
58 1 7.767358568250722 6.883723063130036 18.87695577656413 1 0 0
343 1 12.666708239466724 8.01113267553628 17.807142642421674 0 1 0
4707 1 15.044522470784825 6.077955354660265 18.40104877267458 0 0 1
5209 1 7.0447621410301595 19.181043977232772 18.211541461134406 0 0 1
5059 1 17.19978990654293 7.707965076550434 18.80012572976604 0 0 0
1429 1 22.218988986579017 6.943355955819794 17.44435859824737 0 0 0
3745 1 19.741002466231482 17.792105156673824 3.408950872376465 0 1 1
1530 1 19.70801839826491 23.264397010070514 13.744646750572116 0 -1 1
3211 1 18.946155153014253 1.5580521106097636 7.088336850226369 0 1 0
446 1 7.613653922393956 10.010060681072881 16.649607595406408 0 0 0
4844 1 10.345508556983614 9.648432468035603 17.11484664313714 -1 0 0
360 1 16.79565546937882 8.741384313026474 16.249344844753686 1 1 0
1658 1 19.088123821341725 1.8494530139956697 3.9640801813987885 0 0 0
3077 1 23.155968022364313 11.510102628267978 18.69620898256304 1 0 0
6124 1 0.16409517129638704 12.571454974197007 3.2542330816186196 0 1 1
5288 1 12.316214355031674 12.828424910139532 3.108487885639999 0 0 1
312 1 4.652714698341681 16.57385727074374 17.67843262088474 0 0 0
4656 1 3.039537438206899 14.338055229786384 17.978165298512707 1 0 1
5121 1 3.4626724566617235 13.001464027364158 20.31353565056595 1 0 1
219 1 20.43150653179371 1.2978437337520754 11.04476717138607 1 1 0
3145 1 3.3505774323831616 21.1166300479646 16.280601373296566 1 0 1
5052 1 8.90347624928785 16.732287698693636 18.793182838245507 1 0 0
5285 1 13.689753327154486 18.188879974407516 18.366577616304337 -1 0 0
1487 1 11.296087031760921 12.231229633278915 17.42313238115778 0 0 1
402 1 15.047175016526962 13.827476658006951 17.31870913002154 1 0 0
5195 1 17.931666009082523 12.596957915017944 17.57150209820623 0 0 0
3482 1 1.455854931143623 21.264797623109118 5.63171972698558 1 1 0
3045 1 21.641579694932542 13.771435224993873 17.57659675471782 0 0 1
1522 1 19.148648379360324 15.17774203721945 17.889239229367462 0 0 1
3449 1 23.512847937642455 1.262660548668064 15.75754665434968 1 1 0
3038 1 0.20027003490721254 14.803557011529074 16.907752900025294 1 0 1
1366 1 2.7164516928811064 18.46332041962361 18.65644844659579 0 1 1
3458 1 6.04450854417783 21.16937889604082 16.591492438101923 0 0 0
95 1 9.962061199686142 23.122032478715006 18.784396616379016 1 0 0
5230 1 0.2515789590883914 22.84784688083047 9.529789980588527 1 0 1
4937 1 13.583665179795663 22.11340517868786 2.5440981583731825 0 0 0
6299 1 0.2657793349173982 5.88184932729247 9.839762192360201 0 2 1
1483 1 12.304998736180822 11.939666684976812 19.933929978330944 -1 -1 0
5103 1 19.802576052670425 21.454239231848085 20.35853317526697 0 -2 0
3714 1 7.326886256115572 20.747887981474648 20.786958788513488 -1 1 2
175 1 10.321130361680122 8.861374191563415 2.3534473064153394 0 1 1
4591 1 0.29934133392545853 24.24321381750368 18.050073384556036 1 0 1
1768 1 20.582551261728423 21.147684692953124 2.5112290489127633 1 1 0
6279 1 7.885528736141765 16.29695334350814 2.60542601826494 1 1 0
3306 1 6.124017174128259 24.24982509423617 10.448209678496283 1 0 0
4688 1 21.10455662534907 24.48940492752041 2.9960579238309606 0 0 0
1846 1 17.06495012842141 18.523134953540175 20.732198359464665 0 0 0
1832 1 10.304784487154691 20.076762832104578 20.664576463972615 1 1 0
3216 1 10.825268022013555 20.78449591272234 2.3640352781547094 1 0 0
3461 1 5.246945822780398 2.6839564854901137 23.186805219430518 1 0 1
3102 1 7.388938936746567 18.865759078642764 38.25781782674978 0 1 0
3265 1 9.457962244277661 2.8626400925142406 23.19908176032162 0 1 1
283 1 14.373881646662651 1.011257509451195 23.842663112216925 0 1 0
3550 1 22.954499031505048 5.072908970305511 36.81761241304265 1 0 -1
3237 1 18.22975013741527 5.381444809512085 24.439280410083406 -1 0 0
390 1 0.5729385797060949 2.3661202848516503 24.29091281477433 0 0 0
3107 1 20.818282946215874 11.617358941671148 21.228046800469947 0 -1 0
5079 1 14.03800385470007 0.4484331277998488 35.77140226047896 0 0 -1
4452 1 24.520422228233407 14.470168047762316 35.82999829479835 0 1 0
4954 1 5.804260073827195 0.3277370297343511 35.85331242166055 1 -1 -1
1688 1 6.337398817880058 24.507118003196734 35.490263061280416 0 0 -1
3569 1 2.7847344486617422 3.6792706907200015 23.342592622212027 0 1 0
1298 1 3.286299814288502 24.20178991671586 38.35196385384076 0 1 0
3574 1 11.50099834375785 7.718042083970144 24.518025083063836 -1 0 0
6216 1 11.400825484224455 4.995908527953781 23.882611302488446 1 0 1
3360 1 23.71784635177155 9.508633400378152 21.258034855458234 0 1 1
394 1 17.121435897117927 2.611247802059696 24.287508280367415 -1 0 0
3583 1 15.788827685632276 6.055992690471478 23.534087523656982 1 0 0
3061 1 0.927590411739812 18.03962423350181 36.02781250605713 0 1 0
5060 1 0.8654417543598375 19.376493493167814 21.55456603965132 0 0 0
4718 1 20.370479700352863 3.2807205296588178 23.643151387847855 0 0 0
367 1 23.226250806836944 3.807024598736618 24.3382338911343 -1 -1 0
3046 1 2.4962554322974855 6.208528866554064 24.59960695326357 1 1 0
43 1 4.093644354042432 7.331975870971788 22.601014712162478 0 1 0
5105 1 6.646788617646692 6.905778115296033 23.78617166721852 -1 0 0
3442 1 14.190279397724167 8.554849027247938 23.945663838849622 0 0 0
303 1 24.448266312530524 0.5027762798443366 21.445704434360664 0 1 0
254 1 21.032909036204963 18.51309549174306 21.26910472488965 0 -1 0
109 1 0.993426673150461 12.392712552024937 21.2578293433902 0 0 1
1960 1 18.84502777355851 10.37975530001624 24.552106878317296 -1 1 0
1657 1 17.902170031324342 8.242214383498764 23.017555407720113 0 0 0
4757 1 0.6833715932601516 23.898380976680535 38.86769742651175 1 -1 -1
1507 1 22.174282729079827 6.622694351800836 23.670446704859845 0 0 0
1307 1 13.30276481846243 22.23233192600412 36.41035528502018 1 0 0
4531 1 21.423366740464836 13.64939608267464 36.1606508407151 -1 0 0
1441 1 3.8773415994148737 21.23700180408274 38.43488230837951 0 1 -1
5210 1 2.0049361963568946 10.272942382444018 23.86819138566555 0 -1 1
3396 1 13.951579186200366 19.134651499133295 21.30026391101821 1 -1 0
2995 1 7.009087913288574 9.527636645067451 24.671119038258595 2 0 1
3134 1 1.2000384557679664 18.198382105045795 24.157392021711292 1 0 1
1931 1 15.841026978787657 18.346621608610228 39.12253353905134 -1 1 0
5971 1 9.917063754293306 13.116869916804607 21.37296875477735 1 0 1
1706 1 12.356448032237125 13.542847404910773 23.568552952892116 1 0 0
1738 1 16.590993742997615 12.012837473893349 24.403203282308716 0 0 1
1636 1 13.034568480947383 16.356970330534153 21.38944670888992 1 0 0
1955 1 7.293507532717812 12.93282340232346 20.864656793300373 1 0 0
4489 1 21.323826291618325 11.216931036834676 24.068776519140904 0 0 1
3031 1 9.911316090249635 23.809379385790216 24.554629586092293 0 0 1
1727 1 23.420432290129927 9.242537303734533 24.01263225392722 0 0 1
3055 1 17.94069574375194 5.779436027240149 38.42041520599174 1 1 0
3347 1 2.7627412895053443 15.796301653951796 23.98412093008093 0 0 0
548 1 7.448225882895369 13.580487140340244 23.770070005156338 1 0 0
1357 1 24.405915850074724 10.32773842992782 36.29113604072729 -1 1 -1
2944 1 10.041257808441898 12.533247450026835 24.331030868352876 0 0 1
1645 1 13.755233298926598 15.992132714002777 24.338033274471435 1 0 1
145 1 23.318198052024826 12.660362876140164 38.06150785718046 0 0 0
2125 1 22.926569805855078 18.30426314902228 38.30565948859208 -1 0 0
1431 1 16.2662547274378 14.78639425937209 24.23704133056306 0 -1 1
5289 1 22.455257770544986 13.918931534747063 23.985204886558872 0 1 0
5112 1 21.750200547972618 16.58916366105074 24.630370977329168 0 0 1
6319 1 5.3797990378385085 15.697876523925224 24.254813417654084 1 -1 1
3724 1 8.299377175214811 1.217620080359198 36.0815510423963 0 1 0
3015 1 6.526878654045097 18.59933458201412 24.199136944118187 1 0 0
2087 1 0.3433770784635686 22.121565459172068 20.94414527003457 0 1 1
3375 1 8.828617146535807 16.094676312021445 24.07226043323519 1 0 0
3471 1 0.7581679603134109 9.644657087423964 21.499237384282544 1 0 0
4883 1 10.812916266198886 20.54409126712582 23.53149086154823 1 1 0
4771 1 0.6274186864195478 16.744080202603506 38.580218107633286 1 0 -1
376 1 14.51901583856957 18.745341654862983 23.912966675228194 0 -1 0
1412 1 3.1272844382648195 14.82525544060536 38.78733528411698 1 1 0
1752 1 17.438565260906454 18.526051375850237 23.917829793673093 0 -1 0
3567 1 16.735544306354086 9.608142718825226 20.931620155700198 1 -1 1
351 1 0.9202449836961183 10.580715005245724 35.83668646896245 0 1 0
101 1 22.556750230788793 18.75993510453181 23.425362234141915 -1 0 0
3385 1 4.345438824462795 22.58570878487934 23.246715772283718 1 0 0
3086 1 1.4607351235889185 13.321982836975282 23.942334012988418 1 0 1
136 1 3.843065261018536 19.49839217227117 21.113803341615746 -1 0 0
1386 1 3.768046443450303 19.879547509000762 24.016151755487158 1 -1 1
5050 1 23.891641665125732 17.23974718807776 35.90691529615045 0 0 -1
1966 1 7.813223177336681 21.751487533083253 23.766981406571503 0 1 0
386 1 21.77888788289824 14.50684792689627 21.090329293750244 -2 0 0
325 1 5.161998946705 0.06177912998702875 24.18031026307237 1 0 0
1288 1 12.86681996284846 22.49952480084243 23.970682337293756 0 0 1
1531 1 21.448985833556357 20.325781206025642 37.4322134612784 0 0 0
3185 1 19.579166208896346 0.47535485387712123 23.989630048352836 0 1 1