
# read in water data
read_data data.liquidML_1000_245K group water extra/atom/types 1
Reading data file ...
  orthogonal box = (0.0000000 0.0000000 0.90979926) to (49.220000 49.019636 59.152201)
  2 by 2 by 3 MPI processor grid
  reading atoms ...
  4466 atoms
  reading velocities ...
  4466 velocities
  read_data CPU = 0.076 seconds

# remove area for graphite
region substrate block 0 ${XDIM} 0 ${YDIM} ${Z_LO} ${Z_HI}
region substrate block 0 49.22 0 ${YDIM} ${Z_LO} ${Z_HI}
region substrate block 0 49.22 0 49.019635930410494 ${Z_LO} ${Z_HI}
region substrate block 0 49.22 0 49.019635930410494 25 ${Z_HI}
region substrate block 0 49.22 0 49.019635930410494 25 35.062
delete_atoms region substrate
Deleted 769 atoms, new total = 3697

# Insert substrate
read_data data.graphite add append shift 0.0 0.0 ${Z_LO} group graphite offset 1 0 0 0 0
read_data data.graphite add append shift 0.0 0.0 25 group graphite offset 1 0 0 0 0
Reading data file ...
  orthogonal box = (0.0000000 0.0000000 0.90979926) to (49.220000 49.019636 59.152201)
  2 by 2 by 3 MPI processor grid
  reading atoms ...
  2760 atoms
  reading velocities ...
  2760 velocities
  read_data CPU = 0.034 seconds


# Define potential
# CHECK ON THIS %%%%%%%%%%%%
#
pair_style sw
pair_coeff * * MLC_e.sw mW C


# Delete water and ice atoms that are overlapping
#
delete_atoms overlap 2.5 water graphite
System init for delete_atoms ...
Neighbor list info ...
  update every 1 steps, delay 10 steps, check yes
  max neighbors/atom: 2000, page size: 100000
  master list distance cutoff = 6.6747184
  ghost atom cutoff = 6.6747184
  binsize = 3.3373592, bins = 15 15 18
  2 neighbor lists, perpetual/occasional/extra = 1 1 0
  (1) command delete_atoms, occasional, copy from (2)
      attributes: full, newton on
      pair build: copy
      stencil: none
      bin: none
  (2) pair sw, perpetual
      attributes: full, newton on
      pair build: full/bin/atomonly
      stencil: full/bin/3d
      bin: standard
Deleted 120 atoms, new total = 6337

# set timestep
#
timestep 10.0

# Define output
#
compute 1 all msd
compute 2 water temp
thermo 50
thermo_style custom step c_2 press vol etotal ke pe c_1[4]

# Neighbor lists
#
neigh_modify delay 0 every 1 check yes


# Fix graphite atoms in place
# CHECK ON THIS %%%%%%%%%%%%%%%%%%%%
#
fix 1 graphite setforce 0.0 0.0 0.0
velocity graphite set 0.0 0.0 0.0


### NEW FOR TESTING

# Set fixes

#fix             2 water momentum 10 linear 1 1 1 rescale
#fix             3 all nve
#fix             4 water temp/csvr ${TEMP} ${TEMP} 500.0 837493
#fix             5 water press/berendsen z ${PRES} ${PRES} 1000.0 modulus 20000

# Run 0.5 ns equilibration

#timestep 5.0

#dump		    1 all atom 2000 testnve.${NAME}.dump

#reset_timestep  0

#run	            50000

#write_data		testdata.eq-${NAME}-${TEMP}
#undump          1

#reset_timestep  0

#unfix           3
#unfix           4
#unfix           5

### END NEW FOR TESTING



# Set fixes
#
fix 2 water momentum 10 linear 1 1 1 rescale
fix 3 water nph z ${PRES} ${PRES} ${PCOUPL}
fix 3 water nph z -1000 ${PRES} ${PCOUPL}
fix 3 water nph z -1000 -1000 ${PCOUPL}
fix 3 water nph z -1000 -1000 10000.0
fix 4 water temp/csvr ${TEMP} ${TEMP} ${TCOUPL} 837492
fix 4 water temp/csvr 245 ${TEMP} ${TCOUPL} 837492
fix 4 water temp/csvr 245 245 ${TCOUPL} 837492
fix 4 water temp/csvr 245 245 5000.0 837492


# Run 0.25 ns equilibration of water
#
dump 	1 all atom 2000 testnph.${NAME}.dump
dump 	1 all atom 2000 testnph.ML_graphite_m1000atm_245K.dump
run 	25000
Neighbor list info ...
  update every 1 steps, delay 0 steps, check yes
  max neighbors/atom: 2000, page size: 100000
  master list distance cutoff = 6.6747184
  ghost atom cutoff = 6.6747184
  binsize = 3.3373592, bins = 15 15 18
  1 neighbor lists, perpetual/occasional/extra = 1 0 0
  (1) pair sw, perpetual
      attributes: full, newton on
      pair build: full/bin/atomonly
      stencil: full/bin/3d
      bin: standard
Per MPI rank memory allocation (min/avg/max) = 4.543 | 4.547 | 4.557 Mbytes
Step c_2 Press Volume TotEng KinEng PotEng c_1[4] 
       0      242.948   -1271.7752    140524.15   -33157.256    2589.6742   -35746.931            0 
      50    251.97543   -2171.6034    140328.44   -33182.142     2685.901   -35868.043   0.55220565 
     100    249.45194   -1955.8824    139618.13   -33195.669    2659.0023   -35854.671   0.90777405 
     150    258.54714   -1552.3239    138609.08   -33204.999    2755.9514   -35960.951    1.2313599 
     200    250.68863   -1465.7976    137730.56   -33293.833    2672.1846   -35966.018    1.5720743 
     250    256.39425   -1645.0681    137086.98   -33320.945    2733.0029   -36053.948    1.9007948 
     300    258.99528   -1468.3483    136547.13   -33304.576    2760.7283   -36065.305    2.2003895 
     350    254.57678   -1223.7575    136078.61   -33360.274    2713.6298   -36073.904    2.4516687 
     400    256.85926   -1276.8988    135662.47   -33388.797    2737.9596   -36126.757    2.7447954 
     450    261.76227   -1410.5779    135242.29   -33386.251    2790.2227   -36176.473     3.027537 
     500    259.63461   -1142.9546    134856.62   -33431.252    2767.5431   -36198.795    3.3746584 
     550    248.64169   -1315.8056    134556.02   -33461.353    2650.3655   -36111.718    3.6394143 
     600    252.65401   -1145.1921    134298.64   -33484.352    2693.1343   -36177.486    3.9473143 
     650    254.98232   -1009.2356    134072.24   -33498.092    2717.9526   -36216.045    4.2552094 
     700    251.36878   -1123.6908    133885.69   -33517.028    2679.4345   -36196.462    4.5156568 
     750    247.78635   -1122.2044    133748.31   -33543.161     2641.248   -36184.409    4.7315723 
     800    251.03749   -1311.7795     133649.5   -33545.794    2675.9032   -36221.697    5.0499834 
     850    248.99518   -1293.1751    133585.58   -33540.662    2654.1334   -36194.796    5.3265925 
     900    247.74346    -1285.453    133524.84   -33542.218    2640.7908   -36183.009    5.5899947 
     950    251.01723   -1315.5801    133487.12   -33548.739    2675.6872   -36224.426    5.8110391 
    1000    251.06762   -1260.5059    133452.28   -33554.207    2676.2243   -36230.431     6.041229 
    1050    249.57015   -1228.4679    133341.31   -33573.518    2660.2623    -36233.78    6.2648353 
    1100    251.08787   -1055.0508    133212.04    -33595.89    2676.4403    -36272.33    6.4774568 
    1150    252.38867   -1150.8568    133111.23   -33607.969    2690.3059   -36298.275    6.8426843 
    1200    246.99761   -815.30681     133025.9   -33631.011    2632.8406   -36263.852    7.1347491 
    1250    249.73958   -985.83643    133002.02   -33642.125    2662.0683   -36304.194     7.211011 
    1300    244.30351    -1152.088    133033.72   -33664.414    2604.1231   -36268.537    7.3736787 
    1350    249.55126   -958.97561    133074.68   -33681.086    2660.0609   -36341.147    7.6313925 
    1400    250.31496   -1208.2293    133092.51   -33675.577    2668.2015   -36343.778    7.8419844 
    1450    248.83826   -1194.4746    133093.69   -33673.887    2652.4608   -36326.348    8.0792747 
    1500    246.91222   -1075.8785    133097.11   -33690.027    2631.9303   -36321.957    8.3208564 
    1550    246.04383   -1021.5667    133059.48   -33699.752    2622.6739   -36322.426    8.4796628 
    1600    244.69013   -1479.8995    133018.57   -33702.326    2608.2443    -36310.57    8.6048074 
    1650    248.46479   -1349.2602    132960.88   -33716.306    2648.4798   -36364.786    8.8110015 
    1700    244.04942   -940.92119    132903.14   -33705.386    2601.4148   -36306.801    9.1004023 
    1750    245.02567   -1037.2687    132867.23   -33720.768    2611.8209   -36332.588    9.3980785 
    1800    247.39647    -960.8717    132857.67   -33704.371    2637.0922   -36341.463    9.6228948 
    1850    252.17324   -1144.1927    132895.07   -33697.892    2688.0095   -36385.902    9.8198204 
    1900    248.06964   -1218.3596    132941.98   -33679.374    2644.2678   -36323.642    10.052405 
    1950     247.3632   -998.00269    133012.97   -33674.608    2636.7376   -36311.346    10.163171 
    2000    251.06032    -1061.139    133170.51    -33657.28    2676.1465   -36333.427    10.472381 
    2050    246.54907     -1136.59    133352.57   -33679.682    2628.0594   -36307.742    10.569292 
    2100    245.47088   -1364.5995    133485.72   -33687.472    2616.5666   -36304.039    10.828192 
    2150    245.89211   -1419.8157    133543.61   -33689.605    2621.0567   -36310.662    11.021959 
    2200    244.65791   -1524.5071     133544.1   -33679.978    2607.9009   -36287.879    11.230934 
    2250    249.88297    -1197.725    133507.12    -33686.07    2663.5968   -36349.666    11.476235 
    2300    249.02085   -1165.1975    133438.44   -33662.416     2654.407   -36316.823    11.650477 
    2350    249.61876   -1101.1985    133351.35   -33641.101    2660.7804   -36301.881    11.981769 
    2400    251.61003   -1440.7385    133251.03   -33653.028    2682.0061   -36335.034     12.25396 
    2450    253.01504   -1144.0252     133145.7   -33653.197    2696.9826   -36350.179    12.532567 
    2500     256.6691   -1151.3945    133087.15   -33634.626    2735.9326   -36370.558    12.661576 
    2550    249.98509   -1124.3827    133062.51   -33631.307    2664.6852   -36295.992    12.784216 
    2600    250.81575   -1245.0041    133029.99   -33639.474    2673.5395   -36313.013    12.916708 
    2650    251.48899   -1064.0136     132986.6   -33613.243    2680.7159   -36293.959    13.222708 
    2700    254.71452   -1319.0252     133019.1   -33610.578    2715.0981   -36325.676    13.412435 
    2750    255.34659   -1480.1461    133114.43   -33641.864    2721.8355     -36363.7     13.66587 
    2800    253.06642   -1160.4319    133187.96   -33641.147    2697.5303   -36338.677    13.833518 
    2850     250.9567   -1194.2604    133252.63   -33662.869     2675.042   -36337.911    14.191926 
    2900    252.53329   -1268.4026    133315.46   -33685.083    2691.8475   -36376.931    14.510074 
    2950    244.76116   -1050.4064    133360.12   -33693.622    2609.0014   -36302.624    14.707253 
    3000    248.29471   -1106.2064    133449.64   -33683.242    2646.6668   -36329.908    15.022955 
    3050    244.78139   -1309.8998    133565.25   -33697.331    2609.2171   -36306.548    15.238523 
    3100    244.74939   -1556.1836    133616.27   -33692.775     2608.876   -36301.651    15.324965 
    3150    250.89231    -1373.447    133590.22   -33710.987    2674.3557   -36385.343    15.522655 
    3200    250.35786   -1261.9913    133505.02   -33703.393    2668.6588   -36372.052    15.785382 
    3250    250.35781   -1170.1841    133398.88   -33701.987    2668.6582   -36370.646    16.038596 
    3300    250.46042   -1048.4629    133331.11   -33691.563     2669.752   -36361.315    16.208338 
    3350    251.76295   -1589.2987    133292.04   -33645.466    2683.6361   -36329.102    16.552459 
    3400    252.13227   -1063.8443    133229.85    -33684.37    2687.5728   -36371.943     16.61288 
    3450    245.97526   -912.65126    133179.83   -33704.238     2621.943   -36326.181    16.700132 
    3500    250.27966   -1073.9875    133177.36   -33706.821    2667.8251   -36374.646    16.990308 
    3550    248.31991   -1428.5829    133208.36   -33689.066    2646.9354   -36336.001    17.289891 
    3600    249.90444   -1493.1698    133243.18   -33705.186    2663.8255   -36369.011     17.56529 
    3650    244.05407   -1275.0674    133233.42    -33713.09    2601.4643   -36314.554    17.794372 
    3700    245.68785   -771.75443    133259.26    -33717.13    2618.8793   -36336.009    18.094617 
    3750    249.50599   -1088.7824    133343.21   -33733.879    2659.5784   -36393.457    18.412935 
    3800    245.95978   -1203.6621    133449.05   -33739.912    2621.7779    -36361.69    18.714148 
    3850    252.43057   -1045.1699    133575.01   -33745.001    2690.7526   -36435.753    18.897044 
    3900    254.19756   -1243.1902    133741.39   -33748.289    2709.5876   -36457.876    19.085902 
    3950    250.22121   -1759.7491    133904.57   -33732.245    2667.2022   -36399.447    19.210005 
    4000     249.1902   -1463.8855    133946.14   -33740.843    2656.2122   -36397.055    19.366325 
    4050    244.49552   -1324.5654    133876.67   -33737.108    2606.1699   -36343.278    19.431646 
    4100    253.96834   -1253.9045    133735.01   -33741.544    2707.1442   -36448.688    19.412837 
    4150    252.23476   -1272.5523    133632.75   -33734.574    2688.6653   -36423.239    19.608774 
    4200    253.17499   -1265.8683    133609.18   -33737.886    2698.6876   -36436.574    19.738844 
    4250    250.40747   -1469.6891    133604.58   -33728.784    2669.1876   -36397.972    19.876054 
    4300    249.69789   -1331.2413    133586.69   -33738.457    2661.6239   -36400.081    19.989642 
    4350     247.5027   -1346.4752    133557.15   -33755.674    2638.2246   -36393.898    20.024223 
    4400    249.45638   -1516.6569     133510.3   -33757.171    2659.0495   -36416.221    20.379015 
    4450    255.14099   -1414.1365    133434.12   -33723.122     2719.644   -36442.766    20.664254 
    4500    252.72853   -1385.6658    133374.63    -33704.27    2693.9286   -36398.198    20.930766 
    4550    253.37212   -1175.4573    133288.64   -33683.036    2700.7889   -36383.824    21.101304 
    4600    253.94415   -890.34342    133218.25   -33695.413    2706.8864   -36402.299    21.279906 
    4650    251.30021   -1091.7778    133216.97   -33667.616    2678.7037    -36346.32    21.501263 
    4700    252.98139   -1255.1144    133239.75   -33656.528     2696.624   -36353.152    21.699206 
    4750    250.79323   -1086.1195    133222.31   -33671.972    2673.2995   -36345.271    21.870423 
    4800    251.15713    -948.9201    133201.59   -33676.125    2677.1785   -36353.303    22.019869 
    4850    248.18173   -876.75779    133245.14   -33677.231    2645.4625   -36322.693    22.081316 
    4900    246.50276   -1231.7305    133351.98   -33684.225    2627.5658   -36311.791    22.252852 
    4950    248.63592   -1183.1286    133469.06   -33675.362    2650.3039   -36325.665    22.295097 
    5000    247.51215   -1570.7719    133553.67   -33692.491    2638.3252   -36330.817    22.503581 
    5050    249.15873   -1182.6438    133583.88   -33716.856    2655.8768   -36372.733    22.680365 
    5100    247.72279   -1286.7563    133614.45   -33715.768    2640.5706   -36356.339    22.859495 
    5150    246.73984   -1292.5221    133651.95   -33731.507    2630.0929     -36361.6    23.014597 
    5200    242.71328   -1728.4467    133656.56    -33735.28    2587.1722   -36322.452    23.092692 
    5250    246.31152    -1610.725    133539.37   -33728.068    2625.5273   -36353.595    23.290092 
    5300    248.30602   -1028.9323    133343.83   -33721.033    2646.7874    -36367.82    23.578244 
    5350    246.34294   -989.17223    133199.93   -33707.436    2625.8622   -36333.299    23.947272 
    5400    247.16186   -1431.0362    133120.74   -33736.874    2634.5913   -36371.466     24.17237 
    5450    245.86201   -1129.7821    133078.93    -33730.65    2620.7358   -36351.386    24.433328 
    5500      244.059   -1020.9517    133124.85   -33726.331    2601.5168   -36327.848    24.589345 
    5550    248.59526   -1010.1974     133211.3   -33754.432    2649.8705   -36404.303    24.874996 
    5600    239.08533   -1242.7771    133315.78   -33781.144    2548.5006   -36329.644    24.997609 
    5650    238.14327   -1273.9677    133397.43   -33836.258    2538.4588   -36374.717    25.297764 
    5700    249.91851   -1367.3708    133390.35   -33829.391    2663.9756   -36493.367    25.624436 
    5750    251.07839   -1086.1356    133278.29   -33818.548    2676.3391   -36494.887    25.888645 
    5800    245.87708   -1168.2217    133186.48   -33817.264    2620.8964   -36438.161    26.109881 
    5850     252.3732   -1244.6819    133118.05   -33794.433     2690.141   -36484.574    26.431762 
    5900    248.27502   -1233.7047    133066.38   -33811.568    2646.4569   -36458.025    26.577739 
    5950    242.03587   -926.67225    133039.32   -33823.731    2579.9515   -36403.682    26.749674 
    6000    239.64992   -853.67602    133066.31   -33826.992    2554.5188   -36381.511    26.868722 
    6050    242.81004   -1113.3094    133144.24   -33793.155    2588.2037   -36381.358     27.11401 
    6100    246.87576   -1277.8498    133235.62   -33801.352    2631.5417   -36432.893    27.298746 
    6150    247.94657   -1370.4692    133306.34   -33788.257    2642.9558   -36431.213    27.416533 
    6200    240.37364   -1192.6812     133329.8   -33794.456    2562.2332   -36356.689    27.365345 
    6250    247.60701   -1022.4222    133294.86   -33790.272    2639.3364   -36429.608    27.384843 
    6300    246.55397   -1121.7002    133251.81   -33771.073    2628.1116   -36399.184    27.623398 
    6350     248.8928   -1060.5065    133211.78   -33754.829    2653.0421   -36407.871    27.800569 
    6400     249.5233   -1129.2089     133183.5   -33793.903    2659.7629   -36453.666    27.956372 
    6450    248.81951   -1297.2939    133194.83   -33801.298    2652.2609   -36453.559    28.009144 
    6500    246.64997   -1326.0964    133273.44   -33775.844    2629.1349   -36404.979    28.254237 
    6550    247.87934   -1230.4496    133373.65   -33765.086    2642.2393   -36407.325    28.561142 
    6600    251.47121   -1098.3589    133483.48   -33778.266    2680.5263   -36458.792    28.749996 
    6650     244.4104   -1285.8918     133582.3   -33801.522    2605.2625   -36406.784    28.748335 
    6700    244.89939   -1560.3022    133601.16   -33808.766    2610.4748   -36419.241    28.783349 
    6750    244.15268   -1390.2626    133512.36   -33829.341    2602.5154   -36431.856    28.833437 
    6800    248.62335   -1347.2862    133359.29   -33819.928    2650.1699   -36470.098     29.00103 
    6850    241.58405   -1090.2604    133205.99   -33814.837    2575.1354   -36389.973    29.258035 
    6900    247.61366   -1025.7774    133093.04   -33800.386    2639.4073   -36439.793    29.450195 
    6950    248.92384   -1164.9686    133004.14    -33801.22     2653.373   -36454.593    29.574808 
    7000    248.65021   -1119.8529    132926.39   -33782.559    2650.4563   -36433.016    29.678946 
    7050     246.5472   -1242.8464    132848.11   -33780.036    2628.0395   -36408.076    29.788073 
    7100    249.02211   -882.32344    132754.96   -33785.492    2654.4205   -36439.913    30.040832 
    7150    243.42524   -1056.8627    132669.59   -33818.071    2594.7613   -36412.832    30.454194 
    7200    244.10325   -1019.2646    132594.56   -33840.935    2601.9885   -36442.924     30.54155 
    7250    244.76745   -667.87408    132610.77   -33817.647    2609.0685   -36426.716    30.663979 
    7300    252.59304   -1042.7315    132724.59   -33806.422    2692.4843   -36498.906    30.644111 
    7350    245.48618   -1191.4196    132872.34   -33791.537    2616.7297   -36408.267    30.926871 
    7400    249.55847   -1069.3421    133021.09   -33771.103    2660.1377   -36431.241    31.079605 
    7450    244.66337    -1253.714    133163.97   -33759.553    2607.9591   -36367.512    31.256947 
    7500     242.9308   -1178.4752    133275.22    -33793.32    2589.4909   -36382.811    31.658974 
    7550    249.09045   -1348.2552    133339.98   -33811.431    2655.1489    -36466.58    31.891288 
    7600    242.55367   -1301.5444    133327.07   -33777.243    2585.4709   -36362.714    31.985084 
    7650    244.04964   -1578.7245     133274.4   -33783.817    2601.4171   -36385.234    32.168868 
    7700    248.68754   -854.59891    133127.08   -33777.469    2650.8541   -36428.324    32.301271 
    7750    247.67025   -1483.8084    133011.34   -33768.011    2640.0105   -36408.021    32.483164 
    7800    246.67299   -1089.5694    132917.36   -33793.135    2629.3803   -36422.516    32.678851 
    7850    247.59265   -1116.4234    132836.02   -33779.981    2639.1833   -36419.165    32.867122 
    7900    243.55322   -812.09593    132775.03   -33809.871    2596.1255   -36405.996    33.038736 
    7950    243.12454   -898.75181    132786.94   -33833.487     2591.556   -36425.043    33.113922 
    8000    245.63728   -743.11618    132851.13   -33826.446    2618.3403   -36444.786     33.05716 
    8050    244.47763    -947.2233    133041.23    -33805.61    2605.9792   -36411.589    33.264169 
    8100    246.92279   -1325.6588    133241.77   -33826.405    2632.0431   -36458.448    33.590255 
    8150     247.6159   -1201.6454    133390.43   -33799.035    2639.4312   -36438.467    33.827873 
    8200    245.57693   -1098.8167    133505.65   -33809.933     2617.697    -36427.63    33.901754 
    8250    245.39032   -1335.4706    133599.16   -33806.052    2615.7079    -36421.76    33.992879 
    8300    247.49071   -1219.6493    133650.18   -33795.757    2638.0967   -36433.854     34.24213 
    8350    250.42006   -1175.7094    133659.36   -33831.022    2669.3218   -36500.344    34.512003 
    8400    248.41772   -1061.8395    133586.32   -33834.148    2647.9781   -36482.126    34.873719 
    8450     245.7207   -960.70508    133497.05   -33835.359    2619.2295   -36454.588    35.202267 
    8500    250.93451   -1095.6903    133391.28   -33837.505    2674.8055    -36512.31    35.389577 
    8550    247.09733   -1132.8789    133268.23   -33859.616    2633.9036   -36493.519    35.486343 
    8600    241.48811   -902.96323    133133.34   -33860.296    2574.1127   -36434.409    35.591282 
    8650    241.37983   -900.79588    133071.69   -33855.454    2572.9585   -36428.413    35.643653 
    8700    242.77671   -1071.4549    133047.29   -33859.094    2587.8484   -36446.943    35.876026 
    8750    250.27299   -1118.8819    133027.96   -33841.249    2667.7541   -36509.003    35.946133 
    8800    243.12454   -1296.7162    133021.12   -33838.538    2591.5561   -36430.094    36.240416 
    8850    242.82899   -1094.0526     133008.5   -33860.476    2588.4057   -36448.882    36.343197 
    8900    244.82445   -1080.5624    132985.73   -33879.471     2609.676   -36489.147    36.446435 
    8950     240.6968   -1145.6602     133000.6   -33866.517    2565.6778   -36432.195    36.690049 
    9000    240.25619   -1208.4028    133051.57   -33859.516    2560.9812   -36420.498    36.704438 
    9050    248.53848   -1226.4397     133086.4   -33856.893    2649.2653   -36506.158    36.849298 
    9100    243.34824   -935.34379    133108.85   -33886.737    2593.9406   -36480.677    37.114193 
    9150    244.06071   -1114.9432    133151.88   -33864.038     2601.535   -36465.573    37.315071 
    9200    239.23377   -1526.9643    133181.11   -33865.235    2550.0829   -36415.318    37.712796 
    9250    242.07158    -1163.764    133158.97   -33885.615    2580.3322   -36465.947    37.733152 
    9300    243.71009   -953.67784    133112.74   -33913.923    2597.7976   -36511.721    38.096051 
    9350    243.78671   -1357.2108    133101.73   -33903.984    2598.6144   -36502.599    38.099533 
    9400    247.76254   -998.81274    133089.65   -33902.463    2640.9943   -36543.457    38.202164 
    9450    242.22489   -928.92977    133076.98   -33878.976    2581.9663   -36460.942    38.365511 
    9500    250.13959   -995.20121    133095.46   -33894.293    2666.3322   -36560.625    38.586223 
    9550    244.75518   -1323.7612    133130.21     -33885.8    2608.9377   -36494.737     38.68573 
    9600    242.89861   -1118.0209    133140.38    -33872.19    2589.1478   -36461.338    38.788186 
    9650    246.99589   -1076.1449    133100.82   -33890.879    2632.8222   -36523.701    38.956769 
    9700    248.03933   -924.05559    133106.42   -33894.928    2643.9447   -36538.873    39.252928 
    9750    248.83338   -1157.5474    133203.38   -33899.763    2652.4087   -36552.172    39.337312 
    9800    243.19967   -1202.4756    133351.07   -33900.954    2592.3569   -36493.311    39.528295 
    9850    247.43173   -1232.5521    133541.87   -33898.268     2637.468   -36535.736    39.639217 
    9900    244.75968   -1142.6715     133740.4   -33895.587    2608.9857   -36504.573    39.707502 
    9950    244.99314   -1167.0268    133906.05   -33880.864    2611.4742   -36492.338     39.80138 
   10000    246.99207   -1476.4115    133990.78   -33880.475    2632.7815   -36513.257    39.842936 
   10050    249.81125   -1357.3673     133981.8   -33884.607    2662.8322   -36547.439    39.895345 
   10100    249.07382   -1535.7752    133873.88   -33872.865    2654.9717   -36527.837    40.073918 
   10150    245.78013   -1260.2536    133724.31   -33866.935     2619.863   -36486.798       40.227 
   10200    248.60826   -1131.0098    133561.54   -33866.295    2650.0091   -36516.304    40.413035 
   10250    247.28183   -1196.7351    133375.78   -33873.189    2635.8702   -36509.059    40.473333 
   10300    246.45393   -815.08357    133254.93   -33851.902    2627.0453   -36478.947    40.586403 
   10350    244.52286     -937.617    133247.55   -33856.328    2606.4613    -36462.79    40.714038 
   10400    238.27995   -1326.8618    133282.05   -33898.577    2539.9158   -36438.492    40.845276 
   10450    247.64541   -1243.6116    133287.24   -33881.081    2639.7457   -36520.827    40.793295 
   10500     251.5344   -1212.3298    133212.83    -33882.05       2681.2    -36563.25    40.867017 
   10550     245.7355   -1184.9149    133056.03   -33877.141    2619.3873   -36496.529    41.104079 
   10600    246.98173    -830.4686    132961.05   -33882.665    2632.6713   -36515.336    41.379377 
   10650    248.85325   -1315.8162    132997.07   -33868.666    2652.6205   -36521.286    41.746115 
   10700    247.15048     -1060.67    133023.64   -33885.195    2634.4701   -36519.665    41.796104 
   10750    241.03059   -1181.3092    133047.18   -33870.547    2569.2359   -36439.783    42.184285 
   10800    241.73731   -1059.8264    133040.01   -33878.917    2576.7691   -36455.686    42.100176 
   10850    244.93331   -1205.0564    133080.72   -33848.113    2610.8364   -36458.949    42.283546 
   10900     244.5659   -1445.5665    133139.45   -33846.369    2606.9201   -36453.289    42.404547 
   10950    249.43463   -937.56596     133105.3   -33851.084    2658.8177   -36509.901     42.48773 
   11000    245.94171    -1007.377    133078.74   -33880.045    2621.5853    -36501.63    42.627699 
   11050    241.46722   -1040.0215    133106.37    -33895.51    2573.8901     -36469.4     42.87652 
   11100    243.83618   -1037.8666    133218.88   -33880.328    2599.1417    -36479.47    42.869373 
   11150    247.89607   -1353.3972    133301.53   -33888.556    2642.4176   -36530.974    43.059766 
   11200    240.86946   -1336.1338    133308.19   -33878.862    2567.5183    -36446.38    43.068741 
   11250    244.91241   -1405.9966     133252.6   -33897.561    2610.6137   -36508.175    43.159844 
   11300     236.2812   -1238.9179    133142.42   -33889.428    2518.6103   -36408.038    43.388517 
   11350    239.29949   -1252.8653    132984.93   -33909.927    2550.7834    -36460.71    43.461846 
   11400    239.91896   -1335.5521    132767.84   -33913.311    2557.3866   -36470.698    43.466612 
   11450    237.24749   -897.43652    132611.73    -33939.71    2528.9104    -36468.62    43.646311 
   11500    240.49825   -1031.1894    132582.69    -33935.99    2563.5614   -36499.551    43.794339 
   11550    242.61274   -918.44058    132671.46   -33945.632    2586.1006   -36531.732    44.008781 
   11600    242.92993   -1074.9254    132846.39   -33930.751    2589.4816   -36520.233    44.079999 
   11650    239.78658   -1080.2988    133055.99   -33916.734    2555.9755   -36472.709    44.151027 
   11700    244.38543   -1354.7014    133256.31       -33882    2604.9964   -36486.996    44.293724 
   11750    241.73996   -1475.0907    133399.54   -33886.637    2576.7973   -36463.434    44.328161 
   11800    240.11001   -1334.4886     133482.7   -33911.662     2559.423   -36471.085    44.405431 
   11850    246.48192   -1446.6132    133498.88   -33876.489    2627.3437   -36503.833    44.496072 
   11900      242.185   -1541.2025     133413.3   -33916.196    2581.5411   -36497.737    44.424477 
   11950    237.74871   -1153.5929    133275.06   -33916.468    2534.2531   -36450.721     44.88494 
   12000    243.62139   -1198.8194    133167.14   -33919.285    2596.8522   -36516.137    45.094905 
   12050    244.45593   -1336.6446    133057.77   -33918.818    2605.7479   -36524.565    45.177648 
   12100    240.50952   -1191.4734    132968.02   -33904.867    2563.6815   -36468.548    45.418652 
   12150    242.19284   -1008.4548    132881.78   -33899.372    2581.6247   -36480.997    45.751046 
   12200    245.54104   -976.92445    132833.61   -33900.875    2617.3144   -36518.189    45.913775 
   12250    245.69412    -902.6737    132866.81   -33872.037    2618.9462   -36490.983    46.331505 
   12300     244.5444   -1001.5506    132982.69   -33872.092    2606.6909   -36478.783    46.505726 
   12350    244.36459   -1330.8312    133147.21   -33889.154    2604.7742   -36493.929    46.367595 
   12400    241.65738   -1302.9439    133307.78   -33906.897     2575.917   -36482.814    46.481715 
   12450    243.71615   -1281.6749    133399.74   -33891.516    2597.8623   -36489.379    46.707183 
   12500      247.419    -1044.949    133464.74   -33871.842    2637.3323   -36509.175    46.968509 
   12550    241.94865   -1403.0318    133520.59   -33899.851    2579.0218   -36478.873    47.005824 
   12600    241.41344   -1365.4075    133538.63   -33870.368    2573.3168   -36443.685    47.264927 
   12650     243.0825    -1565.939    133493.22   -33874.972     2591.108    -36466.08    47.555453 
   12700    240.29694   -1303.8224    133394.99   -33851.275    2561.4156    -36412.69    47.730119 
   12750    244.16806   -1341.7623    133215.69   -33883.911    2602.6793    -36486.59    47.897861 
   12800    234.70986   -1201.1838    133045.27   -33894.964    2501.8609   -36396.825    47.871924 
   12850    247.51741   -1231.2273    132937.19   -33890.805    2638.3813   -36529.186    48.148762 
   12900    243.90307   -1301.8648    132870.01   -33895.084    2599.8547   -36494.938    48.241448 
   12950    244.81018   -911.54093    132783.61   -33887.702    2609.5239   -36497.226    48.382943 
   13000    244.00825   -909.27853    132743.12   -33882.338    2600.9758   -36483.313     48.50903 
   13050    243.23745   -697.66565    132804.86   -33859.687    2592.7596   -36452.446    48.616989 
   13100    240.82547   -1199.8775     132940.1   -33842.671    2567.0494    -36409.72    48.624077 
   13150    246.47671   -1272.4275    133105.45    -33857.44    2627.2881   -36484.728    48.678045 
   13200    240.49427   -1324.5828    133223.92   -33857.925     2563.519   -36421.444    48.801436 
   13250    241.44638   -1210.5217    133264.07   -33883.277    2573.6679   -36456.945    49.028089 
   13300    243.04018   -1292.3921    133272.53   -33887.516    2590.6569   -36478.172    49.338498 
   13350    245.10746   -1386.7585    133210.78   -33876.629    2612.6927   -36489.322    49.464289 
   13400    240.27984   -1342.5016    133101.99   -33887.756    2561.2334    -36448.99     49.59241 
   13450    243.45076   -1167.2255    132974.28   -33903.003    2595.0334   -36498.036     49.59485 
   13500    240.74002   -1066.0663    132864.54   -33905.839    2566.1385   -36471.977    49.761316 
   13550    237.79201   -904.86402    132816.53   -33932.472    2534.7146   -36467.187    49.988389 
   13600    241.93958   -1156.0074    132820.81   -33946.287    2578.9251   -36525.212    50.225975 
   13650    241.24911    -1069.436    132837.68   -33929.865    2571.5652    -36501.43    50.488427 
   13700    245.91824   -1449.6453    132828.95   -33941.286    2621.3352   -36562.622     50.64308 
   13750    243.09421   -1156.7205    132777.45   -33946.292    2591.2328   -36537.524     51.03616 
   13800    241.73086   -941.71768    132762.85   -33936.998    2576.7003   -36513.699    51.097085 
   13850     244.4414   -1128.0391    132802.25   -33963.072    2605.5929   -36568.665    51.335738 
   13900    242.83397   -1119.5459    132942.31   -33946.821    2588.4588    -36535.28    51.518121 
   13950      245.391   -1324.2714    133112.56   -33948.905    2615.7151    -36564.62    51.419623 
   14000    246.31227    -1159.254    133211.56   -33936.346    2625.5353   -36561.881    51.407688 
   14050    246.80931   -1255.7217    133298.84   -33929.484    2630.8335   -36560.318    51.714245 
   14100    244.00661   -1075.7199    133387.46   -33931.141    2600.9584     -36532.1    51.837825 
   14150    245.93971   -1263.5586    133405.57   -33896.693    2621.5641   -36518.257    52.142546 
   14200    245.37263   -1450.0055    133376.77   -33906.861    2615.5193    -36522.38     52.50745 
   14250    248.61439   -1229.4218     133333.2   -33886.198    2650.0744   -36536.272    52.792135 
   14300    249.42579   -1068.8105    133308.48   -33884.624    2658.7234   -36543.348    52.797082 
   14350    247.68732   -792.36996    133322.28   -33893.146    2640.1924   -36533.338    52.986118 
   14400    250.44158   -1375.5057    133416.33   -33863.987    2669.5511   -36533.538    53.362517 
   14450     246.9534   -1122.4539     133504.2   -33896.082    2632.3693   -36528.451    53.296615 
   14500    243.63297   -1223.5962    133555.45   -33889.381    2596.9756   -36486.356    53.218768 
   14550    243.42006   -1134.0614    133573.92   -33916.418    2594.7061   -36511.124    53.345927 
   14600    242.38005   -1532.7593    133603.66   -33928.406    2583.6203   -36512.026    53.541912 
   14650    242.95815   -1117.6883    133617.53   -33913.697    2589.7825   -36503.479    53.783456 
   14700    241.93761   -1263.6879    133671.47   -33917.129    2578.9041   -36496.033     54.07935 
   14750    244.87269   -1537.3167    133728.95   -33904.708    2610.1902   -36514.898    54.281622 
   14800    244.98993    -1524.207    133700.36   -33938.623    2611.4399   -36550.063    54.437263 
   14850    245.11365   -876.79371    133596.98   -33946.555    2612.7587   -36559.314    54.456796 
   14900    240.63961   -1359.0557    133544.56   -33963.134    2565.0682   -36528.202    54.449448 
   14950    245.06608   -912.67246    133464.25   -33980.511    2612.2517   -36592.763    54.403753 
   15000    240.86839   -1054.9736    133358.97   -33997.074    2567.5069   -36564.581    54.593666 
   15050    239.99505   -1034.1347    133298.23   -33998.188    2558.1976   -36556.385    54.955204 
   15100    239.58052    -1217.545    133293.48   -33977.702    2553.7791   -36531.481    55.204108 
   15150    241.23222   -1276.9977    133253.43   -33987.391    2571.3851   -36558.776      55.3151 
   15200    242.03748   -1047.9117    133195.11   -33984.043    2579.9687   -36564.012    55.488758 
   15250    241.23233   -1035.6626    133164.47   -33992.166    2571.3863   -36563.552    55.601723 
   15300    242.30672   -1055.0225    133137.15   -33963.795    2582.8386   -36546.634    55.768968 
   15350    239.75943   -1373.2936     133085.6   -33945.174    2555.6861   -36500.861    55.915092 
   15400    241.27612   -1038.6382    132980.64   -33933.634    2571.8531   -36505.487     55.87563 
   15450    240.09016   -1122.0527    132887.28   -33947.725    2559.2114   -36506.937    56.171187 
   15500    247.66284   -1475.1113    132783.85   -33933.772    2639.9315   -36573.704    56.298329 
   15550    241.42355   -1349.0957    132661.58   -33945.018    2573.4246   -36518.442    56.370489 
   15600     245.9924   -1101.9733    132546.89   -33937.055    2622.1257    -36559.18     56.68331 
   15650    244.52063   -930.38989    132493.54   -33955.474    2606.4375   -36561.912    56.852224 
   15700    245.51156   -958.14969    132553.48   -33941.558    2617.0002   -36558.558    57.047617 
   15750    245.37975    -924.3474    132690.37   -33926.419    2615.5952   -36542.014    57.127011 
   15800     242.3338   -1061.2852    132886.05   -33922.996    2583.1272   -36506.124    57.139738 
   15850    246.69402   -1092.6458     133103.1   -33916.839    2629.6045   -36546.443    57.320495 
   15900     247.6326   -1156.9364    133313.68   -33930.541    2639.6092   -36570.151    57.429355 
   15950    250.14064   -1204.0034    133510.51   -33915.997    2666.3434   -36582.341    57.401919 
   16000    243.87865   -1321.5216    133676.49   -33896.595    2599.5944   -36496.189    57.827403 
   16050    247.25445   -1111.1447    133812.96   -33876.999    2635.5784   -36512.577    58.168928 
   16100     246.1707    -1394.879    133938.49   -33857.831    2624.0262   -36481.858    58.522229 
   16150    246.29509   -1350.0344    134024.07   -33860.906    2625.3522   -36486.259    58.667443 
   16200    242.08447   -1521.6816    134004.14   -33832.398    2580.4696   -36412.868    58.824507 
   16250     249.3544   -1549.1024    133886.51   -33828.632    2657.9625   -36486.595    59.018643 
   16300    244.84542   -1093.6477    133686.83   -33840.777    2609.8996   -36450.677    58.748045 
   16350    246.66558   -1224.4884    133510.33   -33846.705    2629.3014   -36476.006    59.151654 
   16400    246.17571   -1011.9744    133380.24   -33843.752    2624.0796   -36467.832    59.305486 
   16450    249.11611   -951.25616    133354.54   -33868.919    2655.4225   -36524.341    59.537647 
   16500    248.03279   -1238.1537    133449.64   -33858.261     2643.875   -36502.136    59.878577 
   16550    248.21079    -1009.832    133559.15    -33834.25    2645.7724   -36480.022    60.184731 
   16600    248.35893   -1100.9745     133706.9   -33827.591    2647.3514   -36474.942    60.260451 
   16650    250.95296   -1136.1573    133820.16   -33814.272    2675.0022   -36489.274    60.507975 
   16700    242.99388   -1451.0601    133963.62   -33848.778    2590.1633   -36438.942    60.806214 
   16750    242.75437   -1358.3069    134049.08   -33854.953    2587.6103   -36442.564    60.818493 
   16800    249.47894   -1303.7141    134090.95   -33866.973      2659.29   -36526.263    61.224229 
   16850    243.31148   -1163.7989    134108.84   -33885.328    2593.5487   -36478.877     61.40179 
   16900    244.78996   -1244.2261    134070.45   -33873.167    2609.3084   -36482.476    61.758383 
   16950    244.95746     -991.592    133971.74   -33859.735    2611.0939   -36470.829     62.14671 
   17000    241.86881   -1159.7685     133867.4   -33870.235    2578.1707   -36448.406    62.122196 
   17050    241.92591   -952.06083    133779.51   -33849.728    2578.7794   -36428.508    62.398437 
   17100    242.82098    -1285.044    133721.98    -33862.39    2588.3203    -36450.71    62.544742 
   17150    246.43481   -1417.9241       133697   -33839.782    2626.8415   -36466.623    62.730832 
   17200    243.27863   -1318.6049    133666.41   -33786.117    2593.1986   -36379.315    62.894068 
   17250    244.08449   -1169.4851    133580.62   -33795.894    2601.7885   -36397.682     63.07243 
   17300    247.32046   -1506.7084    133437.24   -33780.177    2636.2819   -36416.459    63.460163 
   17350    254.31691   -828.34624    133217.78   -33785.506    2710.8597   -36496.366    63.651078 
   17400     249.5268   -1133.6036    133064.41   -33805.543    2659.8002   -36465.343    63.843126 
   17450    250.05521   -668.23252    132951.74   -33789.812    2665.4327   -36455.245    63.882791 
   17500    249.49304   -720.18818    132957.19   -33797.911    2659.4403   -36457.351    64.128677 
   17550     243.8621   -1067.7796    133071.64   -33837.412     2599.418    -36436.83    64.365382 
   17600    246.13802   -1001.8104    133249.81   -33843.302    2623.6779    -36466.98    64.464792 
   17650    246.62467   -1362.2023    133414.22   -33820.443    2628.8653   -36449.308    64.739319 
   17700    245.23385   -1219.4988    133565.71   -33791.328    2614.0399   -36405.368    64.968598 
   17750    250.57778   -1156.8785    133706.26   -33782.505    2671.0029   -36453.508    65.207897 
   17800    246.92302   -1275.5986    133812.49   -33781.649    2632.0455   -36413.694    65.410472 
   17850    241.76834   -1071.0158    133862.11   -33792.683    2577.0998   -36369.783    65.393986 
   17900    250.54507   -1041.7931    133888.13   -33808.873    2670.6542   -36479.527    65.525639 
   17950    247.58011    -1302.878    133873.18   -33803.959    2639.0496   -36443.009    65.683657 
   18000    243.45279   -971.74537    133812.07   -33846.393    2595.0551   -36441.448    65.742141 
   18050    247.57178   -1192.3893    133783.61   -33861.258    2638.9609   -36500.219    65.753032 
   18100    245.92961   -1205.2879    133761.82   -33882.656    2621.4564   -36504.113    65.882934 
   18150    244.44126   -1300.5673     133710.7   -33901.414    2605.5915   -36507.005    66.271474 
   18200    241.22053    -1187.366    133612.39   -33893.104    2571.2605   -36464.365    66.447638 
   18250    244.40903   -985.26896    133539.79   -33859.301    2605.2479   -36464.549    66.644115 
   18300    249.00743   -1299.4564    133531.02   -33868.602     2654.264   -36522.866     66.83055 
   18350    250.10837   -1227.4932    133522.33   -33849.637    2665.9993   -36515.637    67.025823 
   18400    243.54824   -1414.0499    133501.72   -33852.383    2596.0724   -36448.456    67.176588 
   18450    249.86245   -965.68782     133443.1   -33871.498     2663.378   -36534.876    67.616829 
   18500    247.65576   -1281.8824     133415.4   -33850.106     2639.856   -36489.962    67.799776 
   18550    243.48904   -1216.1621    133402.35   -33826.601    2595.4414   -36422.042    67.954313 
   18600    251.24232    -1266.635    133381.96   -33820.367    2678.0866   -36498.454    68.236135 
   18650    245.31139   -1283.9882     133308.7   -33837.961    2614.8665   -36452.827    68.424294 
   18700    246.30044   -1112.0518    133210.23   -33855.083    2625.4092   -36480.492    68.553252 
   18750    249.78808   -863.13563    133177.99   -33843.106    2662.5853   -36505.691    68.776813 
   18800     246.1852   -1403.9509    133256.35   -33824.316    2624.1808   -36448.496    68.619908 
   18850    244.18285   -1191.3482    133351.77   -33842.499    2602.8369   -36445.336    68.681998 
   18900    247.77393   -1122.5512    133452.26   -33841.504    2641.1157    -36482.62    68.924351 
   18950    250.44701   -1040.4292    133501.47   -33859.503    2669.6091   -36529.112    69.100055 
   19000    246.90965   -1046.2066    133477.67   -33853.318     2631.903   -36485.221    69.408293 
   19050    245.05799    -1250.816    133508.49   -33842.093    2612.1654   -36454.258     69.55735 
   19100    245.93192   -1360.3392    133567.64   -33839.751     2621.481   -36461.232     69.94735 
   19150    245.71835   -1040.2419    133671.07   -33845.968    2619.2044   -36465.172    70.392987 
   19200    248.35998   -1238.8508    133789.83   -33838.616    2647.3626   -36485.978    70.311734 
   19250    241.17577   -1296.8321    133875.94   -33829.417    2570.7834   -36400.201    70.451625 
   19300    242.98733   -1471.3611    133907.86   -33850.563    2590.0935   -36440.656    70.741088 
   19350    242.68328   -1163.6534    133902.33   -33848.201    2586.8525   -36435.053    70.948757 
   19400     243.2757    -1242.738    133903.83   -33861.692    2593.1673   -36454.859    71.018845 
   19450    247.86796   -1024.6985    133940.32   -33863.601     2642.118   -36505.718    71.311435 
   19500    236.13481   -1234.3251    134008.87   -33893.784    2517.0499   -36410.834    71.368174 
   19550    245.44296   -1207.9615    134016.11   -33851.456     2616.269   -36467.725    71.551108 
   19600    246.09962   -1467.7018    133975.32   -33854.201    2623.2685   -36477.469    71.666919 
   19650    248.13556    -1312.329    133923.05   -33832.781    2644.9704   -36477.751    71.701759 
   19700     242.6654   -1288.0924     133878.9   -33805.034    2586.6619   -36391.696    71.684561 
   19750    243.26864   -859.02113     133851.9   -33815.139    2593.0921   -36408.231    72.101423 
   19800    246.63947   -1306.0436    133915.28   -33821.748     2629.023   -36450.771    72.320422 
   19850    247.20805   -1070.5971    134026.95   -33802.294    2635.0837   -36437.378     72.76843 
   19900    251.04361    -1181.601    134182.43     -33782.5    2675.9684   -36458.469    72.921311 
   19950    246.34178   -1303.9949    134298.26   -33766.701    2625.8498   -36392.551    73.074579 
   20000    251.18416    -1428.581    134409.33   -33766.576    2677.4666   -36444.042    73.230997 
   20050    245.27171   -1551.8905    134474.43   -33767.111    2614.4435   -36381.554     73.38639 
   20100      245.866   -1381.0358    134427.51   -33784.541    2620.7783   -36405.319    73.517896 
   20150    244.45973   -1229.4056    134259.44   -33799.875    2605.7883   -36405.663    73.717441 
   20200     250.4613   -1644.0438    133972.65   -33813.791    2669.7613   -36483.552    74.135028 
   20250    242.34018   -1369.4968    133606.16   -33823.057    2583.1953   -36406.253    74.347763 
   20300    243.31428   -1253.7811    133278.22   -33816.063    2593.5786   -36409.642    74.365551 
   20350    243.09968   -1114.8193    132979.02   -33822.676    2591.2911   -36413.967    74.239053 
   20400    250.01976   -1255.6981    132754.86   -33793.783    2665.0548   -36458.837    74.572872 
   20450    244.81122   -1256.0039    132623.78   -33789.001     2609.535   -36398.536    74.679909 
   20500    248.15005   -1279.7772    132604.16   -33770.126    2645.1249   -36415.251    74.991952 
   20550    247.90054   -1073.3484    132649.87   -33747.497    2642.4652   -36389.963    75.091815 
   20600    248.16128   -1207.9448     132747.6     -33763.7    2645.2446   -36408.945    75.179808 
   20650    251.65131   -1150.6641    132897.74   -33729.546    2682.4461   -36411.993    75.449334 
   20700    248.89713   -769.32051    133058.76   -33740.654    2653.0883   -36393.742    75.360197 
   20750    247.75273   -888.34834    133260.57   -33757.859    2640.8897   -36398.749    75.436709 
   20800    246.29375   -1050.4004    133487.37   -33755.093    2625.3378   -36380.431    75.523276 
   20850    248.47858   -1127.6788    133658.41   -33739.394    2648.6268   -36388.021    75.682995 
   20900     245.7605   -1089.7538    133751.39   -33711.256    2619.6537    -36330.91    76.063691 
   20950    253.29959   -1105.3061    133868.08    -33710.36    2700.0158   -36410.376    76.150989 
   21000    248.58345   -1579.0048    133909.31   -33722.568    2649.7446   -36372.313    76.289392 
   21050    246.72092   -1071.5813    133847.59   -33725.026    2629.8912   -36354.917    76.321888 
   21100    251.45042    -1244.762    133796.95   -33723.701    2680.3047   -36404.006    76.664232 
   21150    252.60648   -1160.9743    133766.07   -33728.393    2692.6276    -36421.02    76.915282 
   21200    241.68403   -1117.4192    133758.14   -33747.694    2576.2012   -36323.895    76.982299 
   21250    244.30788   -1225.2513    133706.81   -33752.539    2604.1697   -36356.709     76.99879 
   21300    247.45043   -1173.8099     133608.4   -33750.814    2637.6674   -36388.482    77.368966 
   21350    245.70831   -1194.1426    133536.93   -33780.657    2619.0974   -36399.754    77.642736 
   21400    247.36523   -1126.8935    133445.68   -33790.807    2636.7592   -36427.566    77.671196 
   21450    246.85471   -1547.7676    133340.51   -33770.248    2631.3173   -36401.566    77.910164 
   21500    245.77021   -876.44418    133217.01   -33776.873    2619.7572    -36396.63    78.036655 
   21550    247.20141   -1265.1691    133175.77   -33789.951     2635.013   -36424.964    78.067811 
   21600    245.49642   -948.61339    133164.92   -33800.061    2616.8388     -36416.9    78.311338 
   21650    250.06033    -1182.681    133206.22   -33804.685    2665.4873   -36470.172    78.428572 
   21700     246.5378   -1206.5565    133291.14   -33812.951    2627.9393    -36440.89    78.485489 
   21750    248.75181   -1264.9686    133319.83   -33808.194    2651.5393   -36459.733    78.665922 
   21800    248.29198   -1378.7739    133273.03   -33812.023    2646.6378   -36458.661    78.838707 
   21850    245.92159   -1216.5447    133175.96   -33812.096    2621.3709   -36433.467    78.918013 
   21900    249.23284   -959.84553    133066.27   -33815.634    2656.6667   -36472.301    79.115281 
   21950    251.87942   -1020.5891    132973.68   -33792.617    2684.8776   -36477.495    79.595128 
   22000    248.55181   -1278.1635    132938.86   -33792.466    2649.4074   -36441.873    79.848091 
   22050    245.53022   -1131.6323    132953.74   -33797.398    2617.1991   -36414.597     80.10318 
   22100    250.57362   -1299.7509    132996.63   -33766.062    2670.9586   -36437.021    79.981489 
   22150    247.28634   -1271.1655    133022.44   -33766.136    2635.9182   -36402.054    79.992076 
   22200    247.01269   -1226.9673    133063.98   -33748.293    2633.0014   -36381.294    79.969653 
   22250    246.25647    -1003.498    133053.96    -33757.43    2624.9405    -36382.37    80.247642 
   22300    245.75024   -1178.1346    133020.46   -33753.752    2619.5444   -36373.296    80.413372 
   22350    247.78383   -958.45569     133009.9   -33784.155    2641.2212   -36425.376    80.474604 
   22400    246.72438    -1025.729    133057.07   -33786.361    2629.9281   -36416.289    80.820892 
   22450     245.0379   -1284.4669    133177.03   -33782.722    2611.9513   -36394.674    80.769845 
   22500    245.10944   -1208.1703    133314.83   -33747.934    2612.7138   -36360.648     81.11418 
   22550    247.95349   -1527.6565    133415.54   -33751.649    2643.0297   -36394.678    81.162617 
   22600    243.60647    -1167.641    133422.43   -33766.676    2596.6931   -36363.369    81.202472 
   22650    245.51855   -1442.9388    133367.77   -33754.253    2617.0747   -36371.327     81.28074 
   22700    240.89626   -1013.9454    133234.36   -33747.316     2567.804    -36315.12    81.504426 
   22750    251.23031    -970.3089    133089.46    -33747.27    2677.9585   -36425.228    81.770557 
   22800    250.17675    -1047.277    133016.82   -33748.601    2666.7283   -36415.329    81.691664 
   22850    248.53992   -1484.3527    132986.12   -33753.233    2649.2806   -36402.514    81.779061 
   22900    248.50448   -1262.0764    132951.64   -33730.865    2648.9029   -36379.768    81.844032 
   22950    249.85872   -982.88034    132928.21   -33723.426    2663.3383   -36386.764    82.062578 
   23000    246.05587   -1106.8848    132957.48   -33769.348    2622.8022    -36392.15    82.517704 
   23050    246.02532     -1262.75    133021.42   -33744.069    2622.4765   -36366.546    82.705104 
   23100    247.90573   -1439.5801    133062.66   -33773.023    2642.5205   -36415.543    82.891416 
   23150    239.82138   -1378.8236    133068.26   -33772.122    2556.3464   -36328.468    82.938894 
   23200     250.5376   -1252.0172    133026.32   -33766.286    2670.5747   -36436.861    83.089073 
   23250    250.44222   -1345.8646     132932.5   -33750.091    2669.5579   -36419.649    82.996175 
   23300    252.05517   -1208.5069    132812.19   -33769.855     2686.751   -36456.606    83.509649 
   23350    243.30192   -1248.5773    132767.35   -33766.356    2593.4468   -36359.802    83.550409 
   23400    251.74997   -1378.6976    132706.44   -33768.543    2683.4978   -36452.041    83.909526 
   23450    244.44759   -789.32581    132602.91   -33780.935    2605.6589   -36386.594    84.146131 
   23500    247.72256   -1031.6131    132533.15   -33787.599    2640.5681   -36428.167    84.312302 
   23550    249.20855   -1269.5122    132495.05    -33797.55    2656.4078   -36453.957    84.480291 
   23600    245.72041   -1090.2902    132452.72   -33797.436    2619.2265   -36416.662    84.670988 
   23650    249.48737    -1144.305    132449.01   -33826.085    2659.3798   -36485.465    85.134674 
   23700    242.29604   -1054.3908    132486.74   -33826.253    2582.7248   -36408.978    85.332814 
   23750    245.22638   -889.28908    132579.65   -33812.627    2613.9604   -36426.588    85.423893 
   23800    246.92527   -1367.3307    132717.96   -33805.449    2632.0695   -36437.518    85.724775 
   23850    244.77448   -1011.2857    132809.57   -33796.309    2609.1433   -36405.453    85.564501 
   23900    246.66188   -1339.7367     132926.9   -33789.167    2629.2619   -36418.429    85.877765 
   23950    246.87246   -1123.9453     133000.8   -33814.898    2631.5066   -36446.404    86.128446 
   24000    248.26569   -954.07002    133050.77   -33815.685    2646.3575   -36462.042    86.113353 
   24050    248.94593   -1223.7928    133179.95    -33795.76    2653.6085   -36449.368     86.27256 
   24100    249.84408   -1160.3505    133312.54    -33810.06    2663.1821   -36473.242    86.321184 
   24150    251.64299   -1439.7038    133395.59   -33791.481    2682.3574   -36473.839    86.671044 
   24200    251.02722   -1001.4734    133466.96   -33804.959    2675.7937   -36480.752    86.663096 
   24250    247.00632    -1398.476       133611   -33771.903    2632.9334   -36404.836    86.888342 
   24300    245.88079   -1041.1646    133747.48   -33785.451     2620.936   -36406.387    87.070937 
   24350    249.65399   -1455.0104    133814.15   -33812.207     2661.156   -36473.363    87.715151 
   24400    244.82683   -1350.5192    133794.69   -33820.698    2609.7014     -36430.4    87.917268 
   24450    246.90981   -1286.5449    133747.35   -33829.042    2631.9046   -36460.947    88.006864 
   24500    247.03628   -1411.9249     133654.6   -33818.467    2633.2528   -36451.719    88.199748 
   24550    246.68231   -1099.7251    133487.86   -33840.212    2629.4797   -36469.692    88.218804 
   24600    247.75672   -791.81685    133330.58   -33839.991    2640.9322   -36480.923    88.291517 
   24650    243.93691   -940.07401    133289.25   -33866.159    2600.2154   -36466.375    88.390829 
   24700    247.43729   -819.69586    133373.45   -33855.287    2637.5273   -36492.814    88.336647 
   24750    244.61789   -1150.0009     133512.4   -33860.832    2607.4742   -36468.307    88.579426 
   24800    243.94954   -1281.4246    133584.88   -33859.237      2600.35   -36459.587    88.605733 
   24850     243.1075   -1259.0416    133575.49   -33846.183    2591.3744   -36437.558    88.805974 
   24900    243.11239   -1466.0673    133476.06   -33875.125    2591.4265   -36466.552    88.945354 
   24950    241.59518   -1285.0723       133313   -33888.467     2575.254   -36463.721    89.199565 
   25000    243.74377   -1061.6717    133182.61   -33873.704    2598.1567    -36471.86    89.386943 
Loop time of 99.1514 on 12 procs for 25000 steps with 6337 atoms

Performance: 217.849 ns/day, 0.110 hours/ns, 252.140 timesteps/s
96.3% CPU use with 12 MPI tasks x no OpenMP threads

MPI task timing breakdown:
Section |  min time  |  avg time  |  max time  |%varavg| %total
---------------------------------------------------------------
Pair    | 14.288     | 30.092     | 61.198     | 385.0 | 30.35
Neigh   | 2.2402     | 4.4796     | 8.957      | 140.4 |  4.52
Comm    | 18.404     | 53.522     | 71.298     | 325.8 | 53.98
Output  | 0.12873    | 0.15301    | 0.17285    |   3.0 |  0.15
Modify  | 9.3225     | 9.6417     | 9.9768     |   6.2 |  9.72
Other   |            | 1.263      |            |       |  1.27

Nlocal:        528.083 ave         918 max         334 min
Histogram: 8 0 0 0 0 0 0 0 0 4
Nghost:        1658.50 ave        1852 max        1552 min
Histogram: 5 3 0 0 0 0 0 0 2 2
Neighs:        0.00000 ave           0 max           0 min
Histogram: 12 0 0 0 0 0 0 0 0 0
FullNghs:      42390.8 ave      103663 max       12626 min
Histogram: 8 0 0 0 0 0 0 0 0 4

Total # of neighbors = 508690
Ave neighs/atom = 80.273000
Neighbor list builds = 2983
Dangerous builds = 0

unfix           3
unfix           4
undump          1

fix             3 water nve

# Run 0.25 ns equilibration

dump		    1 all atom 2000 testnve.${NAME}.dump
dump		    1 all atom 2000 testnve.ML_graphite_m1000atm_245K.dump
run	            25000
Per MPI rank memory allocation (min/avg/max) = 3.511 | 3.643 | 3.907 Mbytes
Step c_2 Press Volume TotEng KinEng PotEng c_1[4] 
   25000    243.74377   -1061.6717    133182.61   -33873.704    2598.1567    -36471.86    89.386943 
   25050    250.46181   -1206.7991    133182.61   -33875.173    2669.7668    -36544.94    89.335463 
   25100    244.66571   -1253.8476    133182.61   -33873.187    2607.9839   -36481.171    89.577451 
   25150    244.53569   -1401.8938    133182.61   -33874.221     2606.598   -36480.819    89.827653 
   25200    243.77066   -1282.7738    133182.61   -33873.364    2598.4434   -36471.808    90.005172 
   25250    249.76827   -977.89848    133182.61   -33876.074    2662.3741   -36538.448    90.024621 
   25300    247.86037   -1011.9708    133182.61   -33875.559     2642.037   -36517.596    90.321849 
   25350     245.2132   -1043.5131    133182.61   -33874.017    2613.8199   -36487.836    90.285098 
   25400    246.98072   -887.22886    133182.61   -33873.986    2632.6606   -36506.647    90.210982 
   25450    244.27788   -1135.7982    133182.61   -33873.524      2603.85   -36477.374    90.548546 
   25500    247.34716   -1480.3941    133182.61   -33874.263    2636.5665   -36510.829    90.505043 
   25550    243.34157   -1216.0165    133182.61   -33873.316    2593.8694   -36467.185    90.524483 
   25600    242.04018   -1059.9307    133182.61   -33873.666    2579.9975   -36453.663    90.711773 
   25650    248.87319   -1396.9276    133182.61   -33874.337    2652.8331    -36527.17    90.693745 
   25700    241.79683   -1231.6819    133182.61   -33873.281    2577.4035   -36450.685    90.905403 
   25750    246.55566   -1366.1613    133182.61   -33873.733    2628.1297   -36501.863    91.069589 
   25800    252.11035   -1150.7099    133182.61   -33875.691    2687.3392   -36563.031    91.224639 
   25850    245.83055   -1170.2211    133182.61   -33874.256    2620.4004   -36494.656    91.527343 
   25900    241.52721   -1451.2205    133182.61    -33873.62    2574.5295   -36448.149    91.781752 
   25950    247.55279    -956.9724    133182.61   -33875.345    2638.7585   -36514.104    91.828153 
   26000    248.23517   -1291.1345    133182.61   -33875.469    2646.0322   -36521.501    92.270753 
   26050    244.06928   -1023.2273    133182.61   -33873.888    2601.6264   -36475.514    92.508762 
   26100     244.4003   -1274.6237    133182.61   -33874.145    2605.1549     -36479.3    92.986525 
   26150    246.06265   -1040.3348    133182.61   -33874.059    2622.8744   -36496.933     92.95258 
   26200     249.3746   -1202.4912    133182.61   -33874.263    2658.1778   -36532.441    93.255084 
   26250    245.36585   -1181.2806    133182.61   -33874.752     2615.447   -36490.199    93.160978 
   26300    246.85532   -1408.8335    133182.61   -33874.539    2631.3238   -36505.863    93.479533 
   26350      246.823    -1325.117    133182.61   -33875.119    2630.9794   -36506.098    93.360324 
   26400    244.83012   -1129.4058    133182.61    -33873.88    2609.7365   -36483.617    93.890897 
   26450    244.86292   -1191.3595    133182.61   -33873.692    2610.0861   -36483.778    93.898275 
   26500     243.3852   -1212.7162    133182.61   -33873.716    2594.3345    -36468.05    94.013657 
   26550    242.43876   -1377.7436    133182.61   -33873.225    2584.2461   -36457.471    94.280961 
   26600    242.72433   -1205.8836    133182.61   -33873.413    2587.2901   -36460.703    94.446978 
   26650    244.37749   -1158.6149    133182.61   -33873.812    2604.9117   -36478.724    94.667907 
   26700    243.74328   -1350.0205    133182.61   -33872.845    2598.1515   -36470.996    94.590522 
   26750    243.68926   -1521.3375    133182.61   -33874.307    2597.5756   -36471.883    95.103641 
   26800    245.75015   -1022.8487    133182.61   -33874.208    2619.5434   -36493.751    95.364052 
   26850    245.87672   -970.94207    133182.61   -33873.523    2620.8926   -36494.415     95.53314 
   26900    246.28051   -1030.2075    133182.61    -33874.78    2625.1967   -36499.976    95.474123 
   26950     245.7363   -1110.5201    133182.61   -33873.815    2619.3958   -36493.211    95.808173 
   27000    241.71487   -891.94746    133182.61   -33871.984    2576.5299   -36448.514    95.512904 
   27050    248.42417   -1120.9626    133182.61    -33874.11    2648.0469   -36522.157    95.697889 
   27100    248.77965   -1312.2433    133182.61   -33874.411     2651.836   -36526.247    96.160874 
   27150    251.40447   -1265.6018    133182.61    -33874.66     2679.815   -36554.475    96.467934 
   27200     246.4766   -1074.7287    133182.61   -33873.758    2627.2869   -36501.045    96.649655 
   27250    250.85236   -925.29572    133182.61   -33875.769    2673.9298   -36549.699     97.11402 
   27300    248.44597   -955.32585    133182.61   -33874.554    2648.2792   -36522.833    97.169559 
   27350    247.59898   -706.13988    133182.61   -33874.784    2639.2508   -36514.035    97.215687 
   27400    243.66392    -995.9358    133182.61   -33873.432    2597.3055   -36470.738    97.591099 
   27450    247.51315   -1008.4568    133182.61   -33874.001    2638.3359   -36512.337    97.649393 
   27500    246.78917   -838.82586    133182.61   -33874.512    2630.6188    -36505.13    97.783306 
   27550    247.88176   -751.37156    133182.61    -33875.08    2642.2651   -36517.345    98.167637 
   27600    243.01373   -1139.8934    133182.61    -33872.94    2590.3749   -36463.315    98.274237 
   27650    247.37232   -854.56103    133182.61   -33874.228    2636.8347   -36511.063    98.113291 
   27700    249.06914   -1117.7411    133182.61   -33875.196    2654.9218   -36530.118    98.348504 
   27750    243.93795   -950.55061    133182.61   -33873.829    2600.2265   -36474.055    98.456521 
   27800     243.1508   -830.03016    133182.61   -33873.881     2591.836   -36465.717    98.804264 
   27850    249.70803   -1000.2331    133182.61    -33873.75     2661.732   -36535.482    99.182503 
   27900    243.89947   -1208.4059    133182.61   -33872.605    2599.8163   -36472.421    99.631054 
   27950    241.76506   -993.83569    133182.61    -33873.27    2577.0648   -36450.335    99.917904 
   28000    249.25558   -1213.6653    133182.61   -33874.341    2656.9091    -36531.25    99.914273 
   28050    244.05987   -1150.4824    133182.61   -33874.089    2601.5261   -36475.615    100.24909 
   28100    240.65415    -1294.357    133182.61   -33873.001    2565.2233   -36438.225    100.17382 
   28150    240.67253   -1403.0484    133182.61   -33872.816    2565.4191   -36438.235    100.50714 
   28200    246.90115   -1122.8237    133182.61    -33873.42    2631.8124   -36505.233    100.69672 
   28250    249.54391   -1003.2978    133182.61   -33875.784    2659.9826   -36535.767    100.55936 
   28300    245.92201   -889.66556    133182.61   -33873.017    2621.3754   -36494.393     100.8196 
   28350    246.92153   -1350.3042    133182.61   -33873.256    2632.0296   -36505.286    100.89447 
   28400    245.68349   -1091.9168    133182.61   -33873.613    2618.8328   -36492.446     100.5692 
   28450    249.99711   -862.71709    133182.61   -33874.647    2664.8134    -36539.46    100.48139 
   28500    247.13193   -1574.8375    133182.61   -33874.628    2634.2724     -36508.9    100.53704 
   28550    245.23596   -1243.1582    133182.61   -33874.033    2614.0625   -36488.096     100.6794 
   28600    246.48512   -1577.7168    133182.61   -33874.048    2627.3778   -36501.426    100.94718 
   28650    245.16092   -1266.7594    133182.61   -33874.048    2613.2626    -36487.31    101.25541 
   28700      244.009   -1255.6581    133182.61   -33873.015    2600.9839   -36473.999    101.40017 
   28750    245.31285   -1227.3825    133182.61   -33873.705     2614.882   -36488.587    101.59448 
   28800    244.29166   -1454.0567    133182.61   -33873.588    2603.9968   -36477.585    101.85971 
   28850    247.36025   -1145.2812    133182.61   -33876.072    2636.7061   -36512.779    101.93675 
   28900    244.40607   -1243.4215    133182.61   -33874.565    2605.2163   -36479.781     102.3956 
   28950    246.25342   -1051.5819    133182.61   -33874.317     2624.908   -36499.225    102.47357 
   29000    244.33871   -1283.0223    133182.61   -33874.889    2604.4983   -36479.387    102.63773 
   29050    242.75102   -1593.1792    133182.61   -33872.849    2587.5745   -36460.423    102.72359 
   29100    246.74577     -1274.47    133182.61   -33874.941    2630.1562   -36505.097    102.94961 
   29150    245.70023    -1257.344    133182.61   -33874.391    2619.0113   -36493.402    103.26404 
   29200    242.82493   -1364.6139    133182.61   -33873.201    2588.3624   -36461.563    103.43992 
   29250    242.80712    -1362.855    133182.61   -33872.752    2588.1726   -36460.924     103.6143 
   29300    243.26439   -1365.8239    133182.61   -33873.211    2593.0468   -36466.257    103.92617 
   29350    247.88787   -1198.1803    133182.61   -33874.932    2642.3302   -36517.262    103.78243 
   29400    247.30062   -1166.6349    133182.61   -33874.932    2636.0704   -36511.002    104.16742 
   29450    244.16855   -982.38879    133182.61    -33873.84    2602.6846   -36476.524    104.02783 
   29500    244.04341   -1088.3867    133182.61   -33874.323    2601.3507   -36475.673     104.3118 
   29550    244.19183   -1201.2065    133182.61   -33874.619    2602.9327   -36477.552    104.51576 
   29600    247.83795   -1049.5078    133182.61   -33874.919    2641.7981   -36516.717    104.71609 
   29650    240.28245   -1340.8341    133182.61   -33873.668    2561.2611   -36434.929    104.52453 
   29700    250.27869   -1327.6357    133182.61   -33874.281    2667.8149   -36542.096    104.58194 
   29750    250.70091   -1184.1683    133182.61   -33874.545    2672.3154    -36546.86    104.78169 
   29800    243.55762   -1303.3867    133182.61    -33875.12    2596.1725   -36471.292    104.99278 
   29850    247.88743   -1261.3277    133182.61   -33874.982    2642.3255   -36517.308    105.23578 
   29900    246.23513   -1504.5741    133182.61   -33874.226     2624.713   -36498.939    105.45176 
   29950    243.69124   -1039.8945    133182.61   -33873.579    2597.5967   -36471.176    105.55349 
   30000     239.6649   -1248.6296    133182.61   -33872.964    2554.6785   -36427.642    105.92949 
   30050    238.99597   -1152.0745    133182.61    -33872.79    2547.5481   -36420.338    105.97872 
   30100    240.72291   -1165.9356    133182.61   -33873.298    2565.9561   -36439.254    106.09392 
   30150    241.26847   -1081.1821    133182.61   -33873.676    2571.7715   -36445.447    106.43495 
   30200    243.74533   -1230.1889    133182.61   -33873.617    2598.1733    -36471.79    106.40389 
   30250    242.60401   -822.06106    133182.61   -33873.981    2586.0076   -36459.988    106.58853 
   30300    246.16403   -976.13768    133182.61   -33875.485    2623.9551    -36499.44    106.84816 
   30350     241.0568   -1389.7506    133182.61   -33873.312    2569.5153   -36442.827    107.19798 
   30400    242.31939   -1280.9089    133182.61   -33872.849    2582.9736   -36455.823    107.33522 
   30450    248.21767   -1337.3592    133182.61   -33875.135    2645.8457    -36520.98    107.81752 
   30500    241.37235   -1067.4075    133182.61   -33873.928    2572.8788   -36446.807    108.09371 
   30550    247.65506   -1372.6677    133182.61   -33875.238    2639.8486   -36515.086    108.55894 
   30600    245.22052   -1353.4973    133182.61   -33874.034    2613.8979   -36487.932    108.56893 
   30650     249.4492   -1135.3311    133182.61   -33875.748     2658.973   -36534.721    108.67774 
   30700    245.35301   -1106.4094    133182.61    -33873.38    2615.3102    -36488.69    108.93684 
   30750    241.75592   -1530.3141    133182.61    -33873.32    2576.9674   -36450.288    109.14145 
   30800    240.91207   -1281.2451    133182.61   -33873.354    2567.9725   -36441.326    109.46272 
   30850    243.79812   -1046.2767    133182.61   -33873.254     2598.736    -36471.99    109.42091 
   30900    246.77385   -1211.6842    133182.61   -33874.646    2630.4555   -36505.101    110.09145 
   30950    246.72484   -1159.0189    133182.61   -33873.726     2629.933   -36503.659      110.525 
   31000    242.16003   -1283.0196    133182.61   -33873.978     2581.275   -36455.253    110.58626 
   31050    239.95535   -1102.6402    133182.61   -33874.588    2557.7745   -36432.362    110.23308 
   31100    244.94403    -1293.545    133182.61   -33874.397    2610.9507   -36485.348     110.3037 
   31150    246.43884   -1265.2485    133182.61   -33873.703    2626.8844   -36500.587    110.30471 
   31200    241.98905   -1337.0417    133182.61   -33873.284    2579.4524   -36452.737    110.37102 
   31250    246.67325   -1062.2832    133182.61   -33874.956    2629.3831   -36504.339    110.72242 
   31300    240.54189   -1204.5847    133182.61   -33873.455    2564.0267   -36437.482    110.80902 
   31350    240.55331   -1430.2654    133182.61   -33874.305    2564.1483   -36438.453    110.90032 
   31400    241.38258   -1516.6875    133182.61   -33873.388    2572.9878   -36446.376    111.01182 
   31450    239.02742   -1225.5229    133182.61   -33873.359    2547.8834   -36421.242    110.95749 
   31500    241.83701   -1247.1214    133182.61   -33873.065    2577.8318   -36450.897     111.1174 
   31550     236.9556   -1373.6011    133182.61    -33872.19     2525.799   -36397.989    111.10304 
   31600    238.55455   -1390.0805    133182.61   -33872.235    2542.8428   -36415.078    111.29417 
   31650     242.7133    -1190.429    133182.61   -33874.613    2587.1725   -36461.785     111.6368 
   31700    244.11108    -942.3967    133182.61   -33874.123     2602.072   -36476.195    111.81173 
   31750    242.35626   -1069.6689    133182.61   -33873.448    2583.3666   -36456.815    112.04641 
   31800    241.45617   -952.45102    133182.61   -33872.887    2573.7722    -36446.66    112.30982 
   31850    241.28029   -1007.7253    133182.61   -33872.835    2571.8976   -36444.732    112.24153 
   31900    246.79893   -890.21748    133182.61   -33874.502    2630.7227   -36505.225    112.55983 
   31950    240.09984   -995.55612    133182.61   -33873.066    2559.3147   -36432.381    112.64754 
   32000    243.53225   -1068.6238    133182.61   -33873.541     2595.902   -36469.443       113.11 
   32050    242.87452   -1171.1483    133182.61   -33873.642     2588.891   -36462.533    113.12782 
   32100    244.63681   -925.86611    133182.61   -33874.891    2607.6759   -36482.566    113.08691 
   32150    247.37296   -1137.4054    133182.61   -33874.741    2636.8416   -36511.583    113.34834 
   32200    246.56879   -1184.0368    133182.61   -33874.595    2628.2696   -36502.865    113.41079 
   32250    245.73136   -1357.5432    133182.61   -33873.641    2619.3431   -36492.984    113.77997 
   32300    245.75059   -1377.2307    133182.61   -33873.489    2619.5482   -36493.037    113.77542 
   32350    248.86226   -1124.3791    133182.61   -33874.543    2652.7166   -36527.259    113.85072 
   32400    239.85969   -1218.6124    133182.61   -33872.914    2556.7548   -36429.668    113.88233 
   32450    246.62773    -1118.447    133182.61   -33874.511    2628.8978   -36503.409    114.24524 
   32500     248.2817   -1372.8592    133182.61    -33874.78    2646.5281   -36521.308     114.3204 
   32550    243.39282   -1141.0494    133182.61   -33873.339    2594.4158   -36467.755    114.37231 
   32600    241.26665   -1207.0818    133182.61   -33872.497    2571.7522   -36444.249    114.58311 
   32650    244.03888   -1361.8638    133182.61   -33873.393    2601.3024   -36474.695     114.7749 
   32700    244.76349   -1163.7617    133182.61   -33873.201    2609.0262   -36482.227    115.10701 
   32750    246.59075   -1257.9537    133182.61   -33874.985    2628.5037   -36503.489    115.34649 
   32800     246.9994   -1258.3387    133182.61   -33872.677    2632.8597   -36505.536    115.40989 
   32850    243.29653   -1155.8458    133182.61   -33872.687    2593.3893   -36466.077     115.5634 
   32900    246.63914   -1024.6118    133182.61   -33874.415    2629.0195   -36503.434    115.63686 
   32950    246.23069   -1205.6945    133182.61   -33872.894    2624.6656    -36497.56    115.74999 
   33000    245.08441   -1033.6967    133182.61   -33873.263    2612.4471    -36485.71    115.60182 
   33050    249.17619   -1163.8702    133182.61   -33873.838    2656.0629   -36529.901    115.67279 
   33100    245.22423   -1106.8636    133182.61   -33872.813    2613.9375   -36486.751    115.92764 
   33150    248.02146   -1017.0512    133182.61   -33875.473    2643.7542   -36519.227    115.90439 
   33200    243.80196   -1039.4832    133182.61   -33873.692     2598.777   -36472.469    116.02055 
   33250    246.17547   -1042.8961    133182.61   -33872.383    2624.0771    -36496.46    116.50232 
   33300    238.51285   -1145.6609    133182.61   -33871.964    2542.3984   -36414.363    116.38112 
   33350       243.91   -976.09339    133182.61   -33873.662    2599.9286    -36473.59     116.6894 
   33400    247.01576   -1136.1445    133182.61   -33874.803     2633.034   -36507.837    116.86933 
   33450    244.58741   -1153.3753    133182.61   -33874.801    2607.1494    -36481.95    116.94446 
   33500     244.2422   -1036.3373    133182.61   -33873.112    2603.4696   -36476.582    117.36309 
   33550    249.50996   -960.60451    133182.61   -33873.792    2659.6207   -36533.413    117.40913 
   33600    246.23109   -1284.2335    133182.61   -33873.824      2624.67   -36498.494    117.80671 
   33650    245.34563   -1253.1607    133182.61   -33874.369    2615.2315     -36489.6    118.14034 
   33700    242.00479   -1486.9334    133182.61   -33872.704    2579.6202   -36452.324    118.53089 
   33750    247.92706   -1140.4288    133182.61   -33872.968    2642.7479   -36515.716    118.81994 
   33800    243.43525    -1240.786    133182.61   -33872.596     2594.868   -36467.464    118.80751 
   33850    245.47905   -1325.6296    133182.61   -33873.355    2616.6536   -36490.009    118.91394 
   33900    242.68391   -1302.5288    133182.61   -33873.401    2586.8593    -36460.26    119.08478 
   33950    244.28625   -1260.8795    133182.61   -33874.119    2603.9392   -36478.058    119.39503 
   34000    247.17209   -1276.1837    133182.61    -33874.21    2634.7004    -36508.91    119.63104 
   34050    248.54929   -999.71515    133182.61   -33874.343    2649.3805   -36523.724     119.7552 
   34100    243.63221   -1225.5029    133182.61    -33874.12    2596.9675   -36471.087    119.85735 
   34150    249.26856   -999.96258    133182.61   -33874.368    2657.0475   -36531.416    119.95782 
   34200    251.55301    -1169.631    133182.61   -33875.063    2681.3983   -36556.461    120.42568 
   34250    252.13033   -834.06872    133182.61   -33874.115    2687.5521   -36561.667    120.52315 
   34300    252.65036   -1034.3966    133182.61   -33876.676    2693.0954   -36569.771    120.80718 
   34350    244.06726   -816.23704    133182.61    -33872.64    2601.6049   -36474.245    120.92349 
   34400    245.01468    -1159.374    133182.61   -33873.908    2611.7038   -36485.612     121.0032 
   34450    249.84632   -1086.4585    133182.61   -33874.137     2663.206   -36537.343    121.35982 
   34500    246.82487   -1077.5068    133182.61   -33874.952    2630.9993   -36505.951    121.36321 
   34550    248.16102    -1141.004    133182.61   -33874.095    2645.2418   -36519.336    121.40027 
   34600    244.88023    -1180.339    133182.61   -33873.726    2610.2706   -36483.997    121.53095 
   34650    248.26017   -1036.6062    133182.61   -33874.639    2646.2986   -36520.938    121.39405 
   34700    242.83725   -952.53541    133182.61   -33873.175    2588.4937   -36461.668    121.47669 
   34750    245.21151   -1004.9815    133182.61   -33873.981    2613.8019   -36487.783    121.84608 
   34800     242.0664    -1155.123    133182.61   -33871.967     2580.277   -36452.244    121.88286 
   34850    244.07546   -1107.9547    133182.61   -33874.447    2601.6922   -36476.139    121.71536 
   34900    250.25495   -905.76203    133182.61   -33875.305    2667.5618   -36542.867    121.76013 
   34950     248.1471   -1165.0319    133182.61   -33872.659    2645.0934   -36517.752    121.80883 
   35000    245.84999   -1461.5667    133182.61   -33873.103    2620.6077   -36493.711    121.92711 
   35050    245.97661   -1303.2649    133182.61   -33873.866    2621.9573   -36495.823    122.19219 
   35100    247.98882   -1144.6435    133182.61   -33874.282    2643.4062   -36517.688     122.2044 
   35150    241.87771   -1442.2617    133182.61   -33872.385    2578.2656   -36450.651    122.42434 
   35200    244.55106   -1342.4968    133182.61   -33873.578    2606.7619    -36480.34    122.85993 
   35250    241.03833   -1320.6493    133182.61   -33872.083    2569.3184   -36441.401    123.02161 
   35300    245.25878    -1426.808    133182.61   -33873.447    2614.3058   -36487.753    123.47311 
   35350    243.25587   -1199.9236    133182.61   -33873.325    2592.9559   -36466.281     123.4296 
   35400    247.07205   -970.44343    133182.61   -33874.246    2633.6341    -36507.88    123.50613 
   35450    239.12843   -1097.5375    133182.61   -33873.814    2548.9601   -36422.774    123.52603 
   35500     243.3676   -1019.8415    133182.61   -33874.253    2594.1469     -36468.4    123.77055 
   35550    241.74623   -1286.1729    133182.61   -33873.457    2576.8641   -36450.321    123.81967 
   35600    244.10282   -1376.3644    133182.61   -33873.232    2601.9839   -36475.216    124.11389 
   35650     242.2976   -1292.5759    133182.61   -33872.896    2582.7414   -36455.637    124.31094 
   35700    242.67224   -1158.2108    133182.61   -33873.937    2586.7348   -36460.671    124.60028 
   35750    238.95519   -1539.5857    133182.61   -33873.505    2547.1134   -36420.619    124.80423 
   35800     244.6224   -1384.0233    133182.61   -33874.388    2607.5223    -36481.91    124.96975 
   35850    240.16665   -1256.1595    133182.61   -33872.267    2560.0268   -36432.294    125.05531 
   35900     243.1535   -1246.7633    133182.61   -33872.985    2591.8648    -36464.85    125.27906 
   35950    245.91419   -1286.3458    133182.61   -33874.696     2621.292   -36495.988    125.25687 
   36000    241.73077   -1337.7448    133182.61   -33873.364    2576.6993   -36450.064    125.41535 
   36050    243.47342   -1054.4901    133182.61   -33873.213    2595.2749   -36468.488    124.96553 
   36100    241.71614    -1155.362    133182.61   -33872.686    2576.5434    -36449.23    124.91922 
   36150    247.72399   -1014.5578    133182.61   -33874.305    2640.5833   -36514.888    125.36816 
   36200    240.27519   -1420.8889    133182.61   -33872.178    2561.1838   -36433.361     125.1951 
   36250     241.5448   -1027.2514    133182.61   -33873.154    2574.7171   -36447.871    125.37815 
   36300    242.32312   -1217.1123    133182.61    -33873.56    2583.0135   -36456.573    125.62879 
   36350    245.46885    -1271.852    133182.61   -33874.155    2616.5449     -36490.7    125.67784 
   36400    246.95822   -1124.9946    133182.61   -33874.643    2632.4207   -36507.063    125.96428 
   36450    240.75522   -1206.8636    133182.61   -33872.546    2566.3006   -36438.846    125.99927 
   36500    246.92102   -1083.2922    133182.61    -33874.23    2632.0242   -36506.255    126.25797 
   36550    245.55755   -1422.6996    133182.61   -33874.183    2617.4905   -36491.674    126.47697 
   36600    247.77571   -1088.0319    133182.61   -33874.729    2641.1346   -36515.864    126.66275 
   36650    243.47479   -1338.0085    133182.61   -33873.705    2595.2895   -36468.995    126.61387 
   36700    242.64851    -1262.738    133182.61   -33873.043    2586.4819   -36459.525    126.94305 
[...]
  240850    243.20678   -1291.8971    133317.18   -33946.313    2592.4327   -36538.745    733.18564 
  240900    241.07208   -1140.9257    133249.74   -33936.564    2569.6781   -36506.242    733.07207 
  240950    243.10862   -882.16651    133171.32   -33939.566    2591.3864   -36530.952    733.40125 
  241000    241.34072   -1196.2322     133172.8    -33971.11    2572.5416   -36543.652    733.47444 
  241050    240.98046   -1108.3856    133228.45   -34005.724    2568.7015   -36574.426    734.10086 
  241100    242.31743   -1024.7485    133352.85   -33994.805    2582.9528   -36577.757    734.59632 
  241150    243.39486   -1203.3959    133492.27   -33984.507    2594.4375   -36578.944    734.48189 
  241200    244.61531    -1202.149    133569.39   -33983.594    2607.4468   -36591.041    735.17665 
  241250    242.41779   -1268.9397    133578.11    -33971.18    2584.0225   -36555.203    735.65085 
  241300     239.9483   -1290.8804    133521.51   -33981.022    2557.6993   -36538.721    735.05582 
  241350    239.05095   -1382.5125    133408.74    -33965.43    2548.1341   -36513.564    734.72994 
  241400    241.69575   -1407.4271    133302.04   -33976.621     2576.326   -36552.947    735.45311 
  241450    246.09374   -1234.8909    133191.99    -33980.62    2623.2059   -36603.826    735.33557 
  241500    244.05345   -970.76343    133101.89   -33969.542    2601.4576       -36571    735.70483 
  241550    244.97218   -1096.1192    133100.15   -33966.223    2611.2508   -36577.474    735.49255 
  241600    241.30179   -1176.6063    133139.42    -33971.38    2572.1267   -36543.506    735.02734 
  241650    249.74994   -781.03939    133208.14   -33981.021    2662.1787     -36643.2    736.29273 
  241700    242.87316   -863.87447    133389.66     -33964.9    2588.8765   -36553.777    737.33482 
  241750    244.55025   -1021.0258    133618.68   -33944.248    2606.7532   -36551.001    737.22475 
  241800    243.63523   -1348.7132    133860.59   -33936.417    2596.9997   -36533.416    738.30902 
  241850    245.67235   -1264.4359    134065.32   -33941.023    2618.7142   -36559.737    739.86702 
  241900    240.94436   -1392.6344    134190.62   -33933.455    2568.3167   -36501.772    740.17413 
  241950    240.17066   -1285.1435    134168.79   -33939.632    2560.0695   -36499.702    740.46267 
  242000     240.5858   -1549.2043    134013.89   -33919.062    2564.4947   -36483.557    740.52442 
  242050    236.65791   -1445.8785    133704.53   -33933.372    2522.6258   -36455.998    740.19214 
  242100     241.4195   -865.02344    133322.64    -33909.29    2573.3814   -36482.671    739.17678 
  242150    242.50615   -1123.9262    133060.85   -33924.027    2584.9645   -36508.991    739.07544 
  242200      240.276    -1030.906    132910.46   -33909.598    2561.1924    -36470.79    738.34001 
  242250    243.09364   -1159.6385    132887.34   -33890.375    2591.2267   -36481.602    738.75794 
  242300    246.74961   -1284.7888     132933.1   -33866.534     2630.197   -36496.731    739.18893 
  242350    248.08236   -1408.6646    132999.75   -33892.994    2644.4033   -36537.397     739.5744 
  242400    247.10337   -1288.0387    133030.43   -33877.588    2633.9679   -36511.556     739.0712 
  242450    242.33601   -1377.2164    133026.02    -33889.79    2583.1508   -36472.941    738.81074 
  242500    243.64032   -1147.9975    133005.44   -33893.134     2597.054   -36490.188    738.79199 
  242550    247.20562    -1265.951    132985.65   -33864.379    2635.0578   -36499.436     739.2066 
  242600     241.0529   -1222.4765    132989.26    -33840.57    2569.4737   -36410.044    740.16851 
  242650    240.14814   -1211.8558    132973.45   -33857.189    2559.8295   -36417.019    740.44718 
  242700    240.09818   -1262.8516    132974.64   -33842.005     2559.297   -36401.302    740.47414 
  242750    245.28483   -1243.0446    132990.89    -33841.73    2614.5834   -36456.314    740.18661 
  242800    243.15269    -1162.136    133008.06   -33843.532    2591.8561   -36435.388    740.77569 
  242850    244.99246   -1194.0679       133022   -33837.133    2611.4669     -36448.6    740.17749 
  242900    241.11185   -1169.7227    133074.76    -33864.29     2570.102   -36434.392    741.61163 
  242950    245.11946   -1208.9723    133141.57   -33867.654    2612.8207   -36480.475    742.20454 
  243000    238.39131   -1285.8314    133198.31   -33854.706    2541.1028   -36395.808    741.93635 
  243050    243.58183     -1239.62     133219.3   -33861.362    2596.4305   -36457.793     742.0447 
  243100    239.55237   -942.74543       133229   -33848.534    2553.4789   -36402.013    742.12276 
  243150    242.74353   -1186.7798    133250.03   -33840.265    2587.4948   -36427.759    742.12273 
  243200    247.90114   -1004.6099    133287.19   -33823.622    2642.4716   -36466.093     742.4132 
  243250    246.97153   -1438.5441    133368.58   -33796.114    2632.5625   -36428.676    742.85004 
  243300    244.19186   -1286.7285    133431.11   -33777.703    2602.9331   -36380.636     743.0051 
  243350    245.65175   -1328.5045    133472.59   -33760.558    2618.4945   -36379.053    743.54906 
  243400    249.31177   -1203.3586    133487.71    -33772.77     2657.508   -36430.278    743.65488 
  243450    247.42297   -1155.0745    133509.86   -33763.026    2637.3747     -36400.4    743.93822 
  243500    250.92037   -1363.3206    133535.84   -33744.055    2674.6548   -36418.709    744.55267 
  243550    249.50277   -1081.5187    133510.55   -33760.646     2659.544    -36420.19    745.08115 
  243600      246.947   -1289.3452    133471.76   -33767.461    2632.3011   -36399.762    745.06885 
  243650    249.35281    -1298.531    133381.39   -33783.023    2657.9455   -36440.969    744.81922 
  243700    245.33609   -986.69017    133292.11   -33815.848    2615.1298   -36430.978    744.66464 
  243750    238.37641   -1320.1211    133221.11   -33806.611    2540.9439   -36347.555    744.47988 
  243800    244.81441   -973.82434    133157.95   -33782.616     2609.569   -36392.185    744.77118 
  243850    246.46785   -802.13136    133146.44   -33791.559    2627.1937   -36418.753    744.72068 
  243900    243.47005   -1080.0001    133225.85   -33786.312     2595.239   -36381.551    745.22135 
  243950    247.52058   -1075.4177    133350.16   -33772.979    2638.4151   -36411.394    745.85491 
  244000    251.56265   -1269.1733       133556   -33762.341    2681.5011   -36443.842     745.6664 
  244050    248.31358   -1604.7085    133689.84    -33775.92     2646.868   -36422.788    747.04143 
  244100    248.55315   -1344.8543    133694.18   -33755.136    2649.4216   -36404.557    747.12399 
  244150      249.328   -1183.6387    133614.69   -33784.008    2657.6811   -36441.689    747.20524 
  244200    250.28499   -1153.8773    133494.58   -33781.076     2667.882   -36448.958    747.75954 
  244250    255.28398   -1360.1589    133382.08   -33790.345    2721.1681   -36511.513    747.23086 
  244300    243.75229    -1104.779    133269.52   -33817.373    2598.2474   -36415.621    747.03742 
  244350    247.85199   -1037.3879     133217.5   -33818.207    2641.9477   -36460.155    748.36641 
  244400    246.15621   -1057.0873    133188.12   -33806.719    2623.8718   -36430.591    748.09868 
  244450    242.39748   -1188.5232    133174.73   -33821.778     2583.806   -36405.584    748.45569 
  244500    248.07954    -875.1037    133196.48   -33832.072    2644.3733   -36476.445    749.48549 
  244550    250.06597   -1414.3305    133313.93   -33849.207    2665.5474   -36514.755    749.84414 
  244600    250.79775   -1370.3036    133466.11   -33792.153    2673.3477   -36465.501    750.21774 
  244650     247.8601   -1391.0296    133619.86   -33798.451    2642.0342   -36440.485    751.30416 
  244700       247.16   -1089.0776    133747.43   -33820.394    2634.5716   -36454.966    751.34429 
  244750    250.58268   -1357.3221    133790.11   -33803.691    2671.0552   -36474.746    751.69764 
  244800    249.57927   -1086.1835    133732.86    -33802.08    2660.3595   -36462.439    751.72702 
  244850    250.74185   -1177.0665    133631.47   -33797.071    2672.7518   -36469.823    751.97708 
  244900    251.20045   -1193.5244     133487.3   -33819.158    2677.6402   -36496.798    751.53162 
  244950    247.99368   -1287.8205    133349.05   -33832.661     2643.458   -36476.119    751.42071 
  245000    247.41533   -1126.0935    133204.07   -33830.011    2637.2932   -36467.304    751.32145 
  245050    245.96776   -1318.6874    133119.94   -33847.348     2621.863   -36469.211     751.2546 
  245100    242.71199   -1356.4153    133053.72   -33860.556    2587.1586   -36447.715    750.47678 
  245150    242.52022   -1399.9582    133000.98   -33821.699    2585.1144   -36406.813    750.54146 
  245200    248.29051   -1171.2461    132928.85   -33824.505    2646.6221   -36471.127    750.99549 
  245250    245.26323   -1224.7761    132860.22   -33835.803    2614.3531   -36450.156    751.35329 
  245300     251.4395    -1077.559    132834.38   -33832.882    2680.1883   -36513.071    751.21706 
  245350    242.48934   -1336.0353    132856.02   -33859.521    2584.7852   -36444.306    751.56846 
  245400    241.75048   -1312.0112     132914.3   -33860.809    2576.9094   -36437.718    752.13366 
  245450    244.51516   -1204.6444    132984.06    -33849.91    2606.3792    -36456.29    751.89869 
  245500    244.32858   -1187.6043    133063.84   -33841.358    2604.3904   -36445.748    752.38953 
  245550    249.77708   -1618.9372    133121.21   -33834.313     2662.468   -36496.781    752.77162 
  245600    246.30647   -1198.8974    133081.53   -33819.882    2625.4735   -36445.355    752.62688 
  245650    243.50577   -1122.1352    133040.27   -33835.466    2595.6198   -36431.086    753.38377 
  245700    244.62028   -850.95279    133081.45   -33839.018    2607.4997   -36446.518    753.89218 
  245750    244.88148   -1043.8112    133239.84   -33833.951    2610.2839   -36444.235     753.9297 
  245800    247.03884   -1256.9998    133414.26   -33828.417      2633.28   -36461.697    754.16763 
  245850    245.26061   -1321.2381    133549.59   -33825.942    2614.3252   -36440.267    754.51299 
  245900    248.26871   -1263.0781    133624.71   -33829.169    2646.3897   -36475.559    753.94343 
  245950    245.12173    -1349.758    133645.07   -33822.989    2612.8448   -36435.834     754.1061 
  246000    244.18547   -1388.3565    133548.03   -33845.771    2602.8649   -36448.636    753.52417 
  246050    242.90158   -981.29591    133346.82   -33837.692    2589.1794   -36426.872    753.09021 
  246100     247.3735   -1109.6272    133108.72   -33828.503    2636.8473    -36465.35    752.30448 
  246150    249.62747   -1041.9013     132861.4   -33818.978    2660.8733   -36479.851     751.8395 
  246200     247.8561   -1185.2757    132655.08   -33822.962    2641.9915   -36464.954    751.87445 
  246250    243.27429   -1289.5539    132457.07   -33835.886    2593.1523   -36429.038    751.61431 
  246300    247.42017    -796.0341    132306.32   -33822.405    2637.3448    -36459.75    751.39051 
  246350    247.19556   -1357.1801    132304.26   -33842.551    2634.9506   -36477.502    752.47921 
  246400    250.15242   -1170.6334    132349.98   -33834.909    2666.4689   -36501.378    752.72433 
  246450    245.74884   -1119.8554    132406.73   -33793.991    2619.5295   -36413.521    753.46981 
  246500    243.12571   -1191.0073    132472.23   -33792.976    2591.5685   -36384.545    753.67648 
  246550    249.49629   -1182.5444    132533.42   -33793.219     2659.475   -36452.694    754.24836 
  246600    248.56491    -1390.195     132576.6   -33794.853     2649.547     -36444.4    754.63294 
  246650    249.27545   -1040.9127    132555.92   -33808.867    2657.1209   -36465.987    754.69808 
  246700    248.38384   -986.36106    132542.61   -33785.433    2647.6169   -36433.049    754.86552 
  246750    248.99867   -1414.1885    132607.29   -33775.735    2654.1706   -36429.905    755.67708 
  246800    246.73629   -1089.2998    132672.03   -33771.455    2630.0551    -36401.51    756.41806 
  246850     246.9777    -1104.192     132758.9   -33778.233    2632.6283   -36410.861    757.67085 
  246900    250.44631   -732.55353    132887.48   -33734.362    2669.6016   -36403.964    757.35657 
  246950    245.13481   -1249.0989    133037.85   -33741.301    2612.9843   -36354.285    758.10324 
  247000    252.85169   -1179.0076    133141.98   -33735.008    2695.2414    -36430.25    757.88885 
  247050     248.2931   -1109.3549    133170.37   -33743.759    2646.6497   -36390.409    757.15254 
  247100    250.03907   -861.11666     133145.9   -33723.057    2665.2606   -36388.318    757.77704 
  247150    246.54961   -1016.9744     133144.9   -33727.084    2628.0651    -36355.15    757.15916 
  247200     247.5263   -1105.8854    133171.73    -33752.84    2638.4761   -36391.316    757.46305 
  247250     249.6486   -1211.5347    133152.84   -33759.001    2661.0985   -36420.099    757.59547 
  247300    246.30468   -1147.6087    133074.92   -33748.586    2625.4544    -36374.04    757.37725 
  247350    246.79188    -1061.799    133030.64   -33758.065    2630.6476   -36388.712    757.43523 
  247400    246.14533   -1414.8266    132998.43   -33761.333    2623.7558   -36385.089    757.27826 
  247450    249.39584   -1061.9334    132931.22   -33755.203    2658.4043   -36413.607    756.53222 
  247500    250.62044    -1168.169    132858.46   -33733.166    2671.4577   -36404.624    756.51286 
  247550    247.77091   -1205.7248    132835.69   -33713.268    2641.0835   -36354.352    756.35182 
  247600    249.60386   -1097.4057    132840.03   -33725.745    2660.6216   -36386.366    756.53465 
  247650    251.10935   -1156.1664    132862.97   -33719.324    2676.6692   -36395.993    756.63358 
  247700    249.74906   -1156.8025    132861.76   -33734.224    2662.1693   -36396.394    756.62906 
  247750    246.20885   -1160.9846    132894.56   -33744.527    2624.4328    -36368.96    757.05222 
  247800     242.8594   -1391.7959    132925.66   -33776.405    2588.7299   -36365.135    757.52555 
  247850    244.36285   -1240.5327    132951.78   -33779.837    2604.7557   -36384.592    758.07057 
  247900    243.54816    -1249.654    132918.47   -33766.175    2596.0716   -36362.247    758.26229 
  247950    248.30448   -911.04192    132793.68   -33752.479     2646.771    -36399.25    758.39045 
  248000    244.04017   -1357.0296    132679.36    -33742.88    2601.3161   -36344.197    757.89797 
  248050    247.02894     -1049.11    132547.15   -33782.602    2633.1745   -36415.776    758.04642 
  248100    248.94735   -724.61546     132448.6   -33792.063    2653.6236   -36445.686    758.00036 
  248150    246.63584   -958.52234    132460.43   -33788.834    2628.9844   -36417.818    758.52441 
  248200    248.34243   -1158.0695     132585.8    -33804.14    2647.1755   -36451.315    759.16587 
  248250    245.21038   -1139.1052    132753.55   -33827.159    2613.7898   -36440.949    759.18127 
  248300    248.53094   -1032.6279    132954.42   -33811.982    2649.1849   -36461.167    759.26974 
  248350     241.9669   -1287.8303    133158.21   -33802.819    2579.2164   -36382.035    759.86995 
  248400    247.46076   -1250.2577    133259.99   -33795.229    2637.7774   -36433.006    759.62064 
  248450    244.33083   -1183.5829    133270.43   -33791.129    2604.4144   -36395.544    759.77537 
  248500    244.90337    -1367.958    133221.91   -33834.647    2610.5173   -36445.164    759.88305 
  248550    239.25513   -1417.6055    133101.67   -33855.753    2550.3106   -36406.063    759.83844 
  248600    241.37717   -1455.7804    132933.53   -33865.355    2572.9302   -36438.285    759.98104 
  248650    244.04331   -1226.2035    132727.04   -33876.984    2601.3496   -36478.333    760.48347 
  248700    245.61286   -1215.6717    132517.78   -33871.786      2618.08   -36489.866    761.03383 
  248750    245.71241   -785.92933    132359.61   -33868.398    2619.1411   -36487.539    760.97245 
  248800      246.018    -766.7355    132255.72    -33880.76    2622.3986   -36503.159    761.22159 
  248850    244.53577   -1030.9327    132224.27   -33868.134    2606.5989   -36474.733    761.40356 
  248900    242.41966   -901.88397    132272.37   -33862.194    2584.0425   -36446.236    761.46915 
  248950    244.95032   -1046.1679    132417.79   -33838.027    2611.0177   -36449.045    762.29451 
  249000    240.96993   -1105.9758    132601.18   -33826.415    2568.5892   -36395.004    762.66255 
  249050    245.52052   -1153.3675    132720.87   -33850.991    2617.0957   -36468.087    763.25641 
  249100    245.61443   -1369.5252    132803.16    -33857.79    2618.0967   -36475.887    763.93884 
  249150    240.89271   -1018.8938    132826.91   -33856.994    2567.7662    -36424.76     764.0784 
  249200    241.00663    -1222.031    132863.71   -33893.168    2568.9805   -36462.148    763.98471 
  249250    247.88207   -1269.0452    132934.29   -33865.325    2642.2684   -36507.593    763.70012 
  249300    244.56595   -1360.7893    133001.56    -33865.29    2606.9206   -36472.211    764.95283 
  249350    249.29222   -1308.7124    133046.75   -33862.571    2657.2997    -36519.87    765.04871 
  249400    242.40485   -1064.0382    133089.06    -33885.82    2583.8846   -36469.704    765.08185 
  249450    250.48354   -1102.1597    133157.95   -33880.008    2669.9985   -36550.006     765.4017 
  249500    252.49468   -1113.5322    133241.47   -33864.629     2691.436   -36556.065    765.55803 
  249550    250.05796   -1413.9278    133313.58   -33861.981     2665.462   -36527.443    766.51009 
  249600    245.31359   -1042.3172    133358.95   -33870.438      2614.89   -36485.328    766.02296 
  249650    245.03764   -862.72727    133484.07   -33858.011    2611.9486   -36469.959     766.4424 
  249700    249.80731   -966.34599    133658.18   -33829.231    2662.7902   -36492.022    767.85075 
  249750    245.84739    -1081.133    133810.19   -33859.547    2620.5799   -36480.127    767.77661 
  249800    245.65011   -1347.2164    133913.58   -33882.376     2618.477   -36500.853    767.75634 
  249850    242.61558   -1204.4743     133952.1   -33897.896    2586.1309   -36484.027    767.44345 
  249900    244.41302   -1107.4296    133869.72    -33908.82    2605.2904    -36514.11    767.85756 
  249950    238.05525   -1226.8395    133771.51   -33913.544    2537.5206   -36451.065    767.71272 
  250000    242.58588   -1059.2954    133690.35    -33905.26    2585.8143   -36491.074    767.61895 
Loop time of 767.524 on 12 procs for 200000 steps with 6337 atoms

Performance: 225.139 ns/day, 0.107 hours/ns, 260.578 timesteps/s
96.2% CPU use with 12 MPI tasks x no OpenMP threads

MPI task timing breakdown:
Section |  min time  |  avg time  |  max time  |%varavg| %total
---------------------------------------------------------------
Pair    | 117.59     | 244.3      | 494.24     |1100.2 | 31.83
Neigh   | 18.336     | 36.179     | 72.949     | 402.4 |  4.71
Comm    | 140.79     | 425.76     | 569.62     | 944.1 | 55.47
Output  | 0.47363    | 0.49618    | 0.61638    |   5.2 |  0.06
Modify  | 52.464     | 53.614     | 54.329     |   9.5 |  6.99
Other   |            | 7.172      |            |       |  0.93

Nlocal:        528.083 ave         916 max         339 min
Histogram: 8 0 0 0 0 0 0 0 0 4
Nghost:        1660.33 ave        1852 max        1565 min
Histogram: 8 0 0 0 0 0 0 0 2 2
Neighs:        0.00000 ave           0 max           0 min
Histogram: 12 0 0 0 0 0 0 0 0 0
FullNghs:      42303.5 ave      103470 max       12777 min
Histogram: 8 0 0 0 0 0 0 0 0 4

Total # of neighbors = 507642
Ave neighs/atom = 80.107622
Neighbor list builds = 23792
Dangerous builds = 0


# Create data file for import to other simulations
#
write_data data.${NAME}
write_data data.ML_graphite_m1000atm_245K
System init for write_data ...


Total wall time: 0:16:05
