LAMMPS data file via write_data, version 16 Mar 2018, timestep = 100000

4545 atoms
2 atom types

0.0000000000000000e+00 4.9219999999999999e+01 xlo xhi
0.0000000000000000e+00 4.9019635930410494e+01 ylo yhi
1.7343940190400069e+00 3.1900945767481765e+01 zlo zhi

Masses

1 18.015
2 12.01

Atoms # atomic

91 2 0.0000000000000000e+00 2.8417180249513345e+00 3.2384462332653516e+00 0 0 0
93 2 0.0000000000000000e+00 0.0000000000000000e+00 3.2384462332653516e+00 0 0 0
95 2 1.2305000000000001e+00 7.1042950623783474e-01 3.2384462332653516e+00 0 0 0
102 2 1.2305000000000001e+00 2.1312885187134998e+00 3.2384462332653516e+00 0 0 0
104 2 2.4610000000000003e+00 2.8417180249513345e+00 3.2384462332653516e+00 0 0 0
106 2 2.4610000000000003e+00 0.0000000000000000e+00 3.2384462332653516e+00 0 0 0
108 2 3.6915000000000004e+00 7.1042950623783474e-01 3.2384462332653516e+00 0 0 0
123 2 3.6914999999999996e+00 2.1312885187134998e+00 3.2384462332653516e+00 0 0 0
125 2 4.9220000000000006e+00 2.8417180249513332e+00 3.2384462332653516e+00 0 0 0
127 2 4.9220000000000006e+00 0.0000000000000000e+00 3.2384462332653516e+00 0 0 0
129 2 6.1524999999999999e+00 7.1042950623783407e-01 3.2384462332653516e+00 0 0 0
152 2 6.1524999999999999e+00 2.1312885187134989e+00 3.2384462332653516e+00 0 0 0
154 2 7.3829999999999991e+00 2.8417180249513345e+00 3.2384462332653516e+00 0 0 0
156 2 7.3829999999999991e+00 0.0000000000000000e+00 3.2384462332653516e+00 0 0 0
158 2 8.6134999999999984e+00 7.1042950623783407e-01 3.2384462332653516e+00 0 0 0
189 2 8.6134999999999984e+00 2.1312885187135002e+00 3.2384462332653516e+00 0 0 0
191 2 9.8440000000000012e+00 2.8417180249513332e+00 3.2384462332653516e+00 0 0 0
193 2 9.8440000000000012e+00 0.0000000000000000e+00 3.2384462332653516e+00 0 0 0
195 2 1.1074500000000002e+01 7.1042950623783330e-01 3.2384462332653516e+00 0 0 0
234 2 1.1074500000000002e+01 2.1312885187135002e+00 3.2384462332653516e+00 0 0 0
98 2 0.0000000000000000e+00 4.2625770374269996e+00 3.2384462332653516e+00 0 0 0
100 2 1.2305000000000001e+00 4.9730065436648339e+00 3.2384462332653516e+00 0 0 0
115 2 1.2305000000000001e+00 6.3938655561404980e+00 3.2384462332653516e+00 0 0 0
119 2 2.4610000000000003e+00 4.2625770374269996e+00 3.2384462332653516e+00 0 0 0
121 2 3.6914999999999996e+00 4.9730065436648339e+00 3.2384462332653516e+00 0 0 0
144 2 3.6914999999999996e+00 6.3938655561404980e+00 3.2384462332653516e+00 0 0 0
96 2 0.0000000000000000e+00 7.1042950623783341e+00 3.2384462332653516e+00 0 0 0
117 2 2.4610000000000003e+00 7.1042950623783341e+00 3.2384462332653516e+00 0 0 0
148 2 4.9220000000000006e+00 4.2625770374269978e+00 3.2384462332653516e+00 0 0 0
150 2 6.1524999999999999e+00 4.9730065436648339e+00 3.2384462332653516e+00 0 0 0
181 2 6.1524999999999999e+00 6.3938655561404980e+00 3.2384462332653516e+00 0 0 0
185 2 7.3829999999999991e+00 4.2625770374269996e+00 3.2384462332653516e+00 0 0 0
146 2 4.9220000000000006e+00 7.1042950623783341e+00 3.2384462332653516e+00 0 0 0
183 2 7.3830000000000009e+00 7.1042950623783341e+00 3.2384462332653516e+00 0 0 0
187 2 8.6135000000000002e+00 4.9730065436648339e+00 3.2384462332653516e+00 0 0 0
226 2 8.6135000000000002e+00 6.3938655561404980e+00 3.2384462332653516e+00 0 0 0
230 2 9.8440000000000012e+00 4.2625770374270004e+00 3.2384462332653516e+00 0 0 0
232 2 1.1074500000000002e+01 4.9730065436648339e+00 3.2384462332653516e+00 0 0 0
273 2 1.1074500000000002e+01 6.3938655561404980e+00 3.2384462332653516e+00 0 0 0
228 2 9.8440000000000012e+00 7.1042950623783341e+00 3.2384462332653516e+00 0 0 0
111 2 0.0000000000000000e+00 8.5251540748539991e+00 3.2384462332653516e+00 0 0 0
113 2 1.2305000000000001e+00 9.2355835810918343e+00 3.2384462332653516e+00 0 0 0
140 2 2.4610000000000003e+00 8.5251540748539991e+00 3.2384462332653516e+00 0 0 0
142 2 3.6915000000000004e+00 9.2355835810918343e+00 3.2384462332653516e+00 0 0 0
109 2 0.0000000000000000e+00 1.1366872099805333e+01 3.2384462332653516e+00 0 0 0
136 2 1.2305000000000001e+00 1.0656442593567498e+01 3.2384462332653516e+00 0 0 0
138 2 2.4610000000000003e+00 1.1366872099805333e+01 3.2384462332653516e+00 0 0 0
173 2 3.6914999999999996e+00 1.0656442593567499e+01 3.2384462332653516e+00 0 0 0
177 2 4.9220000000000006e+00 8.5251540748539991e+00 3.2384462332653516e+00 0 0 0
179 2 6.1524999999999999e+00 9.2355835810918343e+00 3.2384462332653516e+00 0 0 0
222 2 7.3830000000000009e+00 8.5251540748539991e+00 3.2384462332653516e+00 0 0 0
175 2 4.9220000000000006e+00 1.1366872099805333e+01 3.2384462332653516e+00 0 0 0
218 2 6.1524999999999999e+00 1.0656442593567499e+01 3.2384462332653516e+00 0 0 0
220 2 7.3829999999999991e+00 1.1366872099805333e+01 3.2384462332653516e+00 0 0 0
224 2 8.6134999999999984e+00 9.2355835810918343e+00 3.2384462332653516e+00 0 0 0
269 2 9.8440000000000012e+00 8.5251540748539956e+00 3.2384462332653516e+00 0 0 0
271 2 1.1074500000000002e+01 9.2355835810918343e+00 3.2384462332653516e+00 0 0 0
265 2 8.6134999999999984e+00 1.0656442593567498e+01 3.2384462332653516e+00 0 0 0
267 2 9.8440000000000012e+00 1.1366872099805333e+01 3.2384462332653516e+00 0 0 0
312 2 1.1074500000000002e+01 1.0656442593567498e+01 3.2384462332653516e+00 0 0 0
314 2 1.2304999999999998e+01 1.1366872099805333e+01 3.2384462332653516e+00 0 0 0
92 2 0.0000000000000000e+00 1.4208590124756650e+00 6.2465506617158351e+00 0 0 0
94 2 0.0000000000000000e+00 0.0000000000000000e+00 6.2465506617158351e+00 0 0 0
103 2 1.2305000000000001e+00 2.1312885187134998e+00 6.2465506617158351e+00 0 0 0
105 2 2.4610000000000003e+00 1.4208590124756650e+00 6.2465506617158351e+00 0 0 0
107 2 2.4610000000000003e+00 0.0000000000000000e+00 6.2465506617158351e+00 0 0 0
124 2 3.6914999999999996e+00 2.1312885187134998e+00 6.2465506617158351e+00 0 0 0
420 2 0.0000000000000000e+00 2.8417180249513345e+00 9.2546550901662634e+00 0 0 0
421 2 0.0000000000000000e+00 0.0000000000000000e+00 9.2546550901662634e+00 0 0 0
422 2 1.2305000000000001e+00 7.1042950623783474e-01 9.2546550901662634e+00 0 0 0
426 2 1.2305000000000001e+00 2.1312885187134998e+00 9.2546550901662634e+00 0 0 0
427 2 2.4610000000000003e+00 2.8417180249513345e+00 9.2546550901662634e+00 0 0 0
428 2 2.4610000000000003e+00 0.0000000000000000e+00 9.2546550901662634e+00 0 0 0
429 2 3.6915000000000004e+00 7.1042950623783474e-01 9.2546550901662634e+00 0 0 0
437 2 3.6914999999999996e+00 2.1312885187134998e+00 9.2546550901662634e+00 0 0 0
101 2 1.2305000000000001e+00 3.5521475311891644e+00 6.2465506617158351e+00 0 0 0
122 2 3.6914999999999996e+00 3.5521475311891644e+00 6.2465506617158351e+00 0 0 0
126 2 4.9220000000000006e+00 1.4208590124756650e+00 6.2465506617158351e+00 0 0 0
128 2 4.9220000000000006e+00 0.0000000000000000e+00 6.2465506617158351e+00 0 0 0
153 2 6.1524999999999999e+00 2.1312885187134989e+00 6.2465506617158351e+00 0 0 0
155 2 7.3829999999999991e+00 1.4208590124756659e+00 6.2465506617158351e+00 0 0 0
157 2 7.3829999999999991e+00 0.0000000000000000e+00 6.2465506617158351e+00 0 0 0
438 2 4.9220000000000006e+00 2.8417180249513332e+00 9.2546550901662634e+00 0 0 0
439 2 4.9220000000000006e+00 0.0000000000000000e+00 9.2546550901662634e+00 0 0 0
440 2 6.1524999999999999e+00 7.1042950623783407e-01 9.2546550901662634e+00 0 0 0
452 2 6.1524999999999999e+00 2.1312885187134989e+00 9.2546550901662634e+00 0 0 0
453 2 7.3829999999999991e+00 2.8417180249513345e+00 9.2546550901662634e+00 0 0 0
454 2 7.3829999999999991e+00 0.0000000000000000e+00 9.2546550901662634e+00 0 0 0
151 2 6.1524999999999999e+00 3.5521475311891644e+00 6.2465506617158351e+00 0 0 0
190 2 8.6134999999999984e+00 2.1312885187135002e+00 6.2465506617158351e+00 0 0 0
192 2 9.8440000000000012e+00 1.4208590124756659e+00 6.2465506617158351e+00 0 0 0
194 2 9.8440000000000012e+00 0.0000000000000000e+00 6.2465506617158351e+00 0 0 0
235 2 1.1074500000000002e+01 2.1312885187135002e+00 6.2465506617158351e+00 0 0 0
455 2 8.6134999999999984e+00 7.1042950623783407e-01 9.2546550901662634e+00 0 0 0
471 2 8.6134999999999984e+00 2.1312885187135002e+00 9.2546550901662634e+00 0 0 0
472 2 9.8440000000000012e+00 2.8417180249513332e+00 9.2546550901662634e+00 0 0 0
473 2 9.8440000000000012e+00 0.0000000000000000e+00 9.2546550901662634e+00 0 0 0
474 2 1.1074500000000002e+01 7.1042950623783330e-01 9.2546550901662634e+00 0 0 0
494 2 1.1074500000000002e+01 2.1312885187135002e+00 9.2546550901662634e+00 0 0 0
188 2 8.6134999999999984e+00 3.5521475311891657e+00 6.2465506617158351e+00 0 0 0
233 2 1.1074500000000002e+01 3.5521475311891644e+00 6.2465506617158351e+00 0 0 0
97 2 0.0000000000000000e+00 5.6834360499026637e+00 6.2465506617158351e+00 0 0 0
99 2 0.0000000000000000e+00 4.2625770374269996e+00 6.2465506617158351e+00 0 0 0
116 2 1.2305000000000001e+00 6.3938655561404980e+00 6.2465506617158351e+00 0 0 0
118 2 2.4610000000000003e+00 5.6834360499026637e+00 6.2465506617158351e+00 0 0 0
120 2 2.4610000000000003e+00 4.2625770374269996e+00 6.2465506617158351e+00 0 0 0
145 2 3.6914999999999996e+00 6.3938655561404980e+00 6.2465506617158351e+00 0 0 0
424 2 0.0000000000000000e+00 4.2625770374269996e+00 9.2546550901662634e+00 0 0 0
425 2 1.2305000000000001e+00 4.9730065436648339e+00 9.2546550901662634e+00 0 0 0
433 2 1.2305000000000001e+00 6.3938655561404980e+00 9.2546550901662634e+00 0 0 0
435 2 2.4610000000000003e+00 4.2625770374269996e+00 9.2546550901662634e+00 0 0 0
436 2 3.6914999999999996e+00 4.9730065436648339e+00 9.2546550901662634e+00 0 0 0
448 2 3.6914999999999996e+00 6.3938655561404980e+00 9.2546550901662634e+00 0 0 0
114 2 1.2305000000000001e+00 7.8147245686161639e+00 6.2465506617158351e+00 0 0 0
143 2 3.6914999999999996e+00 7.8147245686161639e+00 6.2465506617158351e+00 0 0 0
423 2 0.0000000000000000e+00 7.1042950623783341e+00 9.2546550901662634e+00 0 0 0
434 2 2.4610000000000003e+00 7.1042950623783341e+00 9.2546550901662634e+00 0 0 0
147 2 4.9220000000000006e+00 5.6834360499026637e+00 6.2465506617158351e+00 0 0 0
149 2 4.9220000000000006e+00 4.2625770374269978e+00 6.2465506617158351e+00 0 0 0
182 2 6.1524999999999999e+00 6.3938655561404980e+00 6.2465506617158351e+00 0 0 0
184 2 7.3829999999999991e+00 5.6834360499026637e+00 6.2465506617158351e+00 0 0 0
186 2 7.3829999999999991e+00 4.2625770374269996e+00 6.2465506617158351e+00 0 0 0
450 2 4.9220000000000006e+00 4.2625770374269978e+00 9.2546550901662634e+00 0 0 0
451 2 6.1524999999999999e+00 4.9730065436648339e+00 9.2546550901662634e+00 0 0 0
467 2 6.1524999999999999e+00 6.3938655561404980e+00 9.2546550901662634e+00 0 0 0
469 2 7.3829999999999991e+00 4.2625770374269996e+00 9.2546550901662634e+00 0 0 0
180 2 6.1524999999999999e+00 7.8147245686161639e+00 6.2465506617158351e+00 0 0 0
449 2 4.9220000000000006e+00 7.1042950623783341e+00 9.2546550901662634e+00 0 0 0
468 2 7.3830000000000009e+00 7.1042950623783341e+00 9.2546550901662634e+00 0 0 0
227 2 8.6135000000000002e+00 6.3938655561404980e+00 6.2465506617158351e+00 0 0 0
229 2 9.8440000000000012e+00 5.6834360499026637e+00 6.2465506617158351e+00 0 0 0
231 2 9.8440000000000012e+00 4.2625770374270004e+00 6.2465506617158351e+00 0 0 0
274 2 1.1074500000000002e+01 6.3938655561404980e+00 6.2465506617158351e+00 0 0 0
470 2 8.6135000000000002e+00 4.9730065436648339e+00 9.2546550901662634e+00 0 0 0
490 2 8.6135000000000002e+00 6.3938655561404980e+00 9.2546550901662634e+00 0 0 0
492 2 9.8440000000000012e+00 4.2625770374270004e+00 9.2546550901662634e+00 0 0 0
493 2 1.1074500000000002e+01 4.9730065436648339e+00 9.2546550901662634e+00 0 0 0
514 2 1.1074500000000002e+01 6.3938655561404980e+00 9.2546550901662634e+00 0 0 0
225 2 8.6135000000000002e+00 7.8147245686161639e+00 6.2465506617158351e+00 0 0 0
272 2 1.1074500000000002e+01 7.8147245686161639e+00 6.2465506617158351e+00 0 0 0
491 2 9.8440000000000012e+00 7.1042950623783341e+00 9.2546550901662634e+00 0 0 0
110 2 0.0000000000000000e+00 9.9460130873296642e+00 6.2465506617158351e+00 0 0 0
112 2 0.0000000000000000e+00 8.5251540748539991e+00 6.2465506617158351e+00 0 0 0
139 2 2.4610000000000003e+00 9.9460130873296642e+00 6.2465506617158351e+00 0 0 0
141 2 2.4610000000000003e+00 8.5251540748539991e+00 6.2465506617158351e+00 0 0 0
431 2 0.0000000000000000e+00 8.5251540748539991e+00 9.2546550901662634e+00 0 0 0
432 2 1.2305000000000001e+00 9.2355835810918343e+00 9.2546550901662634e+00 0 0 0
446 2 2.4610000000000003e+00 8.5251540748539991e+00 9.2546550901662634e+00 0 0 0
447 2 3.6915000000000004e+00 9.2355835810918343e+00 9.2546550901662634e+00 0 0 0
135 2 1.2305000000000001e+00 1.2077301606043163e+01 6.2465506617158351e+00 0 0 0
137 2 1.2305000000000001e+00 1.0656442593567498e+01 6.2465506617158351e+00 0 0 0
172 2 3.6914999999999996e+00 1.2077301606043163e+01 6.2465506617158351e+00 0 0 0
174 2 3.6914999999999996e+00 1.0656442593567499e+01 6.2465506617158351e+00 0 0 0
430 2 0.0000000000000000e+00 1.1366872099805333e+01 9.2546550901662634e+00 0 0 0
444 2 1.2305000000000001e+00 1.0656442593567498e+01 9.2546550901662634e+00 0 0 0
445 2 2.4610000000000003e+00 1.1366872099805333e+01 9.2546550901662634e+00 0 0 0
463 2 3.6914999999999996e+00 1.0656442593567499e+01 9.2546550901662634e+00 0 0 0
176 2 4.9220000000000006e+00 9.9460130873296642e+00 6.2465506617158351e+00 0 0 0
178 2 4.9220000000000006e+00 8.5251540748539991e+00 6.2465506617158351e+00 0 0 0
221 2 7.3830000000000009e+00 9.9460130873296642e+00 6.2465506617158351e+00 0 0 0
223 2 7.3830000000000009e+00 8.5251540748539991e+00 6.2465506617158351e+00 0 0 0
465 2 4.9220000000000006e+00 8.5251540748539991e+00 9.2546550901662634e+00 0 0 0
466 2 6.1524999999999999e+00 9.2355835810918343e+00 9.2546550901662634e+00 0 0 0
488 2 7.3830000000000009e+00 8.5251540748539991e+00 9.2546550901662634e+00 0 0 0
217 2 6.1524999999999999e+00 1.2077301606043163e+01 6.2465506617158351e+00 0 0 0
219 2 6.1524999999999999e+00 1.0656442593567499e+01 6.2465506617158351e+00 0 0 0
464 2 4.9220000000000006e+00 1.1366872099805333e+01 9.2546550901662634e+00 0 0 0
486 2 6.1524999999999999e+00 1.0656442593567499e+01 9.2546550901662634e+00 0 0 0
487 2 7.3829999999999991e+00 1.1366872099805333e+01 9.2546550901662634e+00 0 0 0
268 2 9.8440000000000012e+00 9.9460130873296642e+00 6.2465506617158351e+00 0 0 0
270 2 9.8440000000000012e+00 8.5251540748539956e+00 6.2465506617158351e+00 0 0 0
489 2 8.6134999999999984e+00 9.2355835810918343e+00 9.2546550901662634e+00 0 0 0
512 2 9.8440000000000012e+00 8.5251540748539956e+00 9.2546550901662634e+00 0 0 0
513 2 1.1074500000000002e+01 9.2355835810918343e+00 9.2546550901662634e+00 0 0 0
264 2 8.6135000000000002e+00 1.2077301606043163e+01 6.2465506617158351e+00 0 0 0
266 2 8.6134999999999984e+00 1.0656442593567498e+01 6.2465506617158351e+00 0 0 0
311 2 1.1074500000000002e+01 1.2077301606043163e+01 6.2465506617158351e+00 0 0 0
313 2 1.1074500000000002e+01 1.0656442593567498e+01 6.2465506617158351e+00 0 0 0
510 2 8.6134999999999984e+00 1.0656442593567498e+01 9.2546550901662634e+00 0 0 0
511 2 9.8440000000000012e+00 1.1366872099805333e+01 9.2546550901662634e+00 0 0 0
534 2 1.1074500000000002e+01 1.0656442593567498e+01 9.2546550901662634e+00 0 0 0
535 2 1.2304999999999998e+01 1.1366872099805333e+01 9.2546550901662634e+00 0 0 0
4337 1 1.8551724090932167e+00 5.7952602599306069e-01 1.2173051508377407e+01 1 0 0
3677 1 8.0880465422346490e-02 1.1715913294276191e+01 1.1415091027888733e+01 0 1 0
2310 1 2.3463210853374354e+00 3.2737696386266033e+00 1.1892678428949424e+01 0 0 -1
3647 1 7.4688336881975772e+00 1.3137730623501864e+00 1.1622515945985082e+01 1 0 1
4449 1 9.6293402736857061e+00 1.8811126104160671e+00 1.3130218267285812e+01 0 0 0
3665 1 4.8133377306280325e+00 7.2417258636686839e+00 1.2328986124152360e+01 1 1 -1
4365 1 2.2494483915890697e+00 6.2283836715434475e+00 1.1643087505149394e+01 -1 0 0
584 1 5.2001847237930701e+00 3.1816245377170622e+00 1.1802316523636502e+01 0 0 0
3107 1 6.8941540910686863e+00 5.2919720063819788e+00 1.2608479795659802e+01 0 1 -1
607 1 9.5720171119504194e+00 4.7261908781160802e+00 1.1985794519399045e+01 0 -1 -1
2402 1 1.1754596611678325e+01 6.3912230939030144e+00 1.1665275723983896e+01 0 1 0
1554 1 7.2211193766368780e+00 8.8455517493136337e+00 1.6564543404369068e+01 0 0 0
833 1 5.7276206974705328e+00 9.9098978437253731e+00 1.2107230980252908e+01 1 0 1
2916 1 8.3113083565702865e+00 1.0717896885838455e+01 1.1910413450278595e+01 0 0 0
838 1 1.0724506671682722e+01 9.1880222102344344e+00 1.2456781802506342e+01 0 0 0
4526 1 1.1174577351699568e+01 8.2580300345862998e+00 1.5350550776098320e+01 1 1 0
3843 1 2.3162113469419778e+00 4.0286283244992607e+00 1.4627013271738257e+01 1 1 0
1604 1 3.8034828723130931e-01 8.5260975135240464e+00 1.2118385119501916e+01 0 1 0
4479 1 7.0140365976698220e+00 4.6899628210766489e+00 1.5236288998978708e+01 0 0 0
4523 1 7.0882284915852507e+00 1.0974586680777120e+01 1.4882448822263648e+01 0 0 0
2152 1 9.8784239084773926e+00 3.1630358427152410e+00 1.5789260270519200e+01 -1 0 0
865 1 3.7124206077063193e+00 7.8052182186000776e+00 1.4788637202818633e+01 0 1 1
2379 1 9.8285681244975864e-01 7.1275200367101803e+00 1.4620456742220567e+01 1 0 -1
2131 1 5.5207644602714767e+00 6.5933874475398726e+00 1.6377661229898401e+01 1 0 0
2397 1 4.9580760273519973e+00 2.7771006931567070e+00 1.4798119372758245e+01 0 0 0
1495 1 1.0796633834739485e+01 5.7330783395844023e+00 1.4610973525357293e+01 0 1 0
1407 1 4.1703685318649795e+00 1.0651764095134084e+01 1.4703270262651584e+01 1 1 -1
712 1 3.5138370779721444e+00 1.1675564015594407e+01 1.1723776810181633e+01 0 0 0
583 1 5.8447633334157443e+00 1.6559159330207443e-01 1.3533769813315784e+01 2 1 0
2928 1 1.1744461368827237e+01 1.1207339201479595e+01 1.6200700092643704e+01 0 0 0
3707 1 1.0404482334995564e+00 9.8880893828489214e+00 1.5268827319091223e+01 0 2 0
3869 1 9.4359139599399899e-01 1.2222149918688377e+01 3.0796321261868787e+01 0 0 0
2195 1 2.8503742396517397e+00 1.1582414085833601e+00 1.9432894563865997e+01 2 -1 -1
4443 1 5.2811725953578810e+00 2.2237348722984396e+00 2.0215356721321957e+01 1 0 0
797 1 2.8358824760677330e+00 1.2035080437859952e+01 2.4175568071809760e+01 0 0 1
1635 1 6.7075567231196764e+00 4.5803639562612473e+00 1.9524130408290485e+01 0 1 0
633 1 9.8596407797020618e+00 1.5459068113435281e+00 1.8148265959598376e+01 1 1 0
1598 1 5.0818488673544584e+00 1.9006176545710987e+00 1.7159267486339957e+01 0 0 0
2167 1 3.0517059078571631e-02 9.3274070397535525e+00 2.2051519666696517e+01 1 1 -1
4412 1 4.0890437046077599e+00 5.7299177365234870e+00 1.8760485142618133e+01 1 0 -1
2989 1 2.0229339099176888e+00 3.2370204391446928e+00 1.7516008428577571e+01 1 0 0
764 1 3.7807519853998706e+00 8.5695031778624440e+00 1.8952602509993294e+01 2 -1 0
784 1 1.0289513231162955e+01 8.4470496772157233e+00 2.0314939346478141e+01 0 1 0
592 1 1.1997631962564784e+01 1.0343579810582343e+01 3.0706125040725546e+01 0 -1 0
2345 1 1.4502328655948553e+00 9.6083667179256764e+00 1.8106190993498220e+01 0 1 -1
1364 1 8.7236416788205884e-01 8.4973602214805961e+00 2.6679194627466593e+01 1 0 1
3072 1 9.3629522614545895e+00 6.3421054004631010e+00 3.1082914086750037e+01 1 1 0
863 1 7.9962698685432940e+00 1.0203268574069543e+01 2.0454388306469202e+01 0 0 0
1649 1 6.1536675245107748e+00 9.7254604209638504e+00 3.0990393900178340e+01 2 0 1
2346 1 9.0250869920176520e+00 9.2663014335527620e+00 3.0449245209710408e+01 1 1 0
1417 1 4.2460093546980406e+00 2.6212011419605283e+00 2.4740905989490646e+01 0 1 0
1652 1 6.1024559973650057e+00 1.0141675778536490e+01 1.8633385286825220e+01 -1 0 1
3609 1 2.2355609013095172e+00 9.6413777818469217e+00 3.0711477638518225e+01 1 0 0
626 1 6.7575812984142019e+00 2.9330795803348826e+00 2.3512606361755488e+01 0 0 0
4497 1 8.1698847939899704e+00 6.2165325211176492e-01 2.2471970243114527e+01 0 1 0
703 1 9.3498671843229424e+00 2.8182622787192058e+00 2.0676784774938273e+01 1 0 0
1413 1 1.2714009288422370e+00 5.6380491493301337e+00 1.9554715491820023e+01 1 1 1
3781 1 9.8820758314247248e-01 5.3596947592305026e+00 2.4656051699517928e+01 1 1 0
4515 1 7.7383571628596215e+00 5.0882164411920403e+00 2.2150058122854258e+01 0 1 0
1370 1 5.3592076188524400e+00 6.3288097564681554e+00 2.3061593623974417e+01 0 -1 -1
2370 1 3.8582019075081315e+00 8.3476893267200385e+00 2.1853497745006340e+01 2 0 1
2165 1 1.0613668996429441e+01 5.5733546111137482e+00 2.0202740314935387e+01 0 0 0
1603 1 1.1334096835788474e+01 1.1540640564395764e+01 2.2434246030849579e+01 0 -1 0
4368 1 9.9531361037099639e+00 7.0231914455956090e+00 2.3132558712736337e+01 -1 1 0
1536 1 1.4171374402922940e+00 6.9122511505280668e+00 2.2095640742210936e+01 1 0 0
48 1 7.4300990621414487e+00 4.3578679138048815e-01 1.7011112056637831e+01 0 1 1
2305 1 4.2741089807812962e+00 1.1144878432839564e+01 2.1830208711478072e+01 0 1 0
2204 1 6.8082262451504532e+00 1.0379001233532206e+01 2.3192440729984369e+01 1 0 -1
795 1 8.2444070337932036e+00 8.2558603011420595e-01 2.7356268184426074e+01 1 1 0
3027 1 1.3086838068512916e+00 2.6388688233552378e+00 2.4099547215133416e+01 1 0 -1
4406 1 4.7973677042189440e+00 3.2409827679864436e+00 2.7354231164127810e+01 0 0 -1
3141 1 5.7050675122641072e+00 8.8728175570050993e-01 2.8271880483186955e+01 -1 0 1
1553 1 4.1025788727201640e+00 6.6038177740375188e+00 2.7791727038659577e+01 0 1 0
1473 1 7.7638163809380645e+00 3.3538783487960284e+00 2.6177598087295603e+01 -1 1 0
1590 1 9.9057172670051958e+00 4.5271909003285442e+00 2.4872238136998259e+01 0 0 0
4408 1 3.7121713836863686e+00 5.4515271479267202e+00 2.5182063754892248e+01 -1 0 0
1612 1 2.1785630124453688e+00 4.8178771504955806e+00 2.9046194835715784e+01 0 1 0
2887 1 1.1272350582174282e+01 2.8145201706192452e-01 3.1059833567202784e+01 1 0 -1
2121 1 6.6849812027082569e+00 5.3888984195874530e+00 2.7967000167632090e+01 1 0 1
3688 1 7.1069068674866847e+00 7.8895124096234834e+00 2.7253785639638402e+01 1 1 0
1541 1 7.3672554529162690e+00 7.8886348231069796e+00 2.4496803809550357e+01 0 0 0
866 1 1.1588794811588158e+01 5.5896748359072559e+00 2.7024945799635070e+01 -1 0 -1
3885 1 4.3549159517166558e+00 1.1099516150065522e+01 2.6265150309416370e+01 1 -1 0
2404 1 3.1053003771850900e+00 9.1710536871399757e+00 2.8042594504840114e+01 1 0 0
4383 1 9.5322037710281151e+00 7.9559505980174698e+00 1.7483011269962066e+01 0 -1 0
3729 1 1.1978281048609272e+01 2.3169153483088820e+00 2.0908543963724679e+01 -1 1 0
2136 1 9.5937612305240894e+00 7.2233527704144311e+00 2.8252494569834262e+01 1 1 0
2886 1 1.1473225699796119e+01 9.2850665906362480e+00 2.7895643862903103e+01 1 0 0
4438 1 8.3912275027095573e-01 7.0943877845961234e-01 2.1745911713610298e+01 1 1 0
3674 1 1.0772473066977804e+01 8.9424517821583951e+00 2.5030491739201221e+01 -1 0 0
655 1 1.2474182559897098e+00 7.0525293769053798e-01 2.7940976585565494e+01 0 0 -1
877 1 4.6206326667450064e+00 1.0717454621586315e+00 3.0983626331423501e+01 1 2 0
2306 1 4.6774325283076399e+00 1.2064781796361208e+01 3.1082258827444285e+01 1 0 -1
3735 1 6.6834951651521637e+00 2.4628150082504829e+00 3.1158757012329009e+01 1 0 0
73 1 6.7240541761382975e+00 5.4068874013006001e+00 3.0736382763645075e+01 0 -1 0
681 1 9.1139563606312244e+00 1.8905893936051728e+00 2.9982773361356390e+01 0 -1 -1
755 1 1.0732446857301369e+01 4.3641323159915002e+00 2.9662179337407046e+01 0 1 1
771 1 9.2246937185926079e+00 5.1231688072432222e+00 1.7843948660666317e+01 0 0 0
2901 1 2.1759513635505572e+00 2.3184567859885874e+00 3.0011581931590047e+01 1 1 1
29 1 6.6104294389039238e+00 1.0378201345835324e+01 2.8189327446708479e+01 2 1 0
2899 1 4.5633366777848083e+00 7.3417003147105522e+00 3.0946644931126922e+01 0 -1 0
3778 1 5.6043338146193478e-01 1.1340065776257438e+01 2.0481867661012814e+01 1 1 -1
79 1 9.4650655681925731e+00 1.1122948102719041e+01 2.4234950963649624e+01 0 -1 0
2260 1 5.1244070133041797e-01 1.0560736263898972e+01 2.4724999145993657e+01 0 0 -1
4472 1 1.7906139992983824e-01 5.5940967913424524e+00 3.1107519983675203e+01 1 -1 0
2971 1 1.1972220720884422e+01 1.1660422553356913e+01 1.8931946214551129e+01 0 1 0
779 1 2.8726288495713077e+00 1.2144827101230598e+01 1.7017821290366960e+01 1 0 -1
132 2 0.0000000000000000e+00 1.2787731112280996e+01 3.2384462332653516e+00 0 0 0
134 2 1.2305000000000001e+00 1.3498160618518829e+01 3.2384462332653516e+00 0 0 0
169 2 2.4610000000000003e+00 1.2787731112280996e+01 3.2384462332653516e+00 0 0 0
171 2 3.6915000000000004e+00 1.3498160618518829e+01 3.2384462332653516e+00 0 0 0
130 2 0.0000000000000000e+00 1.5629449137232333e+01 3.2384462332653516e+00 0 0 0
165 2 1.2305000000000001e+00 1.4919019630994494e+01 3.2384462332653516e+00 0 0 0
167 2 2.4610000000000003e+00 1.5629449137232328e+01 3.2384462332653516e+00 0 0 0
210 2 3.6915000000000004e+00 1.4919019630994494e+01 3.2384462332653516e+00 0 0 0
214 2 4.9220000000000006e+00 1.2787731112280996e+01 3.2384462332653516e+00 0 0 0
216 2 6.1524999999999990e+00 1.3498160618518829e+01 3.2384462332653516e+00 0 0 0
261 2 7.3829999999999991e+00 1.2787731112280996e+01 3.2384462332653516e+00 0 0 0
212 2 4.9220000000000006e+00 1.5629449137232333e+01 3.2384462332653516e+00 0 0 0
257 2 6.1524999999999990e+00 1.4919019630994494e+01 3.2384462332653516e+00 0 0 0
259 2 7.3829999999999991e+00 1.5629449137232333e+01 3.2384462332653516e+00 0 0 0
263 2 8.6135000000000002e+00 1.3498160618518835e+01 3.2384462332653516e+00 0 0 0
308 2 9.8440000000000012e+00 1.2787731112280996e+01 3.2384462332653516e+00 0 0 0
310 2 1.1074500000000002e+01 1.3498160618518829e+01 3.2384462332653516e+00 0 0 0
304 2 8.6135000000000002e+00 1.4919019630994494e+01 3.2384462332653516e+00 0 0 0
306 2 9.8440000000000012e+00 1.5629449137232328e+01 3.2384462332653516e+00 0 0 0
346 2 1.1074500000000002e+01 1.4919019630994494e+01 3.2384462332653516e+00 0 0 0
161 2 0.0000000000000000e+00 1.7050308149707998e+01 3.2384462332653516e+00 0 0 0
206 2 2.4610000000000003e+00 1.7050308149707998e+01 3.2384462332653516e+00 0 0 0
159 2 0.0000000000000000e+00 1.9892026174659328e+01 3.2384462332653516e+00 0 0 0
163 2 1.2305000000000001e+00 1.7760737655945832e+01 3.2384462332653516e+00 0 0 0
202 2 1.2305000000000001e+00 1.9181596668421495e+01 3.2384462332653516e+00 0 0 0
204 2 2.4610000000000003e+00 1.9892026174659328e+01 3.2384462332653516e+00 0 0 0
208 2 3.6914999999999996e+00 1.7760737655945832e+01 3.2384462332653516e+00 0 0 0
249 2 3.6914999999999996e+00 1.9181596668421495e+01 3.2384462332653516e+00 0 0 0
253 2 4.9220000000000006e+00 1.7050308149707998e+01 3.2384462332653516e+00 0 0 0
300 2 7.3830000000000009e+00 1.7050308149707998e+01 3.2384462332653516e+00 0 0 0
251 2 4.9220000000000006e+00 1.9892026174659328e+01 3.2384462332653516e+00 0 0 0
255 2 6.1524999999999999e+00 1.7760737655945832e+01 3.2384462332653516e+00 0 0 0
296 2 6.1524999999999999e+00 1.9181596668421495e+01 3.2384462332653516e+00 0 0 0
298 2 7.3829999999999991e+00 1.9892026174659328e+01 3.2384462332653516e+00 0 0 0
342 2 9.8440000000000012e+00 1.7050308149707998e+01 3.2384462332653516e+00 0 0 0
376 2 1.2304999999999998e+01 1.7050308149707998e+01 3.2384462332653516e+00 0 0 0
302 2 8.6134999999999984e+00 1.7760737655945832e+01 3.2384462332653516e+00 0 0 0
338 2 8.6135000000000002e+00 1.9181596668421495e+01 3.2384462332653516e+00 0 0 0
340 2 9.8440000000000012e+00 1.9892026174659335e+01 3.2384462332653516e+00 0 0 0
344 2 1.1074500000000002e+01 1.7760737655945835e+01 3.2384462332653516e+00 0 0 0
372 2 1.1074500000000002e+01 1.9181596668421495e+01 3.2384462332653516e+00 0 0 0
196 2 0.0000000000000000e+00 2.4154603212086325e+01 3.2384462332653516e+00 0 0 0
198 2 0.0000000000000000e+00 2.1312885187134999e+01 3.2384462332653516e+00 0 0 0
200 2 1.2304999999999993e+00 2.2023314693372832e+01 3.2384462332653516e+00 0 0 0
241 2 1.2304999999999993e+00 2.3444173705848499e+01 3.2384462332653516e+00 0 0 0
243 2 2.4610000000000003e+00 2.4154603212086325e+01 3.2384462332653516e+00 0 0 0
245 2 2.4610000000000003e+00 2.1312885187134995e+01 3.2384462332653516e+00 0 0 0
247 2 3.6914999999999996e+00 2.2023314693372832e+01 3.2384462332653516e+00 0 0 0
288 2 3.6915000000000004e+00 2.3444173705848499e+01 3.2384462332653516e+00 0 0 0
290 2 4.9220000000000006e+00 2.4154603212086325e+01 3.2384462332653516e+00 0 0 0
292 2 4.9220000000000006e+00 2.1312885187134995e+01 3.2384462332653516e+00 0 0 0
294 2 6.1524999999999990e+00 2.2023314693372832e+01 3.2384462332653516e+00 0 0 0
330 2 6.1524999999999999e+00 2.3444173705848499e+01 3.2384462332653516e+00 0 0 0
332 2 7.3830000000000009e+00 2.4154603212086336e+01 3.2384462332653516e+00 0 0 0
334 2 7.3829999999999991e+00 2.1312885187134999e+01 3.2384462332653516e+00 0 0 0
336 2 8.6135000000000002e+00 2.2023314693372832e+01 3.2384462332653516e+00 0 0 0
364 2 8.6134999999999984e+00 2.3444173705848499e+01 3.2384462332653516e+00 0 0 0
366 2 9.8440000000000012e+00 2.4154603212086336e+01 3.2384462332653516e+00 0 0 0
368 2 9.8440000000000012e+00 2.1312885187134999e+01 3.2384462332653516e+00 0 0 0
370 2 1.1074500000000002e+01 2.2023314693372832e+01 3.2384462332653516e+00 0 0 0
390 2 1.1074500000000002e+01 2.3444173705848499e+01 3.2384462332653516e+00 0 0 0
133 2 0.0000000000000000e+00 1.2787731112280996e+01 6.2465506617158351e+00 0 0 0
170 2 2.4610000000000003e+00 1.2787731112280996e+01 6.2465506617158351e+00 0 0 0
442 2 0.0000000000000000e+00 1.2787731112280996e+01 9.2546550901662634e+00 0 0 0
443 2 1.2305000000000001e+00 1.3498160618518829e+01 9.2546550901662634e+00 0 0 0
461 2 2.4610000000000003e+00 1.2787731112280996e+01 9.2546550901662634e+00 0 0 0
462 2 3.6915000000000004e+00 1.3498160618518829e+01 9.2546550901662634e+00 0 0 0
131 2 0.0000000000000000e+00 1.4208590124756663e+01 6.2465506617158351e+00 0 0 0
166 2 1.2305000000000001e+00 1.4919019630994494e+01 6.2465506617158351e+00 0 0 0
168 2 2.4610000000000003e+00 1.4208590124756663e+01 6.2465506617158351e+00 0 0 0
211 2 3.6915000000000004e+00 1.4919019630994494e+01 6.2465506617158351e+00 0 0 0
441 2 0.0000000000000000e+00 1.5629449137232333e+01 9.2546550901662634e+00 0 0 0
459 2 1.2305000000000001e+00 1.4919019630994494e+01 9.2546550901662634e+00 0 0 0
460 2 2.4610000000000003e+00 1.5629449137232328e+01 9.2546550901662634e+00 0 0 0
482 2 3.6915000000000004e+00 1.4919019630994494e+01 9.2546550901662634e+00 0 0 0
215 2 4.9220000000000006e+00 1.2787731112280996e+01 6.2465506617158351e+00 0 0 0