LAMMPS data file via write_data, version 16 Mar 2018, timestep = 8000000

4545 atoms
2 atom types

0.0000000000000000e+00 4.9219999999999999e+01 xlo xhi
0.0000000000000000e+00 4.9019635930410494e+01 ylo yhi
6.5102073662657389e-01 3.2984319049887262e+01 zlo zhi

Masses

1 18.015
2 12.01

Atoms # atomic

91 2 0.0000000000000000e+00 2.8417180249513345e+00 2.2631031955967158e+00 0 0 0
93 2 0.0000000000000000e+00 0.0000000000000000e+00 2.2631031955967158e+00 0 0 0
95 2 1.2305000000000001e+00 7.1042950623783474e-01 2.2631031955967158e+00 0 0 0
102 2 1.2305000000000001e+00 2.1312885187134998e+00 2.2631031955967158e+00 0 0 0
104 2 2.4610000000000003e+00 2.8417180249513345e+00 2.2631031955967158e+00 0 0 0
106 2 2.4610000000000003e+00 0.0000000000000000e+00 2.2631031955967158e+00 0 0 0
108 2 3.6915000000000004e+00 7.1042950623783474e-01 2.2631031955967158e+00 0 0 0
123 2 3.6914999999999996e+00 2.1312885187134998e+00 2.2631031955967158e+00 0 0 0
125 2 4.9220000000000006e+00 2.8417180249513332e+00 2.2631031955967158e+00 0 0 0
127 2 4.9220000000000006e+00 0.0000000000000000e+00 2.2631031955967158e+00 0 0 0
129 2 6.1524999999999999e+00 7.1042950623783407e-01 2.2631031955967158e+00 0 0 0
152 2 6.1524999999999999e+00 2.1312885187134989e+00 2.2631031955967158e+00 0 0 0
154 2 7.3829999999999991e+00 2.8417180249513345e+00 2.2631031955967158e+00 0 0 0
156 2 7.3829999999999991e+00 0.0000000000000000e+00 2.2631031955967158e+00 0 0 0
158 2 8.6134999999999984e+00 7.1042950623783407e-01 2.2631031955967158e+00 0 0 0
189 2 8.6134999999999984e+00 2.1312885187135002e+00 2.2631031955967158e+00 0 0 0
191 2 9.8440000000000012e+00 2.8417180249513332e+00 2.2631031955967158e+00 0 0 0
193 2 9.8440000000000012e+00 0.0000000000000000e+00 2.2631031955967158e+00 0 0 0
195 2 1.1074500000000002e+01 7.1042950623783330e-01 2.2631031955967158e+00 0 0 0
234 2 1.1074500000000002e+01 2.1312885187135002e+00 2.2631031955967158e+00 0 0 0
98 2 0.0000000000000000e+00 4.2625770374269996e+00 2.2631031955967158e+00 0 0 0
100 2 1.2305000000000001e+00 4.9730065436648339e+00 2.2631031955967158e+00 0 0 0
115 2 1.2305000000000001e+00 6.3938655561404980e+00 2.2631031955967158e+00 0 0 0
119 2 2.4610000000000003e+00 4.2625770374269996e+00 2.2631031955967158e+00 0 0 0
121 2 3.6914999999999996e+00 4.9730065436648339e+00 2.2631031955967158e+00 0 0 0
144 2 3.6914999999999996e+00 6.3938655561404980e+00 2.2631031955967158e+00 0 0 0
96 2 0.0000000000000000e+00 7.1042950623783341e+00 2.2631031955967158e+00 0 0 0
117 2 2.4610000000000003e+00 7.1042950623783341e+00 2.2631031955967158e+00 0 0 0
148 2 4.9220000000000006e+00 4.2625770374269978e+00 2.2631031955967158e+00 0 0 0
150 2 6.1524999999999999e+00 4.9730065436648339e+00 2.2631031955967158e+00 0 0 0
181 2 6.1524999999999999e+00 6.3938655561404980e+00 2.2631031955967158e+00 0 0 0
185 2 7.3829999999999991e+00 4.2625770374269996e+00 2.2631031955967158e+00 0 0 0
146 2 4.9220000000000006e+00 7.1042950623783341e+00 2.2631031955967158e+00 0 0 0
183 2 7.3830000000000009e+00 7.1042950623783341e+00 2.2631031955967158e+00 0 0 0
187 2 8.6135000000000002e+00 4.9730065436648339e+00 2.2631031955967158e+00 0 0 0
226 2 8.6135000000000002e+00 6.3938655561404980e+00 2.2631031955967158e+00 0 0 0
230 2 9.8440000000000012e+00 4.2625770374270004e+00 2.2631031955967158e+00 0 0 0
232 2 1.1074500000000002e+01 4.9730065436648339e+00 2.2631031955967158e+00 0 0 0
273 2 1.1074500000000002e+01 6.3938655561404980e+00 2.2631031955967158e+00 0 0 0
228 2 9.8440000000000012e+00 7.1042950623783341e+00 2.2631031955967158e+00 0 0 0
111 2 0.0000000000000000e+00 8.5251540748539991e+00 2.2631031955967158e+00 0 0 0
113 2 1.2305000000000001e+00 9.2355835810918343e+00 2.2631031955967158e+00 0 0 0
140 2 2.4610000000000003e+00 8.5251540748539991e+00 2.2631031955967158e+00 0 0 0
142 2 3.6915000000000004e+00 9.2355835810918343e+00 2.2631031955967158e+00 0 0 0
109 2 0.0000000000000000e+00 1.1366872099805333e+01 2.2631031955967158e+00 0 0 0
136 2 1.2305000000000001e+00 1.0656442593567498e+01 2.2631031955967158e+00 0 0 0
138 2 2.4610000000000003e+00 1.1366872099805333e+01 2.2631031955967158e+00 0 0 0
173 2 3.6914999999999996e+00 1.0656442593567499e+01 2.2631031955967158e+00 0 0 0
177 2 4.9220000000000006e+00 8.5251540748539991e+00 2.2631031955967158e+00 0 0 0
179 2 6.1524999999999999e+00 9.2355835810918343e+00 2.2631031955967158e+00 0 0 0
222 2 7.3830000000000009e+00 8.5251540748539991e+00 2.2631031955967158e+00 0 0 0
175 2 4.9220000000000006e+00 1.1366872099805333e+01 2.2631031955967158e+00 0 0 0
218 2 6.1524999999999999e+00 1.0656442593567499e+01 2.2631031955967158e+00 0 0 0
220 2 7.3829999999999991e+00 1.1366872099805333e+01 2.2631031955967158e+00 0 0 0
224 2 8.6134999999999984e+00 9.2355835810918343e+00 2.2631031955967158e+00 0 0 0
269 2 9.8440000000000012e+00 8.5251540748539956e+00 2.2631031955967158e+00 0 0 0
271 2 1.1074500000000002e+01 9.2355835810918343e+00 2.2631031955967158e+00 0 0 0
265 2 8.6134999999999984e+00 1.0656442593567498e+01 2.2631031955967158e+00 0 0 0
267 2 9.8440000000000012e+00 1.1366872099805333e+01 2.2631031955967158e+00 0 0 0
312 2 1.1074500000000002e+01 1.0656442593567498e+01 2.2631031955967158e+00 0 0 0
314 2 1.2304999999999998e+01 1.1366872099805333e+01 2.2631031955967158e+00 0 0 0
92 2 0.0000000000000000e+00 1.4208590124756650e+00 5.4872681135322887e+00 0 0 0
94 2 0.0000000000000000e+00 0.0000000000000000e+00 5.4872681135322887e+00 0 0 0
103 2 1.2305000000000001e+00 2.1312885187134998e+00 5.4872681135322887e+00 0 0 0
105 2 2.4610000000000003e+00 1.4208590124756650e+00 5.4872681135322887e+00 0 0 0
107 2 2.4610000000000003e+00 0.0000000000000000e+00 5.4872681135322887e+00 0 0 0
124 2 3.6914999999999996e+00 2.1312885187134998e+00 5.4872681135322887e+00 0 0 0
420 2 0.0000000000000000e+00 2.8417180249513345e+00 8.7114330314732378e+00 0 0 0
421 2 0.0000000000000000e+00 0.0000000000000000e+00 8.7114330314732378e+00 0 0 0
422 2 1.2305000000000001e+00 7.1042950623783474e-01 8.7114330314732378e+00 0 0 0
426 2 1.2305000000000001e+00 2.1312885187134998e+00 8.7114330314732378e+00 0 0 0
427 2 2.4610000000000003e+00 2.8417180249513345e+00 8.7114330314732378e+00 0 0 0
428 2 2.4610000000000003e+00 0.0000000000000000e+00 8.7114330314732378e+00 0 0 0
429 2 3.6915000000000004e+00 7.1042950623783474e-01 8.7114330314732378e+00 0 0 0
437 2 3.6914999999999996e+00 2.1312885187134998e+00 8.7114330314732378e+00 0 0 0
101 2 1.2305000000000001e+00 3.5521475311891644e+00 5.4872681135322887e+00 0 0 0
122 2 3.6914999999999996e+00 3.5521475311891644e+00 5.4872681135322887e+00 0 0 0
126 2 4.9220000000000006e+00 1.4208590124756650e+00 5.4872681135322887e+00 0 0 0
128 2 4.9220000000000006e+00 0.0000000000000000e+00 5.4872681135322887e+00 0 0 0
153 2 6.1524999999999999e+00 2.1312885187134989e+00 5.4872681135322887e+00 0 0 0
155 2 7.3829999999999991e+00 1.4208590124756659e+00 5.4872681135322887e+00 0 0 0
157 2 7.3829999999999991e+00 0.0000000000000000e+00 5.4872681135322887e+00 0 0 0
438 2 4.9220000000000006e+00 2.8417180249513332e+00 8.7114330314732378e+00 0 0 0
439 2 4.9220000000000006e+00 0.0000000000000000e+00 8.7114330314732378e+00 0 0 0
440 2 6.1524999999999999e+00 7.1042950623783407e-01 8.7114330314732378e+00 0 0 0
452 2 6.1524999999999999e+00 2.1312885187134989e+00 8.7114330314732378e+00 0 0 0
453 2 7.3829999999999991e+00 2.8417180249513345e+00 8.7114330314732378e+00 0 0 0
454 2 7.3829999999999991e+00 0.0000000000000000e+00 8.7114330314732378e+00 0 0 0
151 2 6.1524999999999999e+00 3.5521475311891644e+00 5.4872681135322887e+00 0 0 0
190 2 8.6134999999999984e+00 2.1312885187135002e+00 5.4872681135322887e+00 0 0 0
192 2 9.8440000000000012e+00 1.4208590124756659e+00 5.4872681135322887e+00 0 0 0
194 2 9.8440000000000012e+00 0.0000000000000000e+00 5.4872681135322887e+00 0 0 0
235 2 1.1074500000000002e+01 2.1312885187135002e+00 5.4872681135322887e+00 0 0 0
455 2 8.6134999999999984e+00 7.1042950623783407e-01 8.7114330314732378e+00 0 0 0
471 2 8.6134999999999984e+00 2.1312885187135002e+00 8.7114330314732378e+00 0 0 0
472 2 9.8440000000000012e+00 2.8417180249513332e+00 8.7114330314732378e+00 0 0 0
473 2 9.8440000000000012e+00 0.0000000000000000e+00 8.7114330314732378e+00 0 0 0
474 2 1.1074500000000002e+01 7.1042950623783330e-01 8.7114330314732378e+00 0 0 0
494 2 1.1074500000000002e+01 2.1312885187135002e+00 8.7114330314732378e+00 0 0 0
188 2 8.6134999999999984e+00 3.5521475311891657e+00 5.4872681135322887e+00 0 0 0
233 2 1.1074500000000002e+01 3.5521475311891644e+00 5.4872681135322887e+00 0 0 0
97 2 0.0000000000000000e+00 5.6834360499026637e+00 5.4872681135322887e+00 0 0 0
99 2 0.0000000000000000e+00 4.2625770374269996e+00 5.4872681135322887e+00 0 0 0
116 2 1.2305000000000001e+00 6.3938655561404980e+00 5.4872681135322887e+00 0 0 0
118 2 2.4610000000000003e+00 5.6834360499026637e+00 5.4872681135322887e+00 0 0 0
120 2 2.4610000000000003e+00 4.2625770374269996e+00 5.4872681135322887e+00 0 0 0
145 2 3.6914999999999996e+00 6.3938655561404980e+00 5.4872681135322887e+00 0 0 0
424 2 0.0000000000000000e+00 4.2625770374269996e+00 8.7114330314732378e+00 0 0 0
425 2 1.2305000000000001e+00 4.9730065436648339e+00 8.7114330314732378e+00 0 0 0
433 2 1.2305000000000001e+00 6.3938655561404980e+00 8.7114330314732378e+00 0 0 0
435 2 2.4610000000000003e+00 4.2625770374269996e+00 8.7114330314732378e+00 0 0 0
436 2 3.6914999999999996e+00 4.9730065436648339e+00 8.7114330314732378e+00 0 0 0
448 2 3.6914999999999996e+00 6.3938655561404980e+00 8.7114330314732378e+00 0 0 0
114 2 1.2305000000000001e+00 7.8147245686161639e+00 5.4872681135322887e+00 0 0 0
143 2 3.6914999999999996e+00 7.8147245686161639e+00 5.4872681135322887e+00 0 0 0
423 2 0.0000000000000000e+00 7.1042950623783341e+00 8.7114330314732378e+00 0 0 0
434 2 2.4610000000000003e+00 7.1042950623783341e+00 8.7114330314732378e+00 0 0 0
147 2 4.9220000000000006e+00 5.6834360499026637e+00 5.4872681135322887e+00 0 0 0
149 2 4.9220000000000006e+00 4.2625770374269978e+00 5.4872681135322887e+00 0 0 0
182 2 6.1524999999999999e+00 6.3938655561404980e+00 5.4872681135322887e+00 0 0 0
184 2 7.3829999999999991e+00 5.6834360499026637e+00 5.4872681135322887e+00 0 0 0
186 2 7.3829999999999991e+00 4.2625770374269996e+00 5.4872681135322887e+00 0 0 0
450 2 4.9220000000000006e+00 4.2625770374269978e+00 8.7114330314732378e+00 0 0 0
451 2 6.1524999999999999e+00 4.9730065436648339e+00 8.7114330314732378e+00 0 0 0
467 2 6.1524999999999999e+00 6.3938655561404980e+00 8.7114330314732378e+00 0 0 0
469 2 7.3829999999999991e+00 4.2625770374269996e+00 8.7114330314732378e+00 0 0 0
180 2 6.1524999999999999e+00 7.8147245686161639e+00 5.4872681135322887e+00 0 0 0
449 2 4.9220000000000006e+00 7.1042950623783341e+00 8.7114330314732378e+00 0 0 0
468 2 7.3830000000000009e+00 7.1042950623783341e+00 8.7114330314732378e+00 0 0 0
227 2 8.6135000000000002e+00 6.3938655561404980e+00 5.4872681135322887e+00 0 0 0
229 2 9.8440000000000012e+00 5.6834360499026637e+00 5.4872681135322887e+00 0 0 0
231 2 9.8440000000000012e+00 4.2625770374270004e+00 5.4872681135322887e+00 0 0 0
274 2 1.1074500000000002e+01 6.3938655561404980e+00 5.4872681135322887e+00 0 0 0
470 2 8.6135000000000002e+00 4.9730065436648339e+00 8.7114330314732378e+00 0 0 0
490 2 8.6135000000000002e+00 6.3938655561404980e+00 8.7114330314732378e+00 0 0 0
492 2 9.8440000000000012e+00 4.2625770374270004e+00 8.7114330314732378e+00 0 0 0
493 2 1.1074500000000002e+01 4.9730065436648339e+00 8.7114330314732378e+00 0 0 0
514 2 1.1074500000000002e+01 6.3938655561404980e+00 8.7114330314732378e+00 0 0 0
225 2 8.6135000000000002e+00 7.8147245686161639e+00 5.4872681135322887e+00 0 0 0
272 2 1.1074500000000002e+01 7.8147245686161639e+00 5.4872681135322887e+00 0 0 0
491 2 9.8440000000000012e+00 7.1042950623783341e+00 8.7114330314732378e+00 0 0 0
110 2 0.0000000000000000e+00 9.9460130873296642e+00 5.4872681135322887e+00 0 0 0
112 2 0.0000000000000000e+00 8.5251540748539991e+00 5.4872681135322887e+00 0 0 0
139 2 2.4610000000000003e+00 9.9460130873296642e+00 5.4872681135322887e+00 0 0 0
141 2 2.4610000000000003e+00 8.5251540748539991e+00 5.4872681135322887e+00 0 0 0
431 2 0.0000000000000000e+00 8.5251540748539991e+00 8.7114330314732378e+00 0 0 0
432 2 1.2305000000000001e+00 9.2355835810918343e+00 8.7114330314732378e+00 0 0 0
446 2 2.4610000000000003e+00 8.5251540748539991e+00 8.7114330314732378e+00 0 0 0
447 2 3.6915000000000004e+00 9.2355835810918343e+00 8.7114330314732378e+00 0 0 0
135 2 1.2305000000000001e+00 1.2077301606043163e+01 5.4872681135322887e+00 0 0 0
137 2 1.2305000000000001e+00 1.0656442593567498e+01 5.4872681135322887e+00 0 0 0
172 2 3.6914999999999996e+00 1.2077301606043163e+01 5.4872681135322887e+00 0 0 0
174 2 3.6914999999999996e+00 1.0656442593567499e+01 5.4872681135322887e+00 0 0 0
430 2 0.0000000000000000e+00 1.1366872099805333e+01 8.7114330314732378e+00 0 0 0
444 2 1.2305000000000001e+00 1.0656442593567498e+01 8.7114330314732378e+00 0 0 0
445 2 2.4610000000000003e+00 1.1366872099805333e+01 8.7114330314732378e+00 0 0 0
463 2 3.6914999999999996e+00 1.0656442593567499e+01 8.7114330314732378e+00 0 0 0
176 2 4.9220000000000006e+00 9.9460130873296642e+00 5.4872681135322887e+00 0 0 0
178 2 4.9220000000000006e+00 8.5251540748539991e+00 5.4872681135322887e+00 0 0 0
221 2 7.3830000000000009e+00 9.9460130873296642e+00 5.4872681135322887e+00 0 0 0
223 2 7.3830000000000009e+00 8.5251540748539991e+00 5.4872681135322887e+00 0 0 0
465 2 4.9220000000000006e+00 8.5251540748539991e+00 8.7114330314732378e+00 0 0 0
466 2 6.1524999999999999e+00 9.2355835810918343e+00 8.7114330314732378e+00 0 0 0
488 2 7.3830000000000009e+00 8.5251540748539991e+00 8.7114330314732378e+00 0 0 0
217 2 6.1524999999999999e+00 1.2077301606043163e+01 5.4872681135322887e+00 0 0 0
219 2 6.1524999999999999e+00 1.0656442593567499e+01 5.4872681135322887e+00 0 0 0
464 2 4.9220000000000006e+00 1.1366872099805333e+01 8.7114330314732378e+00 0 0 0
486 2 6.1524999999999999e+00 1.0656442593567499e+01 8.7114330314732378e+00 0 0 0
487 2 7.3829999999999991e+00 1.1366872099805333e+01 8.7114330314732378e+00 0 0 0
268 2 9.8440000000000012e+00 9.9460130873296642e+00 5.4872681135322887e+00 0 0 0
270 2 9.8440000000000012e+00 8.5251540748539956e+00 5.4872681135322887e+00 0 0 0
489 2 8.6134999999999984e+00 9.2355835810918343e+00 8.7114330314732378e+00 0 0 0
512 2 9.8440000000000012e+00 8.5251540748539956e+00 8.7114330314732378e+00 0 0 0
513 2 1.1074500000000002e+01 9.2355835810918343e+00 8.7114330314732378e+00 0 0 0
264 2 8.6135000000000002e+00 1.2077301606043163e+01 5.4872681135322887e+00 0 0 0
266 2 8.6134999999999984e+00 1.0656442593567498e+01 5.4872681135322887e+00 0 0 0
311 2 1.1074500000000002e+01 1.2077301606043163e+01 5.4872681135322887e+00 0 0 0
313 2 1.1074500000000002e+01 1.0656442593567498e+01 5.4872681135322887e+00 0 0 0
510 2 8.6134999999999984e+00 1.0656442593567498e+01 8.7114330314732378e+00 0 0 0
511 2 9.8440000000000012e+00 1.1366872099805333e+01 8.7114330314732378e+00 0 0 0
534 2 1.1074500000000002e+01 1.0656442593567498e+01 8.7114330314732378e+00 0 0 0
535 2 1.2304999999999998e+01 1.1366872099805333e+01 8.7114330314732378e+00 0 0 0
1380 1 1.7898670280153568e+00 3.0159661558278970e+00 1.1710735507012618e+01 2 1 0
3828 1 4.5812463450386618e+00 1.1355484130158700e+01 1.4048815934368271e+01 1 1 0
710 1 4.6096980984229488e+00 2.4047160179750464e+00 1.1037772438751087e+01 -2 2 0
1415 1 8.2052697570472599e+00 8.6146517877661086e+00 1.4339037426047533e+01 -3 2 0
731 1 9.8763899788512060e+00 1.0426056285180141e+00 1.1642395703217430e+01 -1 -1 0
2947 1 9.2816222284584988e+00 3.6562730041870055e+00 1.1514484646161966e+01 2 -4 0
1600 1 9.5643699924488867e-01 5.4793077909345147e+00 1.1209005458606848e+01 0 -1 0
1433 1 2.9152899176508322e+00 7.4569359716790427e+00 1.1628023000238670e+01 1 -4 0
2240 1 6.5624338957258352e+00 4.2074017441233309e+00 1.1656631486204077e+01 -4 1 0
3037 1 5.8057443422851875e+00 6.7119556600348256e+00 1.0923702594344814e+01 2 -1 -1
4376 1 1.1166148424995910e+01 5.8355925598649225e+00 1.1637339435716182e+01 -1 1 0
4469 1 1.6757052865613105e+00 1.0080994915262949e+01 1.1222129080738814e+01 -2 2 0
667 1 7.7527674748527406e+00 8.6619229441368866e+00 1.1583040652330608e+01 4 -1 1
4430 1 6.7044226145853543e+00 1.1387676897762978e+01 1.1581119023776401e+01 1 1 1
838 1 3.8508659506216127e+00 1.1839872267258382e+01 1.1343495282984870e+01 4 2 0
2391 1 1.0289575964377214e+01 8.3928369406411587e+00 1.1062915153391689e+01 0 3 0
4504 1 1.0790550654898924e+01 8.2920021045006056e+00 1.5406907718955869e+01 4 -6 -1
1520 1 2.2754148068471083e+00 2.6061722764179809e+00 1.4450315216347715e+01 4 3 -1
1527 1 7.1793197177468118e+00 1.1105424642259353e+01 1.5151834683987653e+01 1 2 0
875 1 4.9869676310485591e+00 2.3698214879150554e+00 1.4977205571848060e+01 4 0 0
4379 1 9.4568549462851728e+00 7.6626041342038631e-01 1.4430779811125429e+01 -2 -3 -1
1627 1 9.3725541382010658e+00 3.6155606491511469e+00 1.4727110053960899e+01 3 -2 0
693 1 1.1601625363644177e+00 5.4035296776042365e+00 1.5093226335607412e+01 -3 -1 0
756 1 3.2999998273863760e+00 7.0602205920749324e+00 1.4310518202220926e+01 3 5 -1
21 1 6.9514916199959096e+00 4.3544230723866377e+00 1.4283212909523295e+01 -3 3 0
1407 1 6.0932668273871453e+00 6.8376864469599772e+00 1.5111418867433228e+01 2 4 -1
2152 1 1.1343926551843467e+01 5.8402617863477788e+00 1.4387774421401561e+01 -5 -3 0
2899 1 2.3080427939606549e+00 9.6215792303471339e+00 1.4951333943173575e+01 -2 -4 0
3119 1 1.2291890572167642e+01 1.0483719848715719e+01 1.4455668601574022e+01 -2 -1 0
3619 1 1.7935735333058281e-01 1.1451142479164698e+00 1.5465824308914051e+01 1 -1 -1
2408 1 1.2097023832783409e+01 1.0451432324831568e+01 1.1782400537056397e+01 1 -1 0
1585 1 2.5493298630226041e-01 8.3706218909420071e-01 1.1287874291355394e+01 -2 0 0
2880 1 1.2280991124852036e+01 7.5822545419014720e-01 1.5386488466254052e+01 -2 5 0
3103 1 5.7837031290803154e+00 1.1298182642391938e+01 2.8800724201392587e+01 3 -1 1
792 1 1.1751073194982823e+01 3.2483100471126707e+00 1.8825945517149151e+01 3 -2 0
1569 1 4.9301383979906035e+00 2.2542357512029647e+00 1.7634524389038940e+01 2 0 0
2902 1 7.4109570885156577e+00 1.8017039979968517e+00 1.8644100269517377e+01 1 0 -1
1639 1 9.4221245278548267e+00 3.3745958027092944e+00 1.7552327168980021e+01 0 -2 0
3681 1 3.1208803684596376e+00 4.0959604349801626e-01 2.1411213963578909e+01 -1 1 0
1530 1 1.5206464733510514e+00 5.3326749494447530e+00 1.7917161276911742e+01 3 1 -1
3766 1 6.9075761831759175e-01 7.9160971548054793e+00 1.8754598334936269e+01 -4 0 0
1403 1 4.0376094953656736e+00 4.7195750510673982e+00 1.8293075785020648e+01 1 4 1
1625 1 6.2155557002944004e+00 6.5952964402987595e+00 1.7985008536436538e+01 -1 -1 -1
3706 1 8.8400813280482371e+00 6.0535306132829669e+00 1.8950495558555371e+01 -1 0 0
2885 1 2.8258071129419817e+00 9.8789179424418698e+00 1.7966336089365406e+01 -2 2 -1
3022 1 5.6324685143110482e+00 9.1551141663680742e+00 1.8585543220421581e+01 0 5 -1
3152 1 7.1889369928663935e+00 1.1202273494523940e+01 1.7887338979454888e+01 1 7 0
4403 1 1.0664395157904602e+01 8.4468552466161970e+00 1.8211158196218143e+01 -2 -1 -1
53 1 9.6713131888210029e+00 1.0786945322498910e+01 1.9099783953080571e+01 -2 1 0
827 1 2.7694345469225397e+00 1.2058186034487962e+01 3.1819154266617556e+01 -4 3 0
4477 1 2.1373997777730891e-01 9.4602101983613374e-01 1.8456418240001664e+01 2 3 -1
1657 1 4.7530301780598325e+00 2.3798686588190017e+00 2.2421210144878042e+01 -3 -1 0
4405 1 7.3590290235888540e+00 1.8098868794932748e+00 2.1252406478912988e+01 2 1 0
2964 1 4.4778876283844804e+00 1.8551311934029298e+00 2.5265001066574907e+01 2 5 0
90 1 9.2077142665715002e+00 3.6479084072039134e+00 2.2368507394234108e+01 -2 2 -1
3873 1 9.0087346844332838e+00 3.6812613700071668e+00 2.4895104213988041e+01 -2 -5 0
1429 1 1.1811567633782294e+01 3.2387648552949724e+00 2.1654035343044274e+01 -1 -1 -1
4436 1 1.4017422881608750e+00 5.2587321569276515e+00 2.2171571045988681e+01 0 -1 -1
3848 1 5.7677475061866101e-01 7.8953648218383927e+00 2.1507429104733696e+01 -1 1 0
2344 1 4.0011481942510319e+00 4.8015595297233578e+00 2.1332382169780391e+01 0 1 0
1610 1 5.9409353804934568e+00 6.5711201373495687e+00 2.2410533216848378e+01 1 2 1
1605 1 8.4667736490584691e+00 6.2695366462409519e+00 2.1579618677017251e+01 1 -1 0
703 1 1.0488327387183261e+01 8.1675218761309534e+00 2.2151910301003369e+01 -1 -3 0
2842 1 2.8166298411554513e+00 9.6845876655963039e+00 2.2041643631476290e+01 1 3 -1
617 1 5.4925956219122192e+00 9.1524060103315090e+00 2.1402456138289466e+01 1 -2 0
2338 1 7.1047650161172555e+00 1.1021265131313676e+01 2.2552803147256505e+01 0 -3 0
2372 1 9.6329798724851354e+00 1.0760891377773397e+01 2.1660152819282715e+01 2 -2 -1
2377 1 1.9027845616066670e+00 2.7123193074240795e+00 2.6090874927548615e+01 -1 2 0
1567 1 1.7318504513425115e+00 2.7785013477331630e+00 2.8769365951221172e+01 -4 1 0
4481 1 1.8409251535888027e+00 1.2053299334790530e+01 2.1547269102302902e+01 -2 5 0
595 1 9.8887647462301089e+00 1.1874782805547288e+00 2.5585294584004949e+01 5 6 1
712 1 9.9225152637931586e+00 1.0933164520767535e+00 2.8628895040062144e+01 -5 0 0
864 1 1.1299983330737486e+00 5.0151919801321494e+00 2.4871656754967180e+01 1 -1 1
4516 1 2.9033582970667107e+00 7.0598823560873489e+00 2.5852292549016823e+01 0 -3 -1
2898 1 6.4343403253958700e+00 3.9377201507537278e+00 2.5728945684336789e+01 -1 1 0
1471 1 5.8821934866250425e+00 6.6420416299671086e+00 2.5120622614228065e+01 -3 0 0
2243 1 6.2311941304930558e+00 4.1248813719285016e+00 2.8441313125692865e+01 4 2 0
634 1 1.0322935081938807e+01 8.3028979629576316e+00 2.4812273210029453e+01 2 0 0
3712 1 1.0780432547901347e+01 5.9878597158337046e+00 2.5865955920444495e+01 -3 8 0
4499 1 1.0674801983870450e+01 5.6536652362517748e+00 2.8765698496774302e+01 -1 0 -2
2154 1 2.6989864456943606e+00 9.5875932981191330e+00 2.4929705518289627e+01 2 0 0
4519 1 2.8342167923420907e+00 1.1654329286884646e+01 2.8790348967385601e+01 1 2 0
791 1 6.8786117777747009e+00 8.9673824790339527e+00 3.1797238983155239e+01 6 1 0
3040 1 6.8858258177236582e+00 8.7417377898476545e+00 2.8875859028353684e+01 0 3 0
2232 1 4.3168992273836517e+00 1.1735537648593548e+01 2.6164333060593901e+01 2 -3 0
2879 1 6.9484024076834645e+00 1.1085563241949076e+01 2.5583458468482746e+01 0 3 0
615 1 7.7179063264623951e+00 8.3738513477182170e+00 2.6112534113162177e+01 -1 3 0
1432 1 1.1746284596655602e+01 1.0308686972356895e+01 2.8862818488594417e+01 -2 0 -1
3854 1 9.7595447357884737e+00 8.2851299053873131e+00 2.9078022004801717e+01 5 2 0
3143 1 2.9729983911993338e+00 3.5519237509495999e-01 1.8568975573150048e+01 -3 0 0
2366 1 1.3928800197762587e+00 2.7580928706874115e+00 3.2315519162946785e+01 3 0 0
797 1 1.1742492604362837e+01 1.0197322032508618e+01 3.1625684312749907e+01 -5 0 1
2844 1 5.7719481974527849e+00 1.1446297945345634e+01 3.1841864993532965e+01 5 -5 -1
1351 1 4.1854319472209376e+00 2.2556482939589877e+00 3.2088090343239898e+01 2 1 0
582 1 4.4140675682900588e+00 1.9952704556362144e+00 2.9202106261697221e+01 -2 2 0
14 1 5.9100267018096790e+00 4.3423818269838179e+00 3.2327357303361325e+01 -1 1 0
2393 1 8.8280114322107348e+00 3.7225771251449875e+00 2.9119312943644740e+01 -2 1 0
2234 1 1.0115060057431387e+01 1.3135175161829662e+00 3.1711656008657773e+01 1 1 0
2277 1 8.5100329692874350e+00 3.8176923543633001e+00 3.1877257669304360e+01 7 -2 0
9 1 3.8401343641915736e-01 5.1353620380939020e+00 3.1769287483279470e+01 1 0 1
7 1 2.4877761388573862e+00 6.7734482717561324e+00 2.8843861965817755e+01 -2 4 0
3128 1 2.6329575344671685e-01 5.0708358785865393e+00 2.8990532184154944e+01 -2 2 0
3808 1 2.3764474012218018e+00 7.0658717615035176e+00 3.1863404742315719e+01 -6 -2 0
2312 1 5.0965397256164318e+00 6.6236083003605257e+00 2.9131925496726275e+01 -3 -4 0
2194 1 5.0712989669011268e+00 7.0315689308047844e+00 3.1955332999014225e+01 6 0 1
2346 1 9.7183314163246397e+00 8.3187135586945882e+00 3.2237825483987073e+01 4 2 0
845 1 1.0510873221132650e+01 5.8653963702204859e+00 3.2076791666678496e+01 1 -1 1
800 1 1.2742990290486083e+00 9.6707647894649984e+00 3.1591775754147385e+01 1 5 0
1602 1 1.1822102531932506e+00 9.2620465647430894e+00 2.8742751442955218e+01 1 -1 0
4488 1 1.8724872171076283e+00 1.2223787872694341e+01 1.8860609492512040e+01 0 -2 0
1377 1 3.7512454310383142e-01 6.2826274586712294e-01 2.5473577691099944e+01 3 -1 0
4367 1 8.0437184998886108e-02 2.9967653330369326e-01 2.9319961901883200e+01 4 -1 0
1555 1 5.1096499589649735e-01 6.6125956517618045e-01 2.2740907848870471e+01 1 2 0
868 1 1.1973280760683359e+01 1.0295714523071197e+01 2.5954896322042639e+01 0 1 0
4353 1 3.5936086967610947e-01 9.9509329896030163e+00 2.5868280997035285e+01 1 -3 0
1440 1 7.1514963114793773e-03 4.4607045307467563e-01 3.1838586946680834e+01 -5 -2 0
132 2 0.0000000000000000e+00 1.2787731112280996e+01 2.2631031955967158e+00 0 0 0
134 2 1.2305000000000001e+00 1.3498160618518829e+01 2.2631031955967158e+00 0 0 0
169 2 2.4610000000000003e+00 1.2787731112280996e+01 2.2631031955967158e+00 0 0 0
171 2 3.6915000000000004e+00 1.3498160618518829e+01 2.2631031955967158e+00 0 0 0
130 2 0.0000000000000000e+00 1.5629449137232333e+01 2.2631031955967158e+00 0 0 0
165 2 1.2305000000000001e+00 1.4919019630994494e+01 2.2631031955967158e+00 0 0 0
167 2 2.4610000000000003e+00 1.5629449137232328e+01 2.2631031955967158e+00 0 0 0
210 2 3.6915000000000004e+00 1.4919019630994494e+01 2.2631031955967158e+00 0 0 0
214 2 4.9220000000000006e+00 1.2787731112280996e+01 2.2631031955967158e+00 0 0 0
216 2 6.1524999999999990e+00 1.3498160618518829e+01 2.2631031955967158e+00 0 0 0
261 2 7.3829999999999991e+00 1.2787731112280996e+01 2.2631031955967158e+00 0 0 0
212 2 4.9220000000000006e+00 1.5629449137232333e+01 2.2631031955967158e+00 0 0 0
257 2 6.1524999999999990e+00 1.4919019630994494e+01 2.2631031955967158e+00 0 0 0
259 2 7.3829999999999991e+00 1.5629449137232333e+01 2.2631031955967158e+00 0 0 0
263 2 8.6135000000000002e+00 1.3498160618518835e+01 2.2631031955967158e+00 0 0 0
308 2 9.8440000000000012e+00 1.2787731112280996e+01 2.2631031955967158e+00 0 0 0
310 2 1.1074500000000002e+01 1.3498160618518829e+01 2.2631031955967158e+00 0 0 0
304 2 8.6135000000000002e+00 1.4919019630994494e+01 2.2631031955967158e+00 0 0 0
306 2 9.8440000000000012e+00 1.5629449137232328e+01 2.2631031955967158e+00 0 0 0
346 2 1.1074500000000002e+01 1.4919019630994494e+01 2.2631031955967158e+00 0 0 0
161 2 0.0000000000000000e+00 1.7050308149707998e+01 2.2631031955967158e+00 0 0 0
206 2 2.4610000000000003e+00 1.7050308149707998e+01 2.2631031955967158e+00 0 0 0
159 2 0.0000000000000000e+00 1.9892026174659328e+01 2.2631031955967158e+00 0 0 0
163 2 1.2305000000000001e+00 1.7760737655945832e+01 2.2631031955967158e+00 0 0 0
202 2 1.2305000000000001e+00 1.9181596668421495e+01 2.2631031955967158e+00 0 0 0
204 2 2.4610000000000003e+00 1.9892026174659328e+01 2.2631031955967158e+00 0 0 0
208 2 3.6914999999999996e+00 1.7760737655945832e+01 2.2631031955967158e+00 0 0 0
249 2 3.6914999999999996e+00 1.9181596668421495e+01 2.2631031955967158e+00 0 0 0
253 2 4.9220000000000006e+00 1.7050308149707998e+01 2.2631031955967158e+00 0 0 0
300 2 7.3830000000000009e+00 1.7050308149707998e+01 2.2631031955967158e+00 0 0 0
251 2 4.9220000000000006e+00 1.9892026174659328e+01 2.2631031955967158e+00 0 0 0
255 2 6.1524999999999999e+00 1.7760737655945832e+01 2.2631031955967158e+00 0 0 0
296 2 6.1524999999999999e+00 1.9181596668421495e+01 2.2631031955967158e+00 0 0 0
298 2 7.3829999999999991e+00 1.9892026174659328e+01 2.2631031955967158e+00 0 0 0
342 2 9.8440000000000012e+00 1.7050308149707998e+01 2.2631031955967158e+00 0 0 0
376 2 1.2304999999999998e+01 1.7050308149707998e+01 2.2631031955967158e+00 0 0 0
302 2 8.6134999999999984e+00 1.7760737655945832e+01 2.2631031955967158e+00 0 0 0
338 2 8.6135000000000002e+00 1.9181596668421495e+01 2.2631031955967158e+00 0 0 0
340 2 9.8440000000000012e+00 1.9892026174659335e+01 2.2631031955967158e+00 0 0 0
344 2 1.1074500000000002e+01 1.7760737655945835e+01 2.2631031955967158e+00 0 0 0
372 2 1.1074500000000002e+01 1.9181596668421495e+01 2.2631031955967158e+00 0 0 0
196 2 0.0000000000000000e+00 2.4154603212086325e+01 2.2631031955967158e+00 0 0 0
198 2 0.0000000000000000e+00 2.1312885187134999e+01 2.2631031955967158e+00 0 0 0
200 2 1.2304999999999993e+00 2.2023314693372832e+01 2.2631031955967158e+00 0 0 0
241 2 1.2304999999999993e+00 2.3444173705848499e+01 2.2631031955967158e+00 0 0 0
243 2 2.4610000000000003e+00 2.4154603212086325e+01 2.2631031955967158e+00 0 0 0
245 2 2.4610000000000003e+00 2.1312885187134995e+01 2.2631031955967158e+00 0 0 0
247 2 3.6914999999999996e+00 2.2023314693372832e+01 2.2631031955967158e+00 0 0 0
288 2 3.6915000000000004e+00 2.3444173705848499e+01 2.2631031955967158e+00 0 0 0
290 2 4.9220000000000006e+00 2.4154603212086325e+01 2.2631031955967158e+00 0 0 0
292 2 4.9220000000000006e+00 2.1312885187134995e+01 2.2631031955967158e+00 0 0 0
294 2 6.1524999999999990e+00 2.2023314693372832e+01 2.2631031955967158e+00 0 0 0
330 2 6.1524999999999999e+00 2.3444173705848499e+01 2.2631031955967158e+00 0 0 0
332 2 7.3830000000000009e+00 2.4154603212086336e+01 2.2631031955967158e+00 0 0 0
334 2 7.3829999999999991e+00 2.1312885187134999e+01 2.2631031955967158e+00 0 0 0
336 2 8.6135000000000002e+00 2.2023314693372832e+01 2.2631031955967158e+00 0 0 0
364 2 8.6134999999999984e+00 2.3444173705848499e+01 2.2631031955967158e+00 0 0 0
366 2 9.8440000000000012e+00 2.4154603212086336e+01 2.2631031955967158e+00 0 0 0
368 2 9.8440000000000012e+00 2.1312885187134999e+01 2.2631031955967158e+00 0 0 0
370 2 1.1074500000000002e+01 2.2023314693372832e+01 2.2631031955967158e+00 0 0 0
390 2 1.1074500000000002e+01 2.3444173705848499e+01 2.2631031955967158e+00 0 0 0
133 2 0.0000000000000000e+00 1.2787731112280996e+01 5.4872681135322887e+00 0 0 0
170 2 2.4610000000000003e+00 1.2787731112280996e+01 5.4872681135322887e+00 0 0 0
442 2 0.0000000000000000e+00 1.2787731112280996e+01 8.7114330314732378e+00 0 0 0
443 2 1.2305000000000001e+00 1.3498160618518829e+01 8.7114330314732378e+00 0 0 0
461 2 2.4610000000000003e+00 1.2787731112280996e+01 8.7114330314732378e+00 0 0 0