
# Create simulation box and atoms

read_data data.ML_graphite_1atm_240K
  orthogonal box = (0 0 1.76685) to (49.22 49.0196 31.8685)
  4 by 4 by 2 MPI processor grid
  reading atoms ...
  4545 atoms
  reading velocities ...
  4545 velocities
group water type 1
1785 atoms in group water
group graphite type 2
2760 atoms in group graphite

# Define potential

pair_style sw
pair_coeff * * MLC_e.sw mW C


# Fix graphite atoms in place

fix 5 graphite setforce 0.0 0.0 0.0
velocity graphite set 0.0 0.0 0.0


# Equilibration of molecular water

# Add velocity/set timestep

velocity	    water create ${TEMP} ${SEED} rot yes dist gaussian
velocity	    water create 240 ${SEED} rot yes dist gaussian
velocity	    water create 240 11555 rot yes dist gaussian
timestep	    5.0

# Define output

compute			1 water msd
compute			3 water temp
thermo	    	50
thermo_style	custom step temp press vol etotal ke pe c_1[4] c_3

# Neighbor lists

neigh_modify    delay 0 every 1 check yes

# Set fixes

fix             1 water momentum 10 linear 1 1 1 rescale
fix             2 water nve
fix             3 water temp/csvr ${TEMP} ${TEMP} 500.0 ${SEED}
fix             3 water temp/csvr 240 ${TEMP} 500.0 ${SEED}
fix             3 water temp/csvr 240 240 500.0 ${SEED}
fix             3 water temp/csvr 240 240 500.0 11555
fix             4 water press/berendsen z ${PRES} ${PRES} 1000.0 modulus 20000
fix             4 water press/berendsen z 1 ${PRES} 1000.0 modulus 20000
fix             4 water press/berendsen z 1 1 1000.0 modulus 20000

# Run 0.5 ns equilibration

dump		    1 all atom 2000 ${DIR}/eq.${NAME}-${TEMP}.dump
dump		    1 all atom 2000 run_12/eq.${NAME}-${TEMP}.dump
dump		    1 all atom 2000 run_12/eq.het_freeze_12-${TEMP}.dump
dump		    1 all atom 2000 run_12/eq.het_freeze_12-240.dump

reset_timestep  0

run	            100000
Neighbor list info ...
  update every 1 steps, delay 0 steps, check yes
  max neighbors/atom: 2000, page size: 100000
  master list distance cutoff = 6.67472
  ghost atom cutoff = 6.67472
  binsize = 3.33736, bins = 15 15 10
  1 neighbor lists, perpetual/occasional/extra = 1 0 0
  (1) pair sw, perpetual
      attributes: full, newton on
      pair build: full/bin/atomonly
      stencil: full/bin/3d
      bin: standard
Per MPI rank memory allocation (min/avg/max) = 4.115 | 4.302 | 4.489 Mbytes
Step Temp Press Volume TotEng KinEng PotEng c_1[4] c_3 
       0    94.225352   -657.89738    72627.636   -17236.286    1276.2636    -18512.55            0          240 
      50    95.464476   -572.26638    72660.107    -17256.73    1293.0473   -18549.778   0.51258484    243.15615 
     100    92.621321    -628.4849    72694.308   -17234.333    1254.5373    -18488.87   0.90511587     235.9144 
     150    97.112423   -308.88924    72686.094   -17237.771    1315.3684   -18553.139    1.1486893    247.35362 
     200    94.908571   -418.17959    72670.452   -17213.841    1285.5177   -18499.358    1.4100144    241.74022 
     250    97.150788   -444.41722    72672.938   -17186.166    1315.8881   -18502.055    1.7217252    247.45134 
     300    92.171616   -489.06906    72680.388   -17248.812    1248.4462   -18497.258    2.0182968    234.76896 
     350     97.73647   -159.07516    72702.028   -17221.486     1323.821   -18545.307    2.2392114    248.94312 
     400    94.894668    -326.3974    72733.617   -17237.679    1285.3294   -18523.008    2.4827913    241.70481 
     450    91.938397   -562.57149    72781.242   -17247.287    1245.2873   -18492.575    2.7025177    234.17493 
     500    92.307778   -230.23517    72793.927   -17278.431    1250.2905   -18528.721    2.8871646    235.11578 
     550    92.411542    -322.7343    72809.583   -17273.072    1251.6959   -18524.768    3.1105908    235.38007 
     600    93.002337   -402.25514    72853.482   -17262.292    1259.6981    -18521.99    3.2868285    236.88488 
     650    91.268974   -429.46614    72878.798   -17304.598    1236.2201   -18540.818    3.4463446    232.46985 
     700    91.350829   -709.25916    72866.052   -17325.078    1237.3288   -18562.407    3.6459495    232.67834 
     750    92.598041   -820.00124    72853.144   -17290.179     1254.222   -18544.401    3.8995634     235.8551 
     800    93.001021   -622.45652    72803.367   -17279.635    1259.6803   -18539.315    4.1225283    236.88153 
     850    95.387994   -533.36428    72748.947   -17220.112    1292.0114   -18512.124    4.3606657    242.96135 
     900    94.077388   -578.04775    72657.696   -17218.072    1274.2595   -18492.332     4.589499    239.62312 
     950    94.879019   -213.67459    72690.458   -17215.956    1285.1174   -18501.074    4.7947112    241.66494 
    1000    95.835793   -302.97519    72681.792   -17218.599    1298.0767   -18516.676    4.9554719    244.10193 
    1050    95.083429   -518.39257     72696.05   -17215.126    1287.8861   -18503.012    5.0398464     242.1856 
    1100    93.316263   -1013.7229    72666.716   -17271.609    1263.9502   -18535.559    5.2681265    237.68447 
    1150    94.838445   -930.51729    72684.742   -17226.296    1284.5678   -18510.864    5.5583063     241.5616 
    1200    95.288089   -652.24171    72629.092   -17203.019    1290.6582   -18493.677    5.8772589    242.70688 
    1250    96.064914   -625.39806    72551.535   -17225.389    1301.1801   -18526.569    6.1364938    244.68552 
    1300    95.151327   -16.335133    72522.881   -17231.052    1288.8058   -18519.858    6.3794101    242.35854 
    1350    95.580043   -101.28811    72593.341   -17263.874    1294.6126   -18558.486    6.5302062    243.45051 
    1400    93.761548   -376.90437    72669.566   -17301.368    1269.9815   -18571.349    6.8522829    238.81865 
    1450    94.995248   -418.31752      72688.2   -17300.155    1286.6917   -18586.846    7.1316245    241.96099 
    1500    94.578225   -531.25413    72694.284    -17292.32    1281.0432   -18573.363    7.2846042     240.8988 
    1550    94.845532   -216.99515    72721.108   -17286.269    1284.6639   -18570.933    7.5641596    241.57965 
    1600        93.91   -446.19106    72731.694   -17298.553    1271.9922   -18570.545    7.7963158    239.19677 
    1650    94.340037   -418.40325    72709.847   -17256.227     1277.817   -18534.044    8.1069464    240.29211 
    1700    97.168334   -516.23252    72726.101   -17216.162    1316.1257   -18532.288    8.2377844    247.49603 
    1750    95.874722   -600.39689    72645.452   -17230.262     1298.604   -18528.866     8.522687    244.20108 
    1800    96.491819   -262.89082    72654.659   -17224.452    1306.9625   -18531.415    8.8047586    245.77288 
    1850    93.212473   -200.10523    72642.929   -17280.002    1262.5444   -18542.546    9.0461446    237.42011 
    1900    96.088622   -176.47713    72626.355   -17271.486    1301.5013   -18572.987    9.3392332    244.74591 
    1950    92.586787   -75.955999    72669.813   -17251.453    1254.0696   -18505.523    9.5069822    235.82644 
    2000    94.939137   -313.29573    72710.266   -17240.571    1285.9317   -18526.503    9.7224659    241.81807 
    2050    93.518245   -166.75419     72747.68   -17231.886     1266.686   -18498.572    9.8687282    238.19894 
    2100    92.541471   -132.12899    72742.138   -17228.467    1253.4558   -18481.922    10.241763    235.71101 
    2150    94.530204   -579.35366    72737.724   -17200.652    1280.3928   -18481.044    10.474294    240.77648 
    2200    95.776366   -220.50971    72704.025   -17214.879    1297.2718    -18512.15    10.519002    243.95057 
    2250    91.620504   -323.47486    72699.378   -17217.477    1240.9815   -18458.459    10.648618    233.36523 
    2300    96.142918   -75.649331     72777.68   -17212.645    1302.2367   -18514.882    10.817328     244.8842 
    2350    93.281066   -453.44858    72824.916   -17170.234    1263.4735   -18433.708    10.842437    237.59482 
    2400    97.513109   -307.63341    72821.182   -17206.474    1320.7956   -18527.269    10.951372     248.3742 
    2450    96.281195   -404.97694    72808.564   -17186.419    1304.1096   -18490.529    11.180704    245.23641 
    2500    95.433866   -93.066207    72784.853   -17173.438    1292.6327    -18466.07    11.354726    243.07819 
    2550    97.323029   -888.03655    72815.894   -17194.748     1318.221   -18512.969    11.561429    247.89005 
    2600    96.546562   -271.76882    72851.198   -17181.009     1307.704   -18488.713    11.982514    245.91232 
    2650    95.209499   -376.33384    72895.878   -17203.375    1289.5937   -18492.969    12.444378    242.50671 
    2700    92.688776   -195.39521    72938.896   -17218.938     1255.451   -18474.389    12.541295    236.08621 
    2750    99.032413   -263.90451    72994.366   -17173.947    1341.3743   -18515.321     12.80549    252.24399 
    2800     97.35891   -281.57946    72965.258   -17165.301    1318.7071   -18484.008    13.169402    247.98144 
    2850    93.316111   -537.38197    72937.356   -17206.907    1263.9481   -18470.855    13.257333    237.68408 
    2900    91.835073    -630.0646    72917.815   -17237.545    1243.8878   -18481.433    13.551351    233.91175 
    2950    94.486379   -253.50596    72858.003   -17252.931    1279.7992    -18532.73    13.846798    240.66486 
    3000     92.94641   -674.81761    72837.382   -17231.879    1258.9406    -18490.82    14.216999    236.74243 
    3050    93.979623   -196.74144    72876.918     -17232.6    1272.9353   -18505.535    14.296778    239.37411 
    3100    92.147305   -279.72624    72923.381   -17229.071    1248.1169   -18477.188    14.658301    234.70704 
    3150    95.619106   -465.77551    72995.223   -17221.013    1295.1418   -18516.155    15.076927    243.55001 
    3200    94.176224    -296.6331    73055.928   -17223.828    1275.5982   -18499.426    15.244195    239.87487 
    3250    92.282715   -366.18762     73124.88   -17224.621     1249.951   -18474.572    15.336996    235.05194 
    3300    96.689036   -627.48741    73159.222   -17220.365    1309.6337   -18529.999    15.559868    246.27521 
    3350    93.165106   -634.81518     73145.38   -17229.648    1261.9028   -18491.551    15.695185    237.29946 
    3400    94.683335    -648.4168     73096.56   -17231.088    1282.4669   -18513.555    15.911163    241.16652 
    3450    96.829581   -430.88372    73075.884   -17238.961    1311.5374   -18550.498    16.029726    246.63319 
    3500    96.318814   -587.36984    73095.436   -17246.801    1304.6192    -18551.42    16.320184    245.33223 
    3550    92.657131   -626.66625     73088.18   -17235.399    1255.0224   -18490.422    16.630502    236.00561 
    3600     96.41884   -522.12503     73076.97   -17226.214     1305.974   -18532.188    16.824894      245.587 
    3650    95.244845   -736.32612     73035.86   -17233.414    1290.0725   -18523.486    17.004888    242.59674 
    3700    95.127234   -556.55627    72961.339   -17266.543    1288.4794   -18555.022    17.145019    242.29717 
    3750    92.170843   -414.46644    72927.877   -17295.704    1248.4357    -18544.14    17.394665    234.76699 
    3800    91.892205   -433.51067    72892.153   -17311.976    1244.6616   -18556.638    17.729883    234.05728 
    3850    95.183737   -331.63565    72937.212   -17292.581    1289.2448   -18581.825    18.013583    242.44109 
    3900    94.054383   -640.25517    72914.842   -17282.339    1273.9479   -18556.287     18.14339    239.56453 
    3950    93.437866   -491.74574    72946.404   -17280.081    1265.5973   -18545.679    18.326403    237.99421 
    4000    94.820656   -596.76777    72968.326   -17277.673    1284.3269       -18562    18.379602    241.51629 
    4050    90.689342   -423.66988    72926.886    -17320.01    1228.3691   -18548.379    18.495313    230.99348 
    4100    94.307599   -452.85213    72949.969   -17293.731    1277.3777   -18571.109    18.611237    240.20949 
    4150    93.043192   -481.33987    73021.466   -17290.522    1260.2515   -18550.774    18.938126    236.98894 
    4200    93.483639   -172.35443    73085.428   -17321.702    1266.2173   -18587.919    19.372428    238.11079 
    4250    94.992616    -77.67116    73128.828   -17286.748    1286.6561   -18573.404    19.694223    241.95429 
    4300    92.622727   -413.30446    73152.234   -17272.914    1254.5564    -18527.47    19.919979    235.91798 
    4350    93.896254   -268.56704    73191.968   -17287.922    1271.8061   -18559.728    19.922567    239.16176 
    4400    94.902108   -199.36397    73219.282   -17284.111    1285.4302   -18569.541    19.998265    241.72376 
    4450    97.048007     -697.234     73229.77   -17265.968    1314.4959   -18580.464    20.068811    247.18954 
    4500     93.74729   -425.37067    73221.987   -17276.017    1269.7884   -18545.805    20.185813    238.78234 
    4550    96.887859   -163.52057    73237.389   -17247.522    1312.3268   -18559.849    20.198105    246.78163 
    4600    95.527053   -204.80251    73204.595   -17238.929    1293.8949   -18532.824    20.318974    243.31554 
    4650    94.278801   -269.53776    73229.045    -17261.94    1276.9876   -18538.928    20.502205    240.13614 
    4700     98.78425    -372.7397     73107.14   -17237.809     1338.013   -18575.822    20.828967     251.6119 
    4750    94.157586   -355.19534    73095.558   -17239.566    1275.3458   -18514.912    21.220271    239.82739 
    4800    97.213181   -302.35475    73103.581   -17260.243    1316.7332   -18576.976     21.38673    247.61025 
    4850    94.723911   -726.20132    73084.769   -17241.969    1283.0165   -18524.985    21.444095    241.26987 
    4900    94.450272   -789.56727     73085.52   -17224.281    1279.3101   -18503.591     21.80178    240.57289 
    4950     94.94573    -452.5101    73007.302   -17223.695     1286.021   -18509.716    22.126677    241.83486 
    5000    95.442685   -907.61974     72985.24   -17213.905    1292.7522   -18506.657      22.1666    243.10065 
    5050    97.394424   -205.42706    72923.483   -17209.422    1319.1881    -18528.61    22.634557     248.0719 
    5100    93.937486   -268.01549    72906.929    -17212.96    1272.3645   -18485.325    23.157456    239.26678 
    5150    95.272666    159.94135     72967.94   -17217.367    1290.4493   -18507.816    23.559933     242.6676 
    5200    94.689605   -111.35863    73011.143    -17206.37    1282.5518   -18488.922    23.933447    241.18249 
    5250    94.609097   -382.34811    73072.744     -17224.5    1281.4614   -18505.962    24.186049    240.97743 
    5300    94.258944   -714.81863    73076.371   -17228.892    1276.7186   -18505.611    24.598072    240.08556 
    5350    97.262122   -761.75172    73031.832   -17228.892    1317.3961   -18546.288    24.726537    247.73491 
    5400    93.280899    -982.2804    72985.281   -17243.322    1263.4712   -18506.793    25.150219     237.5944 
    5450    97.109024   -550.25989    72979.373   -17229.894    1315.3224   -18545.217    25.577043    247.34496 
    5500    96.626013   -710.46831    72890.515   -17244.232    1308.7801   -18553.012    25.780732    246.11469 
    5550    93.264458   -505.52155    72849.894   -17250.021    1263.2485   -18513.269    25.814721    237.55252 
    5600    97.147026   -552.56441    72819.139   -17234.833    1315.8371    -18550.67    25.801087    247.44175 
    5650    92.558666   -550.81042    72839.597   -17237.215    1253.6887   -18490.904      25.9532    235.75481 
    5700    93.679639   -404.23037    72871.213   -17273.201    1268.8721   -18542.073    25.903868    238.61002 
    5750      91.9554   -915.78322    72818.852   -17273.438    1245.5176   -18518.955    26.068043    234.21824 
    5800    94.254008   -826.85251    72695.859   -17262.386    1276.6518   -18539.038    26.083148    240.07299 
    5850    95.128197   -898.63452    72626.467   -17281.164    1288.4925   -18569.656    26.109235    242.29962 
    5900    91.956646    -727.6494    72485.071    -17297.69    1245.5345   -18543.225     26.10731    234.22141 
    5950    90.718393   -589.81132    72448.166   -17303.939    1228.7626   -18532.701    26.375246    231.06748 
    6000    92.783009   -599.60652    72432.389   -17299.466    1256.7274   -18556.193    26.359225    236.32623 
    6050    92.510111   -403.22291    72370.098   -17252.657     1253.031   -18505.688    26.971555    235.63113 
    6100    94.554537   -657.73296     72365.81   -17228.093    1280.7224   -18508.815    27.343618    240.83846 
    6150    91.580684   -168.89441    72392.113   -17251.781    1240.4421   -18492.223    27.627285     233.2638 
    6200    92.105665   -748.00487    72362.568   -17269.875    1247.5529   -18517.428    27.842665    234.60098 
    6250    91.332167   -490.75543    72403.909   -17253.801     1237.076   -18490.877    27.904279    232.63081 
    6300      92.9787   -555.95798    72373.947   -17236.956     1259.378   -18496.334    28.338234    236.82467 
    6350    93.549925   -274.37662    72311.418   -17242.372    1267.1151   -18509.487     28.50765    238.27963 
    6400    93.256222   -341.92397    72283.217   -17213.257     1263.137   -18476.394      28.9324    237.53154 
    6450    92.539757   -752.76157     72218.36   -17227.827    1253.4326   -18481.259    29.346863    235.70665 
    6500    95.427354   -481.44653    72231.373   -17204.322    1292.5445   -18496.866    29.700396     243.0616 
    6550    94.376839   -759.36967    72238.415   -17193.453    1278.3155   -18471.769    29.878187    240.38585 
    6600    97.268068   -141.96042    72219.883   -17192.097    1317.4766   -18509.574    30.081031    247.75006 
    6650    96.921995   -219.64557    72264.647     -17176.4    1312.7891    -18489.19    30.352307    246.86858 
    6700    95.543976   -516.88738    72283.509   -17179.088    1294.1241   -18473.212    30.525703    243.35865 
    6750    95.945478   -253.21757    72288.377   -17176.826    1299.5624   -18476.388    30.716109    244.38131 
    6800       96.096   -336.77028    72352.257   -17178.769    1301.6012    -18480.37    30.863455     244.7647 
    6850    96.697941   -679.97862    72427.148   -17155.264    1309.7544   -18465.018    31.154267    246.29789 
    6900    96.560697   -402.51459    72376.901   -17155.163    1307.8954   -18463.058    31.609433    245.94832 
    6950    95.324247   -580.27363     72359.14    -17140.96    1291.1479   -18432.108    31.860758    242.79898 
    7000    94.672292   -405.77013    72438.074   -17201.871    1282.3173   -18484.188    31.968381    241.13839 
    7050    94.824439   -678.27006    72464.083   -17183.287    1284.3781   -18467.665    32.157705    241.52593 
    7100    94.227504   -421.60441    72459.891    -17191.59    1276.2928   -18467.883    32.501847    240.00548 
    7150    91.812856   -569.14619     72375.58   -17242.678    1243.5868   -18486.264    33.183866    233.85517 
    7200    94.196692   -533.49969    72329.828   -17226.819    1275.8754   -18502.694    33.635667      239.927 
    7250    91.976589     -812.663    72346.281   -17220.491    1245.8046   -18466.295    33.988655    234.27221 
    7300    93.861871   -398.66205    72305.582   -17214.192    1271.3403   -18485.532    34.200679    239.07418 
    7350    93.349838   -238.21682    72284.711   -17223.079     1264.405   -18487.484    34.341934    237.76999 
    7400    95.819876   -140.40315    72330.149   -17204.898    1297.8611   -18502.759    34.434328    244.06139 
    7450    93.464616   -453.38841    72364.016   -17228.099    1265.9596   -18494.058    34.798006    238.06234 
    7500    94.088712   -143.51939    72421.705   -17207.421    1274.4129   -18481.834    35.104356    239.65197 
    7550     97.52204   -712.28674    72469.514   -17175.978    1320.9166   -18496.895    35.464067    248.39695 
    7600    94.722235   -9.3198944    72480.225   -17164.078    1282.9938   -18447.072    35.806339     241.2656 
    7650    94.825643   -684.54921    72468.318   -17201.819    1284.3944   -18486.214    35.953957    241.52899 
    7700    95.690652   -611.43725    72360.869   -17182.552    1296.1108   -18478.663    36.077353    243.73224 
    7750    95.609492   -401.55776    72337.916   -17198.354    1295.0115   -18493.365    36.334631    243.52552 
    7800    97.948112   -689.89984     72272.97   -17158.457    1326.6877   -18485.145    36.699898    249.48219 
    7850    96.373484   -380.86503    72301.791   -17194.835    1305.3596   -18500.195    36.911085    245.47147 
    7900    97.719064   -271.89302    72251.586   -17227.941    1323.5853   -18551.527    37.011676    248.89878 
    7950     91.30488   -639.98236    72242.464   -17260.423    1236.7064   -18497.129    37.155393    232.56131 
    8000    94.107175   -288.91287    72198.733   -17240.423    1274.6629   -18515.085    37.608238    239.69899 
    8050    95.850059   -120.39418    72226.203   -17249.879      1298.27   -18548.149    37.928915    244.13827 
    8100    92.863671   -328.29258    72256.266   -17239.788    1257.8199   -18497.608    38.286789    236.53168 
    8150    96.159398   -710.64957    72316.064   -17236.228    1302.4599   -18538.688    38.620898    244.92618 
    8200    92.775128   -407.09795    72248.435    -17250.72    1256.6206   -18507.341    38.816029    236.30616 
    8250    92.748593   -483.11457    72156.296   -17274.739    1256.2612       -18531    38.823206    236.23857 
    8300    91.357069   -551.87175    72121.883   -17281.743    1237.4133   -18519.156    39.032073    232.69424 
    8350    90.367035   -607.15948    72125.314   -17282.275    1224.0035   -18506.279    39.394098    230.17254 
    8400    97.084155   -421.47404    72115.774    -17244.62    1314.9855   -18559.605     39.85494    247.28161 
    8450    94.202412   -269.44458    72176.917    -17248.38    1275.9529   -18524.333    39.906815    239.94157 
    8500    93.356424   -273.57965    72269.515   -17241.087    1264.4942   -18505.581    40.176338    237.78677 
    8550     94.70874   -559.54067    72338.061   -17228.449     1282.811    -18511.26    40.415943    241.23123 
    8600    92.949586   -241.47549    72319.633   -17244.454    1258.9836   -18503.437    40.532125    236.75052 
    8650    94.904999   -373.67902    72319.628    -17223.21    1285.4693    -18508.68     40.57165    241.73112 
    8700     98.25921   -347.34628    72363.603    -17175.54    1330.9014   -18506.441    40.854538    250.27458 
    8750    94.398573   -404.83181    72383.751   -17179.654    1278.6099   -18458.264    41.103899    240.44121 
    8800    96.354404   -513.48735    72434.798   -17190.009    1305.1012    -18495.11    41.258105    245.42288 
    8850    96.681377   -417.02395    72467.398   -17190.554      1309.53   -18500.084    41.715219     246.2557 
    8900    95.146729   -612.30413    72471.988   -17182.846    1288.7435   -18471.589    41.840507    242.34682 
    8950    96.000515    -468.5985    72487.161   -17178.853    1300.3079   -18479.161    42.099268    244.52149 
    9000    93.788379    -474.3638    72442.904   -17185.872    1270.3449   -18456.216    42.306342    238.88699 
    9050    97.872573   -342.30224     72441.74   -17196.282    1325.6645   -18521.947    42.412533    249.28978 
    9100     97.13171   -468.77877    72481.599    -17214.15    1315.6297    -18529.78    42.434479    247.40274 
    9150    93.406941   -556.20567      72584.1   -17234.917    1265.1784   -18500.096    42.510085    237.91544 
    9200    93.915314   -767.99854     72578.44   -17256.659    1272.0642   -18528.723    42.658607    239.21031 
    9250    92.438161   -467.58725     72580.85   -17267.305    1252.0565   -18519.362     42.87816    235.44787 
    9300    91.831399   -610.44307    72569.761   -17282.414     1243.838   -18526.252    43.077696     233.9024 
    9350    94.810851   -366.88008    72530.054   -17266.016    1284.1941   -18550.211    43.092354    241.49131 
    9400    94.035777   -428.21783    72557.314   -17264.066    1273.6959   -18537.762    43.584092    239.51714 
    9450     95.25133   -537.64679    72554.932   -17281.162    1290.1603   -18571.322    44.090406    242.61325 
    9500    93.669782   -370.61585    72585.622   -17281.672    1268.7385   -18550.411    44.365765    238.58492 
    9550    95.275101   -678.02973    72587.457     -17282.1    1290.4823   -18572.582     44.54068     242.6738 
    9600    93.147509   -119.87334     72577.61   -17301.144    1261.6645   -18562.809    44.939312    237.25464 
    9650    91.307311    -700.6448    72583.684   -17286.971    1236.7393    -18523.71    45.353801     232.5675 
    9700    92.818763   -131.83851    72538.679   -17271.854    1257.2117   -18529.066    45.458947     236.4173 
    9750     93.04333   -272.57104    72584.786   -17269.398    1260.2534   -18529.651    45.714062    236.98929 
    9800    93.874575   -657.95215    72607.692    -17243.11    1271.5124   -18514.623    45.879515    239.10654 
    9850    94.028181   -343.10406    72581.624   -17220.418     1273.593   -18494.011    45.702487    239.49779 
    9900    95.106122   -428.42515    72584.774   -17208.171    1288.1935   -18496.365    45.830211     242.2434 
    9950    94.925614   -727.45231    72644.484   -17178.611    1285.7485    -18464.36    45.954785    241.78363 
   10000    97.918095    -240.9295    72662.815   -17162.418    1326.2811   -18488.699    45.995113    249.40573 
   10050    96.660007   -759.27062    72723.729   -17177.864    1309.2405   -18487.105    46.231732    246.20127 
   10100    93.544305   -623.58385    72757.206   -17225.897     1267.039   -18492.936    46.300389    238.26531 
   10150    94.688875   -685.50332     72648.47   -17224.808     1282.542    -18507.35    46.527815    241.18063 
   10200    94.431813    -233.2445     72615.45   -17215.389    1279.0601   -18494.449    46.630634    240.52587 
   10250    94.005875   -185.72556    72647.836   -17197.975    1273.2909   -18471.266    46.751148    239.44097 
   10300    94.961747   -479.79963    72673.435   -17198.213     1286.238   -18484.451    47.107968    241.87566 
   10350    94.515973   -190.50915    72691.045   -17189.731       1280.2   -18469.931    47.351005    240.74024 
   10400    94.121627   -392.19487    72657.675   -17221.064    1274.8587   -18495.922    47.633921     239.7358 
   10450    95.604353   -542.33392    72624.676   -17211.898    1294.9419    -18506.84    48.046967    243.51243 
   10500    90.886902    75.878039    72614.931   -17204.577     1231.045   -18435.622    48.215394    231.49668 
   10550    91.247565   -475.70595    72638.448   -17232.748    1235.9301   -18468.678    48.488834    232.41532 
   10600    90.104215   -146.82943    72707.545    -17230.09    1220.4436   -18450.533    48.711225    229.50311 
   10650    92.260409   -197.86585    72807.389   -17226.061    1249.6489    -18475.71    49.045014    234.99512 
   10700    92.457736   -555.37805    72766.058    -17233.22    1252.3216   -18485.541    49.200038    235.49773 
   10750    93.636655    -353.9236    72731.996   -17225.888    1268.2898   -18494.178    49.366926    238.50054 
   10800    93.254372   -556.56449     72729.57   -17213.322    1263.1119   -18476.433     49.58845    237.52683 
   10850    97.079499   -1022.1393    72715.813   -17194.005    1314.9225   -18508.928    49.812494    247.26975 
   10900    91.865933   -644.63656    72679.203   -17256.208    1244.3058   -18500.513    49.809834    233.99036 
   10950    93.777403    -240.2508    72704.009   -17239.792    1270.1962   -18509.989    49.871351    238.85904 
   11000    93.522953   -568.61573    72676.619   -17269.979    1266.7498   -18536.729    50.142992    238.21093 
   11050    92.837225    11.002375    72726.239   -17256.469    1257.4617   -18513.931    50.690551    236.46432 
   11100    94.024572   -652.44471    72736.072   -17260.916    1273.5441   -18534.461    51.012253    239.48859 
   11150    94.155916   -125.02635    72797.092   -17227.094    1275.3231   -18502.417    50.923224    239.82314 
   11200    92.677606   -516.33476    72788.656   -17219.284    1255.2997   -18474.584    50.853739    236.05776 
   11250    93.050342   -274.95597    72788.982   -17218.599    1260.3484   -18478.948    50.654781    237.00715 
   11300     96.89818   -539.38924    72802.563   -17210.975    1312.4666   -18523.441    50.679304    246.80792 
   11350    93.017867   -219.54188    72803.848    -17236.97    1259.9085   -18496.878    50.632699    236.92443 
   11400    95.749235   -439.96442    72839.518   -17225.656    1296.9043    -18522.56    50.742101    243.88146 
   11450    95.746808   -415.14086    72871.682   -17237.615    1296.8715   -18534.486    50.774604    243.87528 
   11500    94.243998    -388.9143    72894.174   -17237.223    1276.5162    -18513.74    50.925168    240.04749 
   11550    93.009738   -753.58508     72873.57   -17241.155    1259.7984   -18500.953    50.914987    236.90373 
   11600    91.518851   -736.61226    72819.905   -17261.676    1239.6046    -18501.28    50.782154    233.10631 
   11650    95.274776    -880.2789     72812.74   -17220.289    1290.4779   -18510.767    51.228061    242.67297 
   11700    92.553055   -177.22503    72739.889   -17231.684    1253.6127   -18485.296    51.540727    235.74052 
   11750    93.598439   -483.89294    72759.308   -17236.704    1267.7722   -18504.476    51.532499     238.4032 
   11800    95.551836   -611.86055     72766.66   -17246.162    1294.2306   -18540.393    51.864668    243.37867 
   11850    95.731401   -71.200463    72802.383   -17186.695    1296.6628   -18483.358    52.282216    243.83603 
   11900    94.722913   -455.56822    72852.141   -17145.389     1283.003   -18428.392    52.431029    241.26733 
   11950    95.260151   -345.14475    72866.265   -17150.846    1290.2798   -18441.126    52.604338    242.63572 
   12000    94.129304   -458.80481    72824.081    -17132.76    1274.9627   -18407.722    52.747063    239.75536 
   12050    95.596647   -337.53596    72871.321   -17149.287    1294.8376   -18444.124    52.671229    243.49281 
   12100    94.101286    -485.3699     72890.13   -17169.031    1274.5832   -18443.614    52.774527    239.68399 
   12150    96.543763   -699.06809    72895.802   -17134.344     1307.666    -18442.01    52.848666    245.90519 
   12200    97.448244   -670.07691    72906.271   -17166.619    1319.9171   -18486.536    53.222609    248.20898 
   12250    94.094678   -390.28791    72912.143    -17171.06    1274.4937   -18445.554    53.898972    239.66716 
   12300    95.786019   -705.16213    72851.647   -17161.108    1297.4026    -18458.51    54.174773    243.97515 
   12350    95.884479   -499.73033    72873.086   -17200.526    1298.7362   -18499.262    54.246319    244.22594 
   12400    95.769414   -325.73612    72803.675    -17231.15    1297.1776   -18528.328    54.621292    243.93286 
   12450    93.334352   -234.14888    72835.284   -17240.424    1264.1952   -18504.619    54.992577    237.73055 
   12500    93.494474   -511.54328    72835.884   -17220.745     1266.364    -18487.11    55.111269    238.13839 
   12550    94.826575   -528.04769    72816.232   -17228.106    1284.4071   -18512.513    55.302928    241.53137 
   12600    92.977895   -581.67164    72798.448   -17230.328    1259.3671   -18489.695    55.634679    236.82262 
   12650    92.765251   -508.60998    72739.381   -17255.375    1256.4868   -18511.862    55.738786      236.281 
   12700    94.268589   -593.36452    72721.119   -17265.844    1276.8493   -18542.693    55.837531    240.11013 
   12750    92.191858   -155.10108    72757.383   -17255.457    1248.7204   -18504.177    56.123444    234.82052 
   12800    93.995655   -628.78493    72787.317   -17241.218    1273.1524    -18514.37    56.420852    239.41494 
   12850     94.12075   -799.03581    72714.865    -17240.24    1274.8468   -18515.086    56.866602    239.73357 
   12900    91.777344   -631.49255     72657.24   -17249.604    1243.1058    -18492.71    56.900099    233.76471 
   12950    95.668647   -705.89315    72615.817    -17267.58    1295.8128   -18563.392    57.339568    243.67619 
   13000    92.623603   -613.26704    72570.698   -17232.445    1254.5683   -18487.014    57.680492    235.92021 
   13050    94.076347   -677.33892    72587.726    -17213.67    1274.2454   -18487.916    57.800298    239.62047 
   13100    95.178142   -409.91138    72605.779   -17257.671     1289.169    -18546.84    57.993344    242.42684 
   13150    93.711124   -396.03468     72671.84    -17232.56    1269.2985   -18501.859    58.187492    238.69022 
   13200     95.28309    -655.7541    72678.912   -17252.277    1290.5905   -18542.868    58.170746    242.69415 
   13250    94.971874   -716.44956    72645.989   -17257.755    1286.3751    -18544.13    58.224879    241.90145 
   13300    93.597757   -571.10724    72671.744   -17246.304     1267.763   -18514.067    58.733351    238.40146 
   13350    94.143084   -257.93721    72651.263   -17200.747    1275.1493   -18475.897    58.899214    239.79046 
   13400    95.587077   -556.45574    72769.594   -17174.744    1294.7079   -18469.452    58.733224    243.46843 
   13450    95.393298   -569.31245    72844.502   -17160.095    1292.0832   -18452.179    59.072398    242.97486 
   13500    95.781788   -657.31025    72844.435    -17139.64    1297.3452   -18436.985    59.488231    243.96437 
   13550    98.951271   -705.00568     72861.62   -17145.099    1340.2753   -18485.374    59.459625    252.03732 
   13600    97.044041   -841.41205    72869.802   -17142.689    1314.4422   -18457.132    59.874251    247.17944 
   13650    92.856416   -712.70991    72876.656   -17177.141    1257.7217   -18434.863    60.213906     236.5132 
   13700    94.448847   -302.64766    72820.347   -17149.362    1279.2908   -18428.653    60.658808    240.56926 
   13750    95.798152   -209.51366    72792.956   -17155.389    1297.5669   -18452.956    61.017909    244.00606 
   13800    97.927437   -599.21776    72771.534   -17160.357    1326.4076   -18486.764    61.136485    249.42953 
   13850    96.341482   -357.51181    72760.206   -17140.723    1304.9262   -18445.649    61.497777    245.38996 
   13900    95.668453   -461.96707     72758.46   -17201.434    1295.8101   -18497.244    61.888206     243.6757 
   13950    97.208501   -211.29122    72743.745   -17227.998    1316.6698   -18544.668    62.276895    247.59833 
   14000    96.147286   -478.71185    72850.202   -17197.421    1302.2958   -18499.716    62.466476    244.89533 
   14050     93.10499   -455.81673    72939.356   -17252.424    1261.0886   -18513.513    62.801829    237.14634 
   14100    94.081796   -531.76087     72981.29    -17220.73    1274.3192    -18495.05     62.75952    239.63435 
   14150    93.540141   -696.75643    72958.112   -17237.449    1266.9826   -18504.431    62.778186    238.25471 
   14200     92.92783    -520.3272    72908.397   -17222.768     1258.689   -18481.457    62.927047     236.6951 
   14250    95.425506   -805.14319    72808.149   -17205.478    1292.5195   -18497.997    63.410208    243.05689 
   14300    95.183296    -275.4121    72666.555   -17177.703    1289.2388   -18466.942    63.449421    242.43996 
   14350    95.003684   -398.77642    72604.367   -17221.937     1286.806   -18508.743    63.304377    241.98248 
   14400    93.878025   -236.14182    72625.619   -17189.237    1271.5592   -18460.796    63.790678    239.11533 
   14450     94.69848   -483.34947    72637.486   -17187.407    1282.6721   -18470.079    64.070435     241.2051 
   14500    94.842215    -405.8875    72566.085   -17214.184    1284.6189   -18498.803    64.471164     241.5712 
   14550    96.271128    -391.1314    72573.853   -17208.358    1303.9733   -18512.332    64.963394    245.21076 
   14600    94.096727   -329.49768    72556.603   -17226.125    1274.5214   -18500.647    65.175379    239.67238 
   14650    93.152111   -278.26804    72584.123   -17206.343    1261.7268    -18468.07    65.225902    237.26636 
   14700    96.324962   -396.47058    72638.049   -17183.776    1304.7024   -18488.478    65.336675    245.34788 
   14750    97.308973   -514.69083    72662.429   -17208.843    1318.0307   -18526.874    65.544813    247.85424 
   14800    94.334406   -414.09538    72713.039   -17213.052    1277.7407   -18490.793    65.635275    240.27777 
   14850     95.29319   -312.78063     72725.28   -17226.565    1290.7273   -18517.292    65.481199    242.71987 
   14900    97.666397   -401.17011    72738.271   -17239.673    1322.8719   -18562.544    65.740652    248.76463 
   14950    91.976902   -750.98744    72722.222   -17248.312    1245.8088   -18494.121    66.089038    234.27301 
   15000    95.557572   -486.35952    72669.474   -17282.657    1294.3083   -18576.965    66.442613    243.39328 
   15050    91.301931   -529.33091    72674.161   -17325.963    1236.6665    -18562.63    66.715404     232.5538 
   15100     93.40292   -395.67191    72699.493   -17275.887     1265.124   -18541.011    66.967636     237.9052 
   15150    93.286296   -179.80042    72747.017   -17314.482    1263.5443   -18578.027    67.160121    237.60814 
   15200    90.940465   -643.86126    72723.571   -17291.087    1231.7705   -18522.857    67.329588    231.63311 
   15250    92.863565   -488.02863    72701.343   -17296.206    1257.8185   -18554.025    67.337565    236.53141 
   15300    93.194562   -865.64064    72713.969   -17296.731    1262.3018   -18559.032    67.551352    237.37449 
   15350    95.449979   -508.78064     72735.33   -17309.145     1292.851   -18601.996     68.08975    243.11923 
   15400     92.34552   -618.26791    72753.626   -17297.441    1250.8017   -18548.243    68.361334    235.21191 
   15450    93.689601   -457.56413    72781.828   -17310.015     1269.007   -18579.022    68.747894     238.6354 
   15500    90.822039   -624.88901    72808.725   -17293.589    1230.1664   -18523.755    68.995155    231.33147 
   15550    93.937583   -418.28806    72791.202   -17292.316    1272.3659   -18564.682    69.479627    239.26703 
   15600    94.511368   -423.48401    72804.126   -17305.138    1280.1377   -18585.275    69.705461    240.72851 
   15650    95.538473   -626.66273    72797.686   -17287.532    1294.0496   -18581.581    69.668357    243.34463 
   15700    93.488332   -623.91947    72854.653   -17308.651    1266.2808   -18574.931    69.887656    238.12275 
   15750    93.513478   -785.96927    72890.146   -17332.695    1266.6214   -18599.316    70.135195     238.1868 
   15800    93.504781   -402.04145    72915.398    -17330.27    1266.5036   -18596.774    70.300358    238.16464 
   15850    91.256272   -585.95944    72899.756   -17341.955     1236.048   -18578.003    70.686451     232.4375 
   15900    91.214638   -711.94941    72942.855   -17368.283    1235.4841   -18603.768    70.708151    232.33146 
   15950    90.781858    -949.5135    72911.827   -17377.876    1229.6222   -18607.499    70.732994    231.22913 
   16000    94.192617   -503.74674    72949.144   -17345.693    1275.8202   -18621.514    71.088278    239.91662 
   16050    92.399036   -476.30018    72987.807   -17314.736    1251.5265   -18566.262    71.463896    235.34822 
   16100    94.920458   -898.56831    72920.347   -17273.679    1285.6787   -18559.357    71.918551    241.77049 
   16150    96.140409   -411.27324    72876.164   -17259.948    1302.2027    -18562.15    72.085816    244.87781 
   16200    92.573087   -813.89825    72781.584   -17280.969     1253.884   -18534.853    72.228143    235.79154 
   16250     96.36844   -446.81848    72757.863   -17263.109    1305.2913     -18568.4    72.317246    245.45863 
   16300     93.60136   -348.34139    72781.698   -17285.529    1267.8118   -18553.341    72.728449    238.41064 
   16350    94.440282    14.676721    72882.305   -17292.992    1279.1748   -18572.167    72.659388    240.54745 
   16400    92.203213    -197.8069    72980.916   -17297.042    1248.8742   -18545.916    73.020876    234.84944 
   16450    93.903337   -194.30254    73011.659   -17308.488     1271.902    -18580.39    73.122669     239.1798 
   16500    96.867049   -281.20041    73096.494    -17270.73    1312.0449   -18582.775    73.502319    246.72863 
   16550    97.219727   -299.25117    73110.665   -17255.712    1316.8218   -18572.534    73.430033    247.62693 
   16600    99.585001   -576.30811    73140.926    -17267.91     1348.859   -18616.769    73.674938    253.65148 
   16650    94.935764   -402.79651    73072.224   -17259.373     1285.886   -18545.259    73.653291    241.80948 
   16700    94.401372   -552.77108    73046.096   -17294.047    1278.6478   -18572.695    73.716858    240.44834 
   16750    94.613646   -624.72804    73009.706   -17294.305     1281.523   -18575.828    73.643591    240.98902 
   16800    95.036334   -427.93214    72967.161   -17283.009    1287.2482   -18570.258    74.052868    242.06564 
   16850    94.247595   -310.06949    72969.093   -17334.198    1276.5649   -18610.763    74.121438    240.05666 
   16900    92.239995   -75.394105    73099.363    -17361.35    1249.3724   -18610.722    74.268437    234.94313 
   16950     92.71557   -465.54321    73185.742   -17347.621    1255.8139   -18603.435    74.804631    236.15446 
   17000    92.282643    -165.6335    73150.592   -17347.324      1249.95   -18597.274    74.665118    235.05175 
   17050    92.337181    -487.1526    73179.527   -17310.888    1250.6887   -18561.577    74.471571    235.19067 
   17100    92.995503   -369.63161    73182.349   -17312.291    1259.6056   -18571.896     74.42921    236.86747 
   17150    93.400207   -367.95189    73199.881   -17304.768    1265.0872   -18569.855    74.608362    237.89829 
   17200    96.675259   -488.24298    73212.184    -17293.66    1309.4471   -18603.108    74.691571    246.24012 
   17250    92.619459   -478.13699    73225.087   -17306.917    1254.5121   -18561.429    75.085738    235.90965 
   17300    95.571572   -471.96339    73312.679   -17328.616    1294.4979   -18623.114    75.414449    243.42894 
   17350    94.496992   -561.39492    73325.693   -17302.104    1279.9429   -18582.047    76.230637    240.69189 
   17400    92.310283   -510.32736    73316.795   -17317.234    1250.3244   -18567.559    76.736521    235.12215 
   17450    95.542701   -546.14317    73346.375   -17266.902    1294.1069   -18561.009    76.696442     243.3554 
   17500    96.092637   -279.85542    73340.216   -17297.681    1301.5556   -18599.237    76.397735    244.75613 
   17550    94.650917   -159.42388    73335.487   -17263.585    1282.0278   -18545.612    76.609968    241.08395 
   17600    94.791732   -243.19716    73353.456   -17273.228    1283.9351   -18557.163     76.80653    241.44262 
   17650     93.28703    -108.2587    73361.997    -17229.21    1263.5542   -18492.764    77.004269    237.61001 
   17700    95.158584   -529.96248    73378.095   -17231.181    1288.9041   -18520.085    76.829919    242.37702 
   17750    94.250681   -295.19704    73369.187   -17203.821    1276.6067   -18480.428    76.949885    240.06451 
   17800    93.450631   -658.26331    73355.166   -17203.572    1265.7702   -18469.342    76.949798    238.02672 
   17850     95.68222   -493.09767    73364.525   -17218.187    1295.9966   -18514.184    76.782872    243.71077 
   17900    97.469723   -535.32187    73323.763   -17230.519     1320.208   -18550.727    77.019323    248.26369 
   17950    95.664652   -403.28094    73293.921   -17245.565    1295.7587   -18541.324    77.000317    243.66602 
   18000    96.285275   -438.09092    73342.384   -17240.791    1304.1649   -18544.956    77.155766     245.2468 
   18050    93.455583   -325.28267    73394.621   -17252.363    1265.8373     -18518.2    77.503774    238.03933 
   18100    94.854891   -225.77456    73379.577   -17264.222    1284.7906   -18549.013    77.951797    241.60349 
   18150    93.980847   -516.94628    73362.993   -17286.171    1272.9519   -18559.123     78.30995    239.37723 
   18200    91.843384   -349.64986    73312.008   -17321.065    1244.0003   -18565.065    78.652891    233.93292 
   18250    92.103595   -600.58774    73316.478   -17314.076    1247.5248     -18561.6    78.877079     234.5957 
   18300    92.825821   -543.12054    73296.701   -17295.497    1257.3073   -18552.805    78.846497    236.43527 
   18350    91.726881   -310.78368    73219.849   -17299.875    1242.4223   -18542.297    79.325655    233.63618 
   18400    92.164195   -182.50184    73193.303    -17304.27    1248.3457   -18552.615    80.126657    234.75006 
   18450    95.167702   -460.98397     73160.15   -17286.125    1289.0276   -18575.153    80.492168    242.40025 
   18500    93.050413   -432.65579    73153.598   -17283.723    1260.3493   -18544.072    80.407142    237.00733 
   18550    94.366937   -297.03463    73106.328   -17305.917    1278.1814   -18584.099    80.462341    240.36063 
   18600    93.029845   -320.30437    73087.584   -17306.901    1260.0707   -18566.971    80.517894    236.95494 
   18650    92.718094   -241.06699    73159.968    -17280.77    1255.8481   -18536.618    81.005398    236.16088 
   18700    93.199213   -579.52769    73189.763   -17255.364    1262.3648   -18517.728    81.095491    237.38633 
   18750    95.057136   -376.79527      73205.7   -17256.456      1287.53   -18543.986    81.334194    242.11862 
   18800    92.544408    -243.4758    73187.726   -17292.225    1253.4956   -18545.721    81.500972    235.71849 
   18850    95.956859   -77.970788    73228.431   -17297.762    1299.7165   -18597.479    81.789554    244.41029 
   18900    93.484617   -707.02809    73244.495   -17257.086    1266.2305   -18523.316    82.092819    238.11328 
   18950    94.917442   -304.93186    73303.525   -17243.043    1285.6379   -18528.681    82.134827    241.76281 
   19000    95.290535   -422.70542    73322.134   -17240.952    1290.6913   -18531.644     82.22955    242.71311 
   19050    93.336121   -430.95197    73391.455   -17224.546    1264.2192   -18488.765    82.279297    237.73505 
   19100    93.161542   -911.89579    73378.824    -17233.15    1261.8545   -18495.005    82.324919    237.29038 
   19150    94.341987    -794.0832    73334.259   -17235.008    1277.8434   -18512.852    82.360828    240.29708 
   19200    93.536606   -580.63468    73343.283    -17232.57    1266.9347   -18499.505     82.62589     238.2457 
   19250    94.608875   -489.48134    73312.987   -17250.673    1281.4584   -18532.132     82.80594    240.97687 
   19300    94.063168   -163.94118    73298.856    -17248.79    1274.0669   -18522.857    82.990545     239.5869 
   19350    94.519069   -392.27434    73306.673   -17245.472     1280.242   -18525.714    83.037526    240.74812 
   19400    96.222571   -574.11849    73368.691   -17226.679    1303.3156   -18529.995    83.282055    245.08709 
   19450    92.657761   -400.12001    73302.926   -17231.337    1255.0309   -18486.368    83.781571    236.00721 
   19500    96.675305   -361.34963    73355.077   -17248.229    1309.4478   -18557.676    84.186033    246.24024 
   19550    95.940867   -514.84226    73316.072   -17266.923    1299.4999   -18566.422    84.685562    244.36956 
   19600    96.124015   -498.18883    73297.132    -17244.18    1301.9806   -18546.161    84.797014    244.83606 
   19650    94.027936    -504.7575    73233.322   -17257.927    1273.5897   -18531.517    84.932429    239.49716 
   19700    94.447419   -163.77059    73301.182   -17253.553    1279.2715   -18532.825    85.193905    240.56562 
   19750    92.134863   -313.06264    73363.699   -17284.338    1247.9484   -18532.287    85.633667    234.67535 
   19800    95.552442   -499.68142    73373.306   -17283.416    1294.2388   -18577.655    85.375574    243.38021 
   19850    94.366022   -621.43233    73352.659   -17300.551     1278.169    -18578.72    85.623387     240.3583 
   19900    94.088947   -692.16916    73322.166   -17335.155    1274.4161   -18609.571    85.656403    239.65256 
   19950    95.545778   -382.51578    73337.699   -17308.936    1294.1485   -18603.084    86.036627    243.36324 
   20000    92.785569    -359.2062    73395.479   -17315.699    1256.7621   -18572.461    86.206926    236.33275 
   20050    93.930255    -594.1897    73374.119   -17280.681    1272.2666   -18552.947    86.364633    239.24836 
   20100    96.570043   -539.25815    73327.647   -17271.078     1308.022     -18579.1    86.544479    245.97213 
   20150    93.083498   -563.40726    73283.407    -17286.01    1260.7974   -18546.807    86.986502     237.0916 
   20200    93.495578   -605.95175     73231.41   -17294.224     1266.379   -18560.603    87.112685     238.1412 
   20250    92.224535   -587.29469    73156.075   -17317.414     1249.163   -18566.577    87.057989    234.90375 
   20300    92.865928   -275.59345    73136.257   -17300.054    1257.8505   -18557.905     87.25829    236.53743 
   20350    92.855255   -602.93032    73173.068   -17295.063    1257.7059   -18552.769    87.257532    236.51025 
   20400    93.878384   -496.12047    73160.881    -17283.06     1271.564   -18554.624    87.017851    239.11624 
   20450    94.437797   -423.29838    73165.179   -17315.087    1279.1412   -18594.228    86.861914    240.54112 
   20500    92.796003   -486.14009    73142.985   -17320.182    1256.9034   -18577.086    86.608881    236.35933 
   20550    93.868453    -258.5055    73153.814   -17327.777    1271.4295   -18599.206    86.680463    239.09095 
   20600    97.231076   -467.54393    73150.972   -17301.862    1316.9756   -18618.838    86.947048    247.65583 
   20650    96.487723   -284.75103    73129.075   -17310.047     1306.907   -18616.954    87.351667    245.76245 
   20700    93.032544   -324.22343    73127.043   -17307.448    1260.1073   -18567.555    87.131367    236.96182 
   20750    94.246606   -430.68231    73104.133    -17305.07    1276.5515   -18581.621    87.263351    240.05414 
   20800    96.519106   -787.88593    73117.975   -17242.414    1307.3321   -18549.746    87.338833    245.84239 
   20850    94.689644   -526.60171    73098.346   -17255.991    1282.5524   -18538.543    87.744647    241.18259 
   20900    94.896796   -616.00913    73090.166   -17266.783    1285.3582   -18552.141    87.930217    241.71022 
   20950    94.072811   -171.28084    73041.881   -17278.535    1274.1975   -18552.733     87.82364    239.61146 
   21000    92.697338    -573.4964    73017.543   -17261.773     1255.567    -18517.34    87.976366    236.10802 
   21050    94.329607   -531.31371    73044.152   -17288.637    1277.6757   -18566.313    87.902243    240.26555 
   21100    93.704908   -603.66041    73028.097   -17290.289    1269.2143   -18559.503    88.418569    238.67438 
   21150    96.610672   -650.68114    73007.775   -17316.179    1308.5723   -18624.752    88.812287    246.07561 
   21200    92.985233   -320.53963    72983.755   -17302.777    1259.4665   -18562.244    89.166638    236.84131 
   21250    94.559658   -239.03197    73038.794   -17291.735    1280.7917   -18572.526    88.856621    240.85151 
   21300    93.508102   -466.91555    73078.269   -17267.799    1266.5486   -18534.348     88.80526     238.1731 
   21350    91.870007   -479.91893    73071.902   -17293.345     1244.361   -18537.706    88.602226    234.00074 
   21400    91.064151   -525.00798    73039.662   -17319.277    1233.4458   -18552.722    88.988182    231.94815 
   21450    93.126465   -433.91228    72993.147   -17290.847    1261.3794   -18552.227    89.036164    237.20104 
   21500    95.029607   -656.44598    72986.686   -17270.507    1287.1571   -18557.664    88.850162    242.04851 
   21550    92.533583   -319.42003    72919.736   -17265.034     1253.349   -18518.383    88.849695    235.69092 
   21600    91.523133   -323.45548    72874.199   -17266.988    1239.6626   -18506.651    88.868039    233.11722 
   21650    96.972298   -314.12355    72912.713   -17249.903    1313.4705   -18563.373    89.223605     246.9967 
   21700    92.494846   -265.57497    72982.858   -17238.062    1252.8243   -18490.886    89.484336    235.59225 
   21750    94.911321   -637.82942    72984.763   -17263.152    1285.5549   -18548.707    89.568196    241.74722 
   21800    95.138665   -413.31683    72976.681   -17218.463    1288.6343   -18507.097    90.023376    242.32629 
   21850    94.548399   -327.93915     73011.15    -17183.78    1280.6392   -18464.419    90.304043    240.82283 
   21900    94.328466   -672.28741    72973.284   -17194.561    1277.6603   -18472.221    90.316736    240.26264 
   21950    93.243233   -807.61974    72935.082    -17215.09     1262.961   -18478.051    90.395179    237.49846 
   22000    96.235613    -465.6918    72933.965   -17196.867    1303.4922   -18500.359    91.022484    245.12031 
   22050     96.50593   -184.44652    72953.262   -17224.704    1307.1536   -18531.858    90.860717    245.80883 
   22100     94.57279   -522.84119    72972.589   -17186.607    1280.9696   -18467.577    90.890096    240.88495 
   22150    94.301973   -322.59384     72978.19   -17206.486    1277.3014   -18483.787    90.824613    240.19516 
   22200     93.91969      -162.05    73015.137   -17199.346    1272.1235   -18471.469    91.274435    239.22145 
   22250    95.449341   -725.68221    73029.229   -17189.571    1292.8423   -18482.413    91.878227     243.1176 
   22300    95.578098   -582.90657    72997.675   -17207.131    1294.5863   -18501.718    91.629156    243.44556 
   22350    97.186431   -419.98566    72981.187   -17210.422    1316.3708   -18526.793    91.828746    247.54212 
   22400    96.854493    -489.0008    72963.852   -17203.134    1311.8748   -18515.009    91.852275    246.69665 
   22450    92.421604   -205.48512    72979.519   -17244.207    1251.8322   -18496.039    91.930369     235.4057 
   22500    93.854892     -215.691     73003.67   -17249.679    1271.2458   -18520.925    91.976545    239.05641 
   22550    94.161179   -281.27353    73077.746   -17272.569    1275.3944   -18547.964    92.063772    239.83655 
   22600    92.326588   -462.45023    73140.851   -17270.095    1250.5453    -18520.64    92.530828    235.16369 
   22650    93.257206    22.409138      73221.8   -17241.773    1263.1503   -18504.923    93.012369    237.53405 
   22700    96.905151   -531.34255    73241.856   -17216.075     1312.561   -18528.636    93.279416    246.82568 
   22750    94.079109   -645.87916    73199.854   -17190.186    1274.2828   -18464.469    93.870489    239.62751 
   22800    95.998072     -599.086    73204.032   -17191.287    1300.2748   -18491.562    94.352546    244.51527 
   22850    96.511017   -525.76828    73211.163   -17168.308    1307.2225    -18475.53    94.241383    245.82178 
   22900    95.357167   -460.97229    73159.967   -17197.134    1291.5938   -18488.728    94.468432    242.88283 
   22950    93.920745   -445.62737    73167.006    -17215.48    1272.1378   -18487.618    94.837406    239.22414 
   23000    95.858647   -193.73436    73137.074   -17240.212    1298.3863   -18538.598    94.770535    244.16014 
   23050    94.736739   -629.95932    73146.955    -17254.27    1283.1903    -18537.46    95.430068    241.30255 
   23100    95.858328   -527.48054    73200.531   -17239.955     1298.382   -18538.337    96.108082    244.15933 
   23150    93.805967   -449.61164    73270.903    -17240.19    1270.5831   -18510.773    96.427331    238.93179 
   23200    95.208762   -431.48873    73240.438   -17195.333    1289.5837   -18484.916    96.536342    242.50483 
   23250    94.812118   -419.72814    73222.156   -17202.947    1284.2113   -18487.158    96.371526    241.49454 
   23300    93.882552   -691.14227    73173.291   -17199.691    1271.6205   -18471.312    96.375871    239.12686 
   23350    94.858924   -248.62968    73140.659   -17202.742    1284.8452   -18487.587    96.197163    241.61376 
   23400    93.572758   -827.92644    73111.924   -17220.643    1267.4244   -18488.067    96.659736    238.33779 
   23450    92.683697   -519.41293    73049.449   -17215.387    1255.3822    -18470.77    97.261109    236.07327 
   23500    92.326074   -727.81193    73020.365   -17227.821    1250.5383   -18478.359    97.419997    235.16238 
   23550    93.509146   -645.58378     72959.46    -17239.54    1266.5628   -18506.103    97.619172    238.17576 
   23600    93.664515   -561.70632    72964.997    -17286.54    1268.6672   -18555.207    97.562822     238.5715 
   23650    92.352508   -479.93781    72954.289    -17279.42    1250.8963   -18530.317    98.180548    235.22971 
   23700    95.190425   -490.40407    72933.891   -17272.607    1289.3354   -18561.942    98.457714    242.45812 
   23750    93.585029   -624.16535    72871.995   -17287.345    1267.5906   -18554.935    99.014779    238.36904 
   23800    93.546692    -138.8936    72906.829    -17285.21    1267.0713   -18552.281     99.55365    238.27139 
   23850    92.642546    -456.1808    72927.379   -17262.238    1254.8248   -18517.063    99.624521    235.96846 
   23900    93.965743   -235.64011    72931.506   -17278.369    1272.7473   -18551.117    100.25458    239.33875 
   23950    93.413003   -920.87324    72988.057   -17294.495    1265.2605   -18559.756    100.54405    237.93088 
   24000    97.655593   -614.88703    72889.754   -17258.719    1322.7256   -18581.444    100.90943    248.73712 
   24050    94.937747   -328.53999    72942.687   -17269.059    1285.9129   -18554.972    101.05591    241.81453 
   24100    96.545965   -485.85674    72995.716   -17263.381    1307.6959   -18571.076    101.40139     245.9108 
   24150    94.263025   -196.22666    73072.657   -17260.699    1276.7739   -18537.473    101.81994    240.09596 
   24200    94.609107   -579.56631    73096.424   -17267.767    1281.4615   -18549.229    101.84923    240.97746 
   24250    94.458562   -503.16341    73044.528   -17275.631    1279.4224   -18555.053    102.01338    240.59401 
   24300    93.118364   -351.67182    73024.757   -17298.383    1261.2697   -18559.653    102.38821    237.18041 
   24350    96.441179   -415.73939    73042.673   -17280.881    1306.2766   -18587.158    102.27496     245.6439 
   24400    96.328585   -196.88173    73071.752   -17280.094    1304.7515   -18584.845    102.44566    245.35711 
   24450    96.269992   -498.07465    73151.813   -17293.013    1303.9579   -18596.971    102.79451    245.20787 
   24500    93.364272   -900.05877    73119.682   -17335.273    1264.6005   -18599.874    102.84239    237.80675 
   24550    93.533847   -693.69954    73004.746   -17322.331    1266.8973   -18589.228    103.22869    238.23868 
   24600    95.260856    -336.7779    72988.142   -17272.708    1290.2893   -18562.998    103.20543    242.63752 
   24650    92.732982   -435.23696     72945.51   -17274.444    1256.0498   -18530.493    103.14379    236.19881 
   24700    93.212998   -444.55541    72931.352   -17279.638    1262.5515    -18542.19    103.05461    237.42145 
   24750    93.410724   -265.83361    72905.241    -17288.79    1265.2297    -18554.02    102.89169    237.92507 
   24800    93.117666   -158.00357    72958.289   -17271.994    1261.2602   -18533.254    102.82925    237.17863 
   24850    91.323291   -176.93455    72986.565   -17323.902    1236.9558   -18560.858    103.05196     232.6082 
   24900    94.254711   -245.04032     73043.31   -17317.935    1276.6613   -18594.596    103.45742    240.07478 
   24950    92.946669   -398.51256    72975.787   -17293.359    1258.9441   -18552.304    103.58567    236.74308 
   25000    93.762061    -489.1659    72890.803   -17283.594    1269.9884   -18553.582    103.89435    238.81996 
   25050    93.021755   -689.04143    72865.772   -17248.483    1259.9611   -18508.444    104.41542    236.93434 
   25100    95.406416   -63.591743    72916.068   -17227.317    1292.2609   -18519.578    104.51257    243.00827 
   25150    93.836371   -755.96081    72915.812   -17261.093     1270.995   -18532.088    104.58982    239.00923 
   25200     93.35878   -507.96236    72819.764   -17256.375    1264.5261   -18520.901    104.89615    237.79277 
   25250    96.648366   -372.36249    72825.482   -17243.326    1309.0829   -18552.409    105.05209    246.17162 
   25300    97.945614   -651.52915    72805.882   -17259.528    1326.6538   -18586.182    105.18987    249.47582 
   25350    95.154329   -702.69893    72793.993   -17239.721    1288.8464   -18528.568    105.65293    242.36618 
   25400    96.453547   -452.53465    72800.671   -17260.897    1306.4441   -18567.341    105.90878     245.6754 
   25450    94.731925   -356.19999    72762.304   -17252.988    1283.1251   -18536.113    106.46693    241.29029 
   25500    91.439541   -560.18805    72739.454   -17307.458    1238.5304   -18545.988    106.59106     232.9043 
   25550    92.452607    -286.7231    72708.684   -17275.134    1252.2521   -18527.386    106.54881    235.48467 
   25600    93.535207   -847.52708    72690.368   -17266.959    1266.9158   -18533.875    106.85888    238.24214 
   25650    93.207077   -379.41681    72760.321   -17295.221    1262.4713   -18557.692    106.80926    237.40637 
   25700    92.959421   -640.89491     72801.23   -17282.431    1259.1169   -18541.548    106.82889    236.77557 
   25750    93.402134   -667.22711    72772.248   -17286.638    1265.1133   -18551.751    107.01766    237.90319 
   25800    96.463829   -311.14374    72780.862   -17246.448    1306.5833   -18553.031    106.98842    245.70159 
   25850    96.571947   -533.87676    72807.269    -17256.64    1308.0478   -18564.688    107.40048    245.97698 
   25900    90.993563   -526.32894    72803.223   -17275.636    1232.4897   -18508.125    108.02575    231.76836 
   25950    92.991972   -514.87549    72776.371   -17293.755    1259.5577   -18553.312    107.96223    236.85848 
   26000    95.669026   -550.03815     72741.85   -17261.267    1295.8179   -18557.085    108.62995    243.67716 
   26050    92.775116   -417.13616     72709.07   -17267.519    1256.6205    -18524.14    108.86765    236.30612 
   26100    96.826023   -306.90232    72721.879   -17247.342    1311.4892   -18558.831    109.00832    246.62413 
   26150    91.610891   -488.86148    72715.963   -17266.791    1240.8513   -18507.642    109.52329    233.34074 
   26200    92.298035   -436.61877    72735.928   -17246.709    1250.1585   -18496.868    109.67663    235.09096 
   26250    94.761397    -503.1593    72686.595   -17257.694    1283.5242   -18541.219    109.81107    241.36535 
   26300    94.807409   -349.11701    72722.295   -17261.722    1284.1475   -18545.869    109.89442    241.48255 
   26350    92.880854    -315.9221    72771.654   -17247.219    1258.0527   -18505.272    109.92369    236.57545 
   26400    97.594545   -221.49613    72799.474   -17234.622    1321.8987    -18556.52    110.13628    248.58162 
   26450    90.924088   -574.11841    72791.757   -17279.582    1231.5487   -18511.131    110.21546     231.5914 
   26500    91.279142   -33.257474    72828.803    -17225.16    1236.3578   -18461.518    110.68591    232.49575 
   26550    97.968952   -313.20899    72795.396   -17224.001    1326.9699   -18550.971     110.8068    249.53527 
   26600     96.05534   -363.10222    72774.752   -17230.848    1301.0504   -18531.898    110.67215    244.66113 
   26650    93.134789   -632.07423    72773.287    -17219.47    1261.4922   -18480.962     110.9279    237.22224 
   26700    96.614952   -759.97159    72710.736   -17208.036    1308.6303   -18516.666      110.559    246.08651 
   26750    96.185743   -485.54334    72664.506   -17172.634    1302.8167   -18475.451    110.96096    244.99328 
   26800    95.825977   -962.40487    72656.598    -17202.61    1297.9438   -18500.554    111.21048    244.07693 
   26850    96.563173   -835.23716    72594.409   -17181.932     1307.929   -18489.861     111.2917    245.95463 
   26900    96.322578   -305.37134    72634.636   -17164.566    1304.6701   -18469.236    111.48953    245.34181 
   26950    92.319156   -722.03533    72689.685   -17194.607    1250.4446   -18445.051    111.62756    235.14475 
   27000    95.769189   -514.57772    72568.384   -17158.864    1297.1746   -18456.038    112.11672    243.93228 
   27050    93.051275   -355.55961    72642.041   -17173.371     1260.361   -18433.732    112.61233    237.00953 
   27100    96.267322    -330.8718    72670.773   -17179.284    1303.9217   -18483.205    112.66724    245.20107 
   27150    95.806641    -485.6389     72733.59   -17200.235    1297.6819   -18497.917    113.00284    244.02768 
   27200    94.390718   -553.71639     72794.21   -17200.272    1278.5035   -18478.776    113.31999     240.4212 
   27250      92.8585   -749.07501    72865.174   -17218.409    1257.7499   -18476.159    113.34923    236.51851 
   27300    94.426054   -869.67571    72897.632   -17210.937    1278.9821   -18489.919    113.58603    240.51121 
   27350    95.384807   -862.20227    72890.696   -17201.861    1291.9682   -18493.829    113.70149    242.95323 
   27400    95.043576   -471.31051    72977.011   -17184.341    1287.3463   -18471.688    113.82324    242.08408 
   27450    96.878729   -516.57295    73034.315   -17197.808    1312.2031   -18510.011     114.0055    246.75838 
   27500    95.688594   -577.31223    73100.735   -17208.028    1296.0829   -18504.111    114.21118      243.727 
   27550    95.556591   -387.23048    73125.566   -17265.709     1294.295   -18560.004    114.13774    243.39078 
   27600    94.413433   -524.81358    73066.167   -17247.596    1278.8111   -18526.407    114.42727    240.47906 
   27650    91.935571   -541.80041    73088.328   -17248.829     1245.249   -18494.078    114.23557    234.16773 
   27700    93.786985   -756.71969    73054.291   -17258.417     1270.326   -18528.743    114.66882    238.88344 
   27750    91.697555   -607.76311     72933.46    -17272.99    1242.0251   -18515.016    114.84408    233.56149 
   27800    91.667306   -615.81727    72877.604   -17304.887    1241.6154   -18546.502    114.96488    233.48444 
   27850     94.71372   -572.88311    72824.316   -17280.976    1282.8785   -18563.855    115.16654    241.24391 
   27900    94.814498   -284.61358     72858.57   -17281.555    1284.2435   -18565.798    115.59213    241.50061 
   27950    95.405859   -606.60166    72869.844   -17289.002    1292.2534   -18581.256    115.58965    243.00685 
   28000    96.057882   -463.19516    72976.165   -17280.404    1301.0849   -18581.489    116.11282    244.66761 
   28050    94.164331   -398.92568    72978.784   -17262.001    1275.4371   -18537.438    116.72941    239.84457 
   28100    93.850267   -699.48897    72930.683    -17270.34    1271.1832   -18541.523    117.06102    239.04463 
   28150    96.221319   -580.37266    72863.013   -17246.618    1303.2986   -18549.917     116.8332     245.0839 
   28200    95.176179   -625.94386    72822.591   -17237.054    1289.1424   -18526.196    117.07817    242.42184 
   28250    93.249155   -776.54643    72779.787   -17247.855    1263.0412   -18510.896    117.38418    237.51354 
   28300    96.286019    -707.7176    72795.235   -17221.474     1304.175   -18525.649    117.95057    245.24869 
   28350    96.431029   -805.74675    72791.723   -17230.944    1306.1391   -18537.083    118.28588    245.61805 
   28400    97.061412   -1042.9091    72734.901   -17202.614    1314.6775   -18517.292    118.63413    247.22369 
   28450    96.884781   -626.98431     72738.74   -17233.829    1312.2851   -18546.114    119.09269    246.77379 
   28500    94.440102   -551.71039    72770.723   -17240.965    1279.1724   -18520.137    119.35392    240.54699 
   28550    93.263453   -338.95315    72834.724   -17247.167    1263.2349   -18510.402    119.27858    237.54996 
   28600    91.105813     60.40412    72895.772   -17271.664    1234.0101   -18505.674     119.4241    232.05427 
   28650    93.469196   -382.71594    72981.844   -17300.996    1266.0216   -18567.018     119.5854    238.07401 
   28700    97.064954   -263.41194    72982.503   -17274.997    1314.7255   -18589.723    119.91492    247.23271 
   28750    93.783674   -283.44902    72958.948   -17285.009    1270.2812    -18555.29    119.77891    238.87501 
   28800    94.124997     -461.241    72973.032   -17247.725    1274.9043   -18522.629    119.93197    239.74439 
   28850    95.751587   -465.13787    72935.825   -17241.431    1296.9362   -18538.367    119.71458    243.88745 
   28900    98.814113   -239.26634    72944.935   -17210.201    1338.4175   -18548.618     119.7288    251.68796 
   28950    95.839767   -363.95152    72962.668   -17232.521    1298.1306   -18530.651    119.88016    244.11205 
   29000    96.977998   -512.22763    72935.147   -17223.006    1313.5477   -18536.554    119.82181    247.01122 
   29050    97.545512   -521.98114    72832.725   -17216.737    1321.2345   -18537.972    120.23817    248.45673 
   29100    97.026122   -768.42604    72840.077   -17242.352    1314.1995   -18556.551    120.77144     247.1338 
   29150    98.608069   -535.04916    72801.468   -17272.151    1335.6267   -18607.777    120.57182    251.16315 
   29200    96.831393   -320.46168    72792.908   -17270.376    1311.5619   -18581.938    121.00655    246.63781 
   29250    94.880337   -597.66731    72773.746   -17297.747    1285.1353   -18582.882     120.9755     241.6683 
   29300    93.048009   -657.05299    72735.676   -17309.352    1260.3168   -18569.668    120.75374    237.00121 
   29350     94.06982   -717.43086    72650.768    -17307.41     1274.157   -18581.567    120.97755    239.60385 
   29400    95.939354    -507.0634    72691.835   -17302.641    1299.4794    -18602.12    121.11778    244.36571 
   29450    92.540299   -328.62304     72693.66    -17326.86    1253.4399     -18580.3    121.13591    235.70803 
   29500    92.483799   -304.77066    72728.647   -17306.652    1252.6746   -18559.327    121.43722    235.56412 
   29550     92.49163   -678.16068    72725.978    -17328.63    1252.7807   -18581.411    121.56555    235.58406 
   29600    90.921053   -252.42208    72623.618   -17361.544    1231.5076   -18593.052    121.81549    231.58367 
   29650     92.71475   -246.27897    72621.745   -17311.884    1255.8028   -18567.687    121.96695    236.15237 
   29700     92.92097    -238.1619    72616.989   -17320.764     1258.596    -18579.36    121.87019    236.67763 
   29750    92.198295   -189.48645    72614.717   -17299.589    1248.8076   -18548.397    121.72345    234.83691 
   29800    93.074599   -912.00151    72661.225   -17274.103    1260.6769    -18534.78    122.23565    237.06894 
   29850    92.229175   -45.363272    72563.918   -17275.926    1249.2258   -18525.152    122.20429    234.91557 
   29900    94.375308   -362.74507    72541.142    -17246.13    1278.2948   -18524.425    122.43791    240.38195 
   29950     92.68258   -531.49215    72507.541   -17263.261    1255.3671   -18518.628    122.59797    236.07043 
   30000    94.739077   -535.73186    72533.316   -17235.487    1283.2219   -18518.708    123.16431     241.3085 
   30050    96.500411   -339.19955    72519.081   -17224.952    1307.0789   -18532.031    123.13274    245.79477 
   30100    92.995172   -477.33107    72604.634   -17252.538    1259.6011   -18512.139    123.44909    236.86663 
   30150    94.183797   -327.36292    72662.643   -17246.758    1275.7008   -18522.459     123.7118    239.89415 
   30200    94.979083   -403.45504    72801.208   -17246.709    1286.4728   -18533.182    124.02097    241.91982 
   30250    95.759558   -454.45483    72834.954   -17237.708    1297.0441   -18534.752    124.05521    243.90775 
   30300    94.227552   -337.93906    72857.092   -17247.623    1276.2934   -18523.917    123.91585     240.0056 
   30350    90.417929   -504.03671    72894.776   -17276.402    1224.6928   -18501.095    124.23077    230.30217 
   30400    95.922946   -367.20327    72914.008   -17243.704    1299.2572   -18542.961    124.23084    244.32392 
   30450    95.349722   -117.70163    72987.969   -17234.198     1291.493   -18525.691    124.63178    242.86387 
   30500    92.897025   -630.34984    72963.468   -17258.337    1258.2717   -18516.608    124.90033    236.61664 
   30550    95.417393   -644.97877    72846.785   -17244.655    1292.4096   -18537.065    125.07259    243.03623 
   30600     91.79716   -443.30272    72819.797   -17278.692    1243.3743   -18522.066    125.27509    233.81519 
   30650    96.973819   -769.91704    72822.757   -17262.433    1313.4911   -18575.924    125.70346    247.00058 
   30700    91.482141   -410.89744    72776.893   -17272.038    1239.1074   -18511.146    125.99619    233.01281 
   30750    95.976619   -356.78539    72726.867   -17253.918    1299.9842   -18553.903    126.76197    244.46063 
   30800    92.496084   -171.80575    72773.582   -17261.877     1252.841   -18514.718    126.58312    235.59541 
   30850    94.149058   -486.43763    72765.141   -17265.973    1275.2302   -18541.203    126.23545    239.80567 
   30900    92.904313    16.860888    72757.902   -17288.497    1258.3704   -18546.868    126.74452     236.6352 
   30950    93.292956   -231.80317    72723.646   -17307.747    1263.6345   -18571.381    126.83896    237.62511 
   31000    92.572757   -310.60314    72707.934   -17307.585    1253.8796   -18561.464     127.0356     235.7907 
   31050    94.957909   -688.89824    72723.119   -17317.706     1286.186   -18603.892     127.2432    241.86588 
   31100    91.385281   -262.57706    72711.951   -17343.415    1237.7954    -18581.21    127.74062     232.7661 
   31150    93.428336   -279.85263    72788.074   -17346.821    1265.4682   -18612.289    127.79807    237.96993 
   31200    89.821737   -742.71378    72843.341   -17361.708    1216.6175   -18578.325    127.63268    228.78362 
   31250    90.611437   -566.99888    72782.931   -17383.033    1227.3139   -18610.347    127.55444    230.79505 
   31300    94.766854   -565.85706    72694.069   -17344.844    1283.5982   -18628.442    128.26396    241.37925 
   31350    92.075433   -369.92509    72645.671   -17302.915    1247.1434   -18550.058    128.49447    234.52397 
   31400    93.625918   -188.39266    72635.079   -17296.907    1268.1444   -18565.052    128.08888    238.47319 
   31450    94.589294   -524.86066     72702.49   -17285.362    1281.1932   -18566.555    128.45165    240.92699 
   31500    92.295535   -270.13914     72734.96   -17326.371    1250.1246   -18576.495    128.92599    235.08459 
   31550    94.587456   -248.35607    72803.141   -17279.601    1281.1683   -18560.769    128.86514    240.92231 
   31600    92.874927   -836.43245    72769.545   -17256.871    1257.9724   -18514.843    129.36297    236.56035 
   31650    93.616876   -274.94412    72735.885   -17205.527    1268.0219   -18473.549    129.37619    238.45016 
   31700    98.136005   -542.85264    72734.921   -17181.648    1329.2326   -18510.881    129.60875    249.96077 
   31750    96.326251   -763.51618     72731.77   -17198.322    1304.7199   -18503.042    129.68904    245.35117 
   31800    97.466665   -560.41723    72715.593   -17192.876    1320.1666   -18513.043    129.49607     248.2559 
   31850     95.54458   -840.91522    72668.309   -17203.542    1294.1323   -18497.675     129.7501    243.36019 
   31900    95.067026   -604.80031    72583.503   -17232.013    1287.6639   -18519.677    129.77071    242.14381 
   31950    97.273078   -317.86721    72601.088   -17225.691    1317.5445   -18543.236    130.05536    247.76282 
   32000    94.813556    109.15188     72643.24   -17220.628    1284.2307   -18504.859    130.24269    241.49821 
   32050    94.305647   -749.85757    72641.516   -17199.832    1277.3512   -18477.183    131.02007    240.20452 
   32100     95.44255   -298.93439    72607.088   -17210.934    1292.7503   -18503.685     131.4337    243.10031 
   32150     90.02756   -492.50826    72580.614   -17274.708    1219.4054   -18494.114    131.82189    229.30787 
   32200    94.182105   -318.04037    72612.858   -17261.749    1275.6779   -18537.427    132.00009    239.88985 
   32250    95.108338   -440.05934    72695.348   -17250.398    1288.2235   -18538.622    132.50467    242.24904 
   32300    94.681855   -600.10626    72715.415   -17283.869    1282.4469   -18566.316    132.16568    241.16275 
   32350     91.69192   -667.85098     72686.93   -17308.824    1241.9488   -18550.773    132.22308    233.54713 
   32400    91.035735   -282.47678    72654.924   -17306.239    1233.0609     -18539.3    132.50344    231.87577 
   32450    94.056983   -441.77931    72655.023   -17316.612    1273.9831   -18590.595    132.73145    239.57115 
   32500    92.051179   -612.17897    72656.859   -17289.312    1246.8149   -18536.127    133.11077     234.4622 
   32550    92.265611   -155.08301    72668.155   -17295.128    1249.7193   -18544.847     133.2383    235.00837 
   32600    93.767384   -462.40357    72656.798   -17292.184    1270.0605   -18562.245    133.28706    238.83352 
   32650     93.99587   -287.56897    72668.214   -17281.285    1273.1553    -18554.44    133.42362    239.41549 
   32700    93.322837   -179.73129    72705.772   -17285.999    1264.0393   -18550.039    133.74577    237.70122 
   32750    91.499143   -401.98878    72716.853   -17285.148    1239.3377   -18524.486    134.27328    233.05611 
   32800    92.824894   -806.60266    72774.475   -17270.307    1257.2947   -18527.601    134.61119    236.43291 
   32850    92.158847   -429.10541    72798.915   -17290.763    1248.2732   -18539.037      134.683    234.73644 
   32900    93.502153   -404.33297    72823.716   -17256.194     1266.468   -18522.662    134.80759    238.15795 
   32950    96.632068   -874.59531      72888.5   -17207.711    1308.8621   -18516.573    135.21448    246.13011 
   33000    96.735639   -659.68352    72781.558   -17211.602     1310.265   -18521.867    134.99506    246.39392 
   33050    96.004253    -87.18685    72735.338   -17196.694    1300.3585   -18497.053    134.83605    244.53101 
   33100    96.037944   -422.26463    72761.582    -17206.12    1300.8148   -18506.935    134.87791    244.61682 
   33150    94.427859   -59.041786    72823.717   -17238.884    1279.0066    -18517.89    135.26877     240.5158 
   33200    95.137931   -476.51417    72927.266   -17250.815    1288.6243    -18539.44    135.45724    242.32442 
   33250    93.033512   -323.03864    72960.766   -17294.866    1260.1204   -18554.986    135.49838    236.96428 
   33300    93.208205   -497.50074    72999.927   -17338.909    1262.4866   -18601.396    135.84208    237.40924 
   33350    91.309421    -638.3502    72974.562   -17347.286    1236.7679   -18584.054    135.87634    232.57287 
   33400    91.923806   -725.23616    72938.396   -17361.293    1245.0897   -18606.382     136.2427    234.13777 
   33450    91.397232   -630.74094    72928.292   -17334.044    1237.9573   -18572.002    136.73099    232.79654 
   33500    94.260825   -341.46575    72975.198   -17316.921    1276.7441   -18593.665     136.8965    240.09035 
   33550    93.530768   -589.59051    72961.878   -17322.907    1266.8556   -18589.763    137.24543    238.23083 
   33600    91.654408   -546.91549    72926.208   -17300.008    1241.4407   -18541.449    137.80661    233.45159 
   33650    91.027309   -843.28729    72830.068   -17318.529    1232.9468   -18551.475    138.04179    231.85431 
   33700    92.132065   -497.19282    72742.339   -17331.723    1247.9105   -18579.633    137.77473    234.66822 
   33750    96.980323    -384.6007     72760.43   -17289.964    1313.5792   -18603.543    137.76685    247.01714 
   33800    94.907198   -721.45189    72692.325   -17283.104    1285.4991   -18568.603    138.16798    241.73672 
   33850    96.345728   -161.99225    72707.628   -17266.458    1304.9837   -18571.442    138.41073    245.40078 
   33900    92.580709   -446.77965    72723.123   -17271.972    1253.9873    -18525.96    138.22178    235.81095 
   33950    94.321462   -117.53825    72642.578   -17281.611    1277.5654   -18559.177    138.39855     240.2448 
[...]
   92000    95.705347   -701.02191    73037.468   -17265.457    1296.3099   -18561.766     348.2855    243.76967 
   92050    94.781016    -539.9682    73030.775   -17269.372      1283.79   -18553.162    348.78697    241.41532 
   92100    92.586609   -655.48717    73040.775   -17298.347    1254.0672   -18552.414    349.19124    235.82598 
   92150    95.519515   -751.17199    73037.351   -17266.536    1293.7928   -18560.329    348.84522    243.29634 
   92200    93.005088   -860.43016    72984.107   -17265.476    1259.7354   -18525.212     348.7619    236.89188 
   92250    93.466363   -204.60525    72981.896   -17284.654    1265.9833   -18550.637    349.05686    238.06679 
   92300    93.754643   -889.30184    73021.101   -17302.512     1269.888     -18572.4    350.33101    238.80106 
   92350    97.071173   -180.19653    73090.792   -17269.625    1314.8097   -18584.434    350.09628    247.24855 
   92400    96.897782   -350.68813    73043.247   -17269.491    1312.4612   -18581.952    350.66849    246.80691 
   92450    94.125584   -709.63165    73086.619   -17308.916    1274.9123   -18583.829    351.09509    239.74588 
   92500    94.412026   -652.43653    73098.297   -17288.405    1278.7921   -18567.198    351.50742    240.47547 
   92550    95.744746   -303.79107    73146.642   -17303.233    1296.8435   -18600.076    351.23736    243.87003 
   92600    93.888132   -377.14768    73129.348   -17315.205    1271.6961   -18586.901    350.98678    239.14107 
   92650    94.649853   -483.65256    73092.565   -17317.784    1282.0134   -18599.797    351.14474    241.08124 
   92700    93.966621   -763.18074    73117.517    -17319.15    1272.7592   -18591.909    351.34212    239.34099 
   92750    94.313536   -424.18645    73104.065   -17322.764    1277.4581   -18600.222    351.39026    240.22461 
   92800    92.615408   -254.50573     73140.57   -17324.302    1254.4573    -18578.76    351.90898    235.89933 
   92850    94.586783   -384.45179    73161.936   -17310.778    1281.1591   -18591.937    352.20922    240.92059 
   92900    92.687989   -573.17739    73144.521   -17293.365    1255.4404   -18548.805    352.47096    236.08421 
   92950    94.937018   -753.24075    73099.042   -17273.336     1285.903   -18559.239    353.21043    241.81267 
   93000    98.560307   -698.15341    73063.135   -17285.983    1334.9797   -18620.962    353.30753     251.0415 
   93050    92.075726   -625.24354    72978.074   -17309.835    1247.1474   -18556.982    354.14674    234.52472 
   93100    94.432819   -626.76757    72928.937   -17298.341    1279.0737   -18577.415    354.45149    240.52843 
   93150    95.268575   -622.40505     72884.87   -17302.541    1290.3939   -18592.935    354.85295    242.65718 
   93200    94.668967   -570.81911    72903.277     -17268.2    1282.2723   -18550.472    355.45061    241.12992 
   93250    94.987403   -640.78496    72906.166   -17283.751    1286.5855   -18570.337    355.62773    241.94101 
   93300    94.126614   -571.89396    72885.637   -17278.258    1274.9262   -18553.185     356.1293    239.74851 
   93350    91.564647    -430.3566    72910.078   -17265.152    1240.2249   -18505.377    356.59133    233.22296 
   93400    93.605904   -745.93969    72881.025     -17269.7    1267.8733   -18537.573    356.78755    238.42221 
   93450    92.255536   -635.93003    72828.197   -17248.555    1249.5829   -18498.138     356.8924    234.98271 
   93500    92.255617   -671.27816     72811.14   -17265.952     1249.584   -18515.536    357.57369    234.98292 
   93550    92.621422   -615.59165    72754.042   -17258.402    1254.5387   -18512.941    357.74415    235.91465 
   93600    90.730449   -443.02303     72739.82   -17240.028    1228.9259   -18468.954    357.49928    231.09818 
   93650    92.959608   -242.71336    72734.245   -17219.663    1259.1194   -18478.783     357.3469    236.77604 
   93700    95.841689   -464.09698    72727.481   -17229.532    1298.1566   -18527.688    357.61953    244.11695 
   93750    95.543427   -292.00099    72728.613   -17230.593    1294.1167    -18524.71    357.70167    243.35725 
   93800    95.745342   -17.999022    72705.648   -17249.908    1296.8516    -18546.76     357.9114    243.87154 
   93850    96.122157   -327.12028    72784.587   -17236.002    1301.9555   -18537.958    358.94815    244.83132 
   93900    91.891686   -566.04889    72810.542   -17200.178    1244.6546   -18444.833    359.52237    234.05595 
   93950    96.675591   -250.26938    72796.591   -17194.111    1309.4516   -18503.562    359.65375    246.24097 
   94000     94.87484   -594.61771    72796.183   -17193.308    1285.0608   -18478.369    359.66814     241.6543 
   94050    97.210661   -577.81259    72766.161   -17216.522     1316.699   -18533.221    359.68345    247.60384 
   94100     94.35284   -841.54105    72649.056    -17203.09    1277.9904   -18481.081    359.58473    240.32472 
   94150    91.642117   -621.52276    72600.704   -17243.649    1241.2742   -18484.923    360.19345    233.42028 
   94200    94.808945   -586.11011    72547.808   -17243.654    1284.1683   -18527.823    360.04142    241.48646 
   94250    93.722594   -276.82055    72555.221   -17257.875    1269.4539   -18527.329    359.96138    238.71943 
   94300    93.800355   -442.65189    72637.393   -17297.447    1270.5071   -18567.954    360.20703     238.9175 
   94350    93.476461   -311.35615    72658.805   -17311.759    1266.1201   -18577.879    360.13729    238.09251 
   94400    92.297918   -467.30121    72664.407    -17290.65    1250.1569   -18540.807    359.82658    235.09066 
   94450    92.250624   -403.13753    72652.712   -17304.174    1249.5163    -18553.69    360.12231     234.9702 
   94500    92.646082    -332.4983    72675.228   -17282.251    1254.8727   -18537.124    360.48107    235.97746 
   94550    95.805659   -754.22567    72648.545   -17245.726    1297.6686   -18543.395     360.8658    244.02518 
   94600    92.149444   -687.52895    72603.158   -17246.851    1248.1459   -18494.997    359.92878    234.71249 
   94650    95.139955   -180.91213      72576.8   -17213.054    1288.6517   -18501.706    359.77256    242.32957 
   94700    96.023936    -599.4598    72543.075   -17204.466    1300.6251   -18505.091    360.70875    244.58115 
   94750    96.322421   -154.18637    72551.348    -17199.67     1304.668   -18504.338     360.9997    245.34141 
   94800     93.92663   -643.99122    72525.566   -17202.581    1272.2175   -18474.799    361.74183    239.23913 
   94850    94.651556   -681.17069    72466.598   -17249.122    1282.0365   -18531.158    362.48883    241.08558 
   94900    93.532953   -704.50193    72442.753   -17265.058    1266.8852   -18531.943    362.68357     238.2364 
   94950    89.780371   -544.82812    72393.653    -17296.64    1216.0572   -18512.697     363.3601    228.67825 
   95000    92.883781   -268.41059    72363.541   -17323.625    1258.0923   -18581.717    364.09374     236.5829 
   95050    91.915031   -349.47249    72429.259   -17321.399    1244.9708    -18566.37    364.73522    234.11542 
   95100    90.582169   -451.71128    72474.627   -17312.657    1226.9174   -18539.575    365.42479     230.7205 
   95150    90.907195   -168.15315    72545.831   -17320.118    1231.3199   -18551.438    365.88305    231.54837 
   95200    90.356151   -617.87618    72569.179   -17329.069    1223.8561   -18552.925    365.78635    230.14481 
   95250    92.152652   -423.61596    72589.705   -17302.061    1248.1893   -18550.251    365.52099    234.72066 
   95300    95.237944   -393.22021    72673.358   -17276.824     1289.979   -18566.803    365.60085    242.57916 
   95350    91.792487   -634.96546    72636.112   -17322.121     1243.311   -18565.432    365.76132    233.80328 
   95400    93.258125   -142.94507    72634.884   -17308.074    1263.1627   -18571.237    365.64459    237.53639 
   95450    93.996009   -161.81526    72681.623   -17315.842    1273.1572   -18588.999    365.40267    239.41584 
   95500    91.561369   -339.96663    72748.753   -17328.843    1240.1805   -18569.024    365.79864    233.21461 
   95550     94.43594   -250.20557    72824.244    -17310.66     1279.116   -18589.776    366.26884    240.53639 
   95600    91.958053   -502.09363     72788.52   -17307.681    1245.5535   -18553.234    366.15576      234.225 
   95650    92.866337   -633.32456    72786.701   -17310.624     1257.856    -18568.48    365.92258    236.53847 
   95700    92.527857   -638.40883    72795.034   -17311.335    1253.2714   -18564.606     366.2378    235.67633 
   95750    90.745374   -454.45162        72805    -17292.52     1229.128   -18521.648    366.42226     231.1362 
   95800    89.002838   -645.20161    72807.863   -17302.748    1205.5257   -18508.274     366.3968    226.69781 
   95850    93.040271   -465.01503    72786.754   -17299.125    1260.2119   -18559.337     366.8277     236.9815 
   95900    92.410726   -592.80333     72757.47    -17291.23    1251.6849   -18542.915    367.28222    235.37799 
   95950     91.95121   -27.849693     72796.61   -17321.606    1245.4608   -18567.067    367.59426    234.20757 
   96000    93.733673   -459.42391    72880.148   -17316.839    1269.6039   -18586.443    368.36978    238.74765 
   96050    92.358463   -394.41854     72936.86   -17308.559     1250.977   -18559.536    368.23913    235.24487 
   96100    95.532732   -90.890662    72976.946   -17274.247    1293.9718   -18568.219    367.97399    243.33001 
   96150    93.035573   -383.83089    72981.726   -17294.386    1260.1483   -18554.534    369.00416    236.96953 
   96200    95.995149   -385.90172     73002.48   -17303.745    1300.2352    -18603.98    369.45516    244.50782 
   96250    92.563413   -238.64714    72990.497   -17300.019     1253.753   -18553.772    369.67656     235.7669 
   96300    95.603927   -530.57817    72991.103   -17258.142    1294.9361   -18553.078    369.84349    243.51135 
   96350    93.551703   -308.87398    72926.895   -17254.581    1267.1392   -18521.721    370.45046    238.28416 
   96400    93.841155   -242.58108    72866.141    -17304.54    1271.0598     -18575.6    370.26816    239.02142 
   96450    95.319526   -426.61447    72826.645   -17313.361     1291.084   -18604.445    370.69351    242.78695 
   96500     91.76364   -396.39667    72811.231   -17299.936    1242.9202   -18542.857    370.74088    233.72981 
   96550    93.288189   -183.47252    72756.129   -17316.445    1263.5699   -18580.015    371.82624    237.61296 
   96600    92.552535   -153.18751    72823.584   -17269.722    1253.6057   -18523.328    371.93451    235.73919 
   96650    94.183786   -546.15414    72804.227   -17262.623    1275.7006   -18538.323    371.51089    239.89413 
   96700    94.114669   -189.07746    72761.185   -17283.892    1274.7644   -18558.656    371.31807    239.71808 
   96750    94.097962   -388.15838    72792.876   -17308.023    1274.5382   -18582.561    371.28697    239.67553 
   96800    96.186121   -460.93405    72824.772   -17285.432    1302.8219   -18588.253    371.95304    244.99424 
   96850    94.515851    -423.3769    72925.195    -17298.43    1280.1984   -18578.629    371.85046    240.73992 
   96900    95.388473   -295.78307    72905.804   -17292.519    1292.0179   -18584.537    372.01168    242.96257 
   96950    92.049414   -201.99026    72889.919   -17289.664     1246.791   -18536.455    372.77248     234.4577 
   97000    94.781778   -387.36908    72878.524   -17272.224    1283.8003   -18556.024    372.91592    241.41726 
   97050     94.17171   -570.64943    72880.099   -17253.779    1275.5371   -18529.316    372.42922    239.86337 
   97100    94.593351   -696.61623    72891.746   -17268.189    1281.2481   -18549.437    372.71652    240.93732 
   97150     94.19294   -553.59896    72880.122   -17285.342    1275.8246   -18561.167    372.34446    239.91744 
   97200    92.056694   -654.74395     72850.86   -17349.601    1246.8896    -18596.49    372.77222    234.47624 
   97250    94.838806   -590.26762    72789.939   -17326.236    1284.5727   -18610.809    373.12231    241.56252 
   97300    91.734134   -450.05077    72749.249   -17329.515    1242.5206   -18572.036    373.28072    233.65465 
   97350    93.077686   -369.96587    72717.489   -17330.741    1260.7187    -18591.46    373.46669     237.0768 
   97400     93.30774   -394.38505    72773.142   -17318.464    1263.8348   -18582.299    373.78011    237.66276 
   97450    94.320665   -185.64961    72799.712   -17297.185    1277.5546   -18574.739    374.18446    240.24277 
   97500    91.790278   -599.59992    72856.611   -17302.424     1243.281   -18545.705     374.0785    233.79766 
   97550    94.829393   -695.53877    72903.595   -17287.749    1284.4452   -18572.194    373.96228    241.53854 
   97600    93.414856   -552.86412    72849.051    -17304.71    1265.2856   -18569.996    374.47566     237.9356 
   97650    92.857482   -353.56023    72842.288   -17301.138    1257.7361   -18558.874     375.4034    236.51592 
   97700    93.353191   -639.97157    72850.432   -17293.551    1264.4504   -18558.001    375.70637    237.77853 
   97750    93.748384   -787.19901    72834.136   -17283.166    1269.8032    -18552.97     375.2746    238.78512 
   97800    96.248402    -388.7474    72815.859   -17253.144    1303.6654   -18556.809    375.60159    245.15288 
   97850    95.673182   -661.25669    72842.569   -17260.867    1295.8742   -18556.741    376.11587    243.68775 
   97900    91.521759   -507.39291    72874.033   -17308.856     1239.644     -18548.5    375.84024    233.11372 
   97950    93.687774    -339.6648    72914.927   -17313.063    1268.9822   -18582.045    375.78481    238.63074 
   98000    96.555673   -427.30849    72923.554   -17279.038    1307.8274   -18586.865    375.22224    245.93553 
   98050    92.507981   -672.05909    72883.731   -17265.139    1253.0022   -18518.142    375.27569    235.62571 
   98100    92.757988   -490.74897    72836.589   -17293.662    1256.3885   -18550.051    375.56043     236.2625 
   98150    92.775656   -654.70464    72819.164   -17266.258    1256.6278   -18522.886     376.8055     236.3075 
   98200    93.987242   -722.37636    72764.353   -17275.651    1273.0385    -18548.69    376.44055    239.39351 
   98250    95.366984   -222.13135    72735.921   -17258.627    1291.7268   -18550.354    376.25064    242.90783 
   98300    93.135197    -519.7689    72673.113    -17254.49    1261.4977   -18515.987    377.12782    237.22328 
   98350    92.267066   -295.47216    72650.625   -17267.804     1249.739   -18517.543    377.64486    235.01208 
   98400    95.400119   -804.35616    72587.073   -17288.882    1292.1756   -18581.058     377.8162    242.99223 
   98450    93.551899   -804.13328    72551.293   -17271.374    1267.1418   -18538.516    378.30195    238.28466 
   98500    91.967738   -791.04076    72538.687   -17289.506    1245.6847   -18535.191    379.07783    234.24966 
   98550    94.624168    -595.1212    72507.333   -17264.853    1281.6655   -18546.518     380.1659    241.01582 
   98600    95.388753   -410.76138    72560.117   -17240.172    1292.0217   -18532.194    379.64701    242.96328 
   98650    93.357672    -642.9144    72547.357   -17314.487    1264.5111   -18578.998    379.37431    237.78994 
   98700    94.564837   -424.89756    72507.693   -17314.998    1280.8619    -18595.86    379.67448     240.8647 
   98750    92.175932   -285.72333    72572.157   -17266.662    1248.5046   -18515.167    379.47783    234.77995 
   98800    95.640528   -406.22803     72577.13   -17225.297    1295.4319   -18520.729    379.96441    243.60457 
   98850    94.478447    204.66887    72639.197    -17212.62    1279.6918   -18492.312    379.51301    240.64466 
   98900    92.823727   -356.65315     72710.36   -17256.105    1257.2789   -18513.384    379.70769    236.42994 
   98950    93.071247   -241.57434    72710.351   -17263.751    1260.6315   -18524.382    379.31464    237.06039 
   99000    93.361669   -539.11894    72666.344    -17275.48    1264.5652   -18540.045     379.5432    237.80013 
   99050    94.690144   -163.11153    72705.414   -17249.386    1282.5591   -18531.945     379.8207    241.18386 
   99100    93.679296   -135.51553    72724.272   -17198.105    1268.8674   -18466.972    379.96442    238.60915 
   99150      95.1876   -969.86832    72686.158    -17239.22    1289.2971   -18528.517     380.3856    242.45093 
   99200    93.505759   -553.58851    72642.744   -17220.455    1266.5169   -18486.971    380.57184    238.16714 
   99250    91.727845    -326.7935    72614.837   -17270.817    1242.4354   -18513.252     380.2352    233.63864 
   99300    90.040536   -167.21937     72660.49   -17282.884    1219.5811   -18502.465    380.66329    229.34092 
   99350    92.297558   -630.87114    72701.337   -17269.376     1250.152   -18519.528    380.34712    235.08974 
   99400    93.421623   -123.06486    72669.836   -17249.879    1265.3773   -18515.256    380.54933    237.95283 
   99450    97.266742   -429.48172    72678.551   -17225.012    1317.4587   -18542.471    380.54404    247.74668 
   99500    96.017176   -189.80796    72684.572   -17236.402    1300.5335   -18536.936    380.53374    244.56393 
   99550    94.738035   -473.93373    72695.739   -17245.092    1283.2078     -18528.3    380.32775    241.30585 
   99600    93.444749   -642.59738    72652.525   -17269.036    1265.6905   -18534.726    379.93807    238.01174 
   99650    93.728279    -520.0737    72631.946   -17239.719    1269.5309    -18509.25    380.07119    238.73391 
   99700     95.17749   -142.12055    72603.368   -17209.279    1289.1602   -18498.439    379.58596    242.42518 
   99750    96.373745   -395.82718    72642.654   -17226.753    1305.3632   -18532.116    380.32929    245.47214 
   99800    94.116594   -398.82049    72688.067   -17226.476    1274.7905   -18501.267    379.78054    239.72298 
   99850    94.260025   -201.49003    72709.214   -17241.415    1276.7333   -18518.148    379.13519    240.08831 
   99900    96.235898   -387.98808    72739.058   -17213.104    1303.4961     -18516.6    379.57475    245.12103 
   99950    94.145099   -239.84697    72791.465   -17229.371    1275.1766   -18504.547    380.07522    239.79559 
  100000    95.930133   -627.68144    72784.242   -17213.883    1299.3545   -18513.238    379.66729    244.34222 
Loop time of 96.3745 on 32 procs for 100000 steps with 4545 atoms

Performance: 448.251 ns/day, 0.054 hours/ns, 1037.619 timesteps/s
99.9% CPU use with 32 MPI tasks x no OpenMP threads

MPI task timing breakdown:
Section |  min time  |  avg time  |  max time  |%varavg| %total
---------------------------------------------------------------
Pair    | 56.736     | 64.265     | 73.796     |  82.9 | 66.68
Neigh   | 1.2306     | 2.8865     | 4.9172     |  95.0 |  3.00
Comm    | 11.968     | 22.625     | 32.019     | 166.6 | 23.48
Output  | 0.10027    | 0.10578    | 0.20372    |   5.4 |  0.11
Modify  | 4.6573     | 5.64       | 6.8665     |  25.2 |  5.85
Other   |            | 0.8528     |            |       |  0.88

Nlocal:    142.031 ave 219 max 74 min
Histogram: 16 0 0 0 0 0 0 0 7 9
Nghost:    951.094 ave 1010 max 897 min
Histogram: 6 8 2 0 0 0 2 2 7 5
Neighs:    0 ave 0 max 0 min
Histogram: 32 0 0 0 0 0 0 0 0 0
FullNghs:  14602.9 ave 26783 max 3742 min
Histogram: 16 0 0 0 0 0 0 0 4 12

Total # of neighbors = 467294
Ave neighs/atom = 102.815
Neighbor list builds = 5675
Dangerous builds = 0

write_data		${DIR}/data.eq-${NAME}-${TEMP}
write_data		run_12/data.eq-${NAME}-${TEMP}
write_data		run_12/data.eq-het_freeze_12-${TEMP}
write_data		run_12/data.eq-het_freeze_12-240
undump          1

reset_timestep  0

unfix           2
unfix           3
unfix           4


################################################
#######         Run Simulation         #########
################################################

log				${DIR}/log.run_${NAME}
log				run_12/log.run_${NAME}
log				run_12/log.run_het_freeze_12
