LAMMPS data file via write_data, version 16 Mar 2018, timestep = 100000

4990 atoms
2 atom types

0.0000000000000000e+00 4.9219999999999999e+01 xlo xhi
0.0000000000000000e+00 4.9019635930410494e+01 ylo yhi
2.0331104417026999e+00 3.7966889558298931e+01 zlo zhi

Masses

1 18.015
2 12.01

Atoms # atomic

3791 1 3.5191499681256038e+00 2.5009408962718322e+00 4.6220802115056934e+00 1 1 0
433 1 1.2000720558575875e+01 6.0647855416320713e+00 8.7011511034024256e+00 0 -1 0
1281 1 7.4763328362880408e+00 3.5210141154705941e+00 5.2109726226483311e+00 1 1 1
3359 1 8.6885221077034771e+00 2.0714976251847528e+00 7.0454517926589730e+00 1 0 0
4266 1 8.9184239993041263e+00 6.7234949844757184e+00 7.7520051978990105e+00 -1 -1 1
3696 1 3.7403162633414777e-01 6.7264799223886520e+00 4.7571893768513469e+00 0 0 0
3841 1 6.5317596427995781e+00 1.1966022498217001e+01 7.7721968701104558e+00 1 1 1
3438 1 9.3338753321241601e+00 1.0996196561548924e+01 7.8014884947826149e+00 0 0 1
421 1 1.0481821970657355e+01 8.7338582106071758e+00 9.1107278530766891e+00 1 0 0
86 1 6.5191139705170036e+00 3.9264459145501203e+00 2.6603969291534821e+00 0 1 1
4308 1 1.0154548986795968e+01 6.4585330093326014e+00 3.2734557189924187e+00 -1 0 0
1272 1 3.7723074765644955e+00 1.0980740240169389e+01 8.0454238274541119e+00 1 -1 0
4236 1 1.1837341952298508e+00 1.2120579977186273e+01 9.8385179898926811e+00 1 1 0
4670 1 5.3423350040471167e+00 9.7066733212727581e+00 4.1233302363192514e+00 0 1 1
1734 1 7.4124768301220243e+00 8.7861576871874565e+00 6.5328358989334978e+00 0 1 1
460 1 7.7286063677043346e+00 1.0838920012193727e+01 2.4356841529630104e+00 1 0 1
2593 1 5.3316727578180556e+00 4.4853133135004803e+00 6.9860988837714739e+00 1 0 2
3867 1 9.0127258429350690e+00 8.7970904709089996e+00 4.2059782117185964e+00 0 2 1
137 1 1.0867420872713488e+01 1.0476111362081790e+01 5.0636224196463697e+00 0 0 0
2876 1 2.0639285345001657e+00 2.3007239717397772e+00 7.1836326216148167e+00 0 -1 0
2166 1 5.4513126027758796e+00 2.0659853463812838e-01 9.3403607115291152e+00 0 0 1
532 1 3.8812301489679704e+00 7.5165380228031022e+00 2.8976004787060208e+00 1 0 0
1317 1 1.0489222992015776e+01 5.7212048044725139e-01 5.5602537364063869e+00 1 -1 1
1042 1 1.9670058277671241e+00 9.2393782677534997e+00 3.7675289468464372e+00 0 0 0
417 1 8.4108387966415741e+00 2.9210469033810256e+00 9.7557860145040287e+00 1 0 0
1377 1 4.1362055955641823e+00 8.4262008957801005e+00 6.9069786339179808e+00 0 0 0
3740 1 4.0467770163515544e+00 2.6090746729072172e+00 8.8642339503552172e+00 0 0 0
1340 1 3.4904775932838361e+00 5.6081065667384795e+00 5.0974568377753533e+00 1 1 1
4331 1 9.9107518057572968e+00 4.8742621733127081e+00 5.6283933656474048e+00 -1 -1 0
3003 1 7.2752188926108046e+00 5.3895944967157519e+00 9.3252700641788948e+00 0 1 1
4254 1 1.1359189398484384e+01 3.4652946321626885e+00 8.2216089025167740e+00 0 1 1
1702 1 1.8587676391539529e+00 6.9048375325394042e+00 7.3949880750814048e+00 0 1 0
2914 1 6.2588820302279335e-01 4.6742801640044300e+00 7.4853513275923085e+00 1 0 1
3381 1 3.9686127022477398e+00 6.0382611330282723e+00 9.6246411324761141e+00 0 1 0
2197 1 2.6055827222101304e+00 1.1459495489563972e+01 5.4952866059782615e+00 1 0 1
3751 1 7.0453051448296988e-01 3.0771582109503637e+00 3.9858234159059522e+00 2 1 1
1221 1 1.0556884508752656e+01 1.6230750692904208e+00 3.0542791102978271e+00 0 0 1
353 1 6.2637102073393436e+00 8.7513533004552868e-01 3.8148206961582272e+00 0 0 1
2551 1 4.5044518729460187e-01 1.1120157423504546e+01 7.2802931339640971e+00 0 0 1
1271 1 4.2692892403129985e+00 9.0119239511053522e+00 1.0322137548850488e+01 1 0 1
4521 1 7.2435851240258053e-01 1.9355490594392677e-02 8.4367558569451404e+00 1 1 0
4346 1 1.1004917177679390e+01 3.0010651139405513e+00 1.0879806791573460e+01 0 1 0
1383 1 3.1223997089504962e-02 4.2976398863241405e+00 1.0213931112555398e+01 1 0 1
3012 1 5.9826185096146878e+00 1.0794690424587213e+01 1.1591128654750253e+01 0 0 1
262 2 8.6134999999999984e+00 9.2355835810918343e+00 1.6989463542944890e+01 0 0 0
1704 1 1.2151328643589445e+00 9.3353944128581201e+00 1.4048362740318460e+01 0 0 0
4556 1 9.2397446217970369e+00 8.8039431564203010e+00 1.1618074571750723e+01 1 -1 1
3475 1 4.4457310195425448e+00 1.7674829178819862e+00 1.4713438110924510e+01 1 0 0
4526 1 7.3670484954842257e+00 2.6477417959780620e+00 1.4220827759060015e+01 1 1 1
4580 1 3.6533992283820309e-02 4.2147571138710731e+00 1.4346296630283780e+01 1 1 1
308 2 1.2304999999999998e+01 1.1366872099805333e+01 1.6989463542944890e+01 0 0 0
962 1 1.1444442574499755e+01 3.8306760263172124e+00 1.3957584785282920e+01 1 0 0
2681 1 3.8429001512988146e+00 6.7100878447046721e+00 1.4456010362851671e+01 0 0 0
1771 1 2.6916313575725916e+00 3.9684279674044447e+00 1.3815843614305518e+01 1 0 0
1796 1 3.8365377677748072e+00 1.0770703374813178e+00 1.2070747550428331e+01 0 1 0
505 1 9.5666102657267462e+00 9.7254656429522179e-01 1.4516015430742231e+01 1 -1 1
285 2 9.8440000000000012e+00 8.5251540748539956e+00 1.6989463542944890e+01 0 0 0
4628 1 1.1634370319769680e+01 6.4288996692897218e+00 1.4357817647307378e+01 1 1 0
2908 1 6.4373086609959325e+00 7.0763135300575071e+00 1.3902509420668121e+01 1 0 1
307 2 1.1074500000000002e+01 1.0656442593567498e+01 1.6989463542944890e+01 0 0 0
4572 1 8.6287819374162424e+00 5.2981004815740560e+00 1.4064812756286885e+01 0 0 0
145 1 2.4620243066503766e+00 6.8780623595414161e+00 1.1953857652529763e+01 1 1 0
2057 1 3.8729317170238211e+00 1.0232749947005210e+01 1.4382650247218622e+01 1 0 1
284 2 9.8440000000000012e+00 1.1366872099805333e+01 1.6989463542944890e+01 0 0 0
2613 1 2.6689792856493049e+00 3.7777307711925872e+00 1.1042663143274563e+01 0 0 0
3409 1 7.0762046907744711e+00 1.0018832551787074e+01 1.4103411271640780e+01 1 1 0
4578 1 6.8929331281925306e+00 1.3419467376370700e+00 1.1588839147504093e+01 0 1 0
2996 1 8.8710977116175524e-02 7.4732633503860935e-01 1.4639562492700898e+01 0 0 1
1299 1 6.7970383128689100e+00 7.6099333147112480e+00 1.1122814941019698e+01 0 0 1
516 1 9.5823976995854849e+00 5.7058441656445753e+00 1.1433355298299750e+01 1 0 1
1239 1 9.8276513601502202e+00 8.9927280603736630e+00 1.4247642523959426e+01 -1 -2 0
193 2 0.0000000000000000e+00 2.8417180249513345e+00 1.6989463542944890e+01 0 0 0
194 2 0.0000000000000000e+00 0.0000000000000000e+00 1.6989463542944890e+01 0 0 0
195 2 1.2305000000000001e+00 7.1042950623783474e-01 1.6989463542944890e+01 0 0 0
199 2 1.2305000000000001e+00 2.1312885187134998e+00 1.6989463542944890e+01 0 0 0
200 2 2.4610000000000003e+00 2.8417180249513345e+00 1.6989463542944890e+01 0 0 0
201 2 2.4610000000000003e+00 0.0000000000000000e+00 1.6989463542944890e+01 0 0 0
202 2 3.6915000000000004e+00 7.1042950623783474e-01 1.6989463542944890e+01 0 0 0
210 2 3.6914999999999996e+00 2.1312885187134998e+00 1.6989463542944890e+01 0 0 0
211 2 4.9220000000000006e+00 2.8417180249513332e+00 1.6989463542944890e+01 0 0 0
212 2 4.9220000000000006e+00 0.0000000000000000e+00 1.6989463542944890e+01 0 0 0
213 2 6.1524999999999999e+00 7.1042950623783407e-01 1.6989463542944890e+01 0 0 0
225 2 6.1524999999999999e+00 2.1312885187134989e+00 1.6989463542944890e+01 0 0 0
226 2 7.3829999999999991e+00 2.8417180249513345e+00 1.6989463542944890e+01 0 0 0
227 2 7.3829999999999991e+00 0.0000000000000000e+00 1.6989463542944890e+01 0 0 0
228 2 8.6134999999999984e+00 7.1042950623783407e-01 1.6989463542944890e+01 0 0 0
244 2 8.6134999999999984e+00 2.1312885187135002e+00 1.6989463542944890e+01 0 0 0
245 2 9.8440000000000012e+00 2.8417180249513332e+00 1.6989463542944890e+01 0 0 0
246 2 9.8440000000000012e+00 0.0000000000000000e+00 1.6989463542944890e+01 0 0 0
247 2 1.1074500000000002e+01 7.1042950623783330e-01 1.6989463542944890e+01 0 0 0
267 2 1.1074500000000002e+01 2.1312885187135002e+00 1.6989463542944890e+01 0 0 0
197 2 0.0000000000000000e+00 4.2625770374269996e+00 1.6989463542944890e+01 0 0 0
198 2 1.2305000000000001e+00 4.9730065436648339e+00 1.6989463542944890e+01 0 0 0
206 2 1.2305000000000001e+00 6.3938655561404980e+00 1.6989463542944890e+01 0 0 0
208 2 2.4610000000000003e+00 4.2625770374269996e+00 1.6989463542944890e+01 0 0 0
209 2 3.6914999999999996e+00 4.9730065436648339e+00 1.6989463542944890e+01 0 0 0
221 2 3.6914999999999996e+00 6.3938655561404980e+00 1.6989463542944890e+01 0 0 0
196 2 0.0000000000000000e+00 7.1042950623783341e+00 1.6989463542944890e+01 0 0 0
207 2 2.4610000000000003e+00 7.1042950623783341e+00 1.6989463542944890e+01 0 0 0
223 2 4.9220000000000006e+00 4.2625770374269978e+00 1.6989463542944890e+01 0 0 0
224 2 6.1524999999999999e+00 4.9730065436648339e+00 1.6989463542944890e+01 0 0 0
240 2 6.1524999999999999e+00 6.3938655561404980e+00 1.6989463542944890e+01 0 0 0
242 2 7.3829999999999991e+00 4.2625770374269996e+00 1.6989463542944890e+01 0 0 0
222 2 4.9220000000000006e+00 7.1042950623783341e+00 1.6989463542944890e+01 0 0 0
241 2 7.3830000000000009e+00 7.1042950623783341e+00 1.6989463542944890e+01 0 0 0
243 2 8.6135000000000002e+00 4.9730065436648339e+00 1.6989463542944890e+01 0 0 0
263 2 8.6135000000000002e+00 6.3938655561404980e+00 1.6989463542944890e+01 0 0 0
265 2 9.8440000000000012e+00 4.2625770374270004e+00 1.6989463542944890e+01 0 0 0
266 2 1.1074500000000002e+01 4.9730065436648339e+00 1.6989463542944890e+01 0 0 0
287 2 1.1074500000000002e+01 6.3938655561404980e+00 1.6989463542944890e+01 0 0 0
264 2 9.8440000000000012e+00 7.1042950623783341e+00 1.6989463542944890e+01 0 0 0
204 2 0.0000000000000000e+00 8.5251540748539991e+00 1.6989463542944890e+01 0 0 0
205 2 1.2305000000000001e+00 9.2355835810918343e+00 1.6989463542944890e+01 0 0 0
219 2 2.4610000000000003e+00 8.5251540748539991e+00 1.6989463542944890e+01 0 0 0
220 2 3.6915000000000004e+00 9.2355835810918343e+00 1.6989463542944890e+01 0 0 0
203 2 0.0000000000000000e+00 1.1366872099805333e+01 1.6989463542944890e+01 0 0 0
217 2 1.2305000000000001e+00 1.0656442593567498e+01 1.6989463542944890e+01 0 0 0
218 2 2.4610000000000003e+00 1.1366872099805333e+01 1.6989463542944890e+01 0 0 0
236 2 3.6914999999999996e+00 1.0656442593567499e+01 1.6989463542944890e+01 0 0 0
237 2 4.9220000000000006e+00 1.1366872099805333e+01 1.6989463542944890e+01 0 0 0
259 2 6.1524999999999999e+00 1.0656442593567499e+01 1.6989463542944890e+01 0 0 0
260 2 7.3829999999999991e+00 1.1366872099805333e+01 1.6989463542944890e+01 0 0 0
239 2 6.1524999999999999e+00 9.2355835810918343e+00 1.6989463542944890e+01 0 0 0
238 2 4.9220000000000006e+00 8.5251540748539991e+00 1.6989463542944890e+01 0 0 0
261 2 7.3830000000000009e+00 8.5251540748539991e+00 1.6989463542944890e+01 0 0 0
286 2 1.1074500000000002e+01 9.2355835810918343e+00 1.6989463542944890e+01 0 0 0
283 2 8.6134999999999984e+00 1.0656442593567498e+01 1.6989463542944890e+01 0 0 0
2129 1 1.2014740699259725e+01 1.0066744938246345e+01 1.1318387035840059e+01 0 0 0
50 1 1.1742708612312802e+01 1.1071266526222956e+01 1.4002579920159304e+01 1 -1 1
1715 1 1.3782875007978279e+00 9.7940379298890328e+00 1.1281791643268908e+01 1 0 0
549 2 0.0000000000000000e+00 1.4208590124756650e+00 2.0028085052713344e+01 0 0 0
550 2 0.0000000000000000e+00 0.0000000000000000e+00 2.0028085052713344e+01 0 0 0
554 2 1.2305000000000001e+00 2.1312885187134998e+00 2.0028085052713344e+01 0 0 0
555 2 2.4610000000000003e+00 1.4208590124756650e+00 2.0028085052713344e+01 0 0 0
556 2 2.4610000000000003e+00 0.0000000000000000e+00 2.0028085052713344e+01 0 0 0
564 2 3.6914999999999996e+00 2.1312885187134998e+00 2.0028085052713344e+01 0 0 0
710 2 0.0000000000000000e+00 2.8417180249513345e+00 2.3066706562482572e+01 0 0 0
711 2 0.0000000000000000e+00 0.0000000000000000e+00 2.3066706562482572e+01 0 0 0
712 2 1.2305000000000001e+00 7.1042950623783474e-01 2.3066706562482572e+01 0 0 0
716 2 1.2305000000000001e+00 2.1312885187134998e+00 2.3066706562482572e+01 0 0 0
717 2 2.4610000000000003e+00 2.8417180249513345e+00 2.3066706562482572e+01 0 0 0
718 2 2.4610000000000003e+00 0.0000000000000000e+00 2.3066706562482572e+01 0 0 0
719 2 3.6915000000000004e+00 7.1042950623783474e-01 2.3066706562482572e+01 0 0 0
727 2 3.6914999999999996e+00 2.1312885187134998e+00 2.3066706562482572e+01 0 0 0
553 2 1.2305000000000001e+00 3.5521475311891644e+00 2.0028085052713344e+01 0 0 0
563 2 3.6914999999999996e+00 3.5521475311891644e+00 2.0028085052713344e+01 0 0 0
565 2 4.9220000000000006e+00 1.4208590124756650e+00 2.0028085052713344e+01 0 0 0
566 2 4.9220000000000006e+00 0.0000000000000000e+00 2.0028085052713344e+01 0 0 0
578 2 6.1524999999999999e+00 2.1312885187134989e+00 2.0028085052713344e+01 0 0 0
579 2 7.3829999999999991e+00 1.4208590124756659e+00 2.0028085052713344e+01 0 0 0
580 2 7.3829999999999991e+00 0.0000000000000000e+00 2.0028085052713344e+01 0 0 0
728 2 4.9220000000000006e+00 2.8417180249513332e+00 2.3066706562482572e+01 0 0 0
729 2 4.9220000000000006e+00 0.0000000000000000e+00 2.3066706562482572e+01 0 0 0
730 2 6.1524999999999999e+00 7.1042950623783407e-01 2.3066706562482572e+01 0 0 0
742 2 6.1524999999999999e+00 2.1312885187134989e+00 2.3066706562482572e+01 0 0 0
743 2 7.3829999999999991e+00 2.8417180249513345e+00 2.3066706562482572e+01 0 0 0
744 2 7.3829999999999991e+00 0.0000000000000000e+00 2.3066706562482572e+01 0 0 0
577 2 6.1524999999999999e+00 3.5521475311891644e+00 2.0028085052713344e+01 0 0 0
596 2 8.6134999999999984e+00 2.1312885187135002e+00 2.0028085052713344e+01 0 0 0
597 2 9.8440000000000012e+00 1.4208590124756659e+00 2.0028085052713344e+01 0 0 0
598 2 9.8440000000000012e+00 0.0000000000000000e+00 2.0028085052713344e+01 0 0 0
618 2 1.1074500000000002e+01 2.1312885187135002e+00 2.0028085052713344e+01 0 0 0
745 2 8.6134999999999984e+00 7.1042950623783407e-01 2.3066706562482572e+01 0 0 0
761 2 8.6134999999999984e+00 2.1312885187135002e+00 2.3066706562482572e+01 0 0 0
762 2 9.8440000000000012e+00 2.8417180249513332e+00 2.3066706562482572e+01 0 0 0
763 2 9.8440000000000012e+00 0.0000000000000000e+00 2.3066706562482572e+01 0 0 0
764 2 1.1074500000000002e+01 7.1042950623783330e-01 2.3066706562482572e+01 0 0 0
784 2 1.1074500000000002e+01 2.1312885187135002e+00 2.3066706562482572e+01 0 0 0
595 2 8.6134999999999984e+00 3.5521475311891657e+00 2.0028085052713344e+01 0 0 0
617 2 1.1074500000000002e+01 3.5521475311891644e+00 2.0028085052713344e+01 0 0 0
551 2 0.0000000000000000e+00 5.6834360499026637e+00 2.0028085052713344e+01 0 0 0
552 2 0.0000000000000000e+00 4.2625770374269996e+00 2.0028085052713344e+01 0 0 0
560 2 1.2305000000000001e+00 6.3938655561404980e+00 2.0028085052713344e+01 0 0 0
561 2 2.4610000000000003e+00 5.6834360499026637e+00 2.0028085052713344e+01 0 0 0
562 2 2.4610000000000003e+00 4.2625770374269996e+00 2.0028085052713344e+01 0 0 0
574 2 3.6914999999999996e+00 6.3938655561404980e+00 2.0028085052713344e+01 0 0 0
714 2 0.0000000000000000e+00 4.2625770374269996e+00 2.3066706562482572e+01 0 0 0
715 2 1.2305000000000001e+00 4.9730065436648339e+00 2.3066706562482572e+01 0 0 0
723 2 1.2305000000000001e+00 6.3938655561404980e+00 2.3066706562482572e+01 0 0 0
725 2 2.4610000000000003e+00 4.2625770374269996e+00 2.3066706562482572e+01 0 0 0
726 2 3.6914999999999996e+00 4.9730065436648339e+00 2.3066706562482572e+01 0 0 0
738 2 3.6914999999999996e+00 6.3938655561404980e+00 2.3066706562482572e+01 0 0 0
559 2 1.2305000000000001e+00 7.8147245686161639e+00 2.0028085052713344e+01 0 0 0
573 2 3.6914999999999996e+00 7.8147245686161639e+00 2.0028085052713344e+01 0 0 0
713 2 0.0000000000000000e+00 7.1042950623783341e+00 2.3066706562482572e+01 0 0 0
724 2 2.4610000000000003e+00 7.1042950623783341e+00 2.3066706562482572e+01 0 0 0
575 2 4.9220000000000006e+00 5.6834360499026637e+00 2.0028085052713344e+01 0 0 0
576 2 4.9220000000000006e+00 4.2625770374269978e+00 2.0028085052713344e+01 0 0 0
592 2 6.1524999999999999e+00 6.3938655561404980e+00 2.0028085052713344e+01 0 0 0
593 2 7.3829999999999991e+00 5.6834360499026637e+00 2.0028085052713344e+01 0 0 0
594 2 7.3829999999999991e+00 4.2625770374269996e+00 2.0028085052713344e+01 0 0 0
740 2 4.9220000000000006e+00 4.2625770374269978e+00 2.3066706562482572e+01 0 0 0
741 2 6.1524999999999999e+00 4.9730065436648339e+00 2.3066706562482572e+01 0 0 0
757 2 6.1524999999999999e+00 6.3938655561404980e+00 2.3066706562482572e+01 0 0 0
759 2 7.3829999999999991e+00 4.2625770374269996e+00 2.3066706562482572e+01 0 0 0
591 2 6.1524999999999999e+00 7.8147245686161639e+00 2.0028085052713344e+01 0 0 0
739 2 4.9220000000000006e+00 7.1042950623783341e+00 2.3066706562482572e+01 0 0 0
758 2 7.3830000000000009e+00 7.1042950623783341e+00 2.3066706562482572e+01 0 0 0
614 2 8.6135000000000002e+00 6.3938655561404980e+00 2.0028085052713344e+01 0 0 0
615 2 9.8440000000000012e+00 5.6834360499026637e+00 2.0028085052713344e+01 0 0 0
616 2 9.8440000000000012e+00 4.2625770374270004e+00 2.0028085052713344e+01 0 0 0
637 2 1.1074500000000002e+01 6.3938655561404980e+00 2.0028085052713344e+01 0 0 0
760 2 8.6135000000000002e+00 4.9730065436648339e+00 2.3066706562482572e+01 0 0 0
780 2 8.6135000000000002e+00 6.3938655561404980e+00 2.3066706562482572e+01 0 0 0
782 2 9.8440000000000012e+00 4.2625770374270004e+00 2.3066706562482572e+01 0 0 0
783 2 1.1074500000000002e+01 4.9730065436648339e+00 2.3066706562482572e+01 0 0 0
804 2 1.1074500000000002e+01 6.3938655561404980e+00 2.3066706562482572e+01 0 0 0
613 2 8.6135000000000002e+00 7.8147245686161639e+00 2.0028085052713344e+01 0 0 0
636 2 1.1074500000000002e+01 7.8147245686161639e+00 2.0028085052713344e+01 0 0 0
781 2 9.8440000000000012e+00 7.1042950623783341e+00 2.3066706562482572e+01 0 0 0
557 2 0.0000000000000000e+00 9.9460130873296642e+00 2.0028085052713344e+01 0 0 0
558 2 0.0000000000000000e+00 8.5251540748539991e+00 2.0028085052713344e+01 0 0 0
571 2 2.4610000000000003e+00 9.9460130873296642e+00 2.0028085052713344e+01 0 0 0
572 2 2.4610000000000003e+00 8.5251540748539991e+00 2.0028085052713344e+01 0 0 0
721 2 0.0000000000000000e+00 8.5251540748539991e+00 2.3066706562482572e+01 0 0 0
722 2 1.2305000000000001e+00 9.2355835810918343e+00 2.3066706562482572e+01 0 0 0
736 2 2.4610000000000003e+00 8.5251540748539991e+00 2.3066706562482572e+01 0 0 0
737 2 3.6915000000000004e+00 9.2355835810918343e+00 2.3066706562482572e+01 0 0 0
569 2 1.2305000000000001e+00 1.2077301606043163e+01 2.0028085052713344e+01 0 0 0
570 2 1.2305000000000001e+00 1.0656442593567498e+01 2.0028085052713344e+01 0 0 0
587 2 3.6914999999999996e+00 1.2077301606043163e+01 2.0028085052713344e+01 0 0 0
588 2 3.6914999999999996e+00 1.0656442593567499e+01 2.0028085052713344e+01 0 0 0
720 2 0.0000000000000000e+00 1.1366872099805333e+01 2.3066706562482572e+01 0 0 0
734 2 1.2305000000000001e+00 1.0656442593567498e+01 2.3066706562482572e+01 0 0 0
735 2 2.4610000000000003e+00 1.1366872099805333e+01 2.3066706562482572e+01 0 0 0
753 2 3.6914999999999996e+00 1.0656442593567499e+01 2.3066706562482572e+01 0 0 0
589 2 4.9220000000000006e+00 9.9460130873296642e+00 2.0028085052713344e+01 0 0 0
590 2 4.9220000000000006e+00 8.5251540748539991e+00 2.0028085052713344e+01 0 0 0
611 2 7.3830000000000009e+00 9.9460130873296642e+00 2.0028085052713344e+01 0 0 0
612 2 7.3830000000000009e+00 8.5251540748539991e+00 2.0028085052713344e+01 0 0 0
755 2 4.9220000000000006e+00 8.5251540748539991e+00 2.3066706562482572e+01 0 0 0
756 2 6.1524999999999999e+00 9.2355835810918343e+00 2.3066706562482572e+01 0 0 0
778 2 7.3830000000000009e+00 8.5251540748539991e+00 2.3066706562482572e+01 0 0 0
609 2 6.1524999999999999e+00 1.2077301606043163e+01 2.0028085052713344e+01 0 0 0
610 2 6.1524999999999999e+00 1.0656442593567499e+01 2.0028085052713344e+01 0 0 0
754 2 4.9220000000000006e+00 1.1366872099805333e+01 2.3066706562482572e+01 0 0 0
776 2 6.1524999999999999e+00 1.0656442593567499e+01 2.3066706562482572e+01 0 0 0
777 2 7.3829999999999991e+00 1.1366872099805333e+01 2.3066706562482572e+01 0 0 0
634 2 9.8440000000000012e+00 9.9460130873296642e+00 2.0028085052713344e+01 0 0 0
635 2 9.8440000000000012e+00 8.5251540748539956e+00 2.0028085052713344e+01 0 0 0
779 2 8.6134999999999984e+00 9.2355835810918343e+00 2.3066706562482572e+01 0 0 0
802 2 9.8440000000000012e+00 8.5251540748539956e+00 2.3066706562482572e+01 0 0 0
803 2 1.1074500000000002e+01 9.2355835810918343e+00 2.3066706562482572e+01 0 0 0
632 2 8.6135000000000002e+00 1.2077301606043163e+01 2.0028085052713344e+01 0 0 0
633 2 8.6134999999999984e+00 1.0656442593567498e+01 2.0028085052713344e+01 0 0 0
655 2 1.1074500000000002e+01 1.2077301606043163e+01 2.0028085052713344e+01 0 0 0
656 2 1.1074500000000002e+01 1.0656442593567498e+01 2.0028085052713344e+01 0 0 0
800 2 8.6134999999999984e+00 1.0656442593567498e+01 2.3066706562482572e+01 0 0 0
801 2 9.8440000000000012e+00 1.1366872099805333e+01 2.3066706562482572e+01 0 0 0
824 2 1.1074500000000002e+01 1.0656442593567498e+01 2.3066706562482572e+01 0 0 0
825 2 1.2304999999999998e+01 1.1366872099805333e+01 2.3066706562482572e+01 0 0 0
406 1 8.5551139489431396e+00 3.6942847749720333e+00 2.5543762300270121e+01 1 0 1
4685 1 9.0501140154158524e+00 1.1851497465134187e+01 2.5399927419198015e+01 0 1 -1
3370 1 5.4607131829643754e+00 8.3863394277298067e+00 2.5222330863194241e+01 1 0 0
913 1 3.0268245745560014e+00 4.5259934050630806e+00 2.7906418098475616e+01 0 1 -1
4248 1 6.3679512214608067e+00 5.2894286163152309e+00 2.8495691882950602e+01 1 1 -1
4317 1 3.3853143932273682e+00 1.0490858617658724e+01 2.8386637784665623e+01 0 -1 0
1012 1 1.1399540931972698e+01 1.4414130442722657e+00 2.8675089344528736e+01 0 1 -1
1238 1 1.1890051195091239e+01 1.4524925594141607e+00 2.6068669509421191e+01 1 0 0
2077 1 4.3793271299577965e+00 1.0833339521647066e+01 2.5965187379066169e+01 1 0 0
2073 1 1.9660782842300626e+00 4.9345168990815491e+00 2.5470959832758069e+01 2 0 0
2712 1 8.3130535062891209e+00 3.4569365517291413e+00 2.8796608294690607e+01 1 1 -1
2079 1 4.6827260555814929e+00 3.3547866379310443e+00 2.5342141892564808e+01 0 0 0
69 1 7.3317156629006268e+00 1.3053282479138308e+00 2.5698067631083909e+01 0 1 -1
1836 1 6.2874253610415938e+00 5.4186592501315758e+00 2.5792957001825211e+01 0 -1 -1
2608 1 2.6085453549126703e+00 9.0526716078972502e-01 2.5839517789366738e+01 0 0 -1
1764 1 1.9415374399478269e-01 9.4689432869540511e+00 2.6292052864846386e+01 1 0 0
3533 1 1.1572259685543152e+01 4.8158985510809753e+00 2.5397097776943745e+01 0 1 0
2183 1 1.0740411611304328e+01 7.5540713219791034e+00 2.5564673489855839e+01 0 -1 0
1889 1 1.4692348009305960e+00 1.2206362240625097e+01 2.5753719358545528e+01 0 0 0
144 1 8.3130644682801123e+00 9.1113710538070123e+00 2.5587938170226312e+01 1 0 0
3547 1 7.4149990634166327e+00 4.3732916803374261e-01 2.8188441735228874e+01 1 -1 -1
3463 1 2.5606658633948736e+00 7.9846642133297490e+00 2.6063534009548945e+01 0 0 -1
1032 1 9.5247464653438048e+00 1.1396287726015427e+01 2.8335285182930274e+01 0 -1 -1
3790 1 1.0997755645745505e+01 4.3858410712518276e+00 2.8196146670018063e+01 1 1 0
4307 1 5.3225947178324455e+00 8.2732101625681977e+00 2.8447632202745595e+01 1 1 -1
1767 1 8.3035214469549796e+00 9.0566085681928108e+00 2.8776563419528621e+01 1 1 0
2064 1 1.0478961185573830e+01 7.3918776068326775e+00 2.8536515502761482e+01 0 0 0
2247 1 1.6280346605082147e-01 2.7641606025355463e+00 2.6109024410304276e+01 1 1 0
3838 1 1.3228816380081987e-01 3.5880471280970667e+00 2.8686982375204664e+01 2 0 1
3802 1 5.6461909472110716e-01 1.1363631366681588e+01 2.8911784144491062e+01 0 0 0
896 1 3.3452980535957049e+00 1.6228643914734742e+00 2.8869453702561433e+01 0 -1 -1
3055 1 1.4581918387655470e+00 5.6434545434034282e+00 3.1676616057148806e+01 0 0 0
1341 1 5.6242338747421341e+00 6.6644309767702314e-01 3.2623571852602453e+01 0 0 -1
881 1 2.3788641306244305e+00 7.3165115903933948e+00 2.9369078934218777e+01 0 0 0
3011 1 9.7794480943458488e+00 1.0217450027491640e+01 3.5495291697210391e+01 0 0 0
2683 1 9.1606308661177209e+00 3.0709591626100976e+00 3.1489659625854653e+01 0 1 -1
4206 1 1.0742041074253450e+01 5.1408034105453000e+00 3.0962243816331160e+01 0 0 0
1834 1 4.0635108614327677e+00 8.8542368720068403e+00 3.1088639325769076e+01 1 0 0
4340 1 2.1389887257083998e-01 7.8389411036981720e+00 3.5063803430913140e+01 1 1 0
1832 1 3.3008488066934580e+00 6.1596839824391374e+00 3.3760014551407544e+01 1 0 -1
1830 1 5.6839687622693251e+00 6.4975158070211156e+00 3.2512974920524954e+01 1 0 0
1380 1 2.9170710634813237e+00 6.8090802828919716e-02 3.3490391839426344e+01 1 -1 0
540 1 9.3178329490554344e+00 7.5538019908542715e+00 3.1712199118571323e+01 0 -1 0
109 1 3.9553228024967502e+00 1.0341004188860207e+01 3.5657219969171052e+01 0 0 -1
1268 1 7.6818562860850692e-01 1.6583629957825645e+00 3.3210497136805849e+01 -1 0 0
1707 1 1.7789098685619453e+00 6.3972862796701504e+00 3.6839289080417359e+01 0 0 0
1838 1 5.5945641833746373e+00 2.0789956937688339e+00 3.0194803337408725e+01 0 1 -1
967 1 1.2290702744987465e+01 9.7204845187488260e+00 3.6755011357736379e+01 -1 1 -1
502 1 6.8906785121984084e+00 8.9459822667904625e+00 3.1445458324717016e+01 0 0 0
1003 1 1.0175349111213423e+01 1.0484625964203360e+01 3.2428321563168581e+01 0 0 0
4295 1 7.5031107490072850e+00 1.1467007523762375e+01 3.2460861021487631e+01 0 0 -1
3368 1 4.9367408472763588e+00 2.5481739787011448e+00 3.6869237313398457e+01 -1 1 0
1343 1 2.9299859493145963e-01 2.6363042668297507e+00 3.5566030900618628e+01 0 1 -1
2599 1 2.6317057661014838e+00 3.9166942818250194e+00 3.6129425806247411e+01 0 0 -1
468 1 6.3901214593862985e+00 2.4258661695135517e+00 3.4528852743794303e+01 0 0 1
1262 1 7.6938218977710759e+00 4.6925707800739369e+00 3.3348287713288116e+01 0 0 -1
3450 1 6.4091546092540543e+00 1.1003440840719900e+01 3.4921036306459641e+01 0 0 -1
1822 1 4.5415097868314165e+00 1.1753787078690042e+01 3.1471127173099433e+01 0 0 0
534 1 1.1363679061587364e+01 3.1592321627678621e+00 3.5756452126009805e+01 3 1 0
3385 1 1.6622244864992610e+00 3.1046375393678263e+00 3.0929465239659759e+01 2 1 -1
3835 1 2.5443249620880954e+00 9.0069675331537162e+00 3.3734293302771960e+01 2 0 -1
1339 1 7.6254946734263154e+00 8.7700956441662683e+00 3.6433699033294175e+01 1 1 -1
2872 1 4.9575784060900565e+00 7.6587711227648470e+00 3.6032671869379897e+01 0 -1 -1
491 1 1.0847778620678964e+01 7.6037233589969651e+00 3.4362355339818393e+01 0 0 0
3880 1 9.7542510759064065e+00 5.3086097051587533e+00 3.5180422035547593e+01 1 0 -1
2087 1 8.4249641395458301e+00 6.1872913296023280e-01 3.4969590877593390e+01 0 -1 0
2555 1 4.5512524876191511e+00 4.7486376052751478e+00 3.0612284297857119e+01 1 1 0
1717 1 8.2719139914984048e+00 6.0211943491131787e+00 3.7303398601486478e+01 1 2 -1
3466 1 1.1314329932042257e+01 6.0137605267548022e-01 3.5323463224972912e+01 0 0 -1
1371 1 1.2260188110332804e+00 1.1129067251776799e+01 3.1616371367932203e+01 0 1 0
2138 1 9.7277636191888810e+00 2.0339480462260168e-01 3.1494599467354327e+01 1 1 -1
4260 1 1.9487962303451885e+00 1.0901329257817586e+01 3.7509804349092747e+01 1 1 -1
173 1 8.2851658254586233e+00 1.7047163775768919e+00 3.7610561814793925e+01 -1 2 0
1316 1 5.0798894334770983e+00 1.2101464841496160e+01 3.7946863830251729e+01 0 0 0
3519 1 3.7671239462074455e+00 1.8148112295374311e+01 3.7570786553501065e+00 0 -1 0
132 1 7.2664345087840836e+00 2.3818435862076672e+01 7.3124998841787878e+00 1 -1 0
1869 1 7.3081584969724700e+00 2.0169737746504545e+01 9.6626581086480403e+00 0 0 0
2121 1 1.1411696136556808e+01 2.1888046867169990e+01 7.9075982946727272e+00 0 -1 1
2600 1 6.6137369448719250e+00 1.3646609722875285e+01 5.4776373935219063e+00 0 -1 0
4642 1 2.4237806410856062e+00 1.5601940635547933e+01 3.1060431856607957e+00 0 0 0
3776 1 2.9754922088124487e+00 1.9383307635823609e+01 1.0639090763088483e+01 0 1 1
988 1 1.0223124583036547e+01 1.3254204676188536e+01 5.9448411730931818e+00 -1 0 0
2589 1 1.2373492974023881e+00 1.8982635305097027e+01 4.5514559282345957e+00 0 0 1
2672 1 3.8542739991784170e+00 1.5437275127926780e+01 6.7363323691505643e+00 0 1 0
2128 1 5.3799114982172087e+00 1.7616895875426621e+01 6.1581397427680908e+00 2 1 1
2898 1 7.9079436849027100e+00 1.7640433593775768e+01 5.1511008966419922e+00 0 0 1
997 1 7.6561179496680882e+00 1.7327960711740644e+01 1.0526325845943077e+01 0 0 1
2560 1 4.2207032555100019e+00 2.2847032096668933e+01 3.9131939694716804e+00 0 0 1
3715 1 9.4692677912168399e-01 2.2037946707578911e+01 3.6923312072030194e+00 -1 0 0
3885 1 5.5161487696733982e+00 1.9862484437944502e+01 7.5755056141307806e+00 0 -1 0
3848 1 4.8365229054720151e+00 2.2539550568253073e+01 6.6104908028575275e+00 2 0 1
2144 1 4.4220373777774089e+00 2.3740145908506779e+01 1.0603686281965036e+01 1 0 0
473 1 8.4267373662595055e+00 2.0293878048788144e+01 4.9281606158831917e+00 0 -1 1
465 1 8.7522079848193535e+00 2.1498653231561299e+01 7.4811299848793498e+00 0 1 1
82 1 1.4550476336363249e+00 1.7260899318878998e+01 6.8183292725810505e+00 0 1 -1
2701 1 3.4813650195192309e+00 1.3810629611314347e+01 8.9825767736296065e+00 0 0 -1
4219 1 4.0563797020526975e+00 1.3650723104948435e+01 4.1651797254161753e+00 1 -1 0
2055 1 1.6875478036209428e+00 2.1403311716654144e+01 6.2994715405975095e+00 0 0 1
2970 1 7.6714364789943545e-01 2.3422932658313997e+01 8.8343752596985290e+00 1 0 1
539 1 1.0594427605012390e+01 1.9982554204392336e+01 3.4113778395199184e+00 0 0 1
939 1 6.3165834076610805e+00 2.1157937177944209e+01 3.0339979234395118e+00 1 0 1
3526 1 2.7601993844376342e+00 1.9482975517209660e+01 8.0673065958594723e+00 0 -1 1
4213 1 3.1145716733833715e+00 2.4167243001076322e+01 8.1091373075483943e+00 1 0 0
3792 1 6.4297741360367544e+00 1.5237727302709750e+01 8.4121485162836933e+00 0 0 1
1229 1 8.9932597307555415e+00 1.5721468141923776e+01 7.1026869010473561e+00 0 0 1
1862 1 7.0088001912248510e+00 2.4313220184519651e+01 1.0013358191108825e+01 0 1 0
3876 1 7.4264706293121874e+00 1.2649104994512163e+01 1.0343609407629371e+01 0 0 0
2661 1 1.1029624847740461e+01 1.7189718540696518e+01 8.6362083241063452e+00 0 0 0
2070 1 2.4529571410430437e-01 1.2343012705562913e+01 4.2502156902139161e+00 1 1 0
3794 1 8.4530988654732173e+00 1.6174530804458911e+01 2.7319829756680756e+00 1 0 1
4544 1 1.1059260144821941e+01 2.4016174611605400e+01 5.8623636643542367e+00 1 0 0
3411 1 8.7882719343692646e+00 1.3202208269638053e+01 3.4968899704385965e+00 0 0 0