LAMMPS data file via write_data, version 16 Mar 2018, timestep = 8000000

4990 atoms
2 atom types

0.0000000000000000e+00 4.9219999999999999e+01 xlo xhi
0.0000000000000000e+00 4.9019635930410494e+01 ylo yhi
1.2485381910697377e+00 3.8751461808907678e+01 zlo zhi

Masses

1 18.015
2 12.01

Atoms # atomic

1312 1 1.2503299854889944e+00 3.3050045153850531e+00 2.7967269662491168e+00 -1 -1 1
4632 1 3.6758759864329407e+00 1.8039846795014030e+00 3.8050702702917309e+00 1 3 0
537 1 6.0676878797622322e+00 3.4062939822386626e+00 2.8567663424322234e+00 -1 -2 1
2591 1 8.2556666386481794e+00 2.0972376994093738e+00 3.7415853831280805e+00 0 0 0
3457 1 1.0473656206505586e+01 3.3748969523283110e+00 2.9239870655203664e+00 0 -3 0
2595 1 1.7038492587812812e+00 5.9074253831308763e+00 3.9696199991776453e+00 3 1 0
2118 1 4.2655595041270375e+00 7.1852971039689955e+00 2.9608586655591660e+00 3 -1 1
2090 1 6.3917852783955480e+00 5.9635228878096855e+00 3.9751813726972753e+00 -2 0 0
4529 1 8.5530856735797158e+00 7.3687099604451127e+00 3.1116269738562901e+00 -1 4 1
1238 1 1.0728302358518697e+01 5.9963372010548737e+00 3.9120971370332782e+00 4 -1 1
381 1 1.8604308274454664e+00 1.0870904681726545e+01 2.9128712102232486e+00 0 -1 0
3358 1 4.3226169020728236e+00 9.8836617062720258e+00 3.6264399227795456e+00 2 2 0
1337 1 6.7122160203201870e+00 1.1398800176627075e+01 2.9497138438506338e+00 4 0 0
1761 1 8.7217566249814737e+00 9.8495332485334632e+00 3.8595237580969046e+00 4 0 0
1886 1 1.1160163380205681e+01 1.1053298193115220e+01 3.1555641182450147e+00 4 3 0
3008 1 1.6381283648877267e+00 8.1406392876504219e-01 7.4770704739551075e+00 -2 0 0
4329 1 3.8689783327740925e+00 2.0671335813782963e+00 6.6964556649004701e+00 -3 0 0
971 1 2.2183126134557843e-01 1.1897061991234809e+01 1.0253401392095098e+01 0 3 1
527 1 5.8841684912642895e+00 7.2155862193695441e-01 7.7116284793006269e+00 -2 2 0
2724 1 7.9620558779459687e+00 2.1741033864339223e+00 6.5218317180270589e+00 1 -1 0
20 1 1.0108969817580004e+01 9.5311676144690405e-01 7.6718034037622420e+00 4 -2 1
2613 1 6.0170682950530070e+00 9.2568693342568575e-01 1.0560164957419389e+01 -2 1 0
1726 1 2.0399025270522797e+00 6.0314634152250699e+00 6.6813551486231990e+00 2 -1 0
934 1 3.9086875906155107e+00 4.6285906381921995e+00 7.4529090028623877e+00 4 1 0
3522 1 2.3750659662161748e+00 8.4071528583549036e+00 7.4289827099409678e+00 1 2 0
3039 1 1.0974729579975103e+01 8.4079410440868099e+00 1.0208253940669056e+01 4 2 1
1727 1 6.2896272877110508e+00 5.8569274947975511e+00 6.7523696126992734e+00 0 -3 1
4553 1 8.5669508949423516e+00 4.5203100255658537e+00 7.7543069719562761e+00 -1 -1 1
492 1 1.0608946307274694e+01 6.0445275961790292e+00 6.6466182627417032e+00 0 5 0
431 1 6.4601052244676742e+00 8.6559776831993283e+00 1.0573122271126417e+01 0 2 0
3490 1 4.4807881402635559e+00 1.2165059061576853e+01 1.0255207158161916e+01 -1 1 0
4215 1 4.5239224479189257e+00 9.7683381078573266e+00 6.4675046621711845e+00 -1 1 0
4589 1 1.0968265765837717e+01 8.5275106717239044e+00 7.5538370648822957e+00 3 -2 0
2065 1 1.3710722160614313e+00 7.1637662093744403e-01 1.0093189132844548e+01 -2 2 1
1242 1 6.5025491179297799e+00 8.4070304963157998e+00 7.8618821467914879e+00 -4 1 1
4652 1 2.1442061658934630e+00 8.3460319807547982e+00 1.0339321217253495e+01 -2 -2 1
3829 1 8.5048646882996639e+00 9.7483103178722601e+00 6.6413523025408052e+00 3 -1 1
2173 1 8.5988366028084542e+00 4.8664187856223542e+00 1.0579563270732180e+01 1 -2 0
1816 1 4.0284953706563993e+00 4.8902793037336796e+00 1.0288139093424943e+01 2 4 0
2181 1 1.0128052696483367e+01 9.2429124397846285e-01 1.0391563228540765e+01 -1 0 0
2137 1 2.8282981254477590e-02 1.2096954758678592e+01 7.5954753135168307e+00 -2 2 0
4658 1 4.5238096851576133e+00 1.2148000462985463e+01 7.4361928580142491e+00 1 -1 1
4220 1 3.8470041298409798e+00 2.3983695156867788e+00 1.1177808096678167e+01 4 2 1
4556 1 4.2066466739560742e+00 2.3673547300143269e+00 1.3763805924324618e+01 1 -2 1
4325 1 6.3682782685382264e+00 3.9173421748131787e+00 1.4579386443858249e+01 4 -1 1
308 2 1.2304999999999998e+01 1.1366872099805333e+01 1.6858000422621902e+01 0 0 0
352 1 8.0645694240227481e+00 2.4533141453108862e+00 1.1600788717468175e+01 -2 -1 1
1357 1 8.6653992700660698e+00 1.9936669463515904e+00 1.4201466558069262e+01 -2 0 1
2551 1 1.1021635067244640e+01 3.4056895901822126e+00 1.4313473190119820e+01 -2 -3 1
1853 1 2.1199544768911456e+00 3.8635828328054402e+00 1.4601774644403678e+01 3 -2 0
4381 1 1.7298549658307403e+00 6.5412954604051450e+00 1.4092403737877255e+01 -5 -3 0
1281 1 1.7444723714571686e+00 6.0154402072395925e+00 1.1520647562471233e+01 2 1 1
385 1 4.2874732368037876e+00 8.0070622146076307e+00 1.3985510180187678e+01 2 0 1
364 1 6.3028707748190955e+00 6.2855856037644795e+00 1.1513239482157564e+01 -1 3 0
4564 1 6.5930019904262380e+00 6.5814099923801077e+00 1.4281452701083751e+01 2 2 1
2646 1 1.0845020221626562e+01 6.5565138453482188e+00 1.4137646880819362e+01 2 -1 1
1347 1 8.6942279046681179e+00 8.4572120347223709e+00 1.3656504610895453e+01 1 1 0
3781 1 1.0863938952095499e+01 6.0680288365673611e+00 1.1423770578846487e+01 -1 -5 1
286 2 1.1074500000000002e+01 9.2355835810918343e+00 1.6858000422621902e+01 0 0 0
3056 1 4.5143729786339275e+00 1.0796158476452545e+01 1.4077039094507139e+01 3 0 1
912 1 4.1543755355064445e+00 9.8031644947938386e+00 1.1416176985963535e+01 -4 4 0
378 1 9.0210206153291654e+00 9.6672552921660326e+00 1.1114933355675642e+01 5 1 0
2974 1 8.7761318966956416e+00 1.1279729812185886e+01 1.4501347407165436e+01 -2 -1 0
285 2 9.8440000000000012e+00 8.5251540748539956e+00 1.6858000422621902e+01 0 0 0
193 2 0.0000000000000000e+00 2.8417180249513345e+00 1.6858000422621902e+01 0 0 0
194 2 0.0000000000000000e+00 0.0000000000000000e+00 1.6858000422621902e+01 0 0 0
195 2 1.2305000000000001e+00 7.1042950623783474e-01 1.6858000422621902e+01 0 0 0
199 2 1.2305000000000001e+00 2.1312885187134998e+00 1.6858000422621902e+01 0 0 0
200 2 2.4610000000000003e+00 2.8417180249513345e+00 1.6858000422621902e+01 0 0 0
201 2 2.4610000000000003e+00 0.0000000000000000e+00 1.6858000422621902e+01 0 0 0
202 2 3.6915000000000004e+00 7.1042950623783474e-01 1.6858000422621902e+01 0 0 0
210 2 3.6914999999999996e+00 2.1312885187134998e+00 1.6858000422621902e+01 0 0 0
211 2 4.9220000000000006e+00 2.8417180249513332e+00 1.6858000422621902e+01 0 0 0
212 2 4.9220000000000006e+00 0.0000000000000000e+00 1.6858000422621902e+01 0 0 0
213 2 6.1524999999999999e+00 7.1042950623783407e-01 1.6858000422621902e+01 0 0 0
225 2 6.1524999999999999e+00 2.1312885187134989e+00 1.6858000422621902e+01 0 0 0
226 2 7.3829999999999991e+00 2.8417180249513345e+00 1.6858000422621902e+01 0 0 0
227 2 7.3829999999999991e+00 0.0000000000000000e+00 1.6858000422621902e+01 0 0 0
228 2 8.6134999999999984e+00 7.1042950623783407e-01 1.6858000422621902e+01 0 0 0
244 2 8.6134999999999984e+00 2.1312885187135002e+00 1.6858000422621902e+01 0 0 0
245 2 9.8440000000000012e+00 2.8417180249513332e+00 1.6858000422621902e+01 0 0 0
246 2 9.8440000000000012e+00 0.0000000000000000e+00 1.6858000422621902e+01 0 0 0
247 2 1.1074500000000002e+01 7.1042950623783330e-01 1.6858000422621902e+01 0 0 0
267 2 1.1074500000000002e+01 2.1312885187135002e+00 1.6858000422621902e+01 0 0 0
197 2 0.0000000000000000e+00 4.2625770374269996e+00 1.6858000422621902e+01 0 0 0
198 2 1.2305000000000001e+00 4.9730065436648339e+00 1.6858000422621902e+01 0 0 0
206 2 1.2305000000000001e+00 6.3938655561404980e+00 1.6858000422621902e+01 0 0 0
208 2 2.4610000000000003e+00 4.2625770374269996e+00 1.6858000422621902e+01 0 0 0
209 2 3.6914999999999996e+00 4.9730065436648339e+00 1.6858000422621902e+01 0 0 0
221 2 3.6914999999999996e+00 6.3938655561404980e+00 1.6858000422621902e+01 0 0 0
196 2 0.0000000000000000e+00 7.1042950623783341e+00 1.6858000422621902e+01 0 0 0
207 2 2.4610000000000003e+00 7.1042950623783341e+00 1.6858000422621902e+01 0 0 0
223 2 4.9220000000000006e+00 4.2625770374269978e+00 1.6858000422621902e+01 0 0 0
224 2 6.1524999999999999e+00 4.9730065436648339e+00 1.6858000422621902e+01 0 0 0
240 2 6.1524999999999999e+00 6.3938655561404980e+00 1.6858000422621902e+01 0 0 0
242 2 7.3829999999999991e+00 4.2625770374269996e+00 1.6858000422621902e+01 0 0 0
222 2 4.9220000000000006e+00 7.1042950623783341e+00 1.6858000422621902e+01 0 0 0
241 2 7.3830000000000009e+00 7.1042950623783341e+00 1.6858000422621902e+01 0 0 0
243 2 8.6135000000000002e+00 4.9730065436648339e+00 1.6858000422621902e+01 0 0 0
263 2 8.6135000000000002e+00 6.3938655561404980e+00 1.6858000422621902e+01 0 0 0
265 2 9.8440000000000012e+00 4.2625770374270004e+00 1.6858000422621902e+01 0 0 0
266 2 1.1074500000000002e+01 4.9730065436648339e+00 1.6858000422621902e+01 0 0 0
287 2 1.1074500000000002e+01 6.3938655561404980e+00 1.6858000422621902e+01 0 0 0
264 2 9.8440000000000012e+00 7.1042950623783341e+00 1.6858000422621902e+01 0 0 0
218 2 2.4610000000000003e+00 1.1366872099805333e+01 1.6858000422621902e+01 0 0 0
236 2 3.6914999999999996e+00 1.0656442593567499e+01 1.6858000422621902e+01 0 0 0
204 2 0.0000000000000000e+00 8.5251540748539991e+00 1.6858000422621902e+01 0 0 0
205 2 1.2305000000000001e+00 9.2355835810918343e+00 1.6858000422621902e+01 0 0 0
219 2 2.4610000000000003e+00 8.5251540748539991e+00 1.6858000422621902e+01 0 0 0
220 2 3.6915000000000004e+00 9.2355835810918343e+00 1.6858000422621902e+01 0 0 0
203 2 0.0000000000000000e+00 1.1366872099805333e+01 1.6858000422621902e+01 0 0 0
217 2 1.2305000000000001e+00 1.0656442593567498e+01 1.6858000422621902e+01 0 0 0
239 2 6.1524999999999999e+00 9.2355835810918343e+00 1.6858000422621902e+01 0 0 0
237 2 4.9220000000000006e+00 1.1366872099805333e+01 1.6858000422621902e+01 0 0 0
261 2 7.3830000000000009e+00 8.5251540748539991e+00 1.6858000422621902e+01 0 0 0
260 2 7.3829999999999991e+00 1.1366872099805333e+01 1.6858000422621902e+01 0 0 0
259 2 6.1524999999999999e+00 1.0656442593567499e+01 1.6858000422621902e+01 0 0 0
238 2 4.9220000000000006e+00 8.5251540748539991e+00 1.6858000422621902e+01 0 0 0
307 2 1.1074500000000002e+01 1.0656442593567498e+01 1.6858000422621902e+01 0 0 0
283 2 8.6134999999999984e+00 1.0656442593567498e+01 1.6858000422621902e+01 0 0 0
262 2 8.6134999999999984e+00 9.2355835810918343e+00 1.6858000422621902e+01 0 0 0
284 2 9.8440000000000012e+00 1.1366872099805333e+01 1.6858000422621902e+01 0 0 0
423 1 1.1237179513342904e+01 1.2031035638561418e+01 1.4241396998075988e+01 1 6 1
1299 1 5.6409805011066044e-02 1.1147118769257121e+01 1.4097263628929021e+01 -1 -3 1
549 2 0.0000000000000000e+00 1.4208590124756650e+00 2.0029311461589021e+01 0 0 0
550 2 0.0000000000000000e+00 0.0000000000000000e+00 2.0029311461589021e+01 0 0 0
554 2 1.2305000000000001e+00 2.1312885187134998e+00 2.0029311461589021e+01 0 0 0
555 2 2.4610000000000003e+00 1.4208590124756650e+00 2.0029311461589021e+01 0 0 0
556 2 2.4610000000000003e+00 0.0000000000000000e+00 2.0029311461589021e+01 0 0 0
564 2 3.6914999999999996e+00 2.1312885187134998e+00 2.0029311461589021e+01 0 0 0
710 2 0.0000000000000000e+00 2.8417180249513345e+00 2.3200622500565967e+01 0 0 0
711 2 0.0000000000000000e+00 0.0000000000000000e+00 2.3200622500565967e+01 0 0 0
712 2 1.2305000000000001e+00 7.1042950623783474e-01 2.3200622500565967e+01 0 0 0
716 2 1.2305000000000001e+00 2.1312885187134998e+00 2.3200622500565967e+01 0 0 0
717 2 2.4610000000000003e+00 2.8417180249513345e+00 2.3200622500565967e+01 0 0 0
718 2 2.4610000000000003e+00 0.0000000000000000e+00 2.3200622500565967e+01 0 0 0
719 2 3.6915000000000004e+00 7.1042950623783474e-01 2.3200622500565967e+01 0 0 0
727 2 3.6914999999999996e+00 2.1312885187134998e+00 2.3200622500565967e+01 0 0 0
553 2 1.2305000000000001e+00 3.5521475311891644e+00 2.0029311461589021e+01 0 0 0
563 2 3.6914999999999996e+00 3.5521475311891644e+00 2.0029311461589021e+01 0 0 0
565 2 4.9220000000000006e+00 1.4208590124756650e+00 2.0029311461589021e+01 0 0 0
566 2 4.9220000000000006e+00 0.0000000000000000e+00 2.0029311461589021e+01 0 0 0
578 2 6.1524999999999999e+00 2.1312885187134989e+00 2.0029311461589021e+01 0 0 0
579 2 7.3829999999999991e+00 1.4208590124756659e+00 2.0029311461589021e+01 0 0 0
580 2 7.3829999999999991e+00 0.0000000000000000e+00 2.0029311461589021e+01 0 0 0
728 2 4.9220000000000006e+00 2.8417180249513332e+00 2.3200622500565967e+01 0 0 0
729 2 4.9220000000000006e+00 0.0000000000000000e+00 2.3200622500565967e+01 0 0 0
730 2 6.1524999999999999e+00 7.1042950623783407e-01 2.3200622500565967e+01 0 0 0
742 2 6.1524999999999999e+00 2.1312885187134989e+00 2.3200622500565967e+01 0 0 0
743 2 7.3829999999999991e+00 2.8417180249513345e+00 2.3200622500565967e+01 0 0 0
744 2 7.3829999999999991e+00 0.0000000000000000e+00 2.3200622500565967e+01 0 0 0
577 2 6.1524999999999999e+00 3.5521475311891644e+00 2.0029311461589021e+01 0 0 0
596 2 8.6134999999999984e+00 2.1312885187135002e+00 2.0029311461589021e+01 0 0 0
597 2 9.8440000000000012e+00 1.4208590124756659e+00 2.0029311461589021e+01 0 0 0
598 2 9.8440000000000012e+00 0.0000000000000000e+00 2.0029311461589021e+01 0 0 0
618 2 1.1074500000000002e+01 2.1312885187135002e+00 2.0029311461589021e+01 0 0 0
745 2 8.6134999999999984e+00 7.1042950623783407e-01 2.3200622500565967e+01 0 0 0
761 2 8.6134999999999984e+00 2.1312885187135002e+00 2.3200622500565967e+01 0 0 0
762 2 9.8440000000000012e+00 2.8417180249513332e+00 2.3200622500565967e+01 0 0 0
763 2 9.8440000000000012e+00 0.0000000000000000e+00 2.3200622500565967e+01 0 0 0
764 2 1.1074500000000002e+01 7.1042950623783330e-01 2.3200622500565967e+01 0 0 0
784 2 1.1074500000000002e+01 2.1312885187135002e+00 2.3200622500565967e+01 0 0 0
595 2 8.6134999999999984e+00 3.5521475311891657e+00 2.0029311461589021e+01 0 0 0
617 2 1.1074500000000002e+01 3.5521475311891644e+00 2.0029311461589021e+01 0 0 0
551 2 0.0000000000000000e+00 5.6834360499026637e+00 2.0029311461589021e+01 0 0 0
552 2 0.0000000000000000e+00 4.2625770374269996e+00 2.0029311461589021e+01 0 0 0
560 2 1.2305000000000001e+00 6.3938655561404980e+00 2.0029311461589021e+01 0 0 0
561 2 2.4610000000000003e+00 5.6834360499026637e+00 2.0029311461589021e+01 0 0 0
562 2 2.4610000000000003e+00 4.2625770374269996e+00 2.0029311461589021e+01 0 0 0
574 2 3.6914999999999996e+00 6.3938655561404980e+00 2.0029311461589021e+01 0 0 0
714 2 0.0000000000000000e+00 4.2625770374269996e+00 2.3200622500565967e+01 0 0 0
715 2 1.2305000000000001e+00 4.9730065436648339e+00 2.3200622500565967e+01 0 0 0
723 2 1.2305000000000001e+00 6.3938655561404980e+00 2.3200622500565967e+01 0 0 0
725 2 2.4610000000000003e+00 4.2625770374269996e+00 2.3200622500565967e+01 0 0 0
726 2 3.6914999999999996e+00 4.9730065436648339e+00 2.3200622500565967e+01 0 0 0
738 2 3.6914999999999996e+00 6.3938655561404980e+00 2.3200622500565967e+01 0 0 0
559 2 1.2305000000000001e+00 7.8147245686161639e+00 2.0029311461589021e+01 0 0 0
573 2 3.6914999999999996e+00 7.8147245686161639e+00 2.0029311461589021e+01 0 0 0
713 2 0.0000000000000000e+00 7.1042950623783341e+00 2.3200622500565967e+01 0 0 0
724 2 2.4610000000000003e+00 7.1042950623783341e+00 2.3200622500565967e+01 0 0 0
575 2 4.9220000000000006e+00 5.6834360499026637e+00 2.0029311461589021e+01 0 0 0
576 2 4.9220000000000006e+00 4.2625770374269978e+00 2.0029311461589021e+01 0 0 0
592 2 6.1524999999999999e+00 6.3938655561404980e+00 2.0029311461589021e+01 0 0 0
593 2 7.3829999999999991e+00 5.6834360499026637e+00 2.0029311461589021e+01 0 0 0
594 2 7.3829999999999991e+00 4.2625770374269996e+00 2.0029311461589021e+01 0 0 0
740 2 4.9220000000000006e+00 4.2625770374269978e+00 2.3200622500565967e+01 0 0 0
741 2 6.1524999999999999e+00 4.9730065436648339e+00 2.3200622500565967e+01 0 0 0
757 2 6.1524999999999999e+00 6.3938655561404980e+00 2.3200622500565967e+01 0 0 0
759 2 7.3829999999999991e+00 4.2625770374269996e+00 2.3200622500565967e+01 0 0 0
591 2 6.1524999999999999e+00 7.8147245686161639e+00 2.0029311461589021e+01 0 0 0
739 2 4.9220000000000006e+00 7.1042950623783341e+00 2.3200622500565967e+01 0 0 0
758 2 7.3830000000000009e+00 7.1042950623783341e+00 2.3200622500565967e+01 0 0 0
614 2 8.6135000000000002e+00 6.3938655561404980e+00 2.0029311461589021e+01 0 0 0
615 2 9.8440000000000012e+00 5.6834360499026637e+00 2.0029311461589021e+01 0 0 0
616 2 9.8440000000000012e+00 4.2625770374270004e+00 2.0029311461589021e+01 0 0 0
637 2 1.1074500000000002e+01 6.3938655561404980e+00 2.0029311461589021e+01 0 0 0
760 2 8.6135000000000002e+00 4.9730065436648339e+00 2.3200622500565967e+01 0 0 0
780 2 8.6135000000000002e+00 6.3938655561404980e+00 2.3200622500565967e+01 0 0 0
782 2 9.8440000000000012e+00 4.2625770374270004e+00 2.3200622500565967e+01 0 0 0
783 2 1.1074500000000002e+01 4.9730065436648339e+00 2.3200622500565967e+01 0 0 0
804 2 1.1074500000000002e+01 6.3938655561404980e+00 2.3200622500565967e+01 0 0 0
613 2 8.6135000000000002e+00 7.8147245686161639e+00 2.0029311461589021e+01 0 0 0
636 2 1.1074500000000002e+01 7.8147245686161639e+00 2.0029311461589021e+01 0 0 0
781 2 9.8440000000000012e+00 7.1042950623783341e+00 2.3200622500565967e+01 0 0 0
557 2 0.0000000000000000e+00 9.9460130873296642e+00 2.0029311461589021e+01 0 0 0
558 2 0.0000000000000000e+00 8.5251540748539991e+00 2.0029311461589021e+01 0 0 0
571 2 2.4610000000000003e+00 9.9460130873296642e+00 2.0029311461589021e+01 0 0 0
572 2 2.4610000000000003e+00 8.5251540748539991e+00 2.0029311461589021e+01 0 0 0
721 2 0.0000000000000000e+00 8.5251540748539991e+00 2.3200622500565967e+01 0 0 0
722 2 1.2305000000000001e+00 9.2355835810918343e+00 2.3200622500565967e+01 0 0 0
736 2 2.4610000000000003e+00 8.5251540748539991e+00 2.3200622500565967e+01 0 0 0
737 2 3.6915000000000004e+00 9.2355835810918343e+00 2.3200622500565967e+01 0 0 0
569 2 1.2305000000000001e+00 1.2077301606043163e+01 2.0029311461589021e+01 0 0 0
570 2 1.2305000000000001e+00 1.0656442593567498e+01 2.0029311461589021e+01 0 0 0
587 2 3.6914999999999996e+00 1.2077301606043163e+01 2.0029311461589021e+01 0 0 0
588 2 3.6914999999999996e+00 1.0656442593567499e+01 2.0029311461589021e+01 0 0 0
720 2 0.0000000000000000e+00 1.1366872099805333e+01 2.3200622500565967e+01 0 0 0
734 2 1.2305000000000001e+00 1.0656442593567498e+01 2.3200622500565967e+01 0 0 0
735 2 2.4610000000000003e+00 1.1366872099805333e+01 2.3200622500565967e+01 0 0 0
753 2 3.6914999999999996e+00 1.0656442593567499e+01 2.3200622500565967e+01 0 0 0
589 2 4.9220000000000006e+00 9.9460130873296642e+00 2.0029311461589021e+01 0 0 0
590 2 4.9220000000000006e+00 8.5251540748539991e+00 2.0029311461589021e+01 0 0 0
611 2 7.3830000000000009e+00 9.9460130873296642e+00 2.0029311461589021e+01 0 0 0
612 2 7.3830000000000009e+00 8.5251540748539991e+00 2.0029311461589021e+01 0 0 0
755 2 4.9220000000000006e+00 8.5251540748539991e+00 2.3200622500565967e+01 0 0 0
756 2 6.1524999999999999e+00 9.2355835810918343e+00 2.3200622500565967e+01 0 0 0
778 2 7.3830000000000009e+00 8.5251540748539991e+00 2.3200622500565967e+01 0 0 0
609 2 6.1524999999999999e+00 1.2077301606043163e+01 2.0029311461589021e+01 0 0 0
610 2 6.1524999999999999e+00 1.0656442593567499e+01 2.0029311461589021e+01 0 0 0
754 2 4.9220000000000006e+00 1.1366872099805333e+01 2.3200622500565967e+01 0 0 0
776 2 6.1524999999999999e+00 1.0656442593567499e+01 2.3200622500565967e+01 0 0 0
777 2 7.3829999999999991e+00 1.1366872099805333e+01 2.3200622500565967e+01 0 0 0
634 2 9.8440000000000012e+00 9.9460130873296642e+00 2.0029311461589021e+01 0 0 0
635 2 9.8440000000000012e+00 8.5251540748539956e+00 2.0029311461589021e+01 0 0 0
779 2 8.6134999999999984e+00 9.2355835810918343e+00 2.3200622500565967e+01 0 0 0
802 2 9.8440000000000012e+00 8.5251540748539956e+00 2.3200622500565967e+01 0 0 0
803 2 1.1074500000000002e+01 9.2355835810918343e+00 2.3200622500565967e+01 0 0 0
632 2 8.6135000000000002e+00 1.2077301606043163e+01 2.0029311461589021e+01 0 0 0
633 2 8.6134999999999984e+00 1.0656442593567498e+01 2.0029311461589021e+01 0 0 0
655 2 1.1074500000000002e+01 1.2077301606043163e+01 2.0029311461589021e+01 0 0 0
656 2 1.1074500000000002e+01 1.0656442593567498e+01 2.0029311461589021e+01 0 0 0
800 2 8.6134999999999984e+00 1.0656442593567498e+01 2.3200622500565967e+01 0 0 0
801 2 9.8440000000000012e+00 1.1366872099805333e+01 2.3200622500565967e+01 0 0 0
824 2 1.1074500000000002e+01 1.0656442593567498e+01 2.3200622500565967e+01 0 0 0
825 2 1.2304999999999998e+01 1.1366872099805333e+01 2.3200622500565967e+01 0 0 0
2585 1 1.8364343833111714e+00 3.5615304961165948e+00 2.5583740364541622e+01 0 1 -1
2178 1 1.6718559255559138e+00 9.6720208129662977e-01 2.6577384777689183e+01 3 -1 -1
2110 1 4.2050732922911243e+00 4.8041065061179982e+00 2.9252259487241201e+01 3 1 -1
996 1 6.3673450349345568e+00 3.4829819742911199e+00 2.5244229100193007e+01 2 2 -2
1864 1 6.5174067247924334e+00 8.6032557733674198e-01 2.6074843409994706e+01 -2 1 -1
132 1 1.0414970857347331e+01 7.4640060685677179e-01 2.6348748205042337e+01 -1 0 -1
3521 1 1.0824138392491550e+01 3.4306938322239273e+00 2.5561694959008392e+01 2 -2 -1
2976 1 6.2798157789855624e+00 1.0176294148870300e+00 2.8733345018368919e+01 0 2 0
4618 1 4.1895046839885719e+00 4.4650435591369515e+00 2.6549163353062170e+01 -2 -1 0
4373 1 4.0535677311420963e+00 6.8554629049636162e+00 2.5494032106446969e+01 4 2 0
1041 1 1.0522673173370709e+01 1.0840528060495579e+01 2.5430117764881899e+01 3 0 -1
409 1 8.6387412024636898e+00 1.1971308749470426e+01 2.9203760110568972e+01 1 -2 0
420 1 8.5001913707535461e+00 4.9286367556724606e+00 2.6031558778145694e+01 1 2 0
3866 1 8.0951283369468356e+00 7.3959086038228232e+00 2.5410316387896611e+01 1 -1 0
119 1 1.0684819780352321e+01 8.2366884569822965e+00 2.6208583722240601e+01 1 -1 0
1723 1 2.0308090712562961e+00 8.5693619333847568e+00 2.6684812590486811e+01 -2 -2 0
3726 1 1.8618655616975801e+00 1.0973369798568505e+01 2.5489539863931373e+01 0 1 0
955 1 5.8654609444490537e+00 8.6211231801735071e+00 2.6277493769014516e+01 4 0 -1
3869 1 6.1953600919794756e+00 1.1371154713865174e+01 2.5527769563862218e+01 1 -1 0
3784 1 4.3803020573641085e+00 1.2104674035805449e+01 2.9187730322780713e+01 5 0 0
2710 1 8.6988819083603559e+00 1.2158964456636154e+01 2.6626163663533600e+01 0 -3 0
4321 1 1.0653048638525254e+01 8.3261879897062414e+00 2.9002903561324139e+01 1 1 0
2086 1 5.9923625486147536e+00 8.6583928935297880e+00 2.9080593994146561e+01 4 0 0
176 1 1.0397460447741798e+01 7.2554653453507012e-01 2.8989947955731740e+01 -2 -1 -1
133 1 8.6161893800374809e+00 4.7638668697619080e+00 2.8768146602484418e+01 2 0 -1
135 1 1.8579517180752887e+00 8.6855396864756340e+00 2.9354270288728568e+01 0 0 -1
1213 1 1.9285105070397430e+00 1.1211304366887884e+00 2.9317548180564646e+01 0 2 -1
445 1 1.8647316706867538e+00 3.3673060043477334e+00 3.3099353778834377e+01 -1 1 0
4696 1 1.8498082350223966e+00 3.8064921715940452e+00 3.0383447314558271e+01 1 -1 -1
3437 1 1.3551019698407032e+00 8.1061760744407774e-01 3.3787741455248096e+01 2 -1 -1
1716 1 6.2187816379845327e+00 3.5606820322339265e+00 3.2968519784257452e+01 4 1 0
1755 1 6.3562146791278851e+00 3.5452491694606336e+00 3.0136581499847996e+01 -1 -1 -2
3005 1 5.8067408733531565e+00 9.1513163295562083e-01 3.3977079287174931e+01 -1 2 -1
3425 1 1.1060991203354535e+01 1.1024288568829775e+01 3.7888706390534679e+01 2 -1 0
101 1 1.0629527850652920e+01 3.3571843163454473e+00 3.3022336790355624e+01 -1 -1 -1
2964 1 1.0482880420031705e+01 3.4504453034330345e+00 3.0103047488628945e+01 -1 -4 0
3850 1 1.0327328690424281e+01 7.5399191943066124e-01 3.3802303154903939e+01 -2 -5 0
1748 1 3.8555235998839574e+00 4.7111296156131148e+00 3.3914711172793432e+01 5 3 -1
532 1 3.9657633353774080e+00 7.4039940118435545e+00 3.0319773187833146e+01 -1 1 -1
1881 1 1.8262731478577703e+00 8.4848979399424209e+00 3.3712634690648443e+01 2 1 -1
2672 1 4.3194368006516708e+00 7.3689255336501907e+00 3.3093227858810536e+01 -1 1 -1
1025 1 8.6452613351511260e+00 7.0473156146344325e+00 3.2942014140121486e+01 -2 0 -2
2068 1 8.3478803287197572e+00 7.0886259101314533e+00 3.0011429957139349e+01 0 0 -1
350 1 8.5624266836709069e+00 4.4434302707289701e+00 3.4283032483770285e+01 3 -1 0
2 1 1.9304326025524829e+00 1.1117242799205741e+01 3.3074390099835583e+01 0 -1 -1
3848 1 1.9653852093228523e+00 1.1174764800471438e+01 3.0334604395845346e+01 0 0 0
4523 1 2.1221773946603375e+00 1.0972406250179983e+01 3.7626429532797374e+01 3 2 -1
4185 1 6.4969723070304246e+00 8.5897212043614921e+00 3.3910533242201765e+01 5 -2 -1
168 1 6.5395687525673702e+00 1.1247423652410083e+01 3.3120948885498294e+01 1 -1 -1
387 1 6.5582573701882829e+00 1.1035438401796883e+01 3.0390358120681810e+01 -1 2 0
2569 1 1.0955302451843592e+01 8.3645434033543147e+00 3.3855995671147895e+01 -1 0 -1
1895 1 1.1062210162801140e+01 1.0959006202743746e+01 3.0011438869626328e+01 -5 2 -1
1315 1 1.0886618214915247e+01 1.0778412846051321e+01 3.2817089237888680e+01 -4 -3 0
189 1 6.5921212975358303e+00 1.1089142112534063e+01 3.7783545724682895e+01 -2 1 -1
1714 1 1.3042904701090763e+00 7.1911394893571279e-01 3.6479991182894935e+01 1 -3 -1
2684 1 1.5315215340654262e+00 3.3092063212256950e+00 3.7624684846031727e+01 3 0 -1
2981 1 5.8646258900624160e+00 7.4698091857730842e-01 3.6524372509364937e+01 -2 4 0
1037 1 6.0355332018587449e+00 3.5307439855926095e+00 3.7719791358446145e+01 0 -1 -1
942 1 1.0617247679021562e+01 9.2741694104658046e-01 3.6762916268887182e+01 2 -1 -1
3841 1 1.0573075468178429e+01 3.4001605618231432e+00 3.7776374015782309e+01 -1 -6 0
2879 1 3.9619336915629391e+00 4.7262106300674471e+00 3.6685541657632754e+01 0 1 0
368 1 4.0957609150565624e+00 7.2157894852559874e+00 3.7834491616369320e+01 -1 -3 0
3810 1 6.4460839999830064e+00 8.4549870807366503e+00 3.6697383466374092e+01 0 3 -1
1756 1 8.5228561606783479e+00 4.6225665811516334e+00 3.6787996115725605e+01 1 3 -1
3864 1 8.7598886423893170e+00 7.1347333919413174e+00 3.7741312369471132e+01 2 5 -1
941 1 1.0843677386056884e+01 8.6134134894444347e+00 3.6651403876220186e+01 1 -1 -1
539 1 1.8874211869081883e+00 8.2584263223417089e+00 3.6556686182948013e+01 1 -2 0
2965 1 4.3597267950040930e+00 1.2158492412419546e+01 3.6669932063912626e+01 -1 0 0
366 1 2.1525024758387987e+00 1.3160469552722855e+01 4.0566601175706625e+00 -2 -2 1
1753 1 4.5296209309685791e+00 1.4448390860193070e+01 2.8658719953318252e+00 0 -1 0
75 1 6.9656128196367257e+00 1.3715084486697116e+01 4.0186361628673071e+00 0 4 1
2670 1 9.1690995446183354e+00 1.4949273239929964e+01 2.7204119417181016e+00 2 0 1
89 1 1.1452002646641207e+01 1.3720907099752623e+01 4.0461083858040654e+00 2 3 1
3010 1 2.5951664754876158e+00 1.8268042980441905e+01 2.8206649150181651e+00 0 -8 1
2636 1 1.2064063823853850e+01 2.3391230932260335e+01 1.0370015469174451e+01 0 0 0
3044 1 4.8192336623856704e+00 1.7144958047444533e+01 3.7670344159397935e+00 0 -1 1
1016 1 6.7831576182661086e+00 1.8462861643770154e+01 2.8343087532380338e+00 0 2 0
2162 1 9.2491297788716107e+00 1.7545566875091268e+01 3.5602268271721154e+00 1 2 0
1719 1 1.1361570735777210e+01 1.8534867385233952e+01 2.8050989851412993e+00 -2 0 0
2888 1 2.3390613886310172e+00 2.0663050287379782e+01 3.8068614450697598e+00 1 1 0
4577 1 9.2499975284806055e+00 1.2375654662832217e+01 1.0413454408905183e+01 2 0 1
966 1 6.9172291505923074e+00 2.0768432695073813e+01 4.1844067910851788e+00 -2 -3 0
4340 1 4.6764011071189389e+00 2.1925296651844928e+01 3.1129921936137803e+00 2 2 1
2635 1 1.1620862341803646e+01 1.5998321303928464e+01 1.0261370045597960e+01 0 -2 0
3759 1 1.1573014248212512e+01 2.0999915054801470e+01 4.0062480447905067e+00 1 -6 0
1235 1 9.3936254958069458e+00 2.2168892319087863e+01 3.3531270383590073e+00 0 -1 0
1751 1 2.1271305691725262e+00 1.5986783379816289e+01 7.7438559322061007e+00 0 -2 1
2062 1 2.3534305715016743e+00 1.3504323307589241e+01 6.7057657981266301e+00 2 2 0
452 1 8.7363740353131067e+00 1.2350554764885464e+01 7.6920896041272053e+00 3 3 1
3006 1 6.6653255858791995e+00 1.3679583580914208e+01 6.8638734377586559e+00 3 1 1
2143 1 6.8526340120826559e+00 1.6097760722810037e+01 7.5674948199068428e+00 -2 2 1
3034 1 2.8662175400395786e+00 2.3264298035205833e+01 7.5431982804542752e+00 2 -1 0
4330 1 1.1181268336410422e+01 1.3236058489568872e+01 6.8900634518108257e+00 6 2 1
474 1 1.1378198497701932e+01 1.5796130775019742e+01 7.5283247242428359e+00 2 -3 1
2878 1 7.4464291547260082e+00 2.3267994798380244e+01 8.0490376339139509e+00 2 0 1
3057 1 1.1856931524792740e+01 2.1072236017408834e+01 6.8220349014536428e+00 -1 -7 1
4363 1 7.4302154779524532e+00 2.0759411734736254e+01 6.9148247704848984e+00 3 -2 0
508 1 4.6280837923851550e+00 1.6811960842855868e+01 6.4814612254885891e+00 -1 0 1
3844 1 4.9664872689542561e+00 1.9470077801634162e+01 7.2744101518644557e+00 -4 -1 0
2209 1 1.2037583062708723e+01 2.3572948103014792e+01 7.5717626858293423e+00 2 -4 1
1017 1 9.2469299357310781e+00 1.7168927053318765e+01 6.4102315117072060e+00 1 -1 1
1221 1 9.7927157552215327e+00 1.9521355310692627e+01 7.6495961064341467e+00 1 -1 1
3431 1 2.5214882510513150e+00 2.0604065391436524e+01 6.6679371886899181e+00 3 0 1
1775 1 3.1089284568314490e-01 1.9804461609526676e+01 1.0329691625943484e+01 -1 -3 1
925 1 6.8581255826111622e+00 1.5910278715943612e+01 1.0138650517789980e+01 2 -1 0
4679 1 2.0235464114087670e-01 1.9471998003352379e+01 7.7575629721138863e+00 -3 -1 1
473 1 9.6169467571580000e-02 2.2108558173489932e+01 2.9997411878883842e+00 0 1 1
1777 1 9.4946625940606495e+00 1.9237520787909901e+01 1.0324152099553771e+01 1 -3 0
153 1 1.0177828991637959e-01 1.7174950178651269e+01 3.7547931516562154e+00 -1 1 0
4252 1 2.4239689240817279e+00 1.5716955674181568e+01 1.0360598983480088e+01 0 -1 1
2059 1 2.8482570732934880e+00 2.3257394233778410e+01 1.0243796289854025e+01 1 1 1
1208 1 5.3344407946886170e-02 1.4645301867559329e+01 3.0937294144837244e+00 0 3 0
122 1 4.9643598052401021e+00 1.9720509558111022e+01 1.0040941183275089e+01 6 -1 1
404 1 2.1887641833687508e+00 1.5458178253010789e+01 1.4510021378835473e+01 -1 0 0
4297 1 2.5630688177213297e+00 1.3369162609475611e+01 1.1139381535854501e+01 -1 4 1
4251 1 2.4492988293456244e+00 1.2617468404084663e+01 1.4088085082112425e+01 1 0 1
346 2 1.1074500000000002e+01 2.3444173705848499e+01 1.6858000422621902e+01 0 0 0