
# Create simulation box and atoms

read_data data.ML_graphite_1atm_240K
  orthogonal box = (0 0 2.18931) to (49.22 49.0196 37.8107)
  4 by 4 by 4 MPI processor grid
  reading atoms ...
  4990 atoms
  reading velocities ...
  4990 velocities
group water type 1
2230 atoms in group water
group graphite type 2
2760 atoms in group graphite

# Define potential

pair_style sw
pair_coeff * * MLC_e.sw mW C


# Fix graphite atoms in place

fix 5 graphite setforce 0.0 0.0 0.0
velocity graphite set 0.0 0.0 0.0


# Equilibration of molecular water

# Add velocity/set timestep

velocity	    water create ${TEMP} ${SEED} rot yes dist gaussian
velocity	    water create 240 ${SEED} rot yes dist gaussian
velocity	    water create 240 2032 rot yes dist gaussian
timestep	    5.0

# Define output

compute			1 water msd
compute			3 water temp
thermo	    	50
thermo_style	custom step temp press vol etotal ke pe c_1[4] c_3

# Neighbor lists

neigh_modify    delay 0 every 1 check yes

# Set fixes

fix             1 water momentum 10 linear 1 1 1 rescale
fix             2 water nve
fix             3 water temp/csvr ${TEMP} ${TEMP} 500.0 ${SEED}
fix             3 water temp/csvr 240 ${TEMP} 500.0 ${SEED}
fix             3 water temp/csvr 240 240 500.0 ${SEED}
fix             3 water temp/csvr 240 240 500.0 2032
fix             4 water press/berendsen z ${PRES} ${PRES} 1000.0 modulus 20000
fix             4 water press/berendsen z 1 ${PRES} 1000.0 modulus 20000
fix             4 water press/berendsen z 1 1 1000.0 modulus 20000

# Run 0.5 ns equilibration

dump		    1 all atom 2000 ${DIR}/eq.${NAME}-${TEMP}.dump
dump		    1 all atom 2000 run_8/eq.${NAME}-${TEMP}.dump
dump		    1 all atom 2000 run_8/eq.het_freeze_8-${TEMP}.dump
dump		    1 all atom 2000 run_8/eq.het_freeze_8-240.dump

reset_timestep  0

run	            100000
Neighbor list info ...
  update every 1 steps, delay 0 steps, check yes
  max neighbors/atom: 2000, page size: 100000
  master list distance cutoff = 6.67472
  ghost atom cutoff = 6.67472
  binsize = 3.33736, bins = 15 15 11
  1 neighbor lists, perpetual/occasional/extra = 1 0 0
  (1) pair sw, perpetual
      attributes: full, newton on
      pair build: full/bin/atomonly
      stencil: full/bin/3d
      bin: standard
Per MPI rank memory allocation (min/avg/max) = 4.094 | 4.225 | 4.497 Mbytes
Step Temp Press Volume TotEng KinEng PotEng c_1[4] c_3 
       0     107.2279   -141.85038    85945.351   -21384.105    1594.6141   -22978.719            0          240 
      50    108.91274    -547.7783    85943.842   -21405.156    1619.6698   -23024.826   0.50183293    243.77104 
     100      108.897   -182.66532    85937.832   -21382.537    1619.4357   -23001.972   0.87466791    243.73581 
     150    104.48755    -417.3076    85901.337   -21446.458    1553.8617    -23000.32     1.169593    233.86649 
     200    108.05211   -515.84008    85886.089   -21449.999    1606.8712    -23056.87    1.4226095    241.84477 
     250    107.61237   -412.34558    85907.637   -21470.682    1600.3317   -23071.013    1.6457551    240.86054 
     300    108.48868    -513.7315     85883.28   -21483.918    1613.3634   -23097.281    1.8880259    242.82189 
     350    106.48748   -510.97575     85812.13   -21487.981    1583.6031   -23071.584      2.07677    238.34277 
     400    107.43644   -208.78286    85910.257   -21486.834    1597.7154    -23084.55    2.3131303    240.46676 
     450    108.09152   -499.26602    85862.491   -21477.578    1607.4572   -23085.035    2.5452478    241.93296 
     500    104.21624   -224.55338    85849.886   -21461.101    1549.8269   -23010.928    2.7653096    233.25922 
     550    109.44089   -134.35934    85915.788   -21452.617    1627.5241   -23080.141    2.9335985    244.95317 
     600    104.16021   -488.16811    85862.717   -21435.764    1548.9938   -22984.757    3.1805688    233.13383 
     650    103.16136     111.2774    85886.533   -21442.234    1534.1395   -22976.374    3.4057624    230.89817 
     700    109.74258    39.682506    85933.605   -21424.865    1632.0106   -23056.876    3.7037971    245.62842 
     750    108.90928    54.855198    86023.755   -21400.723    1619.6183   -23020.341    4.0552574    243.76329 
     800    107.30385    79.763269    86077.835   -21400.165    1595.7436   -22995.909    4.3082901    240.16999 
     850    107.04022   -70.440047    86188.729   -21409.332    1591.8231   -23001.155    4.7067919    239.57993 
     900    108.07549    106.28607    86275.434   -21460.852    1607.2189   -23068.071    4.8892795    241.89709 
     950    106.36356   -239.89372    86243.844   -21408.972    1581.7602   -22990.732    5.0134412     238.0654 
    1000    108.96805   -245.96749    86235.645   -21386.721    1620.4924   -23007.214    5.2209747    243.89485 
    1050    106.65782   -619.15423    86190.185   -21374.473    1586.1362    -22960.61    5.4482239    238.72402 
    1100    105.15155   -280.73405    86124.063   -21395.559    1563.7362   -22959.296     5.670717    235.35267 
    1150    110.47494   -493.18612    86152.367   -21389.454    1642.9018   -23032.355    5.8520331    247.26761 
    1200    107.83861   -571.13318     86070.46   -21405.332    1603.6962   -23009.029    6.1273432    241.36691 
    1250    110.88017   -225.40322    86088.775   -21399.673     1648.928   -23048.601     6.355546     248.1746 
    1300    107.57081   -442.72515    86117.393   -21413.409    1599.7136   -23013.122    6.6380983    240.76751 
    1350    107.09857   -595.83533    86073.303   -21421.335    1592.6908   -23014.026     6.917873    239.71052 
    1400    108.25771   -434.14771     86024.74   -21424.925    1609.9287   -23034.854    7.0662653    242.30494 
    1450    107.30307   -589.70287    85959.915   -21419.079     1595.732   -23014.811    7.2140779    240.16824 
    1500     108.0129   -517.05846    85950.638   -21410.164     1606.288   -23016.452    7.3630445      241.757 
    1550     107.5326   -178.56833    85968.345    -21420.51    1599.1454   -23019.656    7.5903567    240.68198 
    1600    108.75731   -185.48482    85960.223   -21371.805    1617.3584   -22989.164    7.7399113    243.42316 
    1650    111.86874   -488.04791    85980.204   -21367.351    1663.6292    -23030.98     7.951616    250.38723 
    1700    110.32886   -237.67042     85920.16   -21373.902    1640.7293   -23014.631    8.2541744    246.94063 
    1750    110.44606   -444.04637    85914.022   -21396.525    1642.4722   -23038.998    8.3614235    247.20295 
    1800    106.99243   -254.01301    85928.915   -21402.418    1591.1124    -22993.53    8.5026648    239.47296 
    1850    109.86356   -271.35426    85968.861   -21401.754    1633.8098   -23035.564    8.8260552     245.8992 
    1900     107.2055    -273.2307    85926.271    -21428.13    1594.2811   -23022.411    9.2196313    239.94987 
    1950    107.05122   -319.87371    85956.428   -21435.487    1591.9866   -23027.474    9.5904014    239.60454 
    2000    110.29644    -241.6944    85996.446    -21421.32    1640.2472   -23061.567    9.9860967    246.86808 
    2050    107.07994   -416.67979    86042.176   -21412.539    1592.4138   -23004.953    10.235507    239.66883 
    2100    108.22442   -64.662068     86000.02    -21396.52    1609.4337   -23005.954    10.465173    242.23044 
    2150    109.23594   -148.15156    86029.038   -21345.713    1624.4762   -22970.189      10.7503    244.49444 
    2200    109.00008   -533.89158    85985.626   -21354.756    1620.9687   -22975.724    10.968681    243.96653 
    2250    107.71086   -398.38646    85949.993   -21403.491    1601.7964   -23005.287    11.126381    241.08098 
    2300    105.44756    -401.5762    85906.331   -21375.705    1568.1382   -22943.844    11.271994     236.0152 
    2350    110.38623    -639.2303    85921.249   -21359.568    1641.5825   -23001.151    11.571906    247.06905 
    2400    109.56956   -73.566947    85970.643   -21386.425    1629.4376   -23015.862     11.72056    245.24116 
    2450    107.41802   -187.55729    86035.378    -21377.54    1597.4414   -22974.981    12.050146    240.42552 
    2500    107.01515   -447.89122    86045.413   -21417.887    1591.4503   -23009.337    12.370021    239.52383 
    2550    111.75505    51.073607    86036.521   -21340.087    1661.9385   -23002.025    12.777371    250.13276 
    2600    109.31181   -253.98122    86091.606   -21344.205    1625.6045   -22969.809     13.08684    244.66425 
    2650    106.31254     -600.975    86057.988   -21393.151    1581.0016   -22974.152     13.30128    237.95122 
    2700     109.0155   -496.66836     86081.05   -21370.588     1621.198   -22991.786     13.49332    244.00104 
    2750    108.14218   -291.84975    86079.906   -21360.315    1608.2106   -22968.525    13.559959    242.04636 
    2800    107.14645   -587.81214    86101.509   -21349.809    1593.4028   -22943.211    13.744121    239.81768 
    2850    105.11056   -386.30353    86059.842   -21378.365    1563.1267   -22941.491    13.953262    235.26093 
    2900    108.81639   -557.16304    86121.562   -21381.185     1618.237   -22999.422    14.123137    243.55539 
    2950    108.62868   -424.21314    86105.226   -21403.489    1615.4454   -23018.934    14.390745    243.13525 
    3000     106.0699   -263.23248    86114.306   -21455.018    1577.3931   -23032.411    14.566692    237.40813 
    3050     106.9629   -482.98335     86118.49   -21426.352    1590.6732   -23017.026    14.800485    239.40686 
    3100    110.40316   -83.447319    86163.961   -21448.674    1641.8342   -23090.509    15.081693    247.10694 
    3150    106.87584   -34.137075    86207.985   -21440.898    1589.3785   -23030.276    15.185531      239.212 
    3200    106.36993   -286.27052    86182.753   -21429.669    1581.8551   -23011.524    15.409164    238.07968 
    3250    109.34453   -244.23014    86181.772   -21429.409    1626.0911     -23055.5    15.609777    244.73749 
    3300    109.51314   -330.77328    86223.098   -21402.787    1628.5986   -23031.385    15.825653    245.11488 
    3350    106.27806    118.15014    86179.519   -21456.226    1580.4888   -23036.715    15.977254    237.87404 
    3400    105.53892   -518.19389    86215.997   -21495.006    1569.4969   -23064.502    15.962128    236.21969 
    3450    104.08605   -342.69828    86196.772   -21509.556    1547.8909   -23057.447    15.925949    232.96785 
    3500    104.49014   -64.133255    86233.908   -21505.461    1553.9002   -23059.361    16.021354    233.87228 
    3550    105.46349   -112.60416    86316.023   -21482.512    1568.3751   -23050.887    16.229918    236.05085 
    3600    104.08369    -230.2544    86387.904   -21475.923    1547.8558   -23023.779     16.46551    232.96255 
    3650    107.20555   -281.74243    86361.713   -21394.844    1594.2818   -22989.126    16.578344    239.94997 
    3700    108.19824   -275.23599    86349.585   -21401.945    1609.0443   -23010.989    16.797239    242.17184 
    3750    110.05807    -325.3328    86455.635   -21426.658    1636.7023   -23063.361    17.030022    246.33454 
    3800     105.9578   -269.22708    86487.051   -21425.263    1575.7262   -23000.989    17.174845    237.15724 
    3850    107.32827   -399.51733    86466.319    -21436.82    1596.1067   -23032.927     17.36628    240.22465 
    3900    109.08343   -430.13568    86448.551   -21393.686    1622.2083   -23015.894    17.442466     244.1531 
    3950    107.02736   -652.10281    86432.225   -21414.322    1591.6319   -23005.953    17.700424    239.55115 
    4000    110.13037   -485.68927    86358.494   -21415.687    1637.7775   -23053.464    18.025306    246.49637 
    4050    109.22033   -261.19294    86361.491   -21457.068     1624.244   -23081.312    18.323518    244.45949 
    4100    106.03994   -604.33248    86316.094   -21495.198    1576.9476   -23072.146     18.60787    237.34107 
    4150    104.18323   -326.76961    86262.567   -21492.914     1549.336    -23042.25    18.862454    233.18534 
    4200    108.50832   -671.23436    86238.273   -21481.433    1613.6557   -23095.089    19.154456    242.86587 
    4250    107.01894   -533.60833    86227.269   -21446.871    1591.5066   -23038.378    19.461314     239.5323 
    4300    106.48906   -605.47742    86232.659    -21454.86    1583.6266   -23038.486      19.7216     238.3463 
    4350     107.8041   -380.14664    86239.966   -21452.629     1603.183   -23055.812    19.894951    241.28966 
    4400    107.26141   -550.72197    86306.766   -21427.712    1595.1124   -23022.824    20.240102      240.075 
    4450    110.18267   -208.95105    86387.021   -21381.602    1638.5553   -23020.157    20.610152    246.61344 
    4500    109.81851   -558.16478    86416.513   -21388.565    1633.1398   -23021.705    20.770578    245.79837 
    4550    106.19727   -555.21031    86395.958   -21400.846    1579.2873   -22980.133    21.078818    237.69321 
    4600     106.5712   -454.93792    86377.623   -21425.524    1584.8481   -23010.372    21.421237    238.53015 
    4650    105.31179   -438.78963     86368.29   -21433.224    1566.1192   -22999.343    21.516945    235.71132 
    4700    107.83921   -382.13698    86394.889   -21410.469    1603.7051   -23014.174    21.733072    241.36825 
    4750    107.27872   -712.41881     86435.77   -21417.611    1595.3698   -23012.981    21.978937    240.11374 
    4800    107.48953   -393.44847    86438.581    -21409.05    1598.5048   -23007.555    22.019076    240.58558 
    4850     108.3453   -588.43362    86383.089   -21419.854    1611.2312   -23031.085    22.446647    242.50098 
    4900    107.19122   -714.21776    86264.228   -21402.748    1594.0687   -22996.817    22.705034     239.9179 
    4950    108.80696   -367.28872    86192.676   -21435.339    1618.0967   -23053.435    23.125884    243.53428 
    5000    108.44453   -529.61701    86159.333   -21428.318    1612.7069   -23041.025    23.339634    242.72309 
    5050    110.01098   -227.21603    86132.994   -21424.023     1636.002   -23060.025    23.385658    246.22915 
    5100    109.81436   -438.57057    86155.869   -21429.574     1633.078   -23062.652     23.69276    245.78907 
    5150    109.61634   -490.47932    86159.357   -21449.303    1630.1332   -23079.436    23.875057    245.34585 
    5200    108.12067   -394.72114     86146.59   -21446.775    1607.8908   -23054.666    23.865074    241.99822 
    5250    108.63369   -380.70841     86156.38   -21406.032    1615.5201   -23021.552     24.22907    243.14648 
    5300    110.10791   -447.47029    86210.937   -21411.988    1637.4435   -23049.432    24.336235     246.4461 
    5350    106.40893   -544.62589    86151.197   -21457.425    1582.4349    -23039.86    24.627606    238.16695 
    5400    105.84337    44.383734    86176.513   -21490.172    1574.0245   -23064.196    24.854588    236.90112 
    5450    107.97497   -153.45443    86194.328   -21457.723     1605.724   -23063.447     24.87413    241.67211 
    5500    106.95588   -85.985557    86244.837   -21493.839    1590.5689   -23084.408    24.945995    239.39117 
    5550    106.63508    -341.8598    86266.162   -21522.087    1585.7982   -23107.885    25.156949    238.67314 
    5600    103.56837   -579.98357     86266.61   -21522.452    1540.1923   -23062.644    25.502432    231.80916 
    5650    108.41473   -137.50883    86282.146   -21491.376    1612.2638    -23103.64    25.768539     242.6564 
    5700    108.14582   -456.98748    86318.562   -21425.145    1608.2648   -23033.409    26.056844    242.05451 
    5750    105.87142    10.851556    86344.434    -21474.23    1574.4416   -23048.671    26.263991     236.9639 
    5800    106.62669    -550.5318    86332.166   -21442.009    1585.6733   -23027.682    26.324804    238.65435 
    5850     105.4759   -299.12382     86324.41   -21445.379    1568.5596   -23013.938    26.579322    236.07862 
    5900    108.28716   -144.06725    86279.021   -21421.275    1610.3667   -23031.641    26.850345    242.37086 
    5950    106.15852    -201.2741    86271.106   -21447.311     1578.711   -23026.022    27.039601    237.60648 
    6000    109.43474   -471.29019    86211.105   -21468.358    1627.4326    -23095.79      27.3498     244.9394 
    6050    104.77193     37.19854    86182.816   -21494.611    1558.0907   -23052.701    27.597774    234.50298 
    6100    104.88566   -586.29883    86198.098   -21470.658     1559.782    -23030.44     27.95304    234.75754 
    6150     110.1503   -352.97652    86180.889   -21462.145    1638.0739   -23100.219    28.199528    246.54099 
    6200    107.33496   -433.54443    86162.841   -21436.408    1596.2063   -23032.614    28.414793    240.23963 
    6250    107.15292   -201.23536    86181.434   -21440.762    1593.4991   -23034.261    28.662052    239.83217 
    6300    107.76306   -101.89989    86179.129   -21401.611    1602.5726   -23004.183    28.867613     241.1978 
    6350    105.64687   -298.66376    86163.031   -21415.671    1571.1023   -22986.773    29.092417    236.46131 
    6400    107.52652   -143.12623    86163.524   -21456.982     1599.055   -23056.037    29.405579    240.66839 
    6450     104.0699   -129.53046    86211.876   -21499.644    1547.6507   -23047.295    29.712425    232.93169 
    6500    104.47174   -550.80288    86223.915   -21519.861    1553.6266   -23073.488     30.01307     233.8311 
    6550    105.63272   -533.36752    86209.444   -21507.001    1570.8918   -23077.893    30.250187    236.42962 
    6600    104.43968   -203.97045    86209.514   -21480.872    1553.1497   -23034.022     30.54284    233.75933 
    6650    105.68827   -240.00723    86182.446   -21471.999    1571.7178   -23043.717    30.833496    236.55395 
    6700    106.91735   -160.40497     86171.86   -21417.169    1589.9959   -23007.165    31.191022    239.30492 
    6750    110.54434   -398.51194    86170.639   -21400.434    1643.9337   -23044.368    31.395019    247.42292 
    6800    109.31157    -155.1952     86188.38   -21420.991     1625.601   -23046.592    31.433488    244.66372 
    6850     109.3088   -512.70156    86253.661   -21407.288    1625.5598   -23032.847     31.67427    244.65752 
    6900    107.49345   -794.33578    86209.903   -21410.939    1598.5632   -23009.502    31.845808    240.59435 
    6950    108.52816   -300.55121    86154.376   -21407.281    1613.9506   -23021.232    32.138272    242.91026 
    7000    107.59458   -123.78872    86164.263   -21416.549    1600.0672   -23016.616    32.181655    240.82071 
    7050    108.70008   -385.53614    86177.382   -21418.329    1616.5073   -23034.836    31.997718    243.29506 
    7100    108.27492   -186.37021    86262.534    -21414.63    1610.1847   -23024.815    32.036916    242.34347 
    7150    110.26162   -327.65897    86322.181   -21394.946    1639.7294   -23034.676    32.259894    246.79015 
    7200    108.23957   -384.38947    86298.897   -21432.465     1609.659   -23042.124    32.495832    242.26434 
    7250    109.06838   -615.21687    86332.516   -21399.882    1621.9844   -23021.866     32.71158     244.1194 
    7300    107.70932   -537.30749    86278.892    -21444.71    1601.7734   -23046.483    33.074342    241.07752 
    7350    107.11681   -250.58149    86288.691    -21439.06     1592.962   -23032.022    33.233664    239.75134 
    7400    108.18494    -739.8424     86220.28   -21466.194    1608.8466    -23075.04    33.357969    242.14207 
    7450    108.74633   -465.55092    86229.953   -21442.485     1617.195    -23059.68    33.633387    243.39857 
    7500    107.13032   -676.87881    86192.611   -21475.623     1593.163   -23068.786     34.08264     239.7816 
    7550    107.80135   -285.73242    86121.045   -21461.434     1603.142   -23064.576    34.368178     241.2835 
    7600     106.3314   -229.87028    86064.777   -21510.413    1581.2821   -23091.695    34.549077    237.99343 
    7650    103.48358   -377.54208    86083.008    -21509.99    1538.9314   -23048.921    35.084019    231.61937 
    7700    107.85214    7.7323349    86083.846   -21490.442    1603.8974    -23094.34    35.249645    241.39719 
    7750    105.76102   -450.24797    86084.068   -21500.726    1572.7998   -23073.526    35.523412     236.7168 
    7800    106.93169   -681.95283    86065.597   -21487.888    1590.2091   -23078.097    35.770677    239.33701 
    7850    105.06584   -775.64533    86058.608   -21486.015    1562.4616   -23048.477    36.033134    235.16083 
    7900    105.33636   -391.95271    86057.848   -21498.553    1566.4845   -23065.038    36.196698     235.7663 
    7950    105.34123   -354.62155    86052.953   -21502.227     1566.557   -23068.784    36.420062    235.77721 
    8000    103.75064   -509.40396    86006.106   -21507.039    1542.9029   -23049.942    36.798162    232.21712 
    8050    103.29946   -77.606985    86030.136   -21502.646    1536.1933   -23038.839    37.038612    231.20728 
    8100    106.14656   -481.14737    85986.479   -21454.331    1578.5332   -23032.864    36.980312    237.57972 
    8150    107.50301   -164.43108     86091.64   -21416.785    1598.7053    -23015.49    37.055683    240.61575 
    8200    109.26305   -235.20819    86177.822   -21446.937    1624.8793   -23071.816    37.164722    244.55511 
    8250    107.16038    -235.0908    86239.521   -21462.521      1593.61   -23056.131     37.39551    239.84887 
    8300    108.35679   -276.85478    86261.238   -21464.059    1611.4022   -23075.461    37.543382    242.52671 
    8350    107.42013   -384.69511    86276.787   -21486.149    1597.4728   -23083.622    37.826564    240.43025 
    8400    105.14628   -618.43247    86300.329   -21487.796    1563.6578   -23051.454    38.002659    235.34086 
    8450    106.14541   -149.91379    86302.608   -21517.469    1578.5161   -23095.985    38.177573    237.57713 
    8500    105.12835   -693.31074    86318.263   -21523.794    1563.3912   -23087.185    38.400143    235.30073 
    8550    107.20339   -587.81658    86297.529   -21518.059    1594.2496   -23112.309    38.483253    239.94513 
    8600    105.17485   -546.29038     86308.86   -21528.672    1564.0826   -23092.755    38.617767     235.4048 
    8650    105.14922   -646.61741    86285.079   -21496.027    1563.7015   -23059.729    38.660964    235.34745 
    8700    104.69206   -464.21755    86282.291   -21478.926    1556.9029   -23035.829    38.794287    234.32421 
    8750    105.65453   -320.17453    86280.331   -21485.566    1571.2161   -23056.782    38.976693    236.47843 
    8800    107.74721   -672.70996    86320.265   -21461.918     1602.337   -23064.255    39.158891    241.16234 
    8850     106.6201   -262.58714    86257.664   -21454.976    1585.5753   -23040.551    39.210843     238.6396 
    8900    107.19078   -219.81859    86212.255   -21436.277    1594.0622   -23030.339    39.215386    239.91692 
    8950    107.91707   -386.20523    86220.621   -21380.419    1604.8629   -22985.282    39.297449    241.54251 
    9000    108.88572   -598.48684    86159.938   -21407.309    1619.2681   -23026.577    39.540717    243.71058 
    9050    110.20037    -91.25104    86191.498   -21382.468    1638.8186   -23021.286    39.701623    246.65306 
    9100    109.02304    -355.9801    86290.066   -21379.209    1621.3102   -23000.519    39.888801    244.01793 
    9150    109.79201   -265.22278    86346.168   -21387.495    1632.7457   -23020.241    39.814461    245.73905 
    9200    109.93724   -626.61532    86350.347   -21392.744    1634.9054    -23027.65    40.008301     246.0641 
    9250    107.53827   -136.61448    86358.111   -21376.942    1599.2298   -22976.171    40.025416    240.69468 
    9300    107.90654   -149.81656    86378.602   -21387.202    1604.7063   -22991.909    40.064297    241.51893 
    9350    108.88007   -246.14829    86374.503    -21381.25     1619.184   -23000.434    40.084461    243.69793 
    9400    107.83746     -430.489    86398.681   -21406.827    1603.6791   -23010.506    40.329555    241.36433 
    9450    104.99862   -554.43879    86338.925   -21459.698    1561.4619    -23021.16    40.475589    235.01036 
    9500    107.58638   -702.70216     86236.69   -21443.558    1599.9452   -23043.503    40.720802    240.80236 
    9550    109.85944   -619.68736    86193.999   -21435.228    1633.7484   -23068.977    40.811379    245.88997 
    9600     106.5472    -406.5375    86222.394   -21464.634    1584.4913   -23049.125    40.835707    238.47644 
    9650    105.92116   -459.89011    86273.096   -21445.126    1575.1813   -23020.308    41.189354    237.07523 
    9700    106.38884     46.87288    86300.171   -21386.664    1582.1362     -22968.8    41.577166    238.12199 
    9750    111.95656   -96.932882    86291.219   -21392.251    1664.9353   -23057.186     41.37363     250.5838 
    9800    107.54645   -170.04523    86363.079   -21416.403    1599.3514   -23015.755    41.507764    240.71298 
    9850    106.07368   -414.74062    86411.425   -21404.481    1577.4494    -22981.93    41.653845    237.41659 
    9900    108.16852   -200.13606    86402.404   -21381.942    1608.6023   -22990.544    41.894019    242.10531 
    9950    108.87662   -419.39192    86394.559    -21367.96    1619.1326   -22987.093    42.196973     243.6902 
   10000    107.44522    -137.3881    86381.271   -21384.776     1597.846   -22982.622    42.207117    240.48642 
   10050    110.02854     -456.522    86312.325    -21393.96    1636.2631   -23030.223     42.49319    246.26845 
   10100    106.77696   -428.10147    86309.607   -21395.696    1587.9081   -22983.604    42.693788     238.9907 
   10150    107.17289   -524.25749    86430.844    -21404.15     1593.796   -22997.946    42.840129    239.87686 
   10200    106.45675   -293.03598    86443.095   -21400.856    1583.1461   -22984.002    43.076616    238.27399 
   10250    110.00784   -556.90204     86442.51   -21437.387    1635.9553   -23073.343     43.25509    246.22212 
   10300    105.63101   -245.09195    86419.724   -21437.142    1570.8663   -23008.008    43.426332     236.4258 
   10350    104.18759   -121.93226    86476.538   -21481.166    1549.4009   -23030.567    43.527608    233.19511 
   10400    110.18897   -3.8642989    86526.472   -21421.967    1638.6489   -23060.615    43.614013    246.62753 
   10450    110.49674   -458.56111    86519.003       -21401    1643.2259   -23044.226    43.926646    247.31639 
   10500    109.84205   -244.07185    86564.366   -21396.993    1633.4898   -23030.483    44.125783    245.85105 
   10550     107.2167   -777.45389    86562.117   -21415.162    1594.4476    -23009.61    44.490771    239.97493 
   10600    108.29916   -792.21582    86505.129   -21381.703     1610.545   -22992.248    44.762956    242.39771 
   10650    107.83824   -598.09757    86533.196   -21380.621    1603.6907   -22984.311    44.922287    241.36608 
   10700     107.4402   -723.25242    86511.748    -21418.29    1597.7713   -23016.061    44.863089    240.47517 
   10750    110.28001   -650.88718    86536.937   -21401.266    1640.0028   -23041.268     44.91296    246.83129 
   10800    105.88864   -423.15627    86604.687   -21427.228    1574.6976   -23001.926    45.112049    237.00242 
   10850    106.23571    -475.2533    86619.615   -21429.008     1579.859   -23008.867     45.86814    237.77926 
   10900     105.7251   -468.94137     86603.57   -21404.686    1572.2655   -22976.952    46.175661    236.63639 
   10950    107.20746   -84.741802    86591.005    -21377.06    1594.3102   -22971.371    46.348068    239.95426 
   11000    109.69714    -424.4143    86612.638    -21371.39    1631.3348   -23002.725    46.504545     245.5267 
   11050     107.6262   -490.59887    86631.125   -21375.339    1600.5374   -22975.877    46.507808    240.89149 
   11100    111.02763   -447.04892    86613.518   -21341.695    1651.1209   -22992.816    46.793958    248.50465 
   11150    109.10637   -279.10613    86575.921   -21398.748    1622.5494   -23021.297    47.149991    244.20443 
   11200    107.02986   -381.98302    86594.525   -21364.837     1591.669   -22956.506    47.384867    239.55673 
   11250    108.73378    -449.0147    86610.309   -21392.542    1617.0085    -23009.55    47.661611     243.3705 
   11300    109.04851   -660.56901    86675.531   -21410.157    1621.6889   -23031.846    47.973843    244.07493 
   11350    105.24578   -396.24979    86557.743   -21455.065    1565.1374   -23020.202    47.986809    235.56356 
   11400    105.03421   -827.89583     86471.71   -21448.568    1561.9911   -23010.559    48.080709    235.09002 
   11450    108.97337   -291.71769    86372.883   -21427.887    1620.5714   -23048.458    48.291617    243.90675 
   11500    106.30321   -578.46122    86280.533   -21469.427    1580.8628   -23050.289    48.533942    237.93033 
   11550    104.42445   -336.61291    86259.845   -21494.696    1552.9233   -23047.619    48.665837    233.72525 
   11600      106.951   -374.71882    86264.557   -21468.936    1590.4963   -23059.432    49.093474    239.38023 
   11650    107.44623   -293.75179    86185.057   -21480.788    1597.8609   -23078.649    49.393851    240.48867 
   11700    105.92481   -153.33315     86281.28   -21476.543    1575.2355   -23051.779    49.530412    237.08339 
   11750    109.56863   -463.56658    86313.802   -21456.034    1629.4238   -23085.457    50.039057    245.23908 
   11800    106.24944   -120.15313    86367.737   -21464.886    1580.0633   -23044.949    50.526566       237.81 
   11850    108.20267   -421.06202    86332.507   -21489.572    1609.1102   -23098.682    50.636185    242.18176 
   11900    108.04064    129.49219    86350.566    -21494.18    1606.7005   -23100.881    50.808272    241.81908 
   11950    106.24356   -405.73201    86459.835   -21493.169    1579.9757   -23073.144    50.941397    237.79682 
   12000    104.18398   -356.64097    86433.943   -21494.363    1549.3472    -23043.71    50.774934    233.18702 
   12050    109.92214   -404.97559    86468.715   -21479.214    1634.6809   -23113.894    50.840559    246.03031 
   12100    107.78945   -572.05551    86447.885   -21462.321     1602.965   -23065.286    51.026273    241.25687 
   12150    108.26589   -147.19972    86468.875   -21483.952    1610.0504   -23094.002    51.109597    242.32326 
   12200    106.90474   -161.53183    86498.152   -21472.667    1589.8084   -23062.475    51.351143     239.2767 
   12250    109.49362   -425.72205    86525.283   -21457.406    1628.3083   -23085.714    51.600557    245.07119 
   12300    105.62537   -753.45065    86518.174   -21456.692    1570.7824   -23027.474    52.096123    236.41317 
   12350    105.99845   -447.41283     86473.12   -21490.112    1576.3306   -23066.443    52.453828     237.2482 
   12400    105.69852    -347.7548    86526.865   -21476.952    1571.8703   -23048.823    52.775666     236.5769 
   12450    104.86394   -365.10958    86548.487   -21482.698    1559.4591   -23042.157    52.948654    234.70893 
   12500    107.38152   -443.97718    86552.976   -21503.307    1596.8987   -23100.206    53.496744    240.34384 
   12550    108.05672   -362.61396    86456.207   -21484.831    1606.9397   -23091.771     53.52035    241.85507 
   12600     108.3182   -383.89095    86447.385   -21500.363    1610.8283   -23111.192    53.701298    242.44034 
   12650    107.86523   -425.90458    86477.449   -21501.185     1604.092   -23105.278    53.818659    241.42648 
   12700    108.58258   -326.97795    86514.135   -21508.185    1614.7599   -23122.945    54.111396    243.03207 
   12750    107.10677    -553.0426    86489.399   -21483.169    1592.8127   -23075.981    54.349708    239.72887 
   12800    105.83969   -196.98098    86485.431   -21475.663    1573.9697   -23049.633    54.625371    236.89288 
   12850    106.75159   -745.86017    86468.582   -21449.975    1587.5308   -23037.506    54.470963    238.93391 
   12900    109.69341   -552.06098    86393.068   -21452.245    1631.2794   -23083.525    54.478279    245.51836 
   12950    109.64115    -169.6072    86361.039     -21467.5    1630.5021   -23098.002    54.601952    245.40138 
   13000    106.12376   -234.95331    86375.777   -21498.534    1578.1941   -23076.728     54.91394    237.52868 
   13050     109.8844   -259.87333    86409.848   -21462.295    1634.1196   -23096.414    55.084049    245.94583 
   13100    108.85119   -351.87665    86464.591   -21413.831    1618.7545   -23032.586    55.105711    243.63328 
   13150    109.17272   -228.71298    86425.212   -21416.963     1623.536   -23040.499    55.263636    244.35293 
   13200    110.20091   -701.22883    86386.285   -21391.753    1638.8265    -23030.58    55.630289    246.65425 
   13250     107.9563   -432.61686     86320.32   -21440.886    1605.4464   -23046.332    55.763991    241.63032 
   13300    106.70362    -304.0135    86382.786   -21460.571    1586.8175   -23047.388    55.857821    238.82655 
   13350    109.82314   -303.53983    86430.338   -21415.613    1633.2086   -23048.821    56.309018    245.80872 
   13400    107.91978   -554.27356    86447.972   -21399.347    1604.9033   -23004.251    56.584639    241.54859 
   13450    107.43533   -266.09006    86437.263   -21470.526    1597.6989   -23068.225     56.63958    240.46427 
   13500    110.49798   -500.58232    86438.828   -21455.983    1643.2443   -23099.227    56.863332    247.31916 
   13550    108.33204   -209.87629    86363.716   -21428.135    1611.0341   -23039.169    56.761176    242.47131 
   13600    107.85957    -211.7952    86394.055   -21416.778    1604.0079   -23020.785    57.257886    241.41382 
   13650    108.22532   -233.82681    86440.015   -21372.575    1609.4471   -22982.022    57.766913    242.23246 
   13700    109.03151     44.71668     86599.47   -21356.085    1621.4361   -22977.521    58.036694    244.03688 
   13750    106.06776   -445.81769    86612.265   -21396.231    1577.3614   -22973.593    58.149698    237.40335 
   13800    107.85004   -21.170125    86610.012   -21400.504    1603.8662    -23004.37    58.091927    241.39249 
   13850    106.68625   -403.40404    86616.689   -21399.506    1586.5591   -22986.066     58.26335    238.78766 
   13900    107.39172   -373.11775    86572.693   -21422.788    1597.0504   -23019.839    58.523673    240.36667 
   13950    106.64186   -537.98901    86583.095   -21437.741     1585.899   -23023.639    58.592692    238.68831 
   14000    106.94073   -561.98824    86589.385   -21414.312    1590.3436   -23004.656     58.89335    239.35726 
   14050    106.77129   -356.36799     86470.03   -21408.436    1587.8238    -22996.26    59.056867    238.97801 
   14100    104.33076   -463.40249    86455.887   -21434.041      1551.53   -22985.571    59.508182    233.51555 
   14150     106.0477   -213.48776    86447.787   -21451.748    1577.0631   -23028.811    59.762396    237.35845 
   14200    107.99206   -612.31527     86412.75   -21459.332    1605.9782   -23065.311    59.885308    241.71037 
   14250    104.16771   -717.91593    86377.151   -21480.558    1549.1052   -23029.663    60.211353     233.1506 
   14300    103.86546   -960.13037    86299.878   -21490.162    1544.6103   -23034.772    60.086745     232.4741 
   14350    105.21489    -449.0139    86292.839    -21476.92    1564.6781   -23041.598    60.013345    235.49443 
   14400    105.68599   -419.50668    86275.222   -21510.633     1571.684   -23082.317    60.353092    236.54886 
   14450     103.3862   -322.04782    86236.646   -21505.663    1537.4832   -23043.146    60.661131    231.40142 
   14500    106.74664   -220.52614    86173.973   -21486.788    1587.4572   -23074.245    60.884426    238.92283 
   14550    106.24512   -114.08435    86222.554    -21510.62    1579.9989   -23090.619    61.066633    237.80031 
   14600    104.65338    -125.9512    86233.498    -21490.79    1556.3278   -23047.118    61.206258    234.23765 
   14650    108.54181    -333.7017    86242.089   -21473.284    1614.1536   -23087.438    61.562259    242.94082 
   14700    106.00388   -180.25897    86250.549   -21489.363    1576.4113   -23065.774    62.045608    237.26036 
   14750     108.2043   -237.74217    86251.324   -21506.713    1609.1344   -23115.847    62.307476    242.18539 
   14800    105.77757   -354.38949    86272.042   -21497.763    1573.0458   -23070.809    62.412799    236.75383 
   14850    106.54908   -580.21657    86315.049   -21496.198    1584.5192   -23080.717    62.500694    238.48064 
   14900    108.18372   -48.690261    86286.998   -21466.433    1608.8284   -23075.261    62.535552    242.13934 
   14950    109.43521   -590.60907    86272.486   -21500.684    1627.4396   -23128.124    62.788185    244.94045 
   15000    104.64022   -221.28066    86314.981   -21524.977    1556.1321   -23081.109    63.107695    234.20819 
   15050    105.74643   -305.31186    86356.486   -21536.317    1572.5827   -23108.899    63.123945    236.68412 
   15100    103.31172   -379.17456    86389.007   -21572.087    1536.3756   -23108.462    63.023454    231.23472 
   15150    104.01369   -305.96172    86373.625   -21541.248    1546.8148   -23088.063    62.938743    232.80588 
   15200    105.52609   -146.80212    86342.293    -21583.88    1569.3061   -23153.186    62.940715    236.19097 
   15250    106.69609   -111.70266     86413.59   -21534.672    1586.7054   -23121.377    63.237236    238.80969 
   15300    109.56798    -334.0679    86528.043    -21496.03    1629.4141   -23125.444    63.621955    245.23762 
   15350    106.23139   -385.24112    86598.377   -21479.433    1579.7947   -23059.227    63.738968    237.76958 
   15400    105.95455    -553.7933    86584.804   -21466.558    1575.6779   -23042.236    63.634145    237.14997 
   15450    109.55417   -179.19144    86617.408    -21435.35    1629.2087   -23064.559    63.697518    245.20672 
   15500    110.56906   -242.12198    86692.684    -21444.61    1644.3014   -23088.911    63.758303    247.47827 
   15550    105.50199   -335.26434    86726.878   -21455.029    1568.9477   -23023.977    64.136197    236.13703 
   15600    110.49434   -227.54629    86751.805   -21462.576    1643.1902   -23105.766    64.242675    247.31103 
   15650    109.41529    -80.48752    86865.448   -21474.049    1627.1434   -23101.193    64.467202    244.89587 
   15700    106.43897   -557.29589    86900.985   -21497.046    1582.8817   -23079.928    64.836103    238.23419 
   15750    106.94792   -463.03544    86891.503   -21504.958    1590.4505   -23095.408    65.356487    239.37334 
   15800    105.44769   -349.93412    86867.129   -21531.786    1568.1402   -23099.926    65.494226    236.01549 
   15850    107.03393   -405.95026    86815.222   -21496.744    1591.7296   -23088.474     65.93973    239.56586 
   15900    108.72684   -538.60466    86771.148   -21499.338    1616.9052   -23116.244    66.126879    243.35495 
   15950    104.05585   -709.67367     86755.49   -21559.017    1547.4418   -23106.459    66.322066    232.90025 
   16000    103.97389   -389.19723    86739.781   -21548.283    1546.2228   -23094.505    66.438454    232.71679 
   16050    105.77536   -605.83194    86658.372   -21552.593    1573.0131   -23125.606    66.492727    236.74889 
   16100      108.065   -424.76434    86575.431   -21542.151    1607.0629   -23149.214    66.265158    241.87362 
   16150    107.93944   -182.78753    86571.034   -21547.431    1605.1955   -23152.626    66.385668    241.59257 
   16200    105.06543   -342.92102    86602.109    -21575.44    1562.4555   -23137.896    66.691158     235.1599 
   16250    104.67866   -477.52279    86705.542   -21557.218    1556.7038   -23113.921    67.009334    234.29424 
   16300    105.52466     -253.819    86661.467   -21572.898    1569.2848   -23142.182    67.077046    236.18776 
   16350    106.44431   -102.93318    86593.488   -21557.457    1582.9611   -23140.418    67.059529    238.24615 
   16400    106.61505   -278.73938    86536.916   -21547.151    1585.5002   -23132.651    67.315088     238.6283 
   16450    106.01097   -236.45431    86518.863   -21557.927    1576.5169   -23134.444    67.577923    237.27624 
   16500    107.35551   -489.64504    86576.578   -21598.553    1596.5118   -23195.065    67.985113    240.28561 
   16550    106.25903   -273.93688    86617.077   -21564.733    1580.2058   -23144.938    68.282678    237.83145 
   16600    107.43023   -497.66069     86586.99    -21543.03     1597.623   -23140.653     68.30716    240.45285 
   16650    105.19445   -115.25959    86607.598   -21543.366    1564.3742    -23107.74    68.565909    235.44868 
   16700    105.56306   -359.47462    86567.088   -21528.536    1569.8559   -23098.392    68.795507    236.27372 
   16750    108.35966   -302.86586    86592.714   -21502.927    1611.4448   -23114.372    68.858869    242.53313 
   16800    107.40479   -413.71108    86538.089   -21462.612    1597.2447   -23059.857    68.964311    240.39592 
   16850    109.74584   -332.84446    86491.784    -21448.85    1632.0591   -23080.909    68.772069    245.63572 
   16900    106.72161   -287.06919    86417.452   -21452.351     1587.085   -23039.436    68.874509    238.86682 
   16950    107.77197   -426.95387    86395.296   -21458.849    1602.7051   -23061.554    68.881061    241.21774 
   17000    108.63637   -269.79906    86317.498   -21451.847    1615.5598   -23067.407    68.939068    243.15246 
   17050    109.72816   -423.32054    86303.291   -21419.235    1631.7961   -23051.031    69.345788    245.59614 
   17100    108.46331   -700.96525    86253.887   -21422.808    1612.9862   -23035.794    69.767949    242.76512 
   17150    109.64832   -361.89884    86216.485   -21425.823    1630.6088   -23056.432    70.136122    245.41744 
   17200    111.02434   -551.37907    86236.328   -21427.984     1651.072   -23079.056    70.532738    248.49729 
   17250    109.44119   -427.43289    86183.968   -21444.809    1627.5285   -23072.338    70.814492    244.95383 
   17300     104.2704   -554.71102    86133.923   -21444.372    1550.6323   -22995.005    70.909772    233.38045 
   17350     106.1934   -492.49002    86089.383   -21451.262    1579.2298   -23030.491    71.426429    237.68455 
   17400    109.54268   -251.75982    86103.718    -21385.92    1629.0378   -23014.958    71.610312    245.18098 
   17450    106.07101   -385.82866    86177.453   -21431.793    1577.4097   -23009.203    71.912548    237.41061 
   17500    109.14328   -339.68622    86223.836   -21427.434    1623.0983   -23050.532    72.017673    244.28705 
   17550    110.45388   -551.07936     86250.61   -21433.683    1642.5885   -23076.272    72.158442    247.22046 
   17600    106.39274   -451.04409    86274.945   -21435.443    1582.1942   -23017.637    72.143458    238.13072 
   17650    111.26146   -320.92482    86272.653   -21391.482    1654.5982    -23046.08    72.235531      249.028 
   17700    106.20344    -337.5678    86240.503   -21415.909    1579.3791   -22995.288    72.375541    237.70703 
   17750    105.63186   -562.56373    86283.913   -21453.545     1570.879   -23024.424    72.415082     236.4277 
   17800    108.05612   -442.70178    86264.853   -21469.657    1606.9308   -23076.588    72.856945    241.85374 
   17850    103.86294   -546.58185    86213.552   -21485.105    1544.5729   -23029.678    73.037057    232.46847 
   17900    107.64261   -64.331166    86245.239   -21488.407    1600.7814   -23089.188    73.244358    240.92822 
   17950    106.79496   -661.23897    86263.003   -21494.709    1588.1757   -23082.885    73.329825    239.03098 
   18000    106.69867   -455.22173    86221.634   -21458.796    1586.7438   -23045.539    73.601595    238.81547 
   18050    108.51015   -764.28265    86235.713   -21477.126    1613.6828   -23090.809    73.803039    242.86997 
   18100    107.58642   -137.83986    86171.456    -21441.85    1599.9458   -23041.796    73.927089    240.80245 
   18150    109.28449   -26.599318    86216.997   -21438.022    1625.1983    -23063.22    74.257609    244.60311 
   18200    105.43187   -117.39642    86291.567   -21467.811    1567.9049   -23035.716    74.765763    235.98009 
   18250    105.92063    -231.7111    86360.001   -21482.978    1575.1734   -23058.151    75.097291    237.07403 
   18300    106.84845   -333.25097    86460.265   -21489.932    1588.9713   -23078.903    75.417359    239.15071 
   18350    105.50046   -563.23664     86484.53   -21447.136    1568.9249   -23016.061    75.523146     236.1336 
   18400    107.26253    -538.9379     86446.84   -21479.203    1595.1291   -23074.332    75.765492    240.07751 
   18450     103.5575   -449.95774    86369.061    -21477.99    1540.0306   -23018.021    76.171779    231.78482 
   18500    108.84846   -391.32355    86383.177   -21446.594     1618.714   -23065.308    76.596179    243.62718 
   18550     108.2242   -262.82089    86394.165   -21459.501    1609.4303   -23068.931    76.811426    242.22993 
   18600     108.6951   -55.374331    86443.797   -21468.275    1616.4332   -23084.708      76.7207    243.28391 
   18650    105.20443   -200.64912    86519.466   -21488.018    1564.5226   -23052.541    76.434583    235.47102 
   18700    106.81771   -546.51236    86461.731   -21487.278    1588.5141   -23075.792    76.567066    239.08191 
   18750    106.54014   -86.159197    86474.513   -21522.528    1584.3863   -23106.914    76.610578    238.46064 
   18800    107.41127   -205.57991    86479.583   -21516.971    1597.3411   -23114.312    76.803229    240.41042 
   18850    105.06896   -250.10116    86452.568   -21511.437    1562.5079   -23073.945    77.097251     235.1678 
   18900    107.56596   -558.16043    86417.001   -21498.525    1599.6415   -23098.167    77.132528    240.75665 
   18950    108.03135   -508.08856    86427.255   -21486.561    1606.5624   -23093.124    77.365331    241.79829 
   19000    106.44665   -458.81536    86394.908    -21485.52    1582.9959   -23068.516    77.858929    238.25138 
   19050    107.42996    -511.1436    86392.991   -21480.183     1597.619   -23077.802    78.002953    240.45226 
   19100    106.60344   -213.99219    86347.166   -21481.571    1585.3276   -23066.898    78.274106    238.60231 
   19150    107.66996   -169.42538    86361.433   -21493.069    1601.1882   -23094.257    78.584562    240.98943 
   19200    105.41199    -473.0009    86364.042   -21506.834    1567.6093   -23074.443    78.875205    235.93559 
   19250    102.35747   -680.31777    86265.126   -21562.748    1522.1847   -23084.933    79.624216    229.09889 
   19300    105.34269   -186.83221    86282.411   -21526.506    1566.5787   -23093.084    79.929077    235.78048 
   19350     105.8148   -216.22505    86346.988   -21519.387    1573.5996   -23092.986    80.334266    236.83717 
   19400    105.20054   -542.17758     86362.69   -21528.362    1564.4647   -23092.826    80.609213    235.46231 
   19450    105.08993   -253.19582    86417.832   -21522.799    1562.8198   -23085.619    80.690536    235.21474 
   19500    104.82803   -585.36529    86504.678   -21542.062    1558.9251   -23100.988     81.49607    234.62856 
   19550    106.95154   -483.14648     86570.18   -21524.789    1590.5043   -23115.293    81.594946    239.38144 
   19600    108.54089    -100.4916    86562.753   -21469.527      1614.14   -23083.667    81.660366    242.93877 
   19650      106.339   -77.708526    86602.945   -21470.153     1581.395   -23051.548    81.856371    238.01043 
   19700    107.83459   -559.09947     86626.79   -21470.288    1603.6363   -23073.924    81.908912     241.3579 
   19750    107.13386   -406.78323    86617.204   -21453.183    1593.2156   -23046.399    81.979305    239.78951 
   19800    109.47158   -607.78405    86678.784    -21444.71    1627.9805   -23072.691    82.103248    245.02185 
   19850    108.65385    -558.0431    86602.492    -21471.56    1615.8198    -23087.38    82.461424    243.19159 
   19900    107.23044   -639.30986    86527.738   -21458.466     1594.652   -23053.118    82.399958    240.00569 
   19950    108.73545   -450.15178    86529.596    -21482.12    1617.0333   -23099.153    82.528759    243.37423 
   20000     106.0402   -723.69643    86428.881     -21483.2    1576.9515   -23060.152    82.718183    237.34165 
   20050    105.57189   -523.02138    86306.059    -21471.27    1569.9872   -23041.257    83.329852    236.29348 
   20100    106.10126   -247.99081    86320.389   -21455.568    1577.8595   -23033.428     83.80908    237.47832 
   20150    107.71768   -550.97597    86322.548    -21445.32    1601.8977   -23047.218     83.99341    241.09622 
   20200    107.25806   -104.19979    86342.088   -21417.841    1595.0627   -23012.904     84.23929    240.06751 
   20250    107.57053   -625.55246    86322.236   -21413.465    1599.7094   -23013.175     84.39684    240.76687 
   20300    109.40512   -412.12688    86217.011    -21383.65    1626.9921   -23010.642    84.479901     244.8731 
   20350    110.15981   -374.95433     86203.45   -21331.599    1638.2153   -22969.815     85.02863    246.56226 
   20400    110.45406   -270.34471      86192.3   -21309.081    1642.5912   -22951.672    85.537177    247.22087 
   20450    110.26206   -329.04516    86208.481   -21309.191    1639.7359   -22948.927    85.581136    246.79112 
   20500    108.50294   -470.42849    86234.488   -21306.364    1613.5755    -22919.94    85.859757    242.85382 
   20550    110.99789   -605.93374    86133.295   -21278.779    1650.6786   -22929.457    86.175415    248.43808 
   20600    111.39116   -413.28117    86136.568    -21306.66     1656.527   -22963.187     86.48702    249.31829 
   20650    110.68264   -461.49502    86076.793   -21348.358    1645.9904   -22994.348    86.656884    247.73247 
   20700    107.00366   -282.56744    86073.335   -21344.941    1591.2793   -22936.221    86.580941    239.49809 
   20750    110.27469   -428.20491    86081.032   -21334.519    1639.9238   -22974.443    86.639037     246.8194 
   20800    111.96755   -374.41782    86113.863   -21334.421    1665.0987   -22999.519    86.681335    250.60839 
   20850    109.18059   -531.25091    86143.258   -21385.886    1623.6531   -23009.539    86.914304    244.37055 
   20900    109.25761   -425.07532    86163.371   -21396.419    1624.7984   -23021.218    87.449581    244.54294 
   20950    110.83516   -232.65739    86199.014   -21363.486    1648.2586   -23011.744    87.525724    248.07385 
   21000    109.59859   -417.81861    86264.101   -21349.092    1629.8692   -22978.962    87.743471    245.30612 
   21050    109.13706   -368.93811     86275.91   -21333.167    1623.0058   -22956.173    87.745577    244.27313 
   21100    107.93349    -649.9293    86276.799   -21336.835    1605.1071   -22941.943    87.962121    241.57926 
   21150    111.57671   -758.40394    86242.582     -21294.4    1659.2865   -22953.687    87.949579    249.73361 
   21200    111.08677   -494.77426    86143.642   -21288.756    1652.0004   -22940.756    88.361745    248.63701 
   21250    110.15149   -347.29772    86093.045   -21334.144    1638.0916   -22972.235    88.542984    246.54364 
   21300    109.97724   -499.79544    86032.818   -21391.795    1635.5003   -23027.295    88.801184    246.15364 
   21350    108.56686   -15.481754     86057.75   -21407.779    1614.5261   -23022.305    88.869274    242.99688 
   21400    108.47321   -202.82665    86121.023   -21399.129    1613.1334   -23012.262    89.231151    242.78728 
   21450    105.93183   -368.74869    86108.977   -21400.968    1575.3399   -22976.308    89.568443     237.0991 
   21500    110.86088   -164.74635     86184.87   -21396.665    1648.6411   -23045.306    89.892423    248.13141 
   21550    106.35247    -259.7329    86147.788   -21422.594    1581.5954   -23004.189    90.087077     238.0406 
   21600    106.66629   -580.06727    86103.363   -21430.406    1586.2623   -23016.669    90.201274      238.743 
   21650    103.70212   -561.39545    86024.315   -21509.287    1542.1813   -23051.469    90.743934    232.10851 
   21700    105.61328   -394.17333    85952.516   -21520.247    1570.6026   -23090.849    91.092385    236.38611 
   21750    104.03177   -644.81427    85791.023   -21513.867    1547.0836   -23060.951    91.062002    232.84633 
   21800    106.18158   -505.13862    85723.732   -21528.838    1579.0541   -23107.892    91.159136    237.65811 
   21850    104.92947   -356.51983    85743.062   -21548.056    1560.4335   -23108.489    91.074853    234.85559 
   21900    103.42027   -387.12519    85782.454   -21552.056    1537.9899   -23090.046    91.290964    231.47768 
   21950    104.49523    -75.34721    85845.784   -21505.169    1553.9759   -23059.145    91.768109    233.88368 
   22000    105.72159   -97.121852    85886.108   -21534.179    1572.2134   -23106.392    92.204181    236.62854 
   22050    107.70992   -58.370434    86047.815   -21537.185    1601.7824   -23138.967    92.290546    241.07886 
   22100    105.06232   -155.11136    86155.563   -21527.137    1562.4093   -23089.546    92.327606    235.15295 
   22150    105.33618    -162.2477    86246.338   -21507.482    1566.4818   -23073.964    92.299817     235.7659 
   22200    104.17087   -47.155981    86346.191    -21510.92    1549.1522   -23060.072    92.449591    233.15767 
   22250    105.07604   -415.02496    86354.705    -21475.87    1562.6133   -23038.483    92.595516    235.18366 
   22300     106.8479   -333.68456    86361.501   -21487.772     1588.963   -23076.735    93.097044    239.14946 
   22350    104.01512   -150.21343    86401.719   -21450.753     1546.836   -22997.589    93.146897    232.80907 
   22400    108.01508   -274.94072    86412.893   -21437.272    1606.3205   -23043.593    93.375664    241.76189 
   22450    107.16707   -485.28929    86434.847    -21412.22    1593.7095    -23005.93    93.758641    239.86385 
   22500    106.29877   -665.00991    86431.668   -21433.774    1580.7968   -23014.571    93.867817    237.92039 
   22550    107.51899   -178.43976    86440.664   -21442.556     1598.943   -23041.499    93.897853    240.65151 
   22600    106.04989   -106.53923    86406.816   -21425.597    1577.0956   -23002.693    93.837699    237.36335 
   22650    109.57723   -191.81664    86396.512   -21386.946    1629.5517   -23016.497    93.787353    245.25833 
   22700    108.10303   -381.39758    86459.949    -21442.88    1607.6284   -23050.508    94.023431    241.95874 
   22750    106.92965   -475.95356    86425.346   -21433.901    1590.1788    -23024.08    94.207836    239.33244 
   22800    108.54794   -561.35561     86303.73   -21412.449    1614.2447   -23026.694     94.51576    242.95453 
   22850     107.6373   -582.34191    86280.382   -21413.461    1600.7024   -23014.164    95.098761    240.91633 
   22900    107.53446   -375.15903    86288.975   -21421.973     1599.173   -23021.146    95.172901    240.68614 
   22950    105.91796    292.87556    86358.668   -21424.742    1575.1337   -22999.876    95.628258    237.06806 
   23000     107.5758   -390.70435    86387.132   -21426.737    1599.7879   -23026.525    95.626204    240.77868 
   23050     108.0775   -142.54123    86421.966   -21438.659    1607.2487   -23045.908    95.631336    241.90159 
   23100    108.67992   -404.59284     86465.32   -21372.603    1616.2075    -22988.81    96.199065    243.24994 
   23150    108.98985   -424.33689    86518.569    -21391.46    1620.8166   -23012.277    96.429279    243.94364 
   23200     107.6371   -424.40829    86495.991   -21446.289    1600.6995   -23046.989    96.239187    240.91589 
   23250    105.61048   -382.70235    86487.183   -21479.862    1570.5611   -23050.423    96.386774    236.37986 
   23300    105.34839   -418.06509     86506.41   -21470.181    1566.6634   -23036.844    96.670281    235.79323 
   23350    105.76711   -140.62629    86517.552   -21451.863    1572.8903   -23024.753    96.684648    236.73042 
   23400    107.60817   -567.84248    86553.926   -21438.807    1600.2692   -23039.076    96.976761    240.85112 
   23450     105.9154   -473.48953     86557.56    -21447.06    1575.0956   -23022.155    97.312298    237.06232 
   23500    104.78841   -475.92556    86595.522   -21456.363    1558.3358   -23014.699    97.637954    234.53987 
   23550    109.29487   -323.45203    86600.513   -21449.271    1625.3526   -23074.623    97.608985    244.62635 
   23600    107.57445   -229.91314    86584.808   -21446.252    1599.7677    -23046.02    97.785005    240.77565 
   23650    108.51715   -76.222528    86649.686   -21400.009    1613.7868   -23013.796    98.256498    242.88562 
   23700    104.68705   -534.76649    86671.227   -21358.474    1556.8284   -22915.303    98.497802      234.313 
   23750    107.93679   -443.94418    86648.556   -21390.993    1605.1563   -22996.149    98.509545    241.58666 
   23800    106.02988    -257.0242    86679.229   -21383.812    1576.7981    -22960.61    98.372536    237.31856 
   23850    108.94283   -738.88864    86695.576   -21402.671    1620.1173   -23022.789    98.418234    243.83839 
   23900    107.82046   -259.11861    86613.932   -21392.275    1603.4263   -22995.701     98.50382    241.32628 
   23950    106.52951   -368.56164     86619.99   -21442.069    1584.2282   -23026.297    98.647436    238.43684 
   24000    106.26154   -503.07262    86550.458     -21446.8    1580.2431   -23027.044    98.923719    237.83707 
   24050    107.70524   -456.96555    86572.546   -21435.294    1601.7128   -23037.007    98.725245    241.06839 
   24100    105.51174   -222.62572     86620.66   -21461.053    1569.0926   -23030.146    98.520573    236.15884 
   24150    107.69283   -598.96918    86621.611   -21412.304    1601.5282   -23013.832    98.316482    241.04061 
   24200    106.76507   -432.97392    86613.743   -21389.445    1587.7312   -22977.177    98.906813    238.96408 
   24250    108.64958   -389.26455    86602.966   -21388.149    1615.7562   -23003.905    99.088435    243.18202 
   24300     106.6833   -486.49637      86626.3   -21398.243    1586.5153   -22984.758    99.369906    238.78107 
   24350    108.45919   -438.54798    86636.041   -21404.957    1612.9249   -23017.882    99.615726    242.75589 
   24400    105.39845         -385    86686.417   -21362.082    1567.4079    -22929.49    100.14602    235.90528 
   24450    107.18514   -475.67891    86650.277   -21437.847    1593.9783   -23031.825    100.43176     239.9043 
   24500    106.92311   -258.13724    86592.931   -21412.248    1590.0815    -23002.33    100.45922    239.31781 
   24550    108.83113   -530.46407    86565.127   -21420.558    1618.4561   -23039.014    100.65925    243.58838 
   24600    107.36196   -444.62471    86574.034   -21442.812    1596.6078    -23039.42    100.97064    240.30006 
   24650    107.55842   -374.49587    86497.945   -21454.035    1599.5294   -23053.564    100.92585    240.73978 
   24700    107.51981   -180.53609    86554.234   -21435.937    1598.9551   -23034.892    101.23945    240.65335 
   24750    108.19806   -351.22531    86606.992   -21468.586    1609.0416   -23077.628    101.28547    242.17143 
   24800    107.26843   -257.22594    86603.247   -21455.874    1595.2168   -23051.091    101.52169    240.09071 
   24850    108.84327   -618.87711    86577.342   -21446.316    1618.6367   -23064.953    101.86596    243.61555 
   24900    105.79406   -72.420579    86590.699   -21458.614    1573.2911   -23031.905    102.04365    236.79074 
   24950    107.52718   -522.03337    86539.131   -21462.817    1599.0648   -23061.881    102.37998    240.66986 
   25000    105.54123   -391.46875    86536.904   -21463.466    1569.5312   -23032.997     102.6886    236.22485 
   25050    106.28364   -529.24035    86516.448   -21479.262    1580.5718   -23059.834    102.61595    237.88653 
   25100    106.50128   -463.45054    86484.973   -21480.039    1583.8084   -23063.847    102.82835    238.37366 
   25150    105.43388   -322.39602    86457.694   -21471.227    1567.9348   -23039.162    103.20662    235.98458 
   25200    106.15695   -471.58388    86439.752   -21487.178    1578.6878   -23065.866    103.25007    237.60297 
   25250    107.34536   -131.32797    86432.608   -21498.828    1596.3609   -23095.189    103.52751    240.26289 
   25300    106.72518   -560.63583    86495.338   -21456.014     1587.138   -23043.152    104.01365    238.87479 
   25350    110.23489   -370.62624    86519.667   -21440.591    1639.3319   -23079.923    103.86198    246.73032 
   25400    108.63815   -316.71823    86524.365   -21414.783    1615.5863   -23030.369    104.45083    243.15644 
   25450     107.8828   -422.78162    86627.809   -21439.474    1604.3533   -23043.827    104.99258    241.46581 
   25500    108.70309    -390.5791    86720.734   -21428.093    1616.5521   -23044.645    105.26713     243.3018 
   25550    108.98658   -149.47862    86753.652   -21400.001     1620.768   -23020.769    105.70066    243.93632 
   25600     110.7845   -387.38678    86785.365    -21372.16    1647.5053   -23019.666    105.91195    247.96047 
   25650    109.39321   -402.15455    86791.039   -21367.308     1626.815   -22994.123    106.02504    244.84643 
   25700    111.86763   -495.90099    86818.391   -21348.131    1663.6127   -23011.744    106.15231    250.38474 
   25750     112.2208   -256.76958    86858.284   -21326.083    1668.8649   -22994.948    106.42553    251.17523 
   25800    107.48562   -334.56216    86885.813    -21337.05    1598.4468   -22935.496    106.54114    240.57684 
   25850     109.0286   -189.76113    86924.765   -21358.239    1621.3928   -22979.632    106.29644    244.03036 
   25900    109.10492   -509.51382    86937.427   -21386.748    1622.5278   -23009.276    106.67617    244.20119 
   25950    107.85176   -488.81619      86894.5   -21390.462    1603.8917   -22994.354    106.71745    241.39633 
   26000    108.03567   -382.87858    86857.878   -21381.953    1606.6267   -22988.579     106.7994    241.80797 
   26050    110.17991   -506.94855    86824.851   -21426.674    1638.5143   -23065.188    107.04225    246.60726 
   26100    109.27615   -415.02658    86805.017   -21439.073    1625.0742   -23064.147    107.29626    244.58443 
   26150    104.84878   -320.76496    86694.365   -21503.357    1559.2336   -23062.591    107.28673    234.67499 
   26200    104.69128   -350.64923    86619.134   -21517.045    1556.8914   -23073.937    107.62721    234.32247 
   26250     105.1627   -234.68811    86564.947   -21534.047    1563.9019   -23097.949    107.49168    235.37761 
   26300    105.05199   -469.20872    86539.928   -21511.114    1562.2556   -23073.369    107.38292    235.12983 
   26350    106.72123   -370.87836    86559.758   -21504.812    1587.0794   -23091.891    107.49256    238.86596 
   26400    106.11014   -301.07487    86636.444   -21504.173    1577.9917   -23082.165    107.54038    237.49821 
   26450    106.13658   -212.20723    86650.517   -21493.091    1578.3848   -23071.475     107.5963    237.55737 
   26500    108.24754   -172.49955    86721.578       -21447    1609.7775   -23056.778    107.82615    242.28219 
   26550    107.85861   -581.56093    86738.657   -21420.476    1603.9935    -23024.47    108.19282    241.41166 
   26600    108.67191   -460.46794    86696.681   -21408.932    1616.0884    -23025.02    108.46445    243.23202 
   26650    109.46492   -440.72661    86750.502   -21369.334    1627.8815   -22997.216    108.68648    245.00695 
   26700    106.80511   -632.69512    86740.918   -21387.333    1588.3267   -22975.659    108.96728     239.0537 
   26750     108.9715   -471.04835    86782.744    -21385.15    1620.5436   -23005.694    109.16834    243.90256 
   26800    108.19977   -142.40466    86794.976   -21404.711     1609.067   -23013.778    109.66198    242.17525 
   26850    107.59713   -967.51481    86762.857   -21367.283     1600.105   -22967.388    110.25131    240.82642 
   26900    109.73955   -577.52814    86663.504   -21357.029    1631.9655   -22988.994    110.90349    245.62163 
   26950    107.75514   -447.71216    86642.931   -21327.963    1602.4548   -22930.417    111.30187    241.18007 
   27000    110.92584   -534.72296    86548.938   -21339.759    1649.6071   -22989.367    111.53039    248.27681 
   27050    108.60422   -390.51123    86588.016   -21355.377    1615.0818   -22970.459    111.54625    243.08051 
   27100    108.53155   -502.47255    86573.803   -21377.321    1614.0011   -22991.322     111.5265    242.91787 
   27150    108.36707   -456.94789    86556.365   -21358.445     1611.555       -22970    111.70689    242.54971 
   27200    107.63661   -583.39364    86543.361   -21360.103    1600.6922   -22960.795    111.98674    240.91478 
   27250    108.91625   -189.12823    86484.168   -21372.835     1619.722   -22992.556    111.74893     243.7789 
   27300    105.81473   -538.60487    86445.143   -21370.514    1573.5985   -22944.112    111.26539    236.83701 
   27350    108.33549   -431.74046    86426.597   -21349.465    1611.0854   -22960.551    111.50089    242.47904 
   27400    108.73104   -625.76003    86381.496   -21354.932    1616.9677     -22971.9    111.45278    243.36436 
   27450    108.86755   -305.85985    86370.177   -21364.362    1618.9977    -22983.36    111.81589    243.66989 
   27500    112.00753   -385.55463    86413.506   -21313.466    1665.6933   -22979.159    112.37227    250.69789 
   27550    110.75322   -466.35147    86382.716   -21331.467    1647.0401   -22978.507    112.63245    247.89046 
   27600    109.57474   -350.02658    86360.803    -21384.08    1629.5146   -23013.594    112.48982    245.25275 
   27650    107.03807    -307.5636    86352.904   -21417.136    1591.7912   -23008.928    112.57426    239.57513 
   27700    108.12633   -359.60505    86361.219   -21399.168     1607.975   -23007.143    112.93867    242.01089 
   27750    107.07659   -422.16569     86332.23   -21424.503     1592.364   -23016.867    113.17882    239.66134 
   27800    109.16847   -347.12673    86281.522   -21401.766    1623.4728   -23025.239     113.3386    244.34342 
   27850    109.08737   -157.83222    86265.347   -21378.558    1622.2668   -23000.824    113.63881    244.16191 
   27900    107.53247   -535.68397    86335.672   -21415.761    1599.1434   -23014.905    114.16682    240.68169 
   27950    106.50688   -195.49962    86395.865   -21424.425    1583.8916   -23008.317    114.51577    238.38619 
   28000    107.56771   -130.15454    86464.936   -21387.652    1599.6676    -22987.32    115.33466    240.76058 
   28050    106.33581   -186.73148    86484.835    -21398.65    1581.3476   -22979.997    115.68392     238.0033 
   28100    107.92622   -276.00766    86521.144    -21403.23    1604.9991    -23008.23    115.83564      241.563 
   28150    106.75217   -580.21301    86535.065   -21432.722    1587.5394   -23020.261    116.10802     238.9352 
   28200     108.0266   -633.44522    86561.178   -21441.152    1606.4918   -23047.644    116.47878    241.78766 
   28250    106.07608   -294.62475    86613.474   -21423.284     1577.485   -23000.769    116.85523    237.42196 
   28300    106.25435   -491.14101    86668.851   -21394.438    1580.1362   -22974.574    117.35335    237.82097 
   28350    109.16338   -368.59269    86668.548    -21398.24    1623.3971   -23021.637    117.66647    244.33202 
   28400    108.79401   -238.04785    86682.657   -21426.814    1617.9041   -23044.718    117.46346     243.5053 
   28450    106.86593   -530.05257    86745.866   -21460.297    1589.2312   -23049.528     117.6006    239.18983 
   28500    106.79229   -704.25706    86590.704    -21491.95    1588.1361   -23080.086    117.65543    239.02501 
   28550    108.21134    -265.9705    86539.506   -21460.984    1609.2392   -23070.223    118.09108    242.20117 
   28600    107.95818    -421.0689    86559.893   -21460.741    1605.4744   -23066.215    118.59493    241.63454 
   28650    108.85576    -349.4111    86579.212    -21461.06    1618.8224   -23079.883    118.76536     243.6435 
   28700    106.96971   -544.10759    86519.737   -21477.456    1590.7745    -23068.23     118.7967    239.42211 
   28750    107.50068   -389.05739    86478.365   -21449.245    1598.6707   -23047.916    119.02904    240.61054 
   28800    105.95663   -554.86501    86395.842   -21412.426    1575.7088   -22988.134    119.56965    237.15461 
   28850    108.77454   -329.76035     86437.56   -21408.912    1617.6146   -23026.527     119.6131    243.46172 
   28900    106.45897   -303.44358    86462.613   -21428.135    1583.1792   -23011.314    119.81909    238.27897 
   28950    109.27335   -443.96961     86460.02   -21398.758    1625.0325   -23023.791    120.22015    244.57817 
   29000    108.35961   -56.845242    86420.321   -21425.957    1611.4441   -23037.401    120.32732    242.53301 
   29050    107.28759   -533.96138     86462.94   -21423.361    1595.5018   -23018.862    120.40463    240.13359 
   29100    109.07502   -405.02524    86447.232   -21437.428    1622.0831   -23059.511    120.41922    244.13427 
   29150    105.60929    -448.4292    86431.856   -21457.758    1570.5434   -23028.302    120.76304    236.37719 
   29200    107.37985   -371.97569    86340.127   -21436.883    1596.8738   -23033.757    120.94455    240.34009 
   29250    107.22952   -693.46437    86268.538   -21431.986    1594.6383   -23026.624    121.03968    240.00363 
   29300    105.69955   -394.51349    86268.697   -21455.338    1571.8857   -23027.223     121.1712    236.57921 
   29350    108.81242   -381.25999    86272.383   -21401.402    1618.1779    -23019.58    121.42854     243.5465 
   29400    107.20533    24.914544    86256.358    -21387.89    1594.2785   -22982.168    121.64446    239.94948 
   29450    110.08558   -305.55702    86352.099   -21408.798    1637.1115   -23045.909    121.91751    246.39613 
   29500    105.22572   -135.36955    86305.025   -21426.921    1564.8391    -22991.76    121.83397    235.51866 
   29550    108.05767   -234.66558    86351.746   -21404.335    1606.9539   -23011.289    122.07199    241.85722 
   29600    110.17116   -369.46511    86304.966   -21404.558    1638.3842   -23042.942    122.29633    246.58768 
   29650    109.87029   -720.09767    86294.051   -21372.216    1633.9099   -23006.126    122.26033    245.91427 
   29700    107.40137   -501.64987    86241.861   -21404.345    1597.1939   -23001.539    122.70301    240.38827 
   29750    105.08521   -453.72553    86199.483   -21464.488    1562.7496   -23027.238     123.0169    235.20418 
   29800    106.72579   -548.13161    86212.908   -21445.509    1587.1471   -23032.656    123.07733    238.87617 
   29850     107.3127   -307.93268    86236.135   -21454.389    1595.8752   -23050.264    123.26247    240.18979 
   29900    106.88559   -590.56556    86201.285   -21435.748    1589.5235   -23025.271    123.44606    239.23382 
   29950    106.86623   -654.99617    86096.667    -21418.72    1589.2357   -23007.956    123.80699     239.1905 
   30000    106.77448   -47.523117    86092.858     -21446.4    1587.8712   -23034.271    124.52476    238.98515 
   30050    106.88203   -331.02667    86142.296   -21485.023    1589.4706   -23074.493    124.71074    239.22586 
   30100    107.31225    -598.1957    86051.241    -21451.93    1595.8685   -23047.799    124.56055    240.18879 
   30150    103.44644    -453.7825    86051.957   -21483.064    1538.3791   -23021.443     124.7261    231.53625 
   30200    105.02165   -138.69529    86080.244   -21481.935    1561.8044   -23043.739    125.20157    235.06192 
   30250    106.17612   -482.54079    86087.482   -21490.792    1578.9729   -23069.765    125.06479    237.64589 
   30300    105.00965   -624.17532    86092.607   -21484.474    1561.6259   -23046.099     125.0641    235.03505 
   30350    104.96208   -475.60753    86108.142   -21446.302    1560.9185   -23007.221    124.94989    234.92859 
   30400    106.06522   -341.80658    86075.923   -21468.739    1577.3236   -23046.063    124.83174    237.39766 
   30450    106.64425   -130.41892     86136.15    -21458.47    1585.9345   -23044.404    125.11111    238.69366 
   30500    108.93511   -538.42852    86135.159   -21447.013    1620.0025   -23067.015     125.7313    243.82112 
   30550     105.7219   -312.35057    86106.667   -21487.657    1572.2181   -23059.875    126.19229    236.62924 
   30600    106.10523   -260.40164    86147.217   -21447.605    1577.9186   -23025.523    126.11594    237.48721 
   30650    103.14086   -433.50431    86144.644   -21466.921    1533.8347   -23000.755    126.64759     230.8523 
   30700    105.63652   -227.10977    86133.945   -21442.699    1570.9483   -23013.648    126.46732    236.43813 
   30750    107.52511   -343.34693    86099.133   -21430.979     1599.034   -23030.013    126.39883    240.66522 
   30800    106.46029   -36.517291    86122.002   -21432.036    1583.1987   -23015.234    126.37057    238.28191 
   30850    106.31984   -199.80892    86189.294   -21423.317    1581.1101   -23004.427    126.63485    237.96755 
   30900    108.56494   -280.29778     86236.92   -21397.924    1614.4975   -23012.422    126.99685    242.99258 
   30950    105.84889   -196.21625    86294.961   -21414.299    1574.1065   -22988.405    127.43863    236.91346 
   31000    105.70081    -294.5016    86316.791   -21458.201    1571.9044   -23030.105    127.40178    236.58204 
   31050    106.98465   -190.00187    86389.188   -21505.565    1590.9967   -23096.562    128.13102    239.45556 
   31100    104.89997   -233.79476    86434.109   -21516.248    1559.9948   -23076.243    128.27261    234.78956 
   31150    105.48202   -405.16702    86479.404   -21500.889    1568.6507   -23069.539    128.53064    236.09232 
   31200    107.02153   -581.47179    86475.367     -21489.1    1591.5452   -23080.645    128.65152     239.5381 
   31250     105.2701   -166.68018    86549.204   -21504.428    1565.4991   -23069.927    129.36725      235.618 
   31300    108.08901    -331.7139    86605.463   -21464.578    1607.4199   -23071.998    129.97728    241.92735 
   31350    106.21161   -388.21192    86571.842   -21477.603    1579.5006   -23057.104    130.11003    237.72532 
   31400    104.18695   -335.85331     86515.39   -21487.244    1549.3914   -23036.636    130.55397    233.19367 
   31450    105.76169   -233.66586    86459.424    -21492.61    1572.8097   -23065.419    130.97536    236.71828 
   31500    104.52911   -210.75757    86459.778   -21485.839    1554.4797   -23040.319    131.10147    233.95949 
   31550    108.70952   -518.42316    86385.829   -21474.235    1616.6477   -23090.883    131.56807     243.3162 
   31600    105.99802   -473.16491    86361.517   -21485.223    1576.3242   -23061.547    131.88616    237.24724 
   31650    105.69617    -367.1793    86344.779   -21430.938    1571.8353   -23002.774    131.72016    236.57164 
   31700    109.40537   -131.57397    86366.547   -21400.997    1626.9959   -23027.993    131.79172    244.87367 
   31750    108.12232   -45.318114    86399.285   -21415.465    1607.9152    -23023.38    132.22604     242.0019 
   31800    106.15985   -631.24295     86439.26   -21426.478    1578.7309   -23005.209    132.23463    237.60947 
   31850    108.67034   -236.23863    86431.674   -21413.712     1616.065   -23029.777    132.33362     243.2285 
   31900    108.34951   -232.29058    86468.087   -21432.823    1611.2939   -23044.117    132.09396    242.51042 
   31950    109.03482   -425.61765      86503.8   -21408.596    1621.4853   -23030.082    132.62472    244.04429 
   32000    106.20866   -507.40882    86438.613    -21472.12    1579.4568   -23051.577     132.8452    237.71871 
   32050    109.19468   -577.14199    86451.737   -21431.395    1623.8626   -23055.258    133.04676    244.40208 
   32100    109.16788   -56.703459    86422.357   -21426.232    1623.4641   -23049.696    133.38699    244.34211 
   32150    109.88409    -135.8364    86430.977   -21402.608     1634.115   -23036.723    133.72056    245.94514 
   32200    108.21687   -679.88613     86370.98   -21411.168    1609.3213    -23020.49    133.48269    242.21353 
   32250    109.81691   -321.63527    86282.623   -21396.503     1633.116   -23029.619    134.02881    245.79478 
   32300    109.18114   -68.786564    86343.595   -21387.975    1623.6613   -23011.636    134.13811    244.37179 
   32350    109.47522   -326.77066    86439.988   -21339.589    1628.0347   -22967.624     134.2592    245.03001 
   32400    107.50304   -741.48319    86431.377   -21364.946    1598.7058   -22963.652    134.74257    240.61583 
   32450    107.93792   -427.37865    86436.736     -21420.9     1605.173   -23026.074    134.95026    241.58918 
   32500    106.54003    -473.0578    86408.527    -21436.49    1584.3847   -23020.875    135.25232     238.4604 
   32550    109.78559   -419.78303    86364.083   -21436.065    1632.6501   -23068.715    135.35192    245.72467 
   32600    107.81298    -282.1351    86328.307   -21443.883    1603.3149   -23047.198    135.35562    241.30953 
   32650    106.75924   -372.99542    86322.359   -21430.712    1587.6446   -23018.357    135.42362    238.95103 
   32700    107.80797   -290.06004    86358.637   -21476.656    1603.2404   -23079.896    135.50088    241.29832 
   32750    106.00064   -343.23959    86350.593   -21476.857    1576.3632    -23053.22    135.53585    237.25312 
   32800    108.01157   -207.97799    86325.963   -21490.528    1606.2683   -23096.797    135.75178    241.75403 
   32850    107.46148   -37.501321    86375.158   -21490.608    1598.0877   -23088.696    136.62825     240.5228 
   32900    105.21328   -330.17311    86409.545   -21529.283    1564.6541   -23093.937    136.83919    235.49082 
   32950    105.42898   -472.71444    86467.288   -21550.876    1567.8619   -23118.737    137.02978    235.97361 
   33000    106.96694   -217.68523    86447.618   -21502.188    1590.7333   -23092.921    137.04516    239.41591 
   33050    108.08678    -501.1362    86394.548    -21487.63    1607.3867   -23095.017    137.37214    241.92236 
   33100     106.6253   -222.71746    86413.092     -21464.6    1585.6527   -23050.252    137.72361    238.65125 
   33150    105.71366   -32.267301    86403.413   -21454.718    1572.0955   -23026.813    138.06382     236.6108 
   33200    106.70721   -347.96154    86457.768   -21454.519    1586.8708    -23041.39     138.4328    238.83457 
   33250    106.92606    13.136777    86515.356   -21440.721    1590.1253   -23030.846    138.66647    239.32441 
   33300    105.29092   -607.48647    86525.946   -21457.394    1565.8088   -23023.203    138.75356    235.66461 
   33350    105.39576   -293.84302    86466.191    -21451.41    1567.3679   -23018.778    138.99825    235.89927 
   33400     105.7566   -391.94826    86477.279   -21437.082     1572.734   -23009.816    139.22143    236.70689 
   33450    106.40525   -295.36053    86452.002   -21402.844    1582.3804   -22985.224    139.27742    238.15873 
   33500    106.95057   -452.04741    86472.022    -21409.41    1590.4899     -22999.9    139.50638    239.37928 
   33550    109.07384   -277.41939    86491.523   -21381.502    1622.0656   -23003.568    139.65616    244.13162 
   33600    105.86265   -532.79646    86466.849   -21442.311    1574.3111   -23016.622    139.70791    236.94426 
   33650    105.53399   -318.37703    86437.921   -21447.957    1569.4236    -23017.38    139.94069    236.20866 
   33700    105.27386   -427.84908    86387.838   -21455.479    1565.5551   -23021.034    140.08824    235.62642 
   33750     107.0334   -492.69162    86359.619   -21473.084    1591.7216   -23064.806    140.24156    239.56466 
   33800    108.08436   -465.27513    86287.564   -21505.982    1607.3507   -23113.333    140.15283    241.91694 
   33850     108.7847   -470.02661    86328.101   -21500.896    1617.7657   -23118.662    140.48937    243.48446 
   33900    107.03609   -750.61112     86347.72   -21494.001    1591.7617   -23085.763    141.02445    239.57068 
   33950    107.26086   -421.39955    86469.849   -21494.535    1595.1043   -23089.639    141.24399    240.07377 
[...]
   92000    112.38331   -789.04735    86605.051   -21331.766    1671.2816   -23003.047    381.57206    251.53897 
   92050    111.42419   -269.69327    86565.553   -21322.355    1657.0183   -22979.373    380.91496    249.39223 
   92100    108.11429    -497.5844    86531.798   -21394.811    1607.7959   -23002.607    381.34506    241.98394 
   92150    108.60769   -468.79052    86491.657   -21407.351    1615.1333   -23022.484    380.94517    243.08827 
   92200     108.3566   -530.93038    86457.555   -21432.439    1611.3994   -23043.839    380.79804    242.52629 
   92250    108.60324    -619.9541    86329.037   -21476.104    1615.0672   -23091.171    380.98951    243.07832 
   92300    106.41625   -580.46746     86339.76   -21492.761    1582.5439   -23075.305    381.06044    238.18334 
   92350    108.76264   -333.49555    86340.495   -21482.066    1617.4377   -23099.503    381.18833    243.43509 
   92400    109.14378   -250.29756    86361.918   -21478.669    1623.1057   -23101.775    381.81098    244.28816 
   92450    108.35527   -499.32292    86320.077   -21500.256    1611.3796   -23111.636    382.54642    242.52331 
   92500    107.52246   -222.30836    86295.861   -21504.754    1598.9946   -23103.748    382.36173    240.65928 
   92550    104.98634   -241.39818    86310.155   -21527.045    1561.2793   -23088.324    383.10273    234.98289 
   92600     109.1186    57.010351    86394.815    -21500.32    1622.7313   -23123.051    383.00503    244.23182 
   92650    108.43073   -219.01182    86492.628   -21472.021    1612.5018   -23084.523    382.33485    242.69221 
   92700    105.45496   -357.11029    86525.361   -21461.974    1568.2482   -23030.222    382.86565    236.03175 
   92750    104.36976   -394.26704    86502.353    -21463.64      1552.11    -23015.75    382.70215    233.60285 
   92800    106.21915   -345.97137    86549.864   -21432.794    1579.6127   -23012.407    382.79921    237.74219 
   92850    107.27414   -269.44551    86678.715   -21477.606    1595.3018   -23072.907    383.29902     240.1035 
   92900    105.67069   -233.78051    86683.761   -21474.899    1571.4565   -23046.356    384.08495    236.51462 
   92950    107.59309   -531.90468    86674.857   -21489.878    1600.0449   -23089.923    384.01226    240.81736 
   93000     108.9522   -803.02523    86635.198   -21449.228    1620.2566   -23069.485    383.83221    243.85936 
   93050    107.77514   -399.96351    86527.341    -21446.62    1602.7523   -23049.373    383.93415    241.22485 
   93100    105.91011   -267.51409    86494.567   -21456.627    1575.0169   -23031.644    384.56021    237.05048 
   93150    106.25255   -469.19607    86524.132   -21492.221    1580.1095   -23072.331    384.75303    237.81695 
   93200    105.91954   -198.64243    86460.984    -21497.13    1575.1572   -23072.287    384.98378     237.0716 
   93250    105.96049   -57.844239    86489.143   -21495.821    1575.7662   -23071.587    385.63356    237.16326 
   93300    104.52916   -42.194989    86427.412   -21521.131    1554.4804   -23075.612    385.89937    233.95961 
   93350      106.487    -263.8398    86446.276   -21508.895     1583.596   -23092.491    386.47632     238.3417 
   93400    104.87989   -629.64697    86472.392   -21584.107    1559.6962   -23143.803    387.07459    234.74462 
   93450    103.91139   -300.63564    86428.693   -21560.627    1545.2935   -23105.921    387.54052    232.57691 
   93500    108.97984   -507.06377    86321.888   -21494.279    1620.6677   -23114.947    387.98429    243.92123 
   93550    105.63084   -455.16815    86220.139   -21451.763    1570.8639   -23022.627    388.03863    236.42543 
   93600    106.58239   -31.124285    86174.204   -21499.441    1585.0146   -23084.456     387.8902     238.5552 
   93650    106.48345   -464.91516    86186.965   -21533.936    1583.5432   -23117.479    387.84556    238.33374 
   93700    106.43351   -288.06292    86176.411   -21531.416    1582.8005   -23114.217     387.7808    238.22198 
   93750    105.51689   -217.01939    86131.978   -21547.208    1569.1692   -23116.377    387.89813    236.17037 
   93800    105.10733   -333.14193    86186.643   -21587.959    1563.0786   -23151.037    388.14897    235.25369 
   93850    105.35025   -220.94698    86253.656   -21590.378    1566.6911   -23157.069    387.88219     235.7974 
   93900    103.64043   -179.38501    86286.273   -21575.648     1541.264   -23116.912    386.90563    231.97044 
   93950    106.93541   -138.75687    86369.472   -21537.687    1590.2644   -23127.952    387.56412    239.34534 
   94000      103.734   -497.01373    86348.306   -21569.078    1542.6555   -23111.734    387.48798    232.17987 
   94050    106.50577   -555.06684    86366.511   -21553.074    1583.8752   -23136.949    387.20438    238.38371 
   94100    103.08351   -498.59619    86307.696   -21516.296    1532.9819   -23049.278    386.73896    230.72393 
   94150    106.10586   -402.54945    86223.213   -21483.961    1577.9279   -23061.889    387.16212    237.48862 
   94200    106.44508    44.763231    86233.329   -21467.793    1582.9726   -23050.765    387.17659    238.24786 
   94250    106.02957    -283.0444    86268.592   -21482.255    1576.7935   -23059.049    387.68239    237.31787 
   94300    105.60589   -585.80292    86218.068   -21444.839    1570.4928   -23015.332    388.11797    236.36957 
   94350    105.48241   -492.38392    86131.474   -21470.917    1568.6565   -23039.574    388.20533     236.0932 
   94400     105.1173   -674.49914    86089.792   -21483.549    1563.2269   -23046.776    388.74192    235.27601 
   94450    104.67902    -647.7619    86031.512   -21512.963     1556.709   -23069.672    389.05222    234.29503 
   94500    104.02036   -350.86948    85934.474    -21488.15    1546.9139   -23035.064    389.65783     232.8208 
   94550    102.35333   -304.14386     85932.97   -21487.238    1522.1231   -23009.361    389.96793    229.08961 
   94600    103.87598   -179.16934    85934.866   -21474.119    1544.7669   -23018.886    389.64214    232.49766 
   94650    105.37262   -435.71329     85919.99   -21457.579    1567.0238   -23024.603    389.55364    235.84747 
   94700    107.21502   -344.97702    85877.266   -21472.144    1594.4226   -23066.567    390.45778    239.97117 
   94750    106.25771   -417.65815    85921.385   -21484.509    1580.1862   -23064.695    390.69589     237.8285 
   94800    106.30268   -543.55802    85890.619   -21460.628    1580.8549   -23041.483    391.12099    237.92914 
   94850    105.25879    -270.8012    85936.984   -21499.468     1565.331   -23064.799    391.45163    235.59269 
   94900    107.62824   -147.47761    86057.245   -21440.762    1600.5677   -23041.329    391.89303    240.89605 
   94950    106.69674   -460.04408    86097.567   -21405.822    1586.7151   -22992.537     391.7853    238.81114 
   95000    108.24989   -204.32369    86149.666   -21430.935    1609.8125   -23040.747    392.51253    242.28745 
   95050    110.39938   -247.31715    86174.935   -21441.924    1641.7781   -23083.703    392.72706    247.09848 
   95100    107.92637   -2.8345671    86235.237   -21448.621    1605.0012   -23053.622    392.37061    241.56332 
   95150    110.36019   -309.47017    86282.683   -21408.556    1641.1952   -23049.751    392.52874    247.01075 
   95200    106.13323   -398.56981    86257.871   -21442.147    1578.3349   -23020.482    393.25875    237.54987 
   95250    107.89415   -266.61519    86262.109   -21459.052    1604.5221   -23063.574     392.7969    241.49121 
   95300     107.1108   -196.37188    86254.268   -21458.674    1592.8727   -23051.547    392.68545    239.73791 
   95350    104.15079    92.199094    86248.962   -21486.668    1548.8535   -23035.521    392.62456    233.11273 
   95400    107.00252   -484.08451    86208.407   -21475.244    1591.2624   -23066.506    392.88074    239.49554 
   95450    105.90717   -120.59414     86174.63    -21468.09    1574.9732   -23043.063    393.01161    237.04391 
   95500    107.75541   -322.86601    86248.301   -21433.062    1602.4589   -23035.521    393.23683    241.18069 
   95550    110.21068   -164.67652    86199.585   -21423.002    1638.9718   -23061.974    393.01681    246.67612 
   95600    109.09974   -256.70374     86234.24   -21442.607    1622.4507   -23065.058    393.21274    244.18959 
   95650    109.17443   -650.18462    86285.292     -21437.4    1623.5614   -23060.962    393.22147    244.35676 
   95700    108.41529   -663.99138    86305.768   -21407.929    1612.2721   -23020.201    393.38979    242.65764 
   95750    108.25822   -507.03998    86270.327   -21420.652    1609.9363   -23030.588    393.24163    242.30608 
   95800    108.14382   -275.12589    86248.146   -21437.382    1608.2351   -23045.617    392.66439    242.05004 
   95850    105.75779   -431.04313    86153.334   -21500.711    1572.7517   -23073.463    392.62867    236.70956 
   95900    105.44911   -500.45478    86102.111   -21454.992    1568.1612   -23023.153      392.226    236.01866 
   95950    104.45534     -609.303    86094.367   -21444.099    1553.3826   -22997.481    392.03394    233.79438 
   96000    107.04071   -150.12432      86134.9   -21430.102    1591.8304   -23021.933    393.00153    239.58103 
   96050    106.36121   -362.31089    86161.486   -21455.189    1581.7253   -23036.915    393.47817    238.06014 
   96100     107.2119   -347.53484    86168.757   -21436.735    1594.3762   -23031.111     393.8789    239.96419 
   96150    105.96425   -376.21492    86224.017    -21459.24    1575.8221   -23035.062    393.97692    237.17167 
   96200    105.97352   -196.30251    86240.574   -21459.468    1575.9599   -23035.428    393.89423    237.19242 
   96250    105.78681   -603.82093    86232.474   -21464.123    1573.1833   -23037.307     394.5801    236.77452 
   96300    103.51983   -525.16224    86234.753   -21500.447    1539.4705   -23039.917     394.2942    231.70051 
   96350    107.63538   -543.72064    86180.261   -21484.176    1600.6739    -23084.85    394.37207    240.91204 
   96400    106.11986   -127.76507    86242.686   -21511.135    1578.1361   -23089.271    394.65303    237.51995 
   96450    107.90597   -401.45279     86256.75   -21488.627    1604.6978   -23093.325    395.23051    241.51766 
   96500    107.82652   -259.22972    86290.534   -21491.144    1603.5164    -23094.66    395.75336    241.33984 
   96550    106.66039   -309.82058    86297.794   -21485.823    1586.1745   -23071.998    396.51669    238.72978 
   96600    107.21093   -313.07118    86313.859   -21471.926    1594.3618   -23066.287    396.48765    239.96202 
   96650    107.25692   -563.49221    86220.255   -21486.397    1595.0457   -23081.442    396.00125    240.06496 
   96700    107.04981     -389.379    86189.504   -21507.982    1591.9657   -23099.947    395.65925    239.60139 
   96750    111.42237   -371.85443    86204.841   -21500.405    1656.9912   -23157.396    395.87169    249.38816 
   96800    105.19243   -341.80296    86267.742   -21566.241    1564.3441   -23130.585    395.74792    235.44416 
   96850      104.783   -358.18594    86262.848   -21577.061    1558.2553   -23135.316     396.0042    234.52776 
   96900    104.05092   -441.59157    86162.392   -21504.905    1547.3684   -23052.274    396.20349     232.8892 
   96950    105.32359     64.30342    86153.689   -21553.038    1566.2946   -23119.333    395.80309    235.73773 
   97000    105.33934   -376.42757    86158.023   -21539.481    1566.5288    -23106.01    395.99741    235.77297 
   97050    105.83202   -3.0793203    86184.496   -21530.446    1573.8556   -23104.302    396.18365    236.87571 
   97100    105.42375   -29.011751    86244.953   -21531.324    1567.7842   -23099.109    396.56488    235.96191 
   97150     108.0491   -394.07656    86340.699   -21512.777    1606.8264   -23119.603    396.79821    241.83802 
   97200    108.22663    -333.3967    86407.613   -21527.933    1609.4665   -23137.399    397.52107    242.23537 
   97250    105.40463   -418.26404    86372.655   -21538.262    1567.4998   -23105.762    397.48668    235.91912 
   97300    103.42132   -246.12347    86356.075   -21551.675    1538.0055   -23089.681    397.74606    231.48002 
   97350    107.99811   -324.42859    86474.852   -21508.207    1606.0682   -23114.275    397.58785    241.72391 
   97400    106.53465   -274.96899    86500.888   -21487.742    1584.3047   -23072.047    398.07957    238.44835 
   97450    107.96203    -488.5763    86467.806   -21512.655    1605.5316   -23118.187    398.19078    241.64315 
   97500     103.8819    -384.5254    86463.967   -21485.468    1544.8548   -23030.323    397.58448    232.51089 
   97550    109.05177   -430.54109    86440.072   -21457.414    1621.7373   -23079.151    398.22972    244.08222 
   97600    106.74776   -399.05933    86448.852   -21460.419    1587.4739   -23047.893    398.22686    238.92534 
   97650    105.62726   -97.963387    86505.953   -21449.108    1570.8106   -23019.919    398.40364    236.41741 
   97700    107.27112   -519.73171    86542.439   -21511.673    1595.2568   -23106.929     399.0757    240.09673 
   97750    106.32954   -265.23784    86535.737   -21507.078    1581.2544   -23088.332    398.85998    237.98926 
   97800    103.49136   -827.13413    86519.029   -21541.099     1539.047   -23080.146    399.33887    231.63678 
   97850    105.23826   -168.76944    86519.601   -21487.891    1565.0256   -23052.917    400.08857    235.54673 
   97900    104.26117   -334.30177    86595.484   -21490.439    1550.4951   -23040.935    399.74672     233.3598 
   97950    106.39313   -347.32761    86505.488   -21464.958       1582.2   -23047.158    400.10413    238.13159 
   98000    106.46818   -318.29189    86500.208    -21458.94    1583.3161   -23042.256    400.65911    238.29957 
   98050     107.0642   -231.39681    86458.149   -21451.606    1592.1797   -23043.786    400.83107    239.63359 
   98100    106.37263    -287.2933    86425.609   -21462.415    1581.8952    -23044.31    401.21354    238.08571 
   98150    106.13838   -440.51756     86390.36   -21489.925    1578.4116   -23068.336    401.12693    237.56141 
   98200    105.82536   -363.31474    86387.278   -21495.847    1573.7565   -23069.603    401.09189    236.86079 
   98250    107.31866   -292.98182    86412.291   -21468.875    1595.9638   -23064.838    401.73681    240.20313 
   98300    104.47201   -506.49091    86346.813   -21530.426    1553.6306   -23084.057    401.62123    233.83171 
   98350    104.86642   -368.43447    86378.151   -21512.041    1559.4959   -23071.537    401.31915    234.71448 
   98400    109.68705   -223.63768    86474.613   -21459.016    1631.1847   -23090.201    401.66442    245.50412 
   98450    106.48537   -325.67263    86490.062   -21482.475    1583.5718   -23066.046     402.2798    238.33805 
   98500      107.241   -51.436679    86546.974    -21469.93     1594.809   -23064.739    401.65741    240.02933 
   98550    107.93225   -455.73181     86579.32   -21466.989    1605.0887   -23072.078    401.69525    241.57649 
   98600    108.01434   -440.49077    86596.233   -21511.147    1606.3094   -23117.457    401.94986    241.76022 
   98650    105.39818   -459.30793    86653.662   -21520.065    1567.4039   -23087.469    401.84081    235.90468 
   98700    105.58054   -429.02817    86623.179   -21480.623    1570.1158   -23050.739    402.50492    236.31284 
   98750      107.316   -299.86394    86614.818   -21456.203    1595.9243   -23052.127    402.24424    240.19719 
   98800    107.40259   -440.39101    86634.034   -21434.686     1597.212   -23031.898    402.99429      240.391 
   98850    110.12757   -202.50917    86620.391   -21427.775    1637.7359   -23065.511     402.3455    246.49011 
   98900    109.29067   -398.25713    86630.737   -21463.296    1625.2902   -23088.586    402.91729    244.61695 
   98950    106.35553   -314.91016    86650.239   -21459.086    1581.6409   -23040.727    403.43316    238.04745 
   99000    107.15143   -381.39024    86611.487   -21470.292    1593.4769   -23063.769    402.85724    239.82883 
   99050     109.0972   -383.01608    86585.484   -21472.329    1622.4129   -23094.742    402.55273     244.1839 
   99100    106.09716   -175.11513    86594.022   -21499.019    1577.7986   -23076.817       402.92    237.46916 
   99150    105.77452   -598.45214     86607.62   -21524.304    1573.0005   -23097.305    403.14991    236.74701 
   99200    107.70024   -123.61301    86634.314    -21513.83    1601.6385   -23115.469     402.5718    241.05721 
   99250    105.24134   -144.43876    86686.434   -21517.078    1565.0715   -23082.149    402.72385    235.55363 
   99300    106.84768   -246.79659    86694.359   -21498.728    1588.9597   -23087.688    403.37085    239.14897 
   99350     108.2101   -472.18188    86731.575   -21480.896    1609.2206   -23090.116    403.77134    242.19837 
   99400    106.51975   -529.92194    86771.395   -21477.598     1584.083   -23061.681    403.88921      238.415 
   99450    108.05031   -53.003858    86786.802   -21468.313    1606.8445   -23075.157    403.89826    241.84074 
   99500    107.01285   -439.35945    86817.484   -21522.503     1591.416   -23113.919    403.75917    239.51866 
   99550    106.92169   -737.31972    86758.522    -21498.33    1590.0604   -23088.391    404.08061    239.31463 
   99600    108.97269   -356.71373    86839.323   -21534.015    1620.5613   -23154.577    403.60418    243.90522 
   99650    103.02271   -727.04239    86795.432   -21520.308    1532.0776   -23052.386    403.83709    230.58784 
   99700    106.87285   -245.33775    86821.944    -21525.96     1589.334   -23115.294    404.02092    239.20531 
   99750     107.6158   -429.39814    86784.848   -21504.606    1600.3826   -23104.988    404.00472    240.86819 
   99800    106.11308   -317.45025    86738.439   -21541.211    1578.0354   -23119.247    403.87829    237.50478 
   99850    107.78686   -548.89534    86742.334   -21540.385    1602.9265   -23143.312    404.14114    241.25107 
   99900    104.88494   -346.82553    86708.304   -21522.549    1559.7714    -23082.32    403.90029    234.75593 
   99950    105.70773   -334.62581    86704.852   -21503.984    1572.0073   -23075.991    403.75015    236.59753 
  100000    107.16887   -561.80473    86699.099   -21522.222    1593.7363   -23115.959    403.76705    239.86788 
Loop time of 82.7062 on 64 procs for 100000 steps with 4990 atoms

Performance: 522.331 ns/day, 0.046 hours/ns, 1209.099 timesteps/s
100.0% CPU use with 64 MPI tasks x no OpenMP threads

MPI task timing breakdown:
Section |  min time  |  avg time  |  max time  |%varavg| %total
---------------------------------------------------------------
Pair    | 12.325     | 34.144     | 59.678     | 368.4 | 41.28
Neigh   | 0.61728    | 1.6121     | 3.5281     |  85.0 |  1.95
Comm    | 14.106     | 38.946     | 62.922     | 330.9 | 47.09
Output  | 0.11881    | 0.11998    | 0.13286    |   0.5 |  0.15
Modify  | 4.553      | 7.1846     | 12.772     | 111.3 |  8.69
Other   |            | 0.6999     |            |       |  0.85

Nlocal:    77.9688 ave 152 max 38 min
Histogram: 32 0 0 5 11 0 0 0 7 9
Nghost:    811.469 ave 1001 max 642 min
Histogram: 32 0 0 0 0 0 0 3 13 16
Neighs:    0 ave 0 max 0 min
Histogram: 64 0 0 0 0 0 0 0 0 0
FullNghs:  7489.78 ave 18542 max 1498 min
Histogram: 32 0 0 0 16 0 0 0 4 12

Total # of neighbors = 479346
Ave neighs/atom = 96.0613
Neighbor list builds = 5763
Dangerous builds = 0

write_data		${DIR}/data.eq-${NAME}-${TEMP}
write_data		run_8/data.eq-${NAME}-${TEMP}
write_data		run_8/data.eq-het_freeze_8-${TEMP}
write_data		run_8/data.eq-het_freeze_8-240
undump          1

reset_timestep  0

unfix           2
unfix           3
unfix           4


################################################
#######         Run Simulation         #########
################################################

log				${DIR}/log.run_${NAME}
log				run_8/log.run_${NAME}
log				run_8/log.run_het_freeze_8
