LAMMPS data file via write_data, version 29 Oct 2020, timestep = 300638

3155 atoms
1 atom types

0.0 49.22 xlo xhi
0.0 49.019635930410494 ylo yhi
0.1683271888933966 39.83167281110851 zlo zhi

Masses

1 18.015

Atoms # atomic

2267 1 0.7037582739831774 1.499196784798292 2.5863265661684096 1 0 0
2360 1 0.9450694167900583 5.647852885527862 7.751280722072061 0 0 0
1178 1 0.3805661985041575 10.128726294830987 1.4372501419329227 0 0 0
350 1 15.047590143690439 1.538037957742228 1.5018553552019438 0 0 1
1746 1 0.9319269133233843 4.343271759660259 1.4477703426033375 0 1 0
2819 1 0.26193633138913913 18.41897708099387 12.079139389864604 1 1 0
84 1 4.964234859086566 4.18574684920804 1.870144574600082 0 0 0
1255 1 15.396969463517474 16.63365489995771 12.696437632426385 0 0 -1
1411 1 11.7177291885215 2.901320783059131 1.7626285680895952 0 0 1
2446 1 13.560464994644178 22.018739030388584 19.67111656480753 1 0 1
1591 1 16.058765148037086 4.775389809866311 0.8526340438037531 0 1 0
934 1 13.417971993051191 5.108941051479453 1.3383419057355685 0 1 1
2444 1 6.067860744510416 6.97437904160713 1.8730632719919145 1 0 1
887 1 9.011235141409452 6.923891179729413 2.1585120644705222 0 1 0
1716 1 10.160066264843964 9.118384804335191 4.19012329577666 0 1 0
895 1 12.322582010245348 7.780794114167661 3.246763374589653 0 1 1
216 1 14.881239549152017 8.994558579769452 2.6100764897966973 0 0 0
2627 1 11.424446217230795 7.322514578777689 0.5307643522497616 1 0 1
2791 1 2.492902181913894 10.4417491403269 3.114881141441243 1 1 0
2288 1 12.526747018034538 23.47027177706766 0.21948375458169112 1 -1 1
2473 1 6.582792340623549 12.12986913614503 4.042943286111557 1 -1 1
2557 1 8.534442058530344 10.761229293477493 2.764585391986189 1 0 1
846 1 15.152720032818996 11.909580665710624 2.2673541304561127 0 0 1
2825 1 4.387422486712721 12.693403520741386 2.7841437109167413 1 0 -1
404 1 10.354397201670784 12.965156658419009 2.7021475282413796 0 0 1
1001 1 8.040095793763397 24.173041450508705 6.509314356957974 0 0 1
880 1 11.780681597540578 23.658699084857297 15.03830198241417 0 0 0
1117 1 1.1632987381043176 16.531812470546853 3.0193196544064014 0 -1 0
1806 1 5.697117599423106 17.810588144685198 2.0332323026361285 0 1 0
2639 1 8.78052359204637 14.747972887044527 0.872374041292496 1 0 0
2407 1 9.346382334215944 17.544336014989753 2.0289363798877207 0 0 1
1827 1 12.975976554163841 16.722173284782865 1.7488759967187142 0 1 0
818 1 9.292117343361616 4.1665414690447555 1.5120547827868804 0 0 1
298 1 2.311673364057686 20.05292290912419 1.5307689652607506 0 -1 1
2452 1 5.192214747532077 24.191730990026578 9.973292455050846 0 0 1
3065 1 7.537081977298581 19.611195824144783 2.421211572258911 1 0 1
332 1 13.157167750648677 19.287759651719036 1.6923011628886604 0 0 1
161 1 6.5185110137435505 22.515998836090553 0.857786548468941 0 -1 0
2158 1 9.148345683536627 22.178610350749544 1.8377924630617142 1 0 0
1364 1 15.3720043251199 20.624566284275286 1.7920926089697147 0 0 0
1898 1 8.136730427649168 0.6499082768770045 0.9246517927258561 1 1 1
2826 1 3.370728979080964 21.31107386450549 19.775064319381812 1 0 0
3150 1 2.47616444989825 2.2725656633427884 5.544472494623999 1 1 1
2382 1 7.126860977650907 2.776771094603187 2.8895979059661925 1 0 1
2127 1 5.229702648755315 2.588453482454812 19.22154708027479 0 0 0
2166 1 12.850561100341578 1.9877899262131364 4.476343377182443 1 0 -1
1545 1 8.528080746689898 17.545749616136618 19.57619649216629 1 0 0
1615 1 16.13692191680052 10.224664898308728 15.8553566629929 0 0 0
10 1 11.051685245959588 0.6243360135023395 6.514197884195776 0 0 -1
2790 1 3.183432204443225 1.6665133468211333 1.0613462440607104 1 0 1
800 1 3.532964604066048 4.916334817780933 4.335551113097152 0 1 0
106 1 8.602730345758738 4.315453071138895 5.276426395644136 0 0 0
2525 1 11.33862273646097 3.916739921020416 5.878095078117769 1 0 0
844 1 15.469864981075533 3.0788786475152072 5.293076831272321 0 0 0
954 1 1.5102136089999678 6.547490771887813 3.4543606077626205 0 1 0
2657 1 5.5334795156210586 7.5087940513787546 4.673998666245843 0 0 -1
588 1 8.302218631803113 7.13278791238511 5.185257637866271 0 1 0
1184 1 13.221573827856297 5.406879161975842 4.219162068125074 0 0 0
89 1 15.150199264007338 9.28824378723996 5.607555966688641 0 0 0
1133 1 14.538639535708214 7.055374938819059 7.9803104434500485 0 0 0
2858 1 5.775482962334232 10.194607157341181 5.939854769047762 1 1 0
315 1 3.157332334233127 10.851220682427199 5.917490459849555 0 0 0
1047 1 10.980096488068535 10.256035311696065 6.610553045265703 0 0 0
468 1 13.38248530778304 11.517946199704141 5.878824432341839 0 0 1
912 1 3.1167037422558286 14.793597222925582 3.9957480344481717 0 0 1
336 1 2.5219754283475506 13.507070972541676 6.311459999913198 0 0 1
2006 1 7.705305099652266 14.99220194989512 3.6397630718350937 0 0 1
2421 1 8.617204901133553 14.709952027675616 6.216694314625845 1 0 0
1915 1 12.03733460358474 15.186036885757591 3.7539355709550093 0 1 0
1272 1 14.20720508585768 13.466459058798085 4.097026826587622 0 0 1
1265 1 0.20408487631604544 7.031177607300305 18.87280484745699 0 0 0
1647 1 5.226209267451827 16.601179310730416 4.378978102190115 0 0 0
2364 1 10.655870145791999 17.38080393529097 4.564367720309537 1 0 0
2155 1 14.814615998047366 18.767399821763263 5.813241982370551 1 0 0
1546 1 1.605050519744453 18.979880403206558 6.213813275042844 0 0 1
1258 1 3.0826689768169304 18.687304039713766 3.781339068538741 0 0 0
441 1 5.609920206491289 19.99071590360158 4.855711150563326 0 0 1
1689 1 11.990108853794368 21.639518910887887 5.682996074776747 0 0 0
2961 1 8.817840229873779 19.939610400974708 5.158144671750559 0 0 1
2573 1 3.8427944428378056 23.108490979892185 6.098542330050714 1 0 0
569 1 3.1460169189366067 23.68765650696341 3.5169569697156264 0 0 0
233 1 4.613425465228084 21.62497967498886 2.7142919288780183 0 0 -1
2349 1 16.16530664788944 8.859169826945694 11.69059530457181 1 0 0
834 1 9.922938416714217 22.929432229654854 4.707771407573092 0 0 1
1246 1 6.162546425864082 13.451380466849594 19.95008687083765 0 0 0
820 1 12.665469528204882 19.251655183273474 4.446591631941663 0 1 1
2995 1 3.0656136371776954 2.117427817983776 8.42757383570164 1 1 0
486 1 8.334877202202142 1.2086458712420818 19.549462904910374 0 0 0
2034 1 7.962350599992559 0.7410259705994193 9.03794925081136 1 1 1
363 1 6.658992092756533 1.2147680130937444 5.007550625046501 0 0 0
1435 1 11.016913910529302 1.3269924750412814 9.281993176405024 0 1 1
1057 1 13.350290446415674 0.5823919016623913 10.616830879520506 0 1 0
1550 1 15.4391772083312 22.858418888945387 17.172902569270658 0 0 -1
664 1 7.296610173305723 3.4315432629872062 7.47608542228427 0 1 0
826 1 11.850677259177367 3.6349939523408397 8.608118038779821 0 0 1
487 1 16.107911417683038 3.897493020178877 7.968891023018086 0 1 1
1372 1 14.324396700895706 4.724380995164138 9.950444382548797 0 0 0
338 1 3.7448852868156823 6.334021454791618 6.963186775483309 0 0 1
613 1 8.980587400082294 7.4134322950285725 8.23222450285133 0 1 0
2239 1 9.476611088067251 4.706382046452166 9.223567377186143 1 0 0
2887 1 11.819273457017886 8.308860276438192 8.275878873450488 1 1 0
108 1 1.801565406818653 9.019281596515365 7.544845451257319 0 0 0
2366 1 2.6460025301716823 10.02556953149688 10.094251469651825 1 0 0
156 1 7.232216476694439 10.47764432249672 8.893524579488984 0 0 -1
3102 1 9.197632206900842 12.342398577554379 7.895944275909381 0 1 1
1958 1 11.62536541740629 9.797274747577996 10.90144424273207 0 0 0
482 1 14.03034325532298 10.93138935643666 8.961279354440213 0 0 0
1050 1 2.1559735104970383 14.724448245263776 8.74895764688507 0 0 0
737 1 11.906750449294908 13.316160992020896 7.833555946874932 0 0 0
2963 1 11.429098518825477 12.659859732018298 10.573494838230728 1 0 1
461 1 15.141262364426593 12.83173725078007 11.01394232137885 0 0 1
871 1 2.8901019465161752 17.304570725355923 8.24109327242732 0 1 0
1586 1 5.4493708294159084 17.362315516083594 7.087458014608675 0 1 0
1727 1 10.440819194399156 16.804398856029188 7.396812717459839 0 0 0
1370 1 7.082230278460463 15.79989749069744 8.324840547884444 0 -1 1
385 1 12.805243373595665 15.97444305061621 8.5001906077831 -1 0 1
3077 1 15.141180279913383 16.265109905751903 6.878790018257715 0 0 1
2256 1 1.7398808268255057 21.59284284588129 7.13332402316973 0 0 0
2474 1 7.198602897010145 19.702726554892493 7.86517980497196 1 0 1
1807 1 9.821260430219903 19.275975915423256 8.63048820839289 0 1 0
48 1 12.23778849473839 21.16015449814578 8.266623362601 0 0 1
2376 1 15.08499049026385 19.922602816732645 8.91582547020683 0 0 1
2756 1 2.643509775434021 0.8393962297146106 13.473922485717027 0 1 0
2221 1 6.082464458170132 22.389552603428704 7.720941434749078 1 0 0
550 1 3.6255433327333195 0.3083961738552841 18.753946623985065 0 1 0
1433 1 10.093517522272515 23.064460156253308 11.43275823715391 0 0 1
1946 1 14.872299711669518 22.9646132395442 8.983321059361895 0 0 0
2609 1 15.008966369014797 23.77664589377549 1.802650675371926 1 -1 0
1158 1 1.0185710782600204 3.8250374955899873 10.31010429199394 1 0 1
286 1 12.627780774295244 12.472294315753242 1.0891548138791893 0 0 1
2689 1 9.28142686083956 2.2712397138212603 11.636624259002232 1 1 0
297 1 15.829665230154044 11.517225455354613 19.05112222074414 0 0 0
1627 1 2.8960381968104425 7.729413981874 18.39947588254116 1 1 0
2462 1 2.466946346209361 4.644486790482946 12.613409163438845 1 0 1
1417 1 5.0627641857857535 4.496876456968648 8.623309705546959 1 0 0
1189 1 6.25954874528796 1.7941296896707357 11.232575529167198 1 1 0
91 1 9.160280476761963 5.973494961405797 11.765448062194615 0 0 0
575 1 11.240599821798448 3.801892092225561 13.215641712459306 0 0 1
1323 1 13.53837489869162 2.8450411930981594 12.078369401554589 0 0 1
2496 1 0.8203370694878755 8.43933600462735 10.860763870230222 1 0 1
789 1 4.943593438329144 4.918864813211389 11.426544290044257 0 1 0
2586 1 4.466264993726867 7.926065553285914 11.383605473508275 1 0 0
1240 1 12.128010433326004 6.800131469861662 12.222094721023549 0 0 0
1214 1 14.846383272063097 6.623634101137225 11.93068459988603 1 0 1
2836 1 13.59649643203022 9.942452922392363 12.874204762346402 1 1 0
1616 1 0.25055457245279766 3.1766408668909625 6.463809161407271 0 1 0
158 1 7.46643662815077 8.14055517427193 10.464119890777347 0 0 0
2244 1 9.091752996423814 9.622799278558352 12.334447796164053 0 0 0
1566 1 13.574646963810364 19.200115929592496 17.99704772383766 0 0 0
666 1 3.9159728273854304 13.842405802617142 0.29615412279660464 0 0 0
1488 1 2.0169018414251703 12.13279902493338 11.705976114237007 1 0 1
2580 1 3.821218701296573 13.862294203183662 10.683682678236291 1 0 1
532 1 1.2334152457932723 21.0045517644249 17.867436850794164 0 0 1
77 1 6.832901933913334 11.508115811901998 11.486414142239296 0 0 1
1451 1 6.55533280981872 14.724297953412481 10.772172141719068 0 0 0
655 1 9.171817055212223 13.29850802202216 11.803990434950814 0 0 0
701 1 13.435604303358012 14.951911728453771 11.22564421283699 0 1 0
3107 1 2.3163514888164674 19.24900039873446 10.326487388134733 0 0 1
182 1 7.136721328184788 17.061688939137486 11.892718365013904 1 0 0
416 1 11.725008885599165 17.60849055661017 10.593888440479054 0 0 1
418 1 10.334405141932036 15.772922410964672 12.288367731686854 0 0 0
2456 1 1.5039878039391066 21.908658379399288 9.91286941448094 1 0 1
2263 1 4.7839916467948855 18.706925658801232 11.614166162656996 1 0 0
2329 1 5.975209562525201 21.015842873937018 10.300860020500375 1 0 -1
1382 1 8.900567236501843 19.108612003370634 11.384643446006407 0 0 1
1140 1 8.330128720763812 20.727661568142263 14.882663208308522 1 0 1
1711 1 11.649453547613007 21.529573366366606 12.843264812682024 0 1 0
2145 1 13.194590528650275 19.883708174824886 11.172797156116207 1 0 0
258 1 3.3978333188916676 23.107207420588402 11.501226496767021 0 0 1
788 1 7.823765809658983 21.631656965419484 12.277255223327284 0 0 0
1481 1 5.430984287920628 12.132031720859617 17.33678809275537 0 0 0
1013 1 14.306510760752671 22.37077278691779 14.654211045786415 0 0 0
2043 1 14.824502720604313 23.38144368240321 11.88065921886074 0 0 1
221 1 1.9127983591772557 3.873385746652853 16.885785583690414 0 0 0
1468 1 3.330892729532132 3.233181891765548 14.694254532291458 1 0 1
2551 1 16.297015051219894 11.427452829460334 13.181695643602012 0 0 0
345 1 9.270290890744098 2.018237069040107 14.798125812486367 0 0 0
1090 1 15.809397564170368 3.1332948629564026 13.451430918608215 0 0 0
2354 1 15.19848182442475 14.09139979424663 18.141452855966794 1 0 0
163 1 5.688941787745787 4.521297915579473 15.229850724836627 0 0 0
518 1 7.317391341875699 4.094263606239935 12.931076050040122 0 1 0
50 1 10.12584518775441 5.43598067805008 15.417280807717534 0 0 0
3050 1 15.238775973237633 5.740026227492945 14.527832280421169 0 1 1
1780 1 11.395471080591811 23.97620088807948 9.035990100182863 0 0 0
1130 1 1.4792520714263835 7.1160296468534705 13.339027498061265 1 1 0
243 1 4.9764520102028476 9.56428779485967 13.427757732517797 0 0 1
2163 1 10.593768012202004 7.94801045206847 14.547601168323423 0 1 0
2362 1 13.453955250721888 8.226709806279954 14.923644884859034 0 1 0
1150 1 3.048781783740515 11.63525069310998 14.183746811801289 0 0 0
2710 1 3.1443943814227344 8.498023470054463 15.17714379024256 1 1 0
325 1 6.151027254266852 12.464150387974874 14.291569310313315 0 0 0
2165 1 3.278035131578768 8.249331906504345 1.5687013104377954 1 0 0
1384 1 15.509935564629473 13.692692972296301 15.035465073998566 0 0 0
1567 1 4.354891782218232 14.595321485436475 14.899120169113592 0 0 0
2911 1 8.870689759705456 13.262212568274352 14.656543284033802 1 1 0
1141 1 9.167510180157192 15.948066082340961 14.628096052841356 0 0 0
23 1 11.663040403244807 11.977783977408832 13.702599112145995 0 0 0
1286 1 12.606614467847823 14.670210048923765 13.950396371883336 0 0 1
301 1 13.988642730306438 9.657669987630328 17.688275834223298 0 0 0
150 1 7.640735255015728 23.022098245019208 18.7524715206356 0 0 0
357 1 1.4698443405643693 17.015668506743562 14.194982160430444 0 0 0
5 1 3.8458181302269874 16.060796981259795 12.546666848624632 0 0 0
568 1 6.5436241915146836 17.075416044261058 14.708941838739817 0 0 0
290 1 11.201655460466586 16.629306074647463 16.555772626092875 0 0 1
1667 1 0.534136483352981 23.11215318364321 3.5689860401018114 0 0 0
435 1 2.4692777279196734 19.000287335149892 16.04100534890413 0 0 0
2290 1 4.554776307592514 19.779541618504624 14.046957419336024 1 0 0
1529 1 6.046401128628695 19.404706435857634 16.307372767613217 0 0 0
2449 1 9.831755701691515 18.954291040634956 17.293941380967233 1 0 0
2678 1 10.397528863209113 19.144068279604422 14.031460294320029 1 0 0
898 1 14.937923985411947 19.406011306799513 13.029785640743421 0 0 0
62 1 14.164762665611102 16.668267728372125 15.712437060902515 0 0 1
766 1 1.936887387665592 22.78912810323856 15.764204015235475 0 0 -1
1669 1 4.335299098087837 22.596516634915364 14.209417272681488 0 0 0
1833 1 6.472633446374375 23.602068204502388 15.929529547260294 0 0 0
596 1 9.490641906610346 22.976209900395588 16.46272709572064 0 0 0
242 1 1.6308019267115643 10.865152480546081 16.54355151192438 1 0 1
438 1 13.159504442462282 19.233751024444732 15.134558985766507 0 0 1
1899 1 14.382142800021802 22.655731493522744 4.472891701351169 0 1 1
2499 1 16.1889493720664 18.946943695051228 18.94524404785151 1 0 0
2909 1 6.868737756979784 2.766829141326582 16.94622799711772 0 1 0
1908 1 1.2615907880644408 1.1306653879962396 17.388091093261167 0 1 1
2003 1 16.12182742731624 3.526411470266499 18.51580000542143 0 1 0
1243 1 15.721716914852479 16.79808441356311 1.86812948371306 1 0 0
659 1 14.445976494931868 2.6261129245261343 16.130125470790613 0 0 -1
2423 1 3.0949687555350276 4.945137599193572 18.905708796991302 1 0 1
3086 1 8.775223837242768 4.832108509899656 17.84998598584963 1 1 1
717 1 13.003759460717948 5.233738528046556 16.503675977118714 0 0 0
19 1 11.587593213207915 1.8856182553048249 16.491477993716696 0 0 -2
618 1 7.087274503803875 8.875747503673733 14.932669979692987 0 1 0
2728 1 5.367437392739387 6.949217451438536 16.52168133689044 1 0 0
1619 1 6.539290326525118 6.317467771764063 19.011291226476505 0 1 0
1872 1 12.93270011965389 6.704333871267587 18.939801401305363 1 1 1
2748 1 10.03410794986254 7.395863890263179 18.64458325453981 0 0 0
2571 1 3.1906831985056416 10.440502852718174 18.716874943202665 1 0 0
2248 1 7.484799603942778 10.25198527208819 17.345830663821484 1 0 0
278 1 9.529911432539512 12.134035295476448 17.173810503965743 0 0 1
2687 1 10.772397790123657 9.474164564288637 16.848795832837922 1 1 0
1736 1 7.9618297905603725 8.865060510358495 19.496469554286502 0 1 0
1989 1 12.825041199511109 12.051591994008335 16.200369201953748 0 0 0
957 1 15.592528695822395 7.998654959117705 19.89377388198298 -1 0 0
485 1 1.2996084076829344 13.698708578683185 19.000430327290953 0 0 0
3063 1 6.381814673850326 14.891172189161384 17.140982803900275 1 1 0
125 1 11.896014554669602 13.483039821671488 18.772742854507296 0 0 0
1624 1 15.7525986090056 6.252657192271786 5.290753993133271 0 1 0
288 1 0.8102256262447046 16.98022867937338 19.904597103235677 0 0 0
2755 1 5.377210605590812 17.17515340650716 18.388440204301993 1 0 -1
440 1 1.930830626656056 14.862571963889973 16.160495060557952 0 0 0
1003 1 11.93883685090353 16.648854573683053 19.294896204878142 0 0 1
2508 1 10.321800985765051 2.8632913048299713 19.045191557771272 1 0 0
2284 1 9.010651213198866 15.175235880938192 17.92969903846366 0 0 0
956 1 2.7691706600646655 17.108064769541024 17.888793019403693 0 0 0
1198 1 6.1087799187603675 20.757649788086 18.967599100908068 0 0 0
626 1 11.04514543186551 21.229248118460855 18.20629227523027 0 0 -1
1051 1 16.06000108635843 9.054870056229515 8.933161992624633 0 0 0
2553 1 6.981657618742138 0.019038785830623794 16.011633763953977 1 0 0
2501 1 1.2807702515266932 14.76887431259532 0.3465574346691014 1 0 2
2929 1 11.26808233448883 20.980154602986985 0.3087213048895947 1 1 1
732 1 6.013024070398169 15.432402553995543 0.3017322304610843 0 0 0
1303 1 12.50100242747435 0.3340210791147227 22.90823673988862 1 0 0
1373 1 1.3460388977686712 22.481798274840564 28.703696206411355 1 0 0
2632 1 13.902584663594116 1.6920700422229673 20.790951362204286 1 -1 0
2469 1 10.849732939464719 1.2054855602806995 39.728166081497974 1 0 0
2713 1 4.7169050792190905 1.8881501603212463 23.637371525087257 1 1 0
2252 1 3.2512771706956425 5.722811113378504 22.413628788565227 1 0 0
2075 1 1.4049333966358841 4.199039475266587 20.98607955415023 1 0 0
2845 1 6.408757165394407 2.314842448592944 21.584234911854196 1 1 0
3003 1 6.103830537344211 5.266621781137289 21.72475842637763 1 1 0
2053 1 8.29013996690176 6.452528070526663 23.012526442965495 0 1 1
1014 1 11.676079721878333 3.586242802125603 21.50991748148321 0 1 0
2402 1 0.4404799653354448 8.869323726973526 28.34381254698934 1 0 0
1280 1 0.12697776687005843 20.644611293611522 22.7481892060096 0 0 -1
2 1 14.530198045605147 15.346461414680043 20.526562157708916 0 0 0
2934 1 3.444528292234716 8.77418209356127 21.34724631170923 1 1 1
453 1 10.848777225680982 6.535619192295626 21.347322837170072 0 0 0
501 1 13.924807373630765 6.72205716634415 22.455440904124387 0 0 0
1583 1 4.680731852294507 12.344947461810976 22.13766017140103 0 1 0
2081 1 6.078082424313697 10.015549722250315 21.34083229973502 1 0 0
1914 1 9.612517179414025 0.7971961619750221 33.201760615317696 0 0 0
1195 1 9.558966250365454 10.537688314693632 21.67053355249426 0 0 0
2908 1 11.958388765371206 9.13670011792172 22.44679905733078 1 1 0
1464 1 14.416653783137287 10.190151010300251 21.427816189717042 0 0 0
2644 1 1.7087973025640881 12.68907822904116 29.631604786211053 1 0 0
889 1 1.563718217975369 14.84047486785766 21.83752582439946 0 0 0
1378 1 15.236441619097679 11.340090094315617 35.03620297337113 0 0 0
1495 1 3.1040590569699806 5.036840504395858 39.124401247001686 1 -1 0
2883 1 8.904117957710698 12.749296920286126 20.116084483476595 1 1 0
1926 1 9.835332342805076 24.11973814367051 37.4896583517118 0 0 0
2736 1 7.319058829503917 18.709951610279596 37.69952451680545 1 1 -1
2855 1 10.123328068936623 17.40061097732616 21.90701514611728 0 1 0
1851 1 12.977999258527937 13.051436287777689 21.255555851289692 0 1 0
1162 1 16.386304634136994 18.777236361742425 36.76085874612778 0 0 -1
2849 1 6.221173577105291 15.959587883424806 21.05827812996053 1 1 -1
683 1 14.894434360414152 14.42992818757631 37.54499750321671 0 1 0
1113 1 12.388000943058582 19.378624578716583 20.752832766820656 0 0 0
902 1 13.047331006109255 17.24664666476456 22.392460666102213 0 0 -1
1623 1 13.481831663856203 0.8124128607635843 38.69561730124602 0 1 -1
224 1 1.8592684983502215 19.54470238515723 21.29392385544899 0 0 0
1922 1 3.7727312509900317 18.646014181915767 23.14020291678895 0 1 0
2584 1 6.318943363073515 19.657327927238793 23.167738403729214 0 0 0
2729 1 7.81663351638025 19.77687061485307 20.537970043257218 1 0 0
483 1 3.428719521754759 7.830923297812842 33.19696511502174 0 0 0
2637 1 15.322861276652944 22.10983764464486 22.378310239278658 0 0 0
2685 1 15.330010805959951 21.214629695474017 32.65678293799849 1 0 0
1474 1 7.502829627116137 3.623071975210807 39.143385893969906 1 1 -1
2220 1 5.985677405143502 22.49444052446521 23.840978985288555 1 0 0
2817 1 12.55265698360677 22.814808693768267 22.44674614593211 0 1 -1
2271 1 1.6943660039584565 1.735218589773833 25.079199352472887 1 0 0
3084 1 8.372988212894906 1.8300181782391618 23.60689761162694 0 1 0
1304 1 6.847064479099307 2.2016607171798532 25.832037756435444 0 0 0
1230 1 12.90778977172882 1.9549735611975485 25.166569359751357 0 0 0
1879 1 15.9293185282486 1.7817439116122054 25.578235469931638 0 1 0
394 1 3.1807469838706393 8.13384630973689 24.523176373395703 0 0 1
2233 1 1.2522155765505452 20.585502877774562 25.360283031560805 1 0 0
2293 1 3.408208604295877 2.4605143196935897 28.294201543225487 1 0 -1
361 1 9.813137146995984 4.133498270037593 23.58312661949946 0 1 0
2912 1 11.043516980642154 4.108384890479589 26.125587924034964 1 1 1
1880 1 14.426563797673055 4.2332432258556745 23.946919213324943 0 0 0
448 1 3.1782017153418467 4.081852071848854 24.727702518045483 0 0 0
306 1 8.27337215928639 6.9096553226203605 25.983477616416444 0 0 0
2520 1 12.394404615663378 9.268749922797694 25.206839106142322 1 0 0
2174 1 2.06189055980268 5.868418804850299 30.735550392542965 1 0 -1
790 1 1.1533717613632553 10.073151623785176 23.45975819812432 0 0 0
1584 1 5.647249549342577 9.316275510234302 25.618348203596216 0 1 -1
1423 1 7.810682285826201 9.50945458020638 23.510418830730444 0 0 0
2219 1 15.862915003602296 7.196775843567779 24.754186964847722 1 0 0
2078 1 4.6129064161670055 12.386397062162764 24.910268268229046 1 0 -1
410 1 16.324296220402925 1.3223243524499393 22.164633473084162 0 0 0
2007 1 6.945515143480777 14.536357588127022 24.429084666090038 1 1 0
1497 1 10.091004681386108 11.337839208023722 24.628007286755214 1 0 0
2996 1 11.379496260142236 13.530997020158624 23.183310759294415 1 1 0
2231 1 12.922299733035661 15.408954863619043 24.667543009298072 0 0 -1
1774 1 15.524348780405205 14.27887075691719 24.96286203877601 0 1 0
1678 1 4.143549751030864 15.791392538088369 22.850032028866156 1 0 -1
1185 1 3.046575533669853 18.733497807405 25.744051276106056 1 -1 0
2814 1 9.038013719294412 14.923389377868256 22.407429443480474 0 0 0
1106 1 9.349614575055055 19.029266727333013 24.10303505170776 0 0 0
1161 1 11.413053664194054 17.84748952599525 25.629563498506652 0 0 -1
1097 1 15.359796597303632 19.42453972169338 27.254912510913865 0 0 0
1010 1 14.170211650562283 17.528982697645272 28.94510923071051 0 0 0
1430 1 13.050147395180971 20.015883336807512 25.558618208378423 0 0 1
2854 1 2.9832912845927715 22.106688012882238 39.3355003542873 1 1 -1
2272 1 2.2196637383977578 14.2080555055885 25.0505237217425 1 0 0
2161 1 5.025187975744423 23.329241562725507 26.18724619627329 1 -1 -1
608 1 8.419145141262142 23.780686288376547 23.533181786173046 0 0 -1
605 1 10.227735951642765 21.64237831281178 23.56759711324791 0 0 0
2781 1 1.1045480332545694 1.7335798267541846 22.303689284313 1 1 0
594 1 10.812063045567582 23.66705463765483 29.139225000540232 0 1 -1
1440 1 15.941582492214819 15.370696998854777 27.50415657332801 0 0 1
1142 1 0.883169371718359 3.7940772105733176 29.226596571456476 0 0 -1
2397 1 2.0321275312757594 24.39149046405107 35.423845113355554 0 0 0
2757 1 9.572579231557445 0.4213388062879865 28.936274574333694 1 0 0
1762 1 12.777023031365975 1.9827820033203158 29.58495597470769 0 1 0
1011 1 14.466344926008526 4.21516478926807 29.239304305408506 0 0 0
493 1 10.472112781899796 21.24276327107438 36.94704237429461 0 -1 0
1715 1 3.0777240060008086 7.103849853895947 28.531899591504292 1 1 0
2139 1 4.447741170801296 4.931551988885471 27.12931590561012 1 0 0
1108 1 13.46838800276317 24.390874929474883 29.75772751039908 1 0 0
1072 1 7.2060932528316854 4.759336265662593 27.210104081150057 0 0 0
1875 1 9.259524366962344 3.313949392906815 28.377449388007978 0 0 0
1029 1 10.981771299937158 2.5976790546145203 31.301859789975165 0 0 0
1209 1 13.585422750466744 6.87600763239478 30.201065491234868 0 0 0
924 1 9.86733104455352 21.570293067318612 20.678020472467967 0 0 0
2703 1 4.704168660676792 11.990910787485127 38.093729106208706 1 0 0
1680 1 6.6070825393474335 5.621056499245258 29.906055307490977 0 1 -1
2371 1 10.998481781263997 9.649480380772568 31.44781521829941 1 0 0
312 1 10.571751412252532 7.58066394258132 29.288993625255788 0 0 0
2276 1 11.317284062283797 6.947132774202379 26.462244117619637 1 1 0
1642 1 13.95016632777272 5.523347229462611 26.38493759413648 0 1 -1
2237 1 5.119660036170674 10.728913673641422 28.16917535877258 1 0 0
392 1 0.5327550876507676 13.198584892426071 27.123763497869074 0 0 0
1248 1 8.082196939726844 8.099040696603492 28.440428354180835 1 0 0
622 1 7.949917905391196 11.03702420453687 28.81227696726414 0 0 0
2518 1 10.430561000078926 10.251489384152483 27.50253615135204 1 0 0
679 1 12.191589221153391 11.41682631663367 29.26780244851676 0 1 0
476 1 13.918599282353222 12.513356931078116 26.96467657206816 0 0 0
240 1 14.76791492641932 9.485568317542906 26.36045193078158 0 0 -1
131 1 3.6931458185151955 16.16217667940918 26.537515419414625 0 0 -1
320 1 8.219057674938098 12.82216156159229 26.107455688675174 0 0 1
3138 1 9.581454940254014 14.027894807585895 28.306336952528856 0 0 0
391 1 11.92189410060262 14.03005044014463 30.56409439127532 0 0 0
2410 1 8.97946162208976 24.4827750947245 21.244062043913527 1 0 1
507 1 1.9719619315153203 17.60495665482689 30.014611710034345 0 1 0
370 1 15.683970606705373 23.008231657667576 37.41882254996274 0 -1 0
2792 1 6.400969625715994 16.206630946064404 26.489192346966657 1 0 0
1543 1 8.02535375159408 16.539328715500243 28.836080186749733 0 0 0
3113 1 12.345838590104696 15.315270766122941 27.749168535556038 1 1 0
103 1 15.329902922958958 19.15985893669681 23.02905224459782 0 0 -1
201 1 5.1844250171607 9.57557605122897 39.51589108280766 0 0 0
2363 1 2.682170648480013 20.161833992438986 28.663285886416926 1 0 0
645 1 4.9427114365120595 20.628184494415223 26.730050896615186 0 0 -1
2566 1 7.13376593200993 18.916955725370833 26.055912589040307 1 0 0
3117 1 12.336637135334504 19.452525010912556 29.66094615604705 0 1 0
2316 1 12.495118843754843 21.33802967403262 27.741392219513685 1 -1 0
3075 1 4.409151380251124 18.486081837198626 38.86851819244231 1 0 0
1126 1 9.11579430704304 20.622262609926015 27.180162547518428 1 0 0
2412 1 1.3237813288800446 22.59511123057725 37.31019635897498 1 0 0
1307 1 14.876111446499566 22.32800699859967 28.220434854898254 0 0 1
2076 1 2.630489698980332 2.0398497582391437 33.275131868629146 1 0 0
656 1 7.824287454601151 1.0866226917518835 31.291370120578307 0 1 0
1894 1 2.0853844639737464 23.443231108202884 25.822820528371164 0 0 0
396 1 15.364491537692984 10.535374832281352 31.222281843322897 0 0 0
1203 1 16.16677837818605 0.601085478915601 31.52568296562888 0 0 -1
2466 1 5.694783919023301 21.04585875335677 38.27803182723534 1 0 0
2838 1 3.6510150472186815 3.316325378775552 30.941842925987427 1 1 0
1366 1 6.345706716677006 3.195291395824781 31.033248795579556 1 0 0
1177 1 9.391645781853272 5.197161433431094 30.5976609229867 0 0 0
2828 1 12.229490105236026 4.271228932643587 33.139727053575434 0 1 0
2232 1 13.627641417815967 6.927731460585161 33.08995094248972 0 0 0
1347 1 4.477046169919521 9.886870191307642 31.687608636575263 1 0 0
2414 1 6.868819908207043 8.819374156897242 31.268979186468247 1 0 0
2884 1 10.613634378784393 7.033640160688737 32.54054987790373 1 1 -1
346 1 14.331461990511409 9.363113716615894 29.097119806033206 0 0 0
2515 1 2.8579493995390046 10.150962211139177 29.32995532954366 1 0 1
2654 1 8.483863219083924 10.785777770383556 31.984834105038843 1 1 0
2137 1 8.107364504994669 13.435689663956277 30.724196397738574 1 -1 0
825 1 13.298617212575072 10.223436082550784 33.106332531409265 0 1 1
1760 1 2.211839735526214 11.911575024747556 21.101083404308124 0 1 0
1437 1 0.504417903960641 4.325206892394109 26.611595347673028 1 0 0
3066 1 5.487378264798866 13.394985477231353 27.493045271594273 1 0 1
2487 1 5.404144238518334 14.088275773933324 31.523218620177854 1 0 0
1829 1 10.046709269020905 13.988779304550482 32.52026614855899 0 1 0
2298 1 14.143638335104527 14.873876293910234 32.46571296865674 1 0 0
2430 1 3.711999004588097 14.869262656474328 29.667209278207 1 0 0
66 1 5.341171771137733 16.635071428388247 32.365687981895896 0 0 0
2437 1 10.487100534637722 17.902873574510114 28.17687802919319 1 1 -1
1201 1 0.3442723137487957 8.511428239808529 33.5417606468047 1 0 0
129 1 2.2790720055676963 20.109010947978817 34.99315272408343 0 0 0
2771 1 1.525698478935417 23.4737274098099 32.959465670923265 1 0 0
265 1 4.237385594106486 20.095125568134982 31.19547197175278 0 0 0
241 1 6.887401485246114 18.229769766388433 30.870697221138023 0 -1 0
1789 1 11.087928524764317 20.347289494835803 31.91655973146566 0 0 -1
1036 1 14.661883365938037 17.495109005108567 31.73843093957764 0 0 -1
967 1 16.030114327252996 20.557679667177656 30.15822304393763 0 0 0
786 1 6.349213138029549 15.992121292749415 37.33353786456936 0 0 0
2420 1 6.578953227766052 20.619391799482305 29.08569906834847 1 0 0