
# Create simulation box of size 49.22 x 49.019 x 29.88 Angstrom
#
region 	     all block 0 ${XDIM} 0 ${YDIM} 0 ${ZDIM} units box
region 	     all block 0 49.22 0 ${YDIM} 0 ${ZDIM} units box
region 	     all block 0 49.22 0 49.019635930410494 0 ${ZDIM} units box
region 	     all block 0 49.22 0 49.019635930410494 0 40.0 units box
create_box          1 all
Created orthogonal box = (0.0000000 0.0000000 0.0000000) to (49.220000 49.019636 40.000000)
  3 by 2 by 2 MPI processor grid

# fill box with randomly distributed atoms of number density 0.0327 N/A**3
#  ~800 atoms will eventually be removed to insert the substrate
#
create_atoms        1 random 3155 63782 all
Created 3155 atoms
  create_atoms CPU = 0.001 seconds
mass                1 18.015

# Define potential
#
pair_style          sw
pair_coeff          * * ML.sw mW
Reading sw potential file ML.sw with DATE: 2019-02-27

# Run minimization
#
minimize            1.0e-8 1.0e-8 10000 1000
WARNING: Using 'neigh_modify every 1 delay 0 check yes' setting during minimization (../min.cpp:187)
Neighbor list info ...
  update every 1 steps, delay 0 steps, check yes
  max neighbors/atom: 2000, page size: 100000
  master list distance cutoff = 6.0032907
  ghost atom cutoff = 6.0032907
  binsize = 3.0016454, bins = 17 17 14
  1 neighbor lists, perpetual/occasional/extra = 1 0 0
  (1) pair sw, perpetual
      attributes: full, newton on
      pair build: full/bin/atomonly
      stencil: full/bin/3d
      bin: standard
Per MPI rank memory allocation (min/avg/max) = 4.209 | 4.210 | 4.212 Mbytes
Step Temp E_pair E_mol TotEng Press 
       0            0     10078816            0     10078816    9763492.3 
     638            0     -34030.8            0     -34030.8   -600.20297 
Loop time of 0.749274 on 12 procs for 638 steps with 3155 atoms

99.0% CPU use with 12 MPI tasks x no OpenMP threads

Minimization stats:
  Stopping criterion = max force evaluations
  Energy initial, next-to-last, final = 
      10078815.9893143  -34030.7618335313  -34030.8000002592
  Force two-norm initial, final = 3.8342191e+08 1.4825296
  Force max component initial, final = 1.9238706e+08 0.21380214
  Final line search alpha, max atom move = 0.15836363 0.033858483
  Iterations, force evaluations = 638 1001

MPI task timing breakdown:
Section |  min time  |  avg time  |  max time  |%varavg| %total
---------------------------------------------------------------
Pair    | 0.42967    | 0.50481    | 0.64282    |   7.0 | 67.37
Neigh   | 0.010262   | 0.01091    | 0.011827   |   0.4 |  1.46
Comm    | 0.051487   | 0.19396    | 0.27036    |  11.7 | 25.89
Output  | 0          | 0          | 0          |   0.0 |  0.00
Modify  | 0          | 0          | 0          |   0.0 |  0.00
Other   |            | 0.0396     |            |       |  5.28

Nlocal:        262.917 ave         282 max         252 min
Histogram: 2 1 2 3 0 1 2 0 0 1
Nghost:        823.417 ave         843 max         802 min
Histogram: 1 0 2 3 0 1 0 4 0 1
Neighs:        0.00000 ave           0 max           0 min
Histogram: 12 0 0 0 0 0 0 0 0 0
FullNghs:      7392.33 ave        8426 max        6718 min
Histogram: 1 1 2 4 0 2 1 0 0 1

Total # of neighbors = 88708
Ave neighs/atom = 28.116640
Neighbor list builds = 24
Dangerous builds = 0

# Add velocity/set timestep
#
velocity            all create ${TEMP} 120593 rot yes dist gaussian
velocity            all create 240 120593 rot yes dist gaussian
timestep            5.0

# Define output
#
compute	            1 all msd
thermo	            100
thermo_style        custom step temp press vol etotal ke pe c_1[4] density

# Neighbor lists
#
neigh_modify        delay 0 every 1 check yes

# Set fixes
#
fix                 1 all momentum 10 linear 1 1 1 rescale
fix                 2 all nve

# Run 0.5 ns equilibration in NVE ensemble
#
dump                1 all custom 1000 nve.${NAME}.dump id type x y z vx vy vz
dump                1 all custom 1000 nve.ML_1atm_240K.dump id type x y z vx vy vz
run                 100000
Per MPI rank memory allocation (min/avg/max) = 3.459 | 3.461 | 3.462 Mbytes
Step Temp Press Volume TotEng KinEng PotEng c_1[4] Density 
     638          240    468.52802    96509.859   -31774.446     2256.354     -34030.8 9.1912412e-34   0.97793729 
     700    118.97991     -185.345    96509.859   -31766.917    1118.5866   -32885.504    0.1874847   0.97793729 
     800    124.28456   -108.08748    96509.859   -31767.017    1168.4582   -32935.475   0.40249274   0.97793729 
     900    128.14273   -461.01579    96509.859   -31767.123    1204.7307   -32971.854    0.6278472   0.97793729 
    1000    134.97054   -557.22057    96509.859   -31767.231    1268.9221   -33036.153   0.83498291   0.97793729 
    1100    137.25995   -776.35823    96509.859   -31767.176    1290.4459   -33057.622     1.003711   0.97793729 
    1200    139.78149   -456.94205    96509.859   -31767.358    1314.1521    -33081.51    1.1353824   0.97793729 
    1300    141.49655   -442.72463    96509.859   -31767.391    1330.2763   -33097.668     1.281993   0.97793729 
    1400    145.21379   -220.59926    96509.859   -31767.387    1365.2238    -33132.61      1.37147   0.97793729 
    1500    147.19609   -123.05673    96509.859   -31767.287    1383.8603   -33151.147    1.5123432   0.97793729 
    1600    149.80195    4.1731422    96509.859   -31767.605    1408.3593   -33175.964    1.6345319   0.97793729 
    1700    150.24638   -49.044439    96509.859   -31767.651    1412.5376   -33180.189    1.7958232   0.97793729 
    1800    152.27315    295.28814    96509.859   -31767.449    1431.5922   -33199.041    1.8868422   0.97793729 
    1900    154.01265   -175.84953    96509.859   -31767.697    1447.9461   -33215.643    2.0478552   0.97793729 
    2000    153.85642    -113.0585    96509.859   -31767.606    1446.4773   -33214.083    2.1264549   0.97793729 
    2100    152.71362    293.92838    96509.859   -31767.697    1435.7332    -33203.43    2.2003616   0.97793729 
    2200    158.43813     265.8772    96509.859   -31767.847    1489.5521     -33257.4    2.2206456   0.97793729 
    2300    156.75976    644.99952    96509.859   -31767.809    1473.7729   -33241.582    2.3795543   0.97793729 
    2400     160.4195    219.23167    96509.859   -31767.922    1508.1799   -33276.102     2.466172   0.97793729 
    2500    160.14881    271.23136    96509.859   -31767.683     1505.635   -33273.318    2.5602379   0.97793729 
    2600    160.29545    133.66109    96509.859   -31767.873    1507.0137   -33274.887    2.6036425   0.97793729 
    2700    162.00242    172.75167    96509.859   -31767.764    1523.0617   -33290.825    2.6852636   0.97793729 
    2800    163.78535    186.82291    96509.859   -31767.942    1539.8239   -33307.766    2.7935887   0.97793729 
    2900    162.82194    327.50154    96509.859   -31767.715    1530.7663   -33298.481    2.8223031   0.97793729 
    3000     163.9029    396.16636    96509.859   -31767.779     1540.929   -33308.708    3.0062206   0.97793729 
    3100    161.14975    189.78914    96509.859   -31767.902    1515.0454   -33282.947    3.0565255   0.97793729 
    3200    164.70719    -141.5124    96509.859   -31768.137    1548.4905   -33316.627    3.2194652   0.97793729 
    3300    166.27196       406.42    96509.859   -31767.933    1563.2017   -33331.134    3.2697084   0.97793729 
    3400    165.60933    535.51854    96509.859    -31768.08    1556.9719   -33325.052    3.2998613   0.97793729 
    3500    163.66496    231.21903    96509.859   -31767.932     1538.692   -33306.624    3.3667331   0.97793729 
    3600    167.11211    289.95494    96509.859   -31768.128    1571.1003   -33339.229    3.4685566   0.97793729 
    3700    167.25213    545.22235    96509.859   -31767.898    1572.4167   -33340.315    3.5697244   0.97793729 
    3800     165.9301    319.54114    96509.859   -31767.808    1559.9876   -33327.796    3.6426444   0.97793729 
    3900    166.59614    576.40184    96509.859   -31768.001    1566.2494   -33334.251    3.6856631   0.97793729 
    4000    171.07737    777.73366    96509.859   -31768.086    1608.3796   -33376.466    3.7354242   0.97793729 
    4100    168.96549    477.15326    96509.859   -31768.005    1588.5249   -33356.529    3.8042596   0.97793729 
    4200    172.51515    511.94165    96509.859   -31768.196    1621.8968   -33390.092    3.9597163   0.97793729 
    4300    174.85887    838.00833    96509.859   -31768.337    1643.9313   -33412.269    3.9235964   0.97793729 
    4400    173.68695    699.73381    96509.859    -31768.07    1632.9135   -33400.983    4.0053925   0.97793729 
    4500    170.43824    783.52351    96509.859   -31767.946    1602.3708   -33370.317    4.1620611   0.97793729 
    4600    169.69691    618.07352    96509.859   -31767.903    1595.4012   -33363.305    4.1902361   0.97793729 
    4700    171.07117    978.29039    96509.859   -31768.001    1608.3213   -33376.322    4.2865808   0.97793729 
    4800    173.72768    603.90977    96509.859   -31768.213    1633.2964    -33401.51    4.3935217   0.97793729 
    4900    174.78911    860.46134    96509.859   -31768.295    1643.2755    -33411.57     4.339814   0.97793729 
    5000    175.29434     650.4279    96509.859   -31768.116    1648.0253   -33416.141    4.3256263   0.97793729 
    5100    177.56609    1002.5595    96509.859   -31768.627    1669.3831    -33438.01    4.4917126   0.97793729 
    5200    172.74262    721.20496    96509.859    -31768.01    1624.0354   -33392.045    4.4804885   0.97793729 
    5300    175.49062    823.09249    96509.859   -31768.086    1649.8707   -33417.957    4.5615979   0.97793729 
    5400    177.27073    739.15614    96509.859   -31768.244    1666.6063    -33434.85    4.5888386   0.97793729 
    5500    176.12706     875.5098    96509.859   -31768.297    1655.8541   -33424.151    4.6310348   0.97793729 
    5600    171.37217    956.85034    96509.859   -31767.961    1611.1512   -33379.113    4.6818119   0.97793729 
    5700    176.63813    946.07769    96509.859   -31768.275     1660.659   -33428.934    4.6578914   0.97793729 
    5800    176.10453     989.5313    96509.859   -31768.082    1655.6423   -33423.724    4.7145056   0.97793729 
    5900    177.87955    893.59549    96509.859   -31768.494    1672.3301   -33440.824    4.6771796   0.97793729 
    6000    176.55964    930.26454    96509.859   -31768.214     1659.921   -33428.135    4.6630543   0.97793729 
    6100     175.8841    962.19528    96509.859   -31768.257    1653.5699   -33421.827    4.6243547   0.97793729 
    6200     171.9941    988.46826    96509.859       -31768    1616.9983   -33384.999    4.6814981   0.97793729 
    6300    180.00584    826.21779    96509.859   -31768.232    1692.3204   -33460.552    4.7107459   0.97793729 
    6400     175.3636    781.68325    96509.859   -31767.975    1648.6765   -33416.651    4.8199346   0.97793729 
    6500    175.41675    773.74393    96509.859   -31768.287    1649.1762   -33417.463    4.8425728   0.97793729 
    6600    175.24478    958.69302    96509.859   -31768.091    1647.5594    -33415.65    4.8793514   0.97793729 
    6700    177.87525    997.62792    96509.859   -31768.254    1672.2897   -33440.543    4.9409884   0.97793729 
    6800    177.47503      844.122    96509.859   -31768.326    1668.5271   -33436.853    4.8807106   0.97793729 
    6900     179.8235    659.80223    96509.859   -31768.324    1690.6061    -33458.93    4.9560999   0.97793729 
    7000    177.05863    868.79945    96509.859   -31768.301    1664.6122   -33432.914    4.9278832   0.97793729 
    7100    178.59459    1037.9387    96509.859   -31768.331    1679.0526   -33447.383    5.0468816   0.97793729 
    7200     181.6985    1005.3072    96509.859   -31768.388    1708.2338   -33476.622      5.05136   0.97793729 
    7300     175.6948    916.20833    96509.859   -31768.098    1651.7903   -33419.888     5.085073   0.97793729 
    7400    179.14497    1187.1349    96509.859   -31768.257     1684.227   -33452.484    5.1485978   0.97793729 
    7500    178.44333    983.77877    96509.859   -31768.195    1677.6305   -33445.826    5.1797888   0.97793729 
    7600    178.68687     917.0371    96509.859   -31768.412    1679.9201   -33448.332     5.235072   0.97793729 
    7700    180.16949    831.05324    96509.859   -31768.357    1693.8589   -33462.216    5.2557012   0.97793729 
    7800    180.26817    673.18077    96509.859   -31768.336    1694.7867   -33463.123    5.3769837   0.97793729 
    7900    177.97362    674.86002    96509.859    -31768.22    1673.2145   -33441.435    5.4348626   0.97793729 
    8000    179.86668    995.84153    96509.859   -31768.474    1691.0121   -33459.486    5.4849007   0.97793729 
    8100    177.00705    965.19481    96509.859   -31768.042    1664.1274   -33432.169    5.4614509   0.97793729 
    8200    179.02028    1064.8125    96509.859   -31768.347    1683.0547   -33451.401    5.4769308   0.97793729 
    8300    179.36192    1111.5801    96509.859   -31768.274    1686.2666   -33454.541    5.5143757   0.97793729 
    8400    181.46412    1279.4004    96509.859   -31768.518    1706.0303   -33474.548    5.6412969   0.97793729 
    8500    178.21998    716.98903    96509.859   -31768.403    1675.5307   -33443.934    5.7219385   0.97793729 
    8600    177.28231    1126.2545    96509.859   -31768.313    1666.7152   -33435.029    5.7506806   0.97793729 
    8700    181.55849    1050.0381    96509.859   -31768.183    1706.9175   -33475.101    5.7588672   0.97793729 
    8800    180.57123    968.91401    96509.859   -31768.456    1697.6359   -33466.092    5.8043424   0.97793729 
    8900    177.07573    1163.8397    96509.859   -31768.361     1664.773   -33433.134    5.8368044   0.97793729 
    9000    179.30904    1099.9827    96509.859   -31768.331    1685.7695   -33454.101    5.9007254   0.97793729 
    9100    180.35635    857.26094    96509.859   -31768.388    1695.6157   -33464.003    5.9081437   0.97793729 
    9200    175.72368    1045.5895    96509.859   -31768.163    1652.0617   -33420.225    5.9833331   0.97793729 
    9300    179.75273    1254.3056    96509.859   -31768.235    1689.9407   -33458.176    5.9150046   0.97793729 
    9400    181.77619    1061.6801    96509.859   -31768.484    1708.9643   -33477.449     5.883415   0.97793729 
    9500    182.32328     1066.715    96509.859   -31768.532    1714.1077    -33482.64    5.9211182   0.97793729 
    9600    178.94524    1191.8823    96509.859   -31768.378    1682.3492   -33450.727     6.055407   0.97793729 
    9700     182.1698    1245.0095    96509.859   -31768.527    1712.6648   -33481.192    6.0347383   0.97793729 
    9800    179.60622     966.6036    96509.859   -31768.382    1688.5634   -33456.946     6.087135   0.97793729 
    9900    178.26299    823.05315    96509.859   -31768.417     1675.935   -33444.352    6.1354015   0.97793729 
   10000    180.05922    656.64254    96509.859   -31768.493    1692.8222   -33461.315    6.1587138   0.97793729 
   10100    178.40743     860.1994    96509.859   -31768.289     1677.293   -33445.582      6.15049   0.97793729 
   10200    177.87931    1025.9978    96509.859   -31768.221    1672.3279   -33440.548    6.0996348   0.97793729 
   10300    179.33197    1159.6804    96509.859   -31768.333     1685.985   -33454.318    6.2400894   0.97793729 
   10400    180.73756    982.47773    96509.859   -31768.376    1699.1996   -33467.576     6.256141   0.97793729 
   10500    178.65022    914.07481    96509.859   -31768.175    1679.5755    -33447.75    6.3152968   0.97793729 
   10600    180.53568    1035.5245    96509.859   -31768.323    1697.3017   -33465.624    6.4422158   0.97793729 
   10700    178.61907    930.73593    96509.859    -31768.08    1679.2827   -33447.363    6.4154041   0.97793729 
   10800    180.85034    1157.0541    96509.859    -31768.35    1700.2599    -33468.61    6.4671571   0.97793729 
   10900      183.378      865.308    96509.859   -31768.369    1724.0236   -33492.393    6.4742885   0.97793729 
   11000    179.96777    890.88058    96509.859   -31768.404    1691.9625   -33460.367    6.4856801   0.97793729 
   11100    182.27075    949.63685    96509.859   -31768.429    1713.6139   -33482.043    6.5645208   0.97793729 
   11200    182.07078       834.22    96509.859   -31768.544    1711.7339   -33480.278     6.629099   0.97793729 
   11300    183.21379    1235.8326    96509.859   -31768.472    1722.4799   -33490.952    6.6862441   0.97793729 
   11400    180.86812    1206.4202    96509.859    -31768.36    1700.4271   -33468.787    6.6554287   0.97793729 
   11500    184.07312    1538.5763    96509.859   -31768.426    1730.5588   -33498.985    6.7824225   0.97793729 
   11600     181.4126    1080.2641    96509.859   -31768.513     1705.546   -33474.059    6.8220026   0.97793729 
   11700    183.55182    1162.6917    96509.859   -31768.548    1725.6578   -33494.206     6.936474   0.97793729 
   11800    180.90582    1222.1737    96509.859   -31768.492    1700.7815   -33469.273    6.9629038   0.97793729 
   11900    181.81429    1132.7955    96509.859   -31768.569    1709.3225   -33477.891    6.9133123   0.97793729 
   12000    181.34794    1101.8831    96509.859   -31768.419    1704.9381   -33473.357    6.9584192   0.97793729 
   12100    182.18265    683.98467    96509.859   -31768.469    1712.7856   -33481.254    6.9461505   0.97793729 
   12200    184.20722    1083.7984    96509.859   -31768.429    1731.8196   -33500.249    7.0846794   0.97793729 
   12300    184.32068    1154.0794    96509.859   -31768.699    1732.8862   -33501.585    7.0149071   0.97793729 
   12400    182.48513    1078.4912    96509.859   -31768.399    1715.6294   -33484.029    7.0327458   0.97793729 
   12500    182.74933    1298.9122    96509.859   -31768.441    1718.1132   -33486.554     7.129372   0.97793729 
   12600    182.51759    1105.0317    96509.859   -31768.364    1715.9345   -33484.298    7.2382245   0.97793729 
   12700    184.18142    1111.1181    96509.859   -31768.578     1731.577   -33500.155    7.2532051   0.97793729 
   12800    180.01166    1092.1335    96509.859   -31768.264    1692.3751   -33460.639    7.3137545   0.97793729 
   12900    183.03834    1311.5325    96509.859    -31768.21    1720.8303   -33489.041    7.3381713   0.97793729 
   13000    182.25587    1152.7039    96509.859   -31768.463     1713.474   -33481.937    7.4701596   0.97793729 
   13100    180.89742    1368.3849    96509.859   -31768.265    1700.7025   -33468.967    7.4399987   0.97793729 
   13200    181.72177    1268.6171    96509.859   -31768.348    1708.4527   -33476.801    7.5050924   0.97793729 
   13300    179.22185    965.81265    96509.859   -31767.859    1684.9497   -33452.808    7.5487004   0.97793729 
   13400    180.53987    1407.2753    96509.859   -31768.642     1697.341   -33465.983    7.5906574   0.97793729 
   13500     182.6244    1242.7432    96509.859   -31768.285    1716.9387   -33485.223    7.5354602   0.97793729 
   13600    185.12628    1157.7989    96509.859   -31768.491    1740.4601   -33508.952    7.6208734   0.97793729 
   13700    178.68308    1038.6542    96509.859   -31768.178    1679.8845   -33448.063    7.7209237   0.97793729 
   13800    181.58243    1011.0104    96509.859   -31768.254    1707.1427   -33475.397    7.7868129   0.97793729 
   13900    184.23032    1097.3199    96509.859   -31768.572    1732.0367   -33500.608    7.7481995   0.97793729 
   14000    182.96252    1222.0067    96509.859   -31768.333    1720.1176    -33488.45    7.8626482   0.97793729 
   14100    181.30681    1238.9847    96509.859   -31768.268    1704.5514    -33472.82    7.9060985   0.97793729 
   14200    182.34116    1290.6785    96509.859    -31768.39    1714.2759   -33482.666    7.8725017   0.97793729 
   14300    185.69272    1243.9797    96509.859   -31768.415    1745.7854   -33514.201    7.8226916   0.97793729 
   14400    181.14133    1274.3032    96509.859   -31768.338    1702.9957   -33471.333    7.8755132   0.97793729 
   14500    186.70298    1193.3706    96509.859   -31768.513    1755.2834   -33523.797    7.9063453   0.97793729 
   14600    183.33331    1233.0095    96509.859   -31768.409    1723.6035   -33492.012    7.8854517   0.97793729 
   14700    183.33053    1089.3507    96509.859   -31768.389    1723.5774   -33491.967    7.9629393   0.97793729 
   14800    183.35583    1352.9017    96509.859   -31768.407    1723.8152   -33492.222     8.004569   0.97793729 
   14900    182.68858    1232.1612    96509.859   -31768.079    1717.5421   -33485.622     7.951889   0.97793729 
   15000    180.69917    1454.5383    96509.859   -31768.346    1698.8387   -33467.185     8.031955   0.97793729 
   15100    185.76052    1178.0804    96509.859   -31768.173    1746.4228   -33514.596    8.0366242   0.97793729 
   15200    183.54116    1108.1514    96509.859   -31768.465    1725.5576   -33494.022    8.1182302   0.97793729 
   15300     186.1357    827.00312    96509.859   -31768.573    1749.9501   -33518.523    8.0928044   0.97793729 
   15400    182.22475    1043.4792    96509.859   -31768.159    1713.1814    -33481.34    8.2457654   0.97793729 
   15500     180.6938    948.89221    96509.859   -31768.119    1698.7883   -33466.907    8.3592803   0.97793729 
   15600    180.08667    1185.9992    96509.859   -31768.084    1693.0803   -33461.164     8.262975   0.97793729 
   15700    182.88112    1021.5728    96509.859   -31768.359    1719.3522   -33487.711    8.3105612   0.97793729 
   15800    183.47905    1294.6186    96509.859    -31768.38    1724.9737   -33493.353    8.3850627   0.97793729 
   15900    181.32206    1216.7607    96509.859   -31768.301    1704.6948   -33472.996    8.2760769   0.97793729 
   16000    182.07044    1592.5865    96509.859   -31768.529    1711.7307    -33480.26    8.2954108   0.97793729 
   16100    183.68688    1290.6665    96509.859   -31768.598    1726.9276   -33495.526    8.4450177   0.97793729 
   16200    182.25616    1140.3539    96509.859   -31768.385    1713.4767   -33481.861     8.423114   0.97793729 
   16300    185.73822    1147.8257    96509.859   -31768.604    1746.2133   -33514.817    8.5176789   0.97793729 
   16400    184.74512    1405.5342    96509.859   -31768.556    1736.8766   -33505.433    8.4560385   0.97793729 
   16500    186.03553    1580.7999    96509.859   -31768.552    1749.0083    -33517.56    8.5101369   0.97793729 
   16600    183.47621    1603.1663    96509.859   -31768.687     1724.947   -33493.634    8.5714096   0.97793729 
   16700    184.21773    1341.6904    96509.859   -31768.467    1731.9183   -33500.385    8.7353601   0.97793729 
   16800    180.17821    1272.4575    96509.859   -31768.249    1693.9409    -33462.19    8.7182118   0.97793729 
   16900    184.91688    1464.3908    96509.859   -31768.458    1738.4914    -33506.95    8.7962297   0.97793729 
   17000    185.48487    1543.4562    96509.859   -31768.497    1743.8314   -33512.328    8.7494556   0.97793729 
   17100    184.34844    1476.5242    96509.859     -31768.4    1733.1473   -33501.547    8.7463542   0.97793729 
   17200    181.41743    1201.3545    96509.859   -31768.249    1705.5914   -33473.841    8.8859973   0.97793729 
   17300    184.14729    1440.0742    96509.859   -31768.381    1731.2561   -33499.637    9.0381488   0.97793729 
   17400    186.27552    1135.1422    96509.859   -31768.573    1751.2646   -33519.838    8.9787488   0.97793729 
   17500     180.9203    1396.4407    96509.859   -31767.997    1700.9177   -33468.915    9.0318578   0.97793729 
   17600    183.70773      1544.62    96509.859   -31768.396    1727.1236    -33495.52    8.9837435   0.97793729 
   17700    183.08063    1289.8468    96509.859   -31768.321    1721.2279   -33489.549    9.0857431   0.97793729 
   17800    182.78992     1339.607    96509.859   -31768.211    1718.4949   -33486.706     9.108488   0.97793729 
   17900    184.68747    1422.1123    96509.859   -31768.607    1736.3346   -33504.942    9.0708569   0.97793729 
   18000    182.56726    1220.5459    96509.859   -31768.266    1716.4015   -33484.668    9.1339766   0.97793729 
   18100    179.59147    1058.5182    96509.859   -31768.152    1688.4247   -33456.576    9.1216281   0.97793729 
   18200    185.53796    1083.1911    96509.859   -31768.746    1744.3305   -33513.076    9.0581138   0.97793729 
   18300    182.53275    841.90677    96509.859   -31768.387    1716.0771   -33484.464    9.0308777   0.97793729 
   18400     182.5736    950.54656    96509.859   -31768.284    1716.4611   -33484.745    9.1931919   0.97793729 
   18500    183.83317    1049.2848    96509.859   -31768.506    1728.3029   -33496.809    9.2553896   0.97793729 
   18600    181.26205    883.20808    96509.859   -31768.446    1704.1306   -33472.577    9.2861456   0.97793729 
   18700      182.914    964.33052    96509.859   -31768.318    1719.6614    -33487.98    9.2298027   0.97793729 
   18800    183.48299    1056.1798    96509.859   -31768.261    1725.0108   -33493.271    9.3352345   0.97793729 
   18900    182.85048    1151.0795    96509.859   -31768.376    1719.0642    -33487.44     9.311712   0.97793729 
   19000    183.74396    903.82482    96509.859    -31768.47    1727.4642   -33495.935    9.2719593   0.97793729 
   19100    183.96975    821.36192    96509.859   -31768.451     1729.587   -33498.038    9.3238997   0.97793729 
   19200    180.70538    599.45881    96509.859    -31768.23    1698.8971   -33467.127    9.4110494   0.97793729 
   19300    183.15807    987.55091    96509.859   -31768.401     1721.956   -33490.357    9.5206791   0.97793729 
   19400    181.33308    865.41396    96509.859   -31768.246    1704.7984   -33473.044    9.5596348   0.97793729 
   19500    183.69457    1011.4242    96509.859   -31768.375    1726.9999   -33495.375    9.5032675   0.97793729 
   19600    181.32778    1198.6085    96509.859   -31768.116    1704.7486   -33472.865     9.505873   0.97793729 
   19700    187.26453    1153.2613    96509.859   -31768.635    1760.5627   -33529.198    9.5633956   0.97793729 
   19800    182.95705     1041.429    96509.859   -31768.487    1720.0661   -33488.553    9.5596079   0.97793729 
   19900     179.4473    919.88029    96509.859   -31768.229    1687.0693   -33455.298    9.5767743   0.97793729 
   20000    184.68241    1114.9662    96509.859   -31768.305    1736.2871   -33504.592     9.588459   0.97793729 
   20100     180.8069    1055.7516    96509.859   -31768.479    1699.8516    -33468.33    9.5886123   0.97793729 
   20200    186.22726     977.7998    96509.859   -31768.445    1750.8109   -33519.256    9.6440259   0.97793729 
   20300    181.56177    1426.3913    96509.859   -31768.096    1706.9484   -33475.044    9.6304228   0.97793729 
   20400    186.95771    1248.8035    96509.859   -31768.531    1757.6782   -33526.209    9.6474206   0.97793729 
   20500    184.51644    1003.4856    96509.859   -31768.446    1734.7267   -33503.172      9.75238   0.97793729 
   20600      185.455    859.05138    96509.859   -31768.592    1743.5505   -33512.142    9.7930348   0.97793729 
   20700    185.50067    1215.4795    96509.859   -31768.539    1743.9799   -33512.519    9.7837397   0.97793729 
   20800    183.12075    1114.1528    96509.859   -31768.293    1721.6052   -33489.898    9.8242632   0.97793729 
   20900    182.25903    1139.4096    96509.859   -31768.159    1713.5037   -33481.663    9.8909356   0.97793729 
   21000    183.16031    953.59285    96509.859   -31768.448    1721.9771   -33490.425    10.005085   0.97793729 
   21100    185.12117    1115.4077    96509.859   -31768.602    1740.4121   -33509.014     9.916622   0.97793729 
   21200      184.649     1156.334    96509.859   -31768.524    1735.9729   -33504.497     9.867355   0.97793729 
   21300    184.98446    1470.5548    96509.859   -31768.755    1739.1267   -33507.882    9.9694744   0.97793729 
   21400    182.22102    1304.7883    96509.859   -31768.438    1713.1463   -33481.584    10.072439   0.97793729 
   21500    181.86647    1290.1555    96509.859   -31768.159     1709.813   -33477.972    9.9610499   0.97793729 
   21600    181.59148    874.70923    96509.859    -31768.39    1707.2277   -33475.618    10.015935   0.97793729 
   21700    186.07082    1349.9146    96509.859   -31768.519    1749.3402   -33517.859    9.9086245   0.97793729 
   21800    186.74148    1501.8164    96509.859   -31768.488    1755.6453   -33524.133    9.9762803   0.97793729 
   21900    185.55839    1536.6755    96509.859   -31768.729    1744.5225   -33513.252    10.057384   0.97793729 
   22000    186.56572      1686.84    96509.859   -31768.582    1753.9929   -33522.575    10.089893   0.97793729 
   22100    183.98802    1436.7424    96509.859   -31768.541    1729.7588     -33498.3    10.154415   0.97793729 
   22200    181.05594    1573.4732    96509.859   -31768.318    1702.1929    -33470.51    10.148048   0.97793729 
   22300    182.05715    1447.6482    96509.859   -31768.239    1711.6057   -33479.845    10.286906   0.97793729 
   22400    184.95956    1608.4976    96509.859   -31768.311    1738.8926   -33507.203    10.349138   0.97793729 
   22500    186.61253    1452.6787    96509.859   -31768.456     1754.433   -33522.889    10.380579   0.97793729 
   22600    183.48443    1340.4782    96509.859   -31768.591    1725.0243   -33493.615    10.343883   0.97793729 
   22700    184.82796    1599.1551    96509.859    -31768.25    1737.6554   -33505.906    10.350934   0.97793729 
   22800    186.36399    1426.6749    96509.859   -31768.709    1752.0964   -33520.805    10.352828   0.97793729 
   22900    189.67364    1589.9387    96509.859   -31768.741     1783.212   -33551.953    10.377199   0.97793729 
   23000    181.28025    1736.7975    96509.859   -31768.165    1704.3018   -33472.467    10.418893   0.97793729 
   23100    187.84816    1568.4026    96509.859   -31768.459    1766.0498   -33534.508    10.417114   0.97793729 
   23200    181.63653    1887.2414    96509.859   -31768.225    1707.6513   -33475.876    10.561081   0.97793729 
   23300     183.4327    1626.6995    96509.859   -31768.418     1724.538   -33492.956    10.584415   0.97793729 
   23400    186.77664    1798.4972    96509.859   -31768.718    1755.9759   -33524.694    10.495667   0.97793729 
   23500     185.0282    1655.1224    96509.859   -31768.476    1739.5379   -33508.014    10.492831   0.97793729 
   23600    185.32726    1648.5656    96509.859   -31768.389    1742.3496   -33510.738    10.576027   0.97793729 
   23700    183.33776    1722.7963    96509.859   -31768.248    1723.6453   -33491.894     10.52136   0.97793729 
   23800    184.98532    1829.1257    96509.859   -31768.432    1739.1349   -33507.567    10.574075   0.97793729 
   23900    185.91583    2004.2314    96509.859   -31768.359     1747.883   -33516.242     10.57177   0.97793729 
   24000    186.19655    2063.5375    96509.859    -31768.55    1750.5222   -33519.073    10.690065   0.97793729 
   24100    188.50526    1634.6422    96509.859    -31768.63    1772.2275   -33540.858    10.757451   0.97793729 
   24200    183.78687    1605.4283    96509.859   -31768.449    1727.8676   -33496.317    10.774351   0.97793729 
   24300    187.56511    1706.6991    96509.859   -31768.665    1763.3887   -33532.054     10.79162   0.97793729 
   24400    182.35518     1481.666    96509.859    -31768.49    1714.4077   -33482.898    10.948207   0.97793729 
   24500    185.63417    1621.6959    96509.859   -31768.433    1745.2349   -33513.668     10.90332   0.97793729 
   24600    186.44717    1705.6172    96509.859   -31768.806    1752.8784   -33521.684    11.064019   0.97793729 
   24700    184.08817    1758.3279    96509.859   -31768.494    1730.7003   -33499.195    11.045854   0.97793729 
   24800    185.05324    1429.4622    96509.859   -31768.287    1739.7734    -33508.06    11.214282   0.97793729 
   24900    188.52073    1705.8518    96509.859   -31768.646    1772.3729   -33541.019    11.150415   0.97793729 
   25000    186.05641    1633.7241    96509.859   -31768.422    1749.2047   -33517.627    11.223284   0.97793729 
   25100    184.58454    1547.5794    96509.859   -31768.566    1735.3669   -33503.933    11.298005   0.97793729 
   25200    187.73699    1446.1233    96509.859   -31768.567    1765.0046   -33533.572    11.262263   0.97793729 
   25300    183.33808    1763.3898    96509.859   -31768.313    1723.6484   -33491.961     11.37116   0.97793729 
   25400    183.68752    1684.0407    96509.859   -31768.462    1726.9336   -33495.395    11.307424   0.97793729 
   25500    186.02094     1580.948    96509.859   -31768.586    1748.8712   -33517.457    11.307503   0.97793729 
   25600    183.82099    1343.0362    96509.859   -31768.337    1728.1885   -33496.526    11.397595   0.97793729 
   25700    183.61935    1735.9315    96509.859   -31768.256    1726.2927   -33494.549    11.459352   0.97793729 
   25800    190.11774    1323.6566    96509.859   -31768.862    1787.3872   -33556.249    11.434485   0.97793729 
   25900    189.02124     1423.533    96509.859    -31768.42    1777.0784   -33545.498    11.461532   0.97793729 
   26000    186.98734    1216.5184    96509.859   -31768.543    1757.9568   -33526.499    11.535833   0.97793729 
   26100    187.13784     1383.676    96509.859   -31768.632    1759.3717   -33528.004    11.517645   0.97793729 
   26200    184.02008    1393.9216    96509.859   -31768.319    1730.0601   -33498.379    11.610417   0.97793729 
   26300    187.34195    1209.4167    96509.859   -31768.557    1761.2907   -33529.848    11.589552   0.97793729 
   26400    184.28514    1444.9702    96509.859   -31768.469    1732.5522   -33501.021    11.708811   0.97793729 
   26500    185.49961    1580.3625    96509.859   -31768.472    1743.9699   -33512.442    11.790244   0.97793729 
   26600     186.7983    1494.2541    96509.859   -31768.412    1756.1795   -33524.591    11.873944   0.97793729 
   26700    183.55597    1387.9627    96509.859   -31768.416    1725.6969   -33494.112    11.908508   0.97793729 
   26800    186.67496    1616.9945    96509.859   -31768.648      1755.02   -33523.668    11.776018   0.97793729 
   26900    187.35206    1632.7497    96509.859   -31768.448    1761.3857   -33529.834    11.781798   0.97793729 
   27000     188.1039    1641.3693    96509.859   -31768.513    1768.4541   -33536.967    11.942512   0.97793729 
   27100     181.6336    1432.3161    96509.859   -31768.447    1707.6237   -33476.071    11.978472   0.97793729 
   27200    186.38651    1615.2992    96509.859   -31768.721    1752.3081    -33521.03    11.937164   0.97793729 
   27300    182.75421    1441.2953    96509.859   -31768.208    1718.1591   -33486.367    12.087382   0.97793729 
   27400    182.53532    1599.2618    96509.859   -31768.365    1716.1013   -33484.467    12.113038   0.97793729 
   27500    185.25084    1507.7208    96509.859   -31768.488    1741.6311   -33510.119    12.147566   0.97793729 
   27600    187.80267    1560.1248    96509.859   -31768.217    1765.6221   -33533.839     12.07722   0.97793729 
   27700     188.3157    1453.2953    96509.859    -31768.62    1770.4454   -33539.065    12.087987   0.97793729 
   27800    183.88975    1256.2826    96509.859   -31768.361    1728.8349   -33497.196    12.127564   0.97793729 
   27900    186.52223    1422.1418    96509.859    -31768.41     1753.584   -33521.994    12.193485   0.97793729 
   28000    187.57122    1804.5273    96509.859   -31768.488    1763.4461   -33531.934    12.256109   0.97793729 
   28100    186.12235     1563.952    96509.859   -31768.515    1749.8246    -33518.34     12.29858   0.97793729 
   28200    185.71876    1694.2317    96509.859   -31768.335    1746.0302   -33514.366    12.418658   0.97793729 
   28300    188.14924    1549.4186    96509.859   -31768.669    1768.8804   -33537.549    12.364011   0.97793729 
   28400    191.46054    1701.6897    96509.859   -31768.842    1800.0114   -33568.854    12.468231   0.97793729 
   28500      188.378    1528.4392    96509.859    -31768.77    1771.0311   -33539.801    12.582791   0.97793729 
   28600     190.9041    1527.9599    96509.859   -31768.828    1794.7802   -33563.608    12.421104   0.97793729 
   28700    187.31192    1349.8358    96509.859   -31768.488    1761.0083   -33529.496    12.627737   0.97793729 
   28800    191.84177    1351.8845    96509.859    -31768.87    1803.5955   -33572.465    12.568243   0.97793729 
   28900    188.59368    1649.0159    96509.859   -31768.528    1773.0588   -33541.587    12.580669   0.97793729 
   29000    188.21535    1318.8463    96509.859   -31768.441    1769.5018   -33537.942    12.639609   0.97793729 
   29100    188.85072    1550.7622    96509.859   -31768.645    1775.4753   -33544.121    12.651738   0.97793729 
   29200     189.9695    1549.5904    96509.859   -31768.547    1785.9935   -33554.541    12.688154   0.97793729 
   29300    187.34653     1686.763    96509.859   -31768.535    1761.3337   -33529.869    12.794111   0.97793729 
   29400    189.30311    1465.1138    96509.859   -31768.676    1779.7284   -33548.404    12.811367   0.97793729 
   29500    190.00047    1422.7691    96509.859   -31768.696    1786.2846   -33554.981     12.93152   0.97793729 
   29600    189.28723    1611.9767    96509.859   -31768.477    1779.5792   -33548.057    12.937327   0.97793729 
   29700    186.22838    1554.9011    96509.859   -31768.389    1750.8214    -33519.21    12.954449   0.97793729 
   29800    187.92276    1355.6288    96509.859    -31768.41    1766.7511   -33535.161    12.908206   0.97793729 
   29900    185.82175    1354.9094    96509.859   -31768.664    1746.9985   -33515.663     12.92828   0.97793729 
   30000    188.12962    1516.1329    96509.859   -31768.625    1768.6959   -33537.321    13.061356   0.97793729 
   30100    188.24374     1734.729    96509.859   -31768.306    1769.7688   -33538.075    13.047119   0.97793729 
   30200    189.63929    1641.4063    96509.859   -31768.558     1782.889   -33551.447    13.141392   0.97793729 
   30300    186.02123    1501.1005    96509.859   -31768.363    1748.8739   -33517.237    13.218669   0.97793729 
   30400    188.42085    1403.7683    96509.859   -31768.527    1771.4339   -33539.961    13.231315   0.97793729 
   30500    187.28345    1346.1089    96509.859    -31768.51    1760.7407   -33529.251    13.296274   0.97793729 
   30600    190.68589    1542.1807    96509.859   -31768.456    1792.7286   -33561.185    13.297128   0.97793729 
   30700    187.10748     1538.961    96509.859   -31768.527    1759.0862   -33527.613    13.181525   0.97793729 
   30800    189.70827    1608.8058    96509.859   -31768.751    1783.5376   -33552.288     13.34347   0.97793729 
   30900    189.49785    1607.5174    96509.859   -31768.484    1781.5593   -33550.043    13.388209   0.97793729 
   31000    188.63423    1778.6025    96509.859   -31768.293      1773.44   -33541.733    13.409266   0.97793729 
   31100    192.55873    1550.9408    96509.859   -31768.676    1810.3361   -33579.012    13.436682   0.97793729 
   31200    188.82072    1561.4528    96509.859   -31768.638    1775.1933   -33543.831    13.310828   0.97793729 
   31300    187.67291    1471.6812    96509.859   -31768.612    1764.4022   -33533.014    13.344142   0.97793729 
   31400    186.16096     1592.924    96509.859   -31768.308    1750.1876   -33518.496    13.475856   0.97793729 
   31500    188.40035    1386.6218    96509.859   -31768.744    1771.2411   -33539.986    13.573828   0.97793729 
   31600    186.96879     1470.864    96509.859   -31768.398    1757.7823    -33526.18    13.681728   0.97793729 
   31700    186.78973    1488.1696    96509.859   -31768.449    1756.0989   -33524.548    13.601647   0.97793729 
   31800    192.50134    1558.8615    96509.859   -31768.741    1809.7965   -33578.538    13.602666   0.97793729 
   31900    189.44596    1505.0054    96509.859   -31768.334    1781.0714   -33549.405    13.684402   0.97793729 
   32000    188.65152    1576.0966    96509.859   -31768.566    1773.6025   -33542.169     13.65259   0.97793729 
   32100    186.47644    1685.8493    96509.859   -31768.528    1753.1536   -33521.682    13.675243   0.97793729 
   32200    189.43183    1677.8036    96509.859   -31768.552    1780.9386   -33549.491    13.734963   0.97793729 
   32300    192.23763    1682.4452    96509.859   -31768.531    1807.3173   -33575.848    13.923288   0.97793729 
   32400     191.2531    1547.4279    96509.859   -31768.553    1798.0612   -33566.614    13.936415   0.97793729 
   32500    188.07775    1891.6161    96509.859   -31768.686    1768.2082   -33536.894    13.927497   0.97793729 
   32600    188.28806    1578.2642    96509.859   -31768.518    1770.1855   -33538.704    14.051527   0.97793729 
   32700    188.13532    1709.4774    96509.859   -31768.552    1768.7495   -33537.302    14.038629   0.97793729 
   32800    186.76756    1673.4323    96509.859   -31768.458    1755.8905   -33524.348    14.010278   0.97793729 
   32900    186.76519    1268.0073    96509.859   -31768.483    1755.8683   -33524.351    14.101086   0.97793729 
   33000    186.66744    1640.1145    96509.859   -31768.201    1754.9493    -33523.15    14.082173   0.97793729 
   33100    189.23528    1811.2814    96509.859   -31768.396    1779.0907   -33547.486    14.086629   0.97793729 
   33200    187.90436    1645.2061    96509.859   -31768.588    1766.5781   -33535.166    14.216939   0.97793729 
   33300     188.0458    1943.5001    96509.859   -31768.282    1767.9078    -33536.19     14.18615   0.97793729 
   33400    188.57082    1734.4246    96509.859   -31768.524    1772.8438   -33541.367    14.301205   0.97793729 
   33500     189.3246    2068.4885    96509.859   -31768.763    1779.9305   -33548.693    14.297476   0.97793729 
   33600    186.27658    1970.8656    96509.859   -31768.544    1751.2746   -33519.819    14.385274   0.97793729 
   33700    191.23789    1813.2864    96509.859   -31768.699    1797.9182   -33566.617    14.327824   0.97793729 
   33800    186.24415    1798.7152    96509.859   -31768.391    1750.9697    -33519.36    14.365208   0.97793729 
   33900    188.69016    1815.5653    96509.859   -31768.372    1773.9658   -33542.338    14.411343   0.97793729 
   34000    189.71238    1774.6236    96509.859   -31768.591    1783.5761   -33552.167    14.422769   0.97793729 
   34100    190.51909    1673.8656    96509.859     -31768.6    1791.1605   -33559.761    14.421269   0.97793729 
   34200    186.38657    1299.0076    96509.859   -31768.187    1752.3087   -33520.496     14.44856   0.97793729 
   34300    185.85314    1547.7423    96509.859   -31768.493    1747.2937   -33515.786    14.474276   0.97793729 
   34400    191.62827    1594.0694    96509.859   -31768.656    1801.5884   -33570.245    14.472187   0.97793729 
   34500    189.14845    1751.9993    96509.859   -31768.694    1778.2744   -33546.969    14.423242   0.97793729 
   34600    189.64097    1564.8415    96509.859   -31768.524    1782.9048   -33551.429    14.449705   0.97793729 
   34700    187.63618    1335.0177    96509.859   -31768.555    1764.0568   -33532.612    14.395965   0.97793729 
   34800    188.67425    1776.7767    96509.859   -31768.546    1773.8162   -33542.363    14.608196   0.97793729 
   34900    192.67826    1474.4702    96509.859   -31768.725    1811.4598   -33580.185    14.674036   0.97793729 
   35000    191.95961    1575.2689    96509.859   -31768.964    1804.7035   -33573.668    14.595721   0.97793729 
   35100      191.525     1674.197    96509.859   -31768.794    1800.6175   -33569.411    14.578106   0.97793729 
   35200    191.59084      1536.88    96509.859    -31768.73    1801.2364   -33569.967    14.609063   0.97793729 
   35300    193.33219    1779.1543    96509.859    -31768.89    1817.6077   -33586.498    14.633607   0.97793729 
   35400    188.76797    1456.0852    96509.859   -31768.508    1774.6973   -33543.206    14.702305   0.97793729 
   35500    192.73885    1703.3818    96509.859   -31768.705    1812.0294   -33580.735    14.568307   0.97793729 
   35600    190.72131    1426.1708    96509.859   -31768.788    1793.0617    -33561.85    14.627104   0.97793729 
   35700    188.90384    1801.5495    96509.859   -31768.546    1775.9747   -33544.521    14.547903   0.97793729 
   35800    195.55571     1787.039    96509.859    -31768.94    1838.5121   -33607.453    14.645061   0.97793729 
   35900    193.01011    1658.8616    96509.859   -31768.577    1814.5797   -33583.157    14.727616   0.97793729 
   36000    192.98745    1899.3739    96509.859   -31768.689    1814.3666   -33583.055    14.711762   0.97793729 
   36100    190.70889    1507.4542    96509.859   -31768.622    1792.9448   -33561.567    14.769393   0.97793729 
   36200    193.67236    1952.1348    96509.859   -31768.846    1820.8059   -33589.652    14.760986   0.97793729 
   36300    193.13777    1917.6976    96509.859   -31768.728    1815.7799   -33584.508    14.750443   0.97793729 
   36400    192.94443    1617.1311    96509.859   -31768.821    1813.9622   -33582.784    14.756152   0.97793729 
   36500    190.45707    1588.0076    96509.859   -31768.718    1790.5773   -33559.295    15.024339   0.97793729 
   36600    192.46284    1679.2604    96509.859   -31768.908    1809.4345   -33578.342    15.089332   0.97793729 
   36700    187.27354    1725.5288    96509.859   -31768.579    1760.6475   -33529.226    14.933568   0.97793729 
   36800      189.533    1742.0414    96509.859   -31768.549    1781.8897   -33550.438    14.848838   0.97793729 
   36900    187.21144    1765.9424    96509.859   -31768.583    1760.0637   -33528.647    14.948945   0.97793729 
   37000    195.02265    1705.1567    96509.859   -31768.897    1833.5006   -33602.398    14.895971   0.97793729 
   37100    190.37473    1437.2793    96509.859   -31768.641    1789.8032   -33558.444    14.949283   0.97793729 
   37200    195.16018     1532.255    96509.859   -31768.807    1834.7935     -33603.6    15.010273   0.97793729 
   37300     189.3197    1652.4936    96509.859   -31768.687    1779.8844   -33548.572    15.103685   0.97793729 
   37400    191.60643    1637.4109    96509.859   -31768.713    1801.3831   -33570.096    15.290167   0.97793729 
   37500    190.22247    1801.5713    96509.859   -31768.315    1788.3718   -33556.686     15.15575   0.97793729 
   37600    193.03238    1670.2901    96509.859   -31768.739     1814.789   -33583.528    15.135627   0.97793729 
   37700    187.92891    1622.0973    96509.859   -31768.457     1766.809   -33535.266    15.183285   0.97793729 
   37800    191.05396    1571.2737    96509.859   -31768.567     1796.189   -33564.756    15.310018   0.97793729 
   37900     192.8815    1606.3451    96509.859   -31768.632    1813.3706   -33582.003    15.445731   0.97793729 
   38000     192.8711    1624.2342    96509.859   -31768.852    1813.2728   -33582.125      15.3793   0.97793729 
   38100    193.01068    1761.1443    96509.859   -31768.853    1814.5851   -33583.438    15.390556   0.97793729 
   38200    190.13478    1696.2086    96509.859    -31768.68    1787.5474   -33556.227    15.598097   0.97793729 
   38300    190.88723    1829.5285    96509.859   -31768.622    1794.6215   -33563.243     15.56258   0.97793729 
   38400    187.69318    1722.9279    96509.859   -31768.492    1764.5927   -33533.085    15.536668   0.97793729 
   38500    191.37735     1565.847    96509.859    -31768.69    1799.2294   -33567.919    15.574032   0.97793729 
   38600    189.79273      1638.35    96509.859   -31768.633    1784.3316   -33552.965    15.437533   0.97793729 
   38700    190.35852    1543.6466    96509.859   -31768.739    1789.6508    -33558.39    15.340152   0.97793729 
   38800    191.11932    1791.3947    96509.859   -31768.572    1796.8035   -33565.376    15.559897   0.97793729 
   38900    190.69548    1721.9588    96509.859   -31768.584    1792.8187   -33561.402    15.662331   0.97793729 
   39000    191.66106    1920.8128    96509.859   -31768.911    1801.8967   -33570.807    15.724531   0.97793729 
   39100     187.0358    2065.4339    96509.859   -31768.259    1758.4124   -33526.672    15.700959   0.97793729 
   39200    187.30161    1444.8421    96509.859   -31768.402    1760.9114   -33529.313    15.647131   0.97793729 
   39300    190.13023    1662.6019    96509.859   -31768.577    1787.5046   -33556.081    15.492434   0.97793729 
   39400    190.97426    1590.2698    96509.859   -31768.648    1795.4397   -33564.087    15.670399   0.97793729 
   39500    191.15602    1372.6581    96509.859   -31768.609    1797.1485   -33565.758    15.695472   0.97793729 
   39600    194.29374       1701.6    96509.859   -31768.728    1826.6477   -33595.375    15.802091   0.97793729 
   39700    191.09754    1802.6299    96509.859   -31768.744    1796.5987   -33565.343    15.886682   0.97793729 
   39800    191.83988    1917.1035    96509.859   -31768.711    1803.5778   -33572.289    15.689775   0.97793729 
   39900    189.30159    1544.6267    96509.859   -31768.297    1779.7141   -33548.011    15.767612   0.97793729 
   40000     188.2567    1234.0117    96509.859   -31768.399    1769.8906    -33538.29    15.891723   0.97793729 
   40100    191.42379    1525.6832    96509.859   -31768.589    1799.6659   -33568.255    15.825203   0.97793729 
   40200    192.62135    1491.8735    96509.859   -31768.761    1810.9247   -33579.686    15.961766   0.97793729 
   40300    189.80076    1765.5566    96509.859   -31768.548    1784.4071   -33552.955    15.933281   0.97793729 
   40400     195.5028    1852.1469    96509.859   -31769.068    1838.0147   -33607.083    15.882588   0.97793729 
   40500    190.90308    2014.7665    96509.859   -31768.431    1794.7705   -33563.202    15.836483   0.97793729 
   40600    189.02118    1689.3933    96509.859   -31768.633    1777.0779   -33545.711    15.992826   0.97793729 
   40700    187.46808    1672.7309    96509.859   -31768.408    1762.4764   -33530.884    16.112674   0.97793729 
   40800    188.64389    1409.8936    96509.859   -31768.748    1773.5308   -33542.279    16.207987   0.97793729 
   40900    192.11461    1480.8579    96509.859   -31768.729    1806.1607    -33574.89    16.146994   0.97793729 
   41000     188.8785    1533.4103    96509.859   -31768.466    1775.7365   -33544.203    16.353131   0.97793729 
   41100    194.73445    1642.4792    96509.859   -31769.092     1830.791   -33599.883    16.362747   0.97793729 
   41200     192.5412     1762.191    96509.859   -31768.729    1810.1713     -33578.9    16.377818   0.97793729 
   41300    191.01866    1583.9585    96509.859   -31768.526    1795.8571   -33564.383    16.444545   0.97793729 
   41400    190.12631    1374.1025    96509.859   -31768.626    1787.4677   -33556.094    16.469173   0.97793729 
   41500    189.68531    1625.1991    96509.859   -31768.331    1783.3217   -33551.653    16.619969   0.97793729 
   41600    191.55257    1801.7146    96509.859    -31768.52    1800.8767   -33569.396    16.657279   0.97793729 
   41700    189.43728    1645.2697    96509.859   -31768.558    1780.9899   -33549.548    16.545906   0.97793729 
   41800    196.62694    1812.6676    96509.859   -31768.908    1848.5833   -33617.491    16.587017   0.97793729 
   41900    192.01738    1828.4695    96509.859   -31768.584    1805.2466   -33573.831    16.673802   0.97793729 
   42000    194.64969    1874.1006    96509.859   -31768.767    1829.9942   -33598.761    16.803618   0.97793729 
   42100    192.50537    1754.1585    96509.859   -31768.724    1809.8344   -33578.559    16.817541   0.97793729 
   42200    186.84574    1711.0674    96509.859   -31768.477    1756.6256   -33525.103    16.755828   0.97793729 
   42300    189.60806     1647.686    96509.859   -31768.602    1782.5954   -33551.198     16.88991   0.97793729 
   42400    192.30261    1602.0534    96509.859   -31768.694    1807.9282   -33576.622    16.984617   0.97793729 
   42500    190.41806    1559.7984    96509.859   -31768.478    1790.2106   -33558.688    17.014035   0.97793729 
   42600    193.72827    1559.8575    96509.859   -31768.758    1821.3315   -33590.089    17.134337   0.97793729 
   42700    194.93986    1472.1667    96509.859   -31768.696    1832.7222   -33601.419     16.99383   0.97793729 
   42800     191.3818    1471.8178    96509.859   -31768.539    1799.2712    -33567.81    16.851487   0.97793729 
   42900    186.04844    1556.7681    96509.859   -31768.496    1749.1298   -33517.626    16.891788   0.97793729 
   43000    190.83494    1546.6917    96509.859   -31768.488    1794.1299   -33562.618    17.006668   0.97793729 
   43100    193.59739    1792.9042    96509.859   -31768.808     1820.101   -33588.909    17.023623   0.97793729 
   43200    193.66063    1595.5499    96509.859   -31768.663    1820.6955   -33589.358    17.031154   0.97793729 
   43300    191.67542    1740.6186    96509.859    -31768.63    1802.0316   -33570.662    17.001584   0.97793729 
   43400    191.15944    1698.0757    96509.859   -31768.482    1797.1806   -33565.663    17.038548   0.97793729 
   43500    188.87677    1465.5802    96509.859   -31768.244    1775.7202   -33543.964    17.066487   0.97793729 
   43600    193.53971     1717.325    96509.859   -31768.456    1819.5587   -33588.015    17.163061   0.97793729 
   43700    187.46939    1731.7968    96509.859   -31768.324    1762.4888   -33530.813    17.121586   0.97793729 
   43800    192.15992    1543.2252    96509.859   -31768.472    1806.5867   -33575.059    17.146123   0.97793729 
   43900    189.43479    1582.0827    96509.859   -31768.549    1780.9664   -33549.516    17.217102   0.97793729 
   44000    188.91314    1816.7037    96509.859   -31768.487    1776.0621   -33544.549    17.199045   0.97793729 
   44100     189.9868    1639.9227    96509.859   -31768.532    1786.1562   -33554.688    17.256079   0.97793729 
   44200     190.7592    1553.8234    96509.859   -31768.266    1793.4178   -33561.684    17.439241   0.97793729 
   44300    192.78953     1771.626    96509.859   -31768.657     1812.506   -33581.163     17.40888   0.97793729 
   44400    192.21597     1501.407    96509.859    -31768.76    1807.1136   -33575.874    17.312579   0.97793729 
   44500    191.87921    1458.1489    96509.859   -31768.659    1803.9475   -33572.606    17.418624   0.97793729 
   44600    190.40287    1498.1923    96509.859   -31768.715    1790.0678   -33558.783    17.405264   0.97793729 
   44700    195.01177    1692.5699    96509.859   -31768.828    1833.3983   -33602.226    17.365171   0.97793729 
   44800    191.59231    1563.5067    96509.859   -31768.714    1801.2503   -33569.964    17.378182   0.97793729 
   44900    194.56433    1636.8037    96509.859   -31768.971    1829.1917   -33598.163     17.42393   0.97793729 
   45000    191.04496     1528.791    96509.859     -31768.4    1796.1044   -33564.504    17.414284   0.97793729 
   45100    190.65192    1483.5439    96509.859   -31768.708    1792.4093   -33561.117    17.713033   0.97793729 
   45200    189.73253    1598.6731    96509.859   -31768.639    1783.7656   -33552.405    17.797933   0.97793729 
   45300    190.94931    1791.5127    96509.859   -31768.634    1795.2051   -33563.839    17.871261   0.97793729 
   45400    187.52794    1540.4755    96509.859   -31768.294    1763.0392   -33531.333    17.862773   0.97793729 
   45500    193.63404    1595.8139    96509.859   -31768.724    1820.4455   -33589.169    17.757631   0.97793729 
   45600    188.51991    1482.2657    96509.859   -31768.514    1772.3652    -33540.88    17.824865   0.97793729 
   45700    189.42586     1921.753    96509.859   -31768.422    1780.8824   -33549.304    17.888333   0.97793729 
   45800    190.76014    1771.4561    96509.859    -31768.42    1793.4267   -33561.847    17.913361   0.97793729 
   45900    188.51103    1611.7248    96509.859   -31768.264    1772.2817   -33540.545    17.969402   0.97793729 
   46000    190.80397    1748.6644    96509.859   -31768.528    1793.8387   -33562.367     17.97623   0.97793729 
   46100    192.06352    1729.4528    96509.859   -31768.447    1805.6804   -33574.128    17.936154   0.97793729 
   46200    188.71988    1810.2818    96509.859   -31768.669    1774.2452   -33542.914     18.02803   0.97793729 
   46300    192.37461    1872.3704    96509.859   -31768.729    1808.6051   -33577.335    17.958028   0.97793729 
   46400     193.5375    2152.9219    96509.859   -31768.818    1819.5379   -33588.356    17.905561   0.97793729 
   46500    187.63248    1808.2375    96509.859   -31768.422    1764.0221   -33532.444    18.017789   0.97793729 
   46600    193.05435    1862.5912    96509.859   -31768.815    1814.9956    -33583.81    18.024022   0.97793729 
   46700    189.91003    1720.8503    96509.859   -31768.461    1785.4344   -33553.895    18.195442   0.97793729 
   46800    193.92082    1576.9558    96509.859   -31768.732    1823.1417   -33591.874    18.133082   0.97793729 
   46900    194.06307    1703.1387    96509.859   -31768.635    1824.4791   -33593.114    18.025334   0.97793729 
   47000    193.71557    1680.4773    96509.859   -31768.947    1821.2121   -33590.159    18.201927   0.97793729 
   47100    195.52057    1742.3791    96509.859    -31768.95    1838.1817   -33607.132      18.4084   0.97793729 
   47200    191.45323    1890.4249    96509.859   -31768.711    1799.9428   -33568.653    18.325047   0.97793729 
   47300    192.82242    1579.7586    96509.859   -31768.725    1812.8151    -33581.54    18.420589   0.97793729 
   47400    192.60764    1692.1753    96509.859   -31768.768    1810.7959   -33579.564     18.43715   0.97793729 
   47500    192.03974     1745.848    96509.859   -31768.675    1805.4568   -33574.132    18.431974   0.97793729 
   47600    191.50542    1783.3916    96509.859   -31768.649    1800.4334   -33569.082    18.385494   0.97793729 
   47700    190.11116    1624.4925    96509.859   -31768.784    1787.3253    -33556.11    18.378767   0.97793729 
   47800    196.13218    1702.9074    96509.859   -31768.844    1843.9317   -33612.776    18.534837   0.97793729 
   47900    190.36527    1733.0142    96509.859   -31768.371    1789.7143   -33558.085    18.765832   0.97793729 
   48000    191.24239    1710.4855    96509.859   -31768.642    1797.9605   -33566.603    18.746154   0.97793729 
   48100    193.14793    1766.1061    96509.859   -31768.653    1815.8754   -33584.529    18.686741   0.97793729 
   48200    190.75084    1571.8761    96509.859   -31768.508    1793.3392   -33561.847     18.76224   0.97793729 
   48300    193.27799    2008.5918    96509.859     -31768.6    1817.0982   -33585.699    18.511471   0.97793729 
   48400    193.25539    1662.1791    96509.859   -31768.606    1816.8857   -33585.492    18.635414   0.97793729 
   48500    194.28955    1758.0938    96509.859   -31768.795    1826.6083   -33595.403    18.809051   0.97793729 
   48600    195.49622    1621.6455    96509.859   -31768.684    1837.9528   -33606.636    18.862628   0.97793729 
   48700    194.59342    1835.6478    96509.859    -31768.57    1829.4652   -33598.035    18.854491   0.97793729 
   48800    191.31638     1805.938    96509.859   -31768.703    1798.6561   -33567.359    18.875673   0.97793729 
   48900      196.581    1687.4017    96509.859   -31768.857    1848.1514   -33617.008    18.753781   0.97793729 
   49000    192.59786     1696.429    96509.859   -31768.394    1810.7039   -33579.098    18.838476   0.97793729 
   49100    195.20613    1794.2709    96509.859   -31768.662    1835.2256   -33603.888     18.79553   0.97793729 
   49200    194.80676    1758.9791    96509.859   -31768.646    1831.4709   -33600.117    18.944873   0.97793729 
   49300    195.34102    1870.0783    96509.859   -31768.725    1836.4937   -33605.219    18.958943   0.97793729 
   49400    192.19677    1711.9775    96509.859   -31768.543    1806.9331   -33575.477    18.876032   0.97793729 
   49500    194.53768    1731.7099    96509.859   -31768.491    1828.9411   -33597.432    19.015038   0.97793729 
   49600    195.41391    1686.8151    96509.859   -31768.852     1837.179   -33606.031    18.896681   0.97793729 
   49700    191.10583    1779.0326    96509.859   -31768.611    1796.6766   -33565.288    18.934568   0.97793729 
   49800    194.89302    2033.5876    96509.859   -31768.594    1832.2819   -33600.876    19.114228   0.97793729 
   49900    189.36489    2149.0216    96509.859   -31768.399    1780.3093   -33548.708    19.171549   0.97793729 
   50000    195.78247    1817.9234    96509.859   -31768.872     1840.644   -33609.516    19.208388   0.97793729 
   50100    193.12236    1659.4659    96509.859    -31768.66     1815.635   -33584.295    19.213165   0.97793729 
   50200    193.08706    1751.9642    96509.859   -31768.781    1815.3031   -33584.084     19.30868   0.97793729 
   50300    189.53233    1744.6283    96509.859   -31768.471    1781.8835   -33550.354    19.214844   0.97793729 
   50400    194.75866    1592.0657    96509.859   -31768.875    1831.0187   -33599.894    19.236319   0.97793729 
   50500    196.44992    1727.4629    96509.859   -31768.722    1846.9189   -33615.641    19.260839   0.97793729 
   50600    192.05478    1537.2661    96509.859   -31768.547    1805.5982   -33574.145    19.151693   0.97793729 
   50700    190.57528    1472.0922    96509.859   -31768.704    1791.6887   -33560.392    19.283487   0.97793729 
   50800    193.49886    1835.3236    96509.859   -31768.782    1819.1747   -33587.957    19.342517   0.97793729 
   50900    188.84977    1688.4432    96509.859   -31768.307    1775.4664   -33543.773    19.451667   0.97793729 
   51000    188.35718    1670.7255    96509.859   -31768.544    1770.8353   -33539.379     19.46281   0.97793729 
   51100    187.04678    1495.9999    96509.859   -31768.237    1758.5156   -33526.753     19.64266   0.97793729 
   51200    194.45614    1685.8194    96509.859   -31768.866    1828.1745   -33597.041    19.653555   0.97793729 
   51300    191.78356    1916.7085    96509.859   -31768.717    1803.0484   -33571.765     19.59651   0.97793729 
   51400    189.61245    1786.0805    96509.859   -31768.612    1782.6367   -33551.248    19.687482   0.97793729 
   51500    190.56534    1828.8959    96509.859   -31768.527    1791.5952   -33560.122    19.749852   0.97793729 
   51600    189.04792    1646.6565    96509.859   -31768.537    1777.3293   -33545.866    19.716993   0.97793729 
   51700    193.01559     1664.306    96509.859   -31768.826    1814.6313   -33583.457    19.919595   0.97793729 
   51800    191.63472    2088.3853    96509.859   -31768.738     1801.649   -33570.387    19.838011   0.97793729 
   51900    192.27442    1824.9901    96509.859   -31768.739    1807.6631   -33576.402    19.855402   0.97793729 
   52000    191.10629    1908.5912    96509.859    -31768.61     1796.681   -33565.291     19.93423   0.97793729 
   52100    193.39195    2086.1908    96509.859   -31768.724    1818.1696   -33586.893    19.997364   0.97793729 
   52200    192.84861    1652.0031    96509.859   -31768.695    1813.0614   -33581.756    19.924798   0.97793729 
   52300    194.81157    1630.6963    96509.859   -31768.958     1831.516   -33600.474    20.066925   0.97793729 
   52400    192.37451    1553.8601    96509.859   -31768.856    1808.6042    -33577.46    19.996077   0.97793729 
   52500    193.20676    1939.2878    96509.859   -31768.813    1816.4285   -33585.242    20.050341   0.97793729 
   52600    190.56576    1814.0707    96509.859   -31768.511    1791.5993    -33560.11    20.073698   0.97793729 
   52700    190.39364    1837.6539    96509.859   -31768.719     1789.981     -33558.7    20.168849   0.97793729 
   52800    189.69758    1537.1384    96509.859   -31768.726     1783.437   -33552.164    20.313002   0.97793729 
   52900    186.59081    1499.7541    96509.859   -31768.425    1754.2288   -33522.654     20.21347   0.97793729 
   53000    189.56981    1814.4668    96509.859   -31768.662    1782.2358   -33550.898    20.283626   0.97793729 
   53100    190.53256    1488.4362    96509.859   -31768.772    1791.2871   -33560.059    20.261655   0.97793729 
   53200    187.45624    1892.5415    96509.859   -31768.596    1762.3651   -33530.961     20.40905   0.97793729 
   53300    189.69242    1550.1257    96509.859   -31768.623    1783.3885   -33552.012    20.404059   0.97793729 
   53400    193.23636     1558.074    96509.859   -31768.829    1816.7068   -33585.536    20.330797   0.97793729 
   53500    189.95481    1215.9277    96509.859   -31768.737    1785.8554   -33554.593    20.406854   0.97793729 
   53600    193.48897    1358.3279    96509.859   -31768.934    1819.0817   -33588.016    20.356111   0.97793729 
   53700    192.68636    1455.4961    96509.859   -31768.846     1811.536   -33580.382    20.462037   0.97793729 
   53800    190.40135    1570.7547    96509.859   -31768.651    1790.0535   -33558.704    20.606073   0.97793729 
   53900    191.42954     1444.694    96509.859   -31768.669    1799.7201   -33568.389    20.551334   0.97793729 
   54000    189.86879    1417.1138    96509.859   -31768.528    1785.0467   -33553.575    20.538629   0.97793729 
   54100    187.62919     1412.601    96509.859   -31768.334    1763.9911   -33532.325    20.799526   0.97793729 
   54200    189.92267    1644.6011    96509.859   -31768.484    1785.5532   -33554.037    20.849013   0.97793729 
   54300      192.089    1436.0951    96509.859    -31768.73    1805.9199    -33574.65    20.810768   0.97793729 
   54400    189.88093    1447.3973    96509.859   -31768.584    1785.1608   -33553.745    20.712859   0.97793729 
   54500    186.58583     1641.401    96509.859   -31768.421     1754.182   -33522.603    20.930337   0.97793729 
   54600    190.11334    1504.3343    96509.859   -31768.659    1787.3458   -33556.005    20.993047   0.97793729 
   54700    192.86226    1531.1282    96509.859   -31768.668    1813.1897   -33581.858    21.006976   0.97793729 
   54800    187.92885    1557.8741    96509.859   -31768.482    1766.8084    -33535.29    21.229925   0.97793729 
   54900    187.99005    1392.6508    96509.859   -31768.484    1767.3837   -33535.867    21.199671   0.97793729 
   55000     192.4251    1544.6573    96509.859   -31768.842    1809.0797   -33577.922    21.208699   0.97793729 
   55100    187.53819     1357.319    96509.859   -31768.457    1763.1356   -33531.592    21.193762   0.97793729 
   55200    189.69663    1620.6852    96509.859   -31768.605    1783.4281   -33552.033    21.173481   0.97793729 
   55300    187.48141    1724.1754    96509.859   -31768.482    1762.6018   -33531.083    21.270414   0.97793729 
   55400    188.59655    1749.5724    96509.859   -31768.687    1773.0857   -33541.772    21.281246   0.97793729 
   55500    191.63581    1629.1463    96509.859     -31768.9    1801.6592   -33570.559    21.390909   0.97793729 
   55600     189.6721    1772.4265    96509.859   -31768.761    1783.1975   -33551.958    21.440766   0.97793729 
   55700    189.35266    1772.1092    96509.859   -31768.721    1780.1942   -33548.916    21.408962   0.97793729 
   55800    187.43534    1792.0631    96509.859   -31768.517    1762.1686   -33530.685    21.469041   0.97793729 
   55900    189.51739    1617.2535    96509.859   -31768.709     1781.743   -33550.452    21.508414   0.97793729 
   56000    191.45222    1752.5765    96509.859   -31768.675    1799.9332   -33568.608    21.616383   0.97793729 
   56100    194.61685    1853.4199    96509.859   -31768.557    1829.6854   -33598.242    21.643478   0.97793729 
   56200     187.8292    1653.9673    96509.859   -31768.378    1765.8715   -33534.249    21.514205   0.97793729 
   56300    190.95591    1704.5952    96509.859   -31768.765    1795.2672   -33564.032    21.589163   0.97793729 
   56400    190.74994     1963.011    96509.859   -31768.695    1793.3308   -33562.026    21.530096   0.97793729 
   56500    189.42409    1990.6823    96509.859   -31768.683    1780.8658   -33549.549    21.617112   0.97793729 
   56600    189.10235    1566.9965    96509.859   -31768.331     1777.841   -33546.172    21.647775   0.97793729 
   56700     190.9905     1613.266    96509.859   -31768.418    1795.5924   -33564.011    21.685217   0.97793729 
   56800    193.45303     1734.883    96509.859   -31768.804    1818.7438   -33587.548     21.74457   0.97793729 
   56900    189.84331     1915.388    96509.859   -31768.512    1784.8071   -33553.319    21.644002   0.97793729 
   57000    189.41169    1636.4284    96509.859   -31768.404    1780.7493   -33549.154    21.581416   0.97793729 
   57100    188.98468    1502.2577    96509.859   -31768.538    1776.7347   -33545.273    21.549755   0.97793729 
   57200    189.54368    1717.6525    96509.859   -31768.389    1781.9902   -33550.379    21.661537   0.97793729 
   57300     186.9752     1502.954    96509.859   -31768.556    1757.8426   -33526.399    21.642235   0.97793729 
   57400    193.61636    1498.1548    96509.859   -31768.815    1820.2794   -33589.094    21.704812   0.97793729 
   57500    190.11207     1564.575    96509.859   -31768.496    1787.3339    -33555.83    21.792293   0.97793729 
   57600    193.25881    1581.1544    96509.859   -31768.594    1816.9178   -33585.512    21.915931   0.97793729 
   57700    195.33062    1630.8042    96509.859   -31768.605    1836.3959   -33605.001    21.841941   0.97793729 
   57800    190.32531    1724.6652    96509.859   -31768.481    1789.3387    -33557.82    21.787876   0.97793729 
   57900     192.2278    1776.2186    96509.859   -31768.673    1807.2249   -33575.898    21.841725   0.97793729 
   58000    196.31003    1626.3352    96509.859   -31768.837    1845.6038    -33614.44    21.769386   0.97793729 
   58100    194.26525    1598.1899    96509.859    -31768.73    1826.3799    -33595.11    21.886343   0.97793729 
   58200     189.7466    1751.2625    96509.859   -31768.551    1783.8979   -33552.449    21.953924   0.97793729 
   58300    193.61885    1780.9055    96509.859   -31768.791    1820.3027   -33589.094    22.073111   0.97793729 
   58400    190.82731    1661.1388    96509.859   -31768.659    1794.0582   -33562.717    22.142091   0.97793729 
   58500    188.72031     1641.632    96509.859   -31768.554    1774.2492   -33542.803    21.856692   0.97793729 
   58600    191.83048    1521.2731    96509.859   -31768.781    1803.4894    -33572.27    22.012112   0.97793729 
   58700    189.51713    1574.9123    96509.859   -31768.293    1781.7406   -33550.034    22.031098   0.97793729 
   58800    192.15991    1400.0096    96509.859   -31768.597    1806.5865   -33575.184    22.056895   0.97793729 
   58900    193.64146    1430.0052    96509.859    -31768.68    1820.5153   -33589.195    22.126176   0.97793729 
   59000    192.92348    1347.5373    96509.859   -31768.825    1813.7653    -33582.59     22.03721   0.97793729 
   59100    195.24415    1482.8275    96509.859   -31768.737    1835.5829    -33604.32    22.130685   0.97793729 
   59200    194.56205    1306.1147    96509.859   -31768.862    1829.1702   -33598.032    22.072945   0.97793729 
   59300    187.73417    1508.1973    96509.859   -31768.552    1764.9781    -33533.53    22.113867   0.97793729 
   59400    190.38141    1358.6704    96509.859   -31768.674    1789.8661    -33558.54    22.358776   0.97793729 
   59500    191.89695    1468.1472    96509.859   -31768.619    1804.1144   -33572.733    22.362454   0.97793729 
   59600    188.84531    1375.3493    96509.859   -31768.527    1775.4244   -33543.951      22.4229   0.97793729 
   59700    190.62463    1576.1267    96509.859   -31768.492    1792.1527   -33560.645    22.632205   0.97793729 
   59800     190.4824    1354.1983    96509.859   -31768.666    1790.8155   -33559.482    22.544634   0.97793729 
   59900    189.50212    1561.3606    96509.859   -31768.534    1781.5995   -33550.133    22.442889   0.97793729 
   60000    188.68715    1776.1986    96509.859   -31768.529    1773.9375   -33542.467    22.435973   0.97793729 
   60100    187.05685    1645.9925    96509.859   -31768.323    1758.6103   -33526.934    22.411623   0.97793729 
   60200    189.13755    1660.5636    96509.859   -31768.437    1778.1719   -33546.609    22.607439   0.97793729 
   60300      191.553    1331.8205    96509.859   -31768.599    1800.8807    -33569.48    22.760974   0.97793729 
   60400    193.62075    1669.7571    96509.859   -31768.588    1820.3206   -33588.909    22.799496   0.97793729 
   60500    189.33062     1491.647    96509.859   -31768.416    1779.9871   -33548.403    22.767885   0.97793729 
   60600    191.11444     1594.098    96509.859   -31768.586    1796.7576   -33565.343    22.780483   0.97793729 
   60700    189.66419    1618.4697    96509.859    -31768.61    1783.1232   -33551.734    22.945782   0.97793729 
   60800    190.79469    1519.7101    96509.859   -31768.702    1793.7515   -33562.454    23.186332   0.97793729 
   60900    186.42472    1768.8308    96509.859   -31768.237    1752.6673   -33520.905    23.115972   0.97793729 
   61000    193.19089    1859.4514    96509.859   -31768.786    1816.2793   -33585.066    23.215994   0.97793729 
   61100    189.61417    1665.1203    96509.859   -31768.226    1782.6529   -33550.878    23.082189   0.97793729 
   61200    187.86994    1834.7648    96509.859   -31768.581    1766.2545   -33534.836    23.055532   0.97793729 
   61300    193.43884    1887.7014    96509.859   -31768.581    1818.6104   -33587.192     23.00413   0.97793729 
   61400    190.30153    1695.9077    96509.859    -31768.63    1789.1151   -33557.745    23.238587   0.97793729 
   61500      191.846    1619.4223    96509.859   -31768.611    1803.6353   -33572.247    23.499357   0.97793729 
   61600    187.27492    1740.5177    96509.859   -31768.408    1760.6604   -33529.068    23.347414   0.97793729 
   61700    189.09481    1729.6829    96509.859   -31768.453    1777.7701   -33546.223    23.507466   0.97793729 
   61800    191.19504    1847.9059    96509.859   -31768.566    1797.5153   -33566.081    23.478075   0.97793729 
   61900    196.48905    1686.3751    96509.859   -31768.831    1847.2869   -33616.118     23.29351   0.97793729 
   62000    192.53996    1905.6765    96509.859   -31768.804    1810.1596   -33578.964    23.309553   0.97793729 
   62100    191.35184    1969.5512    96509.859   -31768.569    1798.9895   -33567.559    23.283344   0.97793729 
   62200    189.52683    2021.7711    96509.859   -31768.612    1781.8318   -33550.444    23.403072   0.97793729 
   62300    188.59653    1646.4398    96509.859   -31768.202    1773.0855   -33541.288    23.506618   0.97793729 
   62400    192.86721    1620.7376    96509.859   -31768.573    1813.2362   -33581.809    23.582522   0.97793729 
   62500    190.40966    1572.4422    96509.859   -31768.676    1790.1317   -33558.808    23.454211   0.97793729 
   62600    191.82547    1404.2368    96509.859   -31768.344    1803.4423   -33571.786    23.417986   0.97793729 
   62700    190.42181    1596.0391    96509.859   -31768.628    1790.2459   -33558.874    23.444586   0.97793729 
   62800    190.09646    1732.1941    96509.859   -31768.597    1787.1871   -33555.784    23.578758   0.97793729 
   62900    192.13852    1510.4954    96509.859    -31768.67    1806.3855   -33575.056    23.519743   0.97793729 
   63000      192.514       1673.2    96509.859     -31768.7    1809.9156   -33578.616    23.517335   0.97793729 
   63100     193.8483    1708.4039    96509.859   -31768.823    1822.4599   -33591.283    23.517872   0.97793729 
   63200    189.12677    1738.3039    96509.859   -31768.455    1778.0706   -33546.525    23.386314   0.97793729 
   63300    191.50964    1846.0449    96509.859   -31768.608    1800.4731   -33569.081    23.492845   0.97793729 
   63400    194.42825     2032.741    96509.859   -31768.948    1827.9123    -33596.86    23.535483   0.97793729 
   63500    193.13198    1925.8482    96509.859   -31768.637    1815.7255   -33584.362    23.598233   0.97793729 
   63600    191.78526     1733.994    96509.859   -31768.776    1803.0643    -33571.84    23.639935   0.97793729 
   63700     193.5571     1971.757    96509.859   -31768.671    1819.7222   -33588.393    23.641855   0.97793729 
   63800    188.98777    1656.4744    96509.859   -31768.476    1776.7637    -33545.24    23.685196   0.97793729 
   63900    194.41032    2080.2688    96509.859   -31768.636    1827.7437    -33596.38     23.64755   0.97793729 
   64000    190.81472     1804.876    96509.859   -31768.448    1793.9398   -33562.388    23.836517   0.97793729 
   64100     193.7191    1889.4756    96509.859   -31768.979    1821.2453   -33590.224    23.851368   0.97793729 
   64200    193.70029     1978.523    96509.859   -31768.635    1821.0684   -33589.703    24.044763   0.97793729 
   64300    189.02184    1647.3243    96509.859   -31768.582    1777.0841   -33545.666    23.955872   0.97793729 
   64400    193.06085    1947.6891    96509.859    -31768.72    1815.0568   -33583.777    23.874805   0.97793729 
   64500     195.8997    1966.1316    96509.859   -31768.805    1841.7461   -33610.551    23.968289   0.97793729 
   64600    195.55712    1923.4631    96509.859   -31768.764    1838.5254    -33607.29    24.068991   0.97793729 
   64700    190.13499    2434.0882    96509.859   -31768.468    1787.5494   -33556.017     23.97534   0.97793729 
   64800    192.16229    2111.7842    96509.859   -31768.491    1806.6089     -33575.1    24.043172   0.97793729 
   64900    196.63767    1829.1426    96509.859   -31768.721    1848.6841   -33617.405    24.096188   0.97793729 
   65000    193.29701     1611.328    96509.859   -31768.767     1817.277   -33586.043    24.183969   0.97793729 
   65100    193.99683    1869.4644    96509.859   -31768.795    1823.8563   -33592.651    24.194056   0.97793729 
   65200    189.47219    1926.7324    96509.859   -31768.386     1781.318   -33549.704    24.250975   0.97793729 
   65300    193.00904     1926.142    96509.859   -31768.855    1814.5696   -33583.424     24.32556   0.97793729 
   65400    193.94448       1707.1    96509.859   -31768.683    1823.3642   -33592.047    24.419827   0.97793729 
   65500    194.51926    1780.5176    96509.859   -31768.864    1828.7679   -33597.632    24.443184   0.97793729 
   65600    192.77841    1498.0752    96509.859   -31768.691    1812.4013   -33581.092    24.275608   0.97793729 
   65700    189.46758      1674.54    96509.859    -31768.27    1781.2747   -33549.544    24.365503   0.97793729 
   65800    191.72687    1493.8671    96509.859    -31768.67    1802.5153   -33571.185    24.633201   0.97793729 
   65900    190.49382    1582.5009    96509.859   -31768.673    1790.9228   -33559.596    24.593761   0.97793729 
   66000    189.49922     1495.032    96509.859   -31768.598    1781.5722    -33550.17    24.596561   0.97793729 
   66100    195.05262    1602.2148    96509.859   -31768.919    1833.7823   -33602.701    24.593469   0.97793729 
   66200    189.40245    1474.3145    96509.859    -31768.48    1780.6624   -33549.142    24.491839   0.97793729 
   66300    191.58516    1519.5281    96509.859   -31768.666    1801.1831   -33569.849    24.550891   0.97793729 
   66400    193.39458    1714.9276    96509.859   -31768.575    1818.1943   -33586.769    24.521391   0.97793729 
   66500    194.26968    1820.3613    96509.859   -31768.798    1826.4215    -33595.22     24.48012   0.97793729 
   66600    191.91194    1737.0898    96509.859   -31768.612    1804.2553   -33572.867    24.524664   0.97793729 
   66700    192.29255    1869.6244    96509.859   -31768.361    1807.8336   -33576.195    24.680822   0.97793729 
   66800    194.57029    1933.9109    96509.859   -31768.662    1829.2477    -33597.91     24.70102   0.97793729 
   66900    192.68454    1653.1736    96509.859   -31768.725    1811.5188   -33580.244    24.708459   0.97793729 
   67000    196.03084    1974.9378    96509.859   -31768.926     1842.979   -33611.905    24.805703   0.97793729 
[...]
  284400    237.75135    40.494609    95697.598   -29627.117    2235.2134    -31862.33    788.67023   0.98623782 
  284500    240.60989    240.17565    95697.598    -29627.38    2262.0878   -31889.467    789.53805   0.98623782 
  284600    244.90694    155.22354    95697.598   -29627.395    2302.4865   -31929.881    789.97791   0.98623782 
  284700    242.73853   -174.37461    95697.598   -29627.446    2282.1002   -31909.547    790.93201   0.98623782 
  284800    245.54983   -107.71888    95697.598   -29627.466    2308.5306   -31935.997    790.82752   0.98623782 
  284900    244.68759    -488.6687    95697.598   -29627.609    2300.4242   -31928.033    791.89767   0.98623782 
  285000    246.15281   -262.91064    95697.598   -29627.709    2314.1995   -31941.908    792.27429   0.98623782 
  285100    244.67089    144.30426    95697.598   -29627.255    2300.2672   -31927.522    792.75864   0.98623782 
  285200    239.20353   -242.37058    95697.598   -29627.506     2248.866   -31876.373    792.94593   0.98623782 
  285300    242.15086    18.205406    95697.598   -29627.272    2276.5752   -31903.848    792.99509   0.98623782 
  285400     244.0452   -96.423153    95697.598   -29627.514    2294.3849   -31921.898    794.73887   0.98623782 
  285500    240.11296    63.650224    95697.598   -29627.141     2257.416   -31884.557    794.82839   0.98623782 
  285600     243.5882   -62.489751    95697.598   -29627.324    2290.0884   -31917.412    794.79722   0.98623782 
  285700    242.24223    70.744791    95697.598   -29627.406    2277.4342    -31904.84    794.40486   0.98623782 
  285800    239.14492    -167.7522    95697.598   -29627.378     2248.315   -31875.693    794.37363   0.98623782 
  285900    241.31671   -486.45446    95697.598   -29627.379     2268.733   -31896.112    795.57689   0.98623782 
  286000    236.52428   -313.31368    95697.598   -29627.124    2223.6771   -31850.801    795.41493   0.98623782 
  286100    239.32025    30.769396    95697.598   -29627.353    2249.9633   -31877.317    795.63585   0.98623782 
  286200    243.92247   -364.48208    95697.598   -29627.422     2293.231   -31920.653    797.05094   0.98623782 
  286300    238.48807    8.1627944    95697.598   -29627.296    2242.1396   -31869.435    798.31966   0.98623782 
  286400    238.78855   -124.71319    95697.598   -29627.312    2244.9646   -31872.276     798.7062   0.98623782 
  286500     244.3933   -136.68441    95697.598   -29627.469    2297.6575   -31925.126    799.52131   0.98623782 
  286600    243.88931   -146.91927    95697.598   -29627.471    2292.9192    -31920.39    799.94511   0.98623782 
  286700    246.06587    -179.1721    95697.598   -29627.297    2313.3821    -31940.68      799.834   0.98623782 
  286800     243.2423    -676.1817    95697.598   -29627.386    2286.8364   -31914.222     799.6515   0.98623782 
  286900    240.55769    142.24825    95697.598    -29627.37    2261.5971   -31888.967    799.80567   0.98623782 
  287000    238.24755   -573.90041    95697.598   -29627.248    2239.8783   -31867.127    800.95847   0.98623782 
  287100    243.15952    62.065967    95697.598   -29627.447    2286.0581   -31913.505    801.59631   0.98623782 
  287200    238.25426    128.40646    95697.598   -29627.159    2239.9415     -31867.1    802.79384   0.98623782 
  287300    243.44479   -63.697632    95697.598   -29627.421    2288.7401   -31916.161    803.28648   0.98623782 
  287400    242.00118    194.06061    95697.598   -29627.051     2275.168    -31902.22    803.13128   0.98623782 
  287500    241.77223   -411.21817    95697.598   -29627.468    2273.0155   -31900.484    803.07032   0.98623782 
  287600     246.7029   -94.910912    95697.598   -29627.355    2319.3711   -31946.726     803.5712   0.98623782 
  287700    248.80004    442.92447    95697.598   -29627.782    2339.0873   -31966.869    804.17509   0.98623782 
  287800    244.72123   -55.099167    95697.598    -29627.52    2300.7405   -31928.261    804.83198   0.98623782 
  287900    243.29676   -41.594758    95697.598   -29627.314    2287.3483   -31914.663    805.28554   0.98623782 
  288000    243.25834   -69.886833    95697.598   -29627.295    2286.9872   -31914.282    805.85535   0.98623782 
  288100    241.30101   -426.78633    95697.598   -29627.406    2268.5853   -31895.991    805.93234   0.98623782 
  288200    241.17575   -254.86833    95697.598   -29627.266    2267.4077   -31894.674     805.9063   0.98623782 
  288300    240.64946   -89.263187    95697.598   -29627.204    2262.4598   -31889.664    806.67685   0.98623782 
  288400    238.53488   -418.37674    95697.598   -29627.037    2242.5797   -31869.617    807.06189   0.98623782 
  288500    243.88167   -86.278427    95697.598   -29627.611    2292.8474   -31920.458    808.14499   0.98623782 
  288600    239.45344   -690.64915    95697.598    -29627.43    2251.2155   -31878.646    808.71797   0.98623782 
  288700    236.26915   -94.023018    95697.598   -29627.039    2221.2785   -31848.318    809.05957   0.98623782 
  288800    243.23217   -101.84664    95697.598   -29627.472    2286.7411   -31914.213    809.49179   0.98623782 
  288900    240.65241   -367.68642    95697.598   -29627.303    2262.4876    -31889.79    809.85973   0.98623782 
  289000    236.25397   -44.586823    95697.598   -29627.128    2221.1358   -31848.264    810.61561   0.98623782 
  289100    239.85187   -8.0240593    95697.598   -29627.299    2254.9613    -31882.26    810.59382   0.98623782 
  289200    242.63054   -421.55972    95697.598   -29627.298    2281.0849   -31908.383     810.3822   0.98623782 
  289300    242.18099   -187.92483    95697.598   -29627.269    2276.8585   -31904.128    812.10644   0.98623782 
  289400    239.99803    39.822119    95697.598    -29627.27    2256.3355   -31883.605    813.65937   0.98623782 
  289500    248.22651     159.0425    95697.598   -29627.568    2333.6953   -31961.263    814.23424   0.98623782 
  289600    240.19785     209.9877    95697.598   -29627.471    2258.2141   -31885.685    814.92707   0.98623782 
  289700    238.18942    612.73998    95697.598   -29627.262    2239.3318   -31866.594    814.11288   0.98623782 
  289800    244.02009    64.443337    95697.598   -29627.531    2294.1488    -31921.68    814.29204   0.98623782 
  289900    242.58608   -237.07758    95697.598   -29627.382    2280.6669   -31908.049     815.3398   0.98623782 
  290000    240.81759    123.71969    95697.598   -29627.438    2264.0405   -31891.478    815.63514   0.98623782 
  290100     241.0818   -165.61277    95697.598   -29627.447    2266.5245   -31893.971    817.04506   0.98623782 
  290200    236.88606   -210.42822    95697.598   -29627.162    2227.0783    -31854.24    816.61483   0.98623782 
  290300    240.95175   -432.97466    95697.598    -29627.25    2265.3019   -31892.552    817.07155   0.98623782 
  290400    240.00441   -251.40441    95697.598   -29627.247    2256.3954   -31883.643    817.35871   0.98623782 
  290500    247.92341   -69.333341    95697.598   -29627.492    2330.8457   -31958.338    817.30935   0.98623782 
  290600    243.60441    191.70477    95697.598   -29627.363    2290.2408   -31917.604    817.19909   0.98623782 
  290700    242.60323   -362.21255    95697.598   -29627.492    2280.8282   -31908.321    817.09424   0.98623782 
  290800    237.90914   -372.24959    95697.598   -29627.149    2236.6968   -31863.845    816.73121   0.98623782 
  290900    240.25827    237.75668    95697.598   -29627.194    2258.7821   -31885.976     817.8803   0.98623782 
  291000    242.88797    -28.68265    95697.598   -29627.229    2283.5052   -31910.734    818.58603   0.98623782 
  291100    235.37882   -130.03178    95697.598   -29627.176    2212.9081   -31840.084    818.86895   0.98623782 
  291200    242.06424   -236.83714    95697.598   -29627.345    2275.7609   -31903.106    818.48454   0.98623782 
  291300    245.76352   -123.44543    95697.598   -29627.321    2310.5396   -31937.861    819.06378   0.98623782 
  291400    240.30458    -404.0092    95697.598   -29627.075    2259.2175   -31886.293    819.24921   0.98623782 
  291500    238.08129    77.380098    95697.598   -29627.222    2238.3152   -31865.537    819.36465   0.98623782 
  291600    242.23998   -210.00656    95697.598   -29627.303     2277.413   -31904.716    818.78618   0.98623782 
  291700    244.03669    77.210813    95697.598   -29627.148    2294.3048   -31921.453    819.14292   0.98623782 
  291800    240.68774   -138.49343    95697.598   -29627.037    2262.8197   -31889.857    819.89819   0.98623782 
  291900    240.14749   -192.85576    95697.598   -29627.205    2257.7406   -31884.946    820.94623   0.98623782 
  292000    245.00451   -77.125052    95697.598   -29627.515    2303.4037   -31930.919    820.80948   0.98623782 
  292100    242.89475   -120.07002    95697.598   -29627.342    2283.5689   -31910.911    821.37217   0.98623782 
  292200    239.98229   -232.72075    95697.598   -29627.202    2256.1874    -31883.39    821.44546   0.98623782 
  292300    243.34361    63.971252    95697.598   -29627.626    2287.7889   -31915.415    822.86772   0.98623782 
  292400    243.61172   -144.38855    95697.598   -29627.373    2290.3094   -31917.683    823.60252   0.98623782 
  292500    240.27708   -381.42301    95697.598   -29627.261    2258.9589    -31886.22    823.75187   0.98623782 
  292600    239.69416   -43.944543    95697.598    -29627.33    2253.4786   -31880.809    823.59879   0.98623782 
  292700    248.12601   -339.20892    95697.598   -29627.589    2332.7505   -31960.339    825.06562   0.98623782 
  292800    246.27511     -14.1877    95697.598   -29627.589    2315.3493   -31942.938    825.91969   0.98623782 
  292900    243.76885   -89.042641    95697.598   -29627.148    2291.7867   -31918.935    826.68711   0.98623782 
  293000    240.28608   -167.22835    95697.598   -29627.146    2259.0436   -31886.189    827.09791   0.98623782 
  293100    242.30877    139.55529    95697.598   -29627.539    2278.0598   -31905.599     827.6306   0.98623782 
  293200    240.30373   -151.20862    95697.598   -29627.252    2259.2094   -31886.461    828.83047   0.98623782 
  293300    242.76269   -41.160082    95697.598   -29627.212    2282.3273   -31909.539    829.60272   0.98623782 
  293400    242.47217    164.54518    95697.598   -29627.303     2279.596   -31906.899    829.10494   0.98623782 
  293500    244.18983    109.44901    95697.598   -29627.419    2295.7446   -31923.164    829.53974   0.98623782 
  293600    239.00346   -17.772401    95697.598   -29627.268    2246.9851   -31874.253     830.4834   0.98623782 
  293700    242.31728   -49.687324    95697.598   -29627.137    2278.1398   -31905.277    830.30876   0.98623782 
  293800    247.36859   -271.24193    95697.598   -29627.495    2325.6295   -31953.124    830.26908   0.98623782 
  293900    245.41738     210.3248    95697.598   -29627.412    2307.2854   -31934.698    830.71293   0.98623782 
  294000     239.0191   -101.90359    95697.598   -29627.344     2247.132   -31874.476    831.41958   0.98623782 
  294100    240.69752    -15.64949    95697.598   -29627.213    2262.9117   -31890.125    832.52546   0.98623782 
  294200    244.37101   -36.412116    95697.598   -29627.418    2297.4479   -31924.866    832.24222   0.98623782 
  294300    239.82197   -33.739798    95697.598     -29627.3    2254.6802    -31881.98    832.71917   0.98623782 
  294400    244.13018    102.70992    95697.598    -29627.46    2295.1837   -31922.644    833.00175   0.98623782 
  294500    240.64288   -129.24793    95697.598   -29627.167     2262.398   -31889.565    833.79497   0.98623782 
  294600     243.8687   -171.71195    95697.598   -29627.361    2292.7254   -31920.086    834.50127   0.98623782 
  294700    240.73955   -148.53964    95697.598   -29627.235    2263.3068   -31890.542    834.20228   0.98623782 
  294800    244.92693   -78.951112    95697.598   -29627.584    2302.6744   -31930.258    836.02072   0.98623782 
  294900    239.03925   -18.241057    95697.598   -29627.192    2247.3215   -31874.513    836.56958   0.98623782 
  295000    242.67247    -605.0638    95697.598   -29627.461    2281.4791    -31908.94    836.47239   0.98623782 
  295100    239.28115   -158.71494    95697.598   -29627.165    2249.5957   -31876.761    838.26043   0.98623782 
  295200    243.82818   -201.73371    95697.598   -29627.396    2292.3445    -31919.74    838.05709   0.98623782 
  295300    242.60273   -59.050821    95697.598   -29627.376    2280.8235   -31908.199    839.06663   0.98623782 
  295400    243.38063    -249.7375    95697.598   -29627.579    2288.1369   -31915.716    839.90962   0.98623782 
  295500     237.8013   -21.466494    95697.598   -29627.201    2235.6829   -31862.884    839.55211   0.98623782 
  295600    243.04142    14.909667    95697.598   -29627.353    2284.9478   -31912.301    839.39617   0.98623782 
  295700    241.80406   -495.36179    95697.598   -29627.553    2273.3148   -31900.867    839.02322   0.98623782 
  295800     241.5504   -39.806507    95697.598   -29627.451      2270.93   -31898.381    838.43931   0.98623782 
  295900    242.48938    -238.6371    95697.598    -29627.37    2279.7578   -31907.128    839.41375   0.98623782 
  296000    246.09363    345.09725    95697.598   -29627.518    2313.6431   -31941.161    840.17455   0.98623782 
  296100    251.20921     206.9112    95697.598   -29627.745    2361.7371   -31989.482    840.88928   0.98623782 
  296200    242.86765    195.81121    95697.598   -29627.542    2283.3141   -31910.856    840.08014   0.98623782 
  296300    246.58125    379.68381    95697.598   -29627.448    2318.2274   -31945.675    840.90675   0.98623782 
  296400    245.87824    384.54135    95697.598   -29627.592    2311.6181    -31939.21    840.97906   0.98623782 
  296500     243.7311   -165.51573    95697.598   -29627.119    2291.4318    -31918.55    841.47262   0.98623782 
  296600    240.16693    30.665124    95697.598   -29627.064    2257.9233   -31884.987    841.98084   0.98623782 
  296700    243.09489   -271.51691    95697.598   -29627.298    2285.4505   -31912.749    842.34822   0.98623782 
  296800    240.19775   -310.07067    95697.598   -29627.495    2258.2131   -31885.708    843.30814   0.98623782 
  296900    240.50677    -744.0112    95697.598   -29627.394    2261.1184   -31888.513      842.201   0.98623782 
  297000    235.37664    -851.6355    95697.598   -29627.064    2212.8875   -31839.951    842.61833   0.98623782 
  297100    238.41661    -341.0035    95697.598   -29627.292    2241.4678    -31868.76    844.39764   0.98623782 
  297200    240.65881   -355.27986    95697.598   -29627.368    2262.5478   -31889.915    845.44136   0.98623782 
  297300    242.07943    197.63427    95697.598   -29627.377    2275.9037    -31903.28    845.71577   0.98623782 
  297400    244.92999   -133.48733    95697.598   -29627.558    2302.7032   -31930.261    845.94483   0.98623782 
  297500    242.22615   -65.557766    95697.598   -29627.207    2277.2831    -31904.49    846.11829   0.98623782 
  297600    245.66095    176.26659    95697.598   -29627.388    2309.5753   -31936.963    846.88492   0.98623782 
  297700    239.90014   -86.618739    95697.598    -29627.31    2255.4151   -31882.726    847.50597   0.98623782 
  297800    239.10735   -200.67695    95697.598   -29627.284    2247.9617   -31875.245    848.70742   0.98623782 
  297900    238.69916    108.58223    95697.598   -29627.112    2244.1241   -31871.236    849.04039   0.98623782 
  298000    242.24057    221.94031    95697.598   -29627.294    2277.4187   -31904.713    848.56897   0.98623782 
  298100    240.73526   -56.000628    95697.598   -29627.506    2263.2665   -31890.772    849.86195   0.98623782 
  298200    241.20193    311.65319    95697.598   -29627.068    2267.6539   -31894.722    849.85185   0.98623782 
  298300    237.81074   -169.84161    95697.598   -29627.095    2235.7717   -31862.866    851.94135   0.98623782 
  298400    233.77564   -38.651751    95697.598    -29627.05    2197.8358   -31824.886    852.18473   0.98623782 
  298500    234.97323   -169.79977    95697.598   -29626.839    2209.0949   -31835.933    851.49125   0.98623782 
  298600    240.81726   -327.77205    95697.598   -29627.232    2264.0374    -31891.27    852.55298   0.98623782 
  298700    247.04295    241.91833    95697.598   -29627.761    2322.5681   -31950.329    852.12199   0.98623782 
  298800     244.0317    83.017938    95697.598   -29627.234    2294.2579   -31921.492    852.36455   0.98623782 
  298900    242.41136    167.98418    95697.598   -29627.271    2279.0244   -31906.295    853.02007   0.98623782 
  299000    241.20296   -558.59906    95697.598   -29627.454    2267.6636   -31895.117    854.30041   0.98623782 
  299100    234.96338   -61.472432    95697.598   -29627.156    2209.0023   -31836.158    855.56171   0.98623782 
  299200    239.50124   -411.74883    95697.598   -29627.338    2251.6649   -31879.003    855.07395   0.98623782 
  299300    237.69918   -156.47636    95697.598   -29627.045    2234.7229   -31861.768    854.42767   0.98623782 
  299400    244.79657    242.72392    95697.598   -29627.395    2301.4488   -31928.844    854.19385   0.98623782 
  299500    244.92825   -138.71177    95697.598   -29627.299    2302.6868   -31929.985    854.64496   0.98623782 
  299600    242.03466    134.17375    95697.598   -29627.403    2275.4828   -31902.885    855.34726   0.98623782 
  299700    244.13565   -382.38973    95697.598   -29627.243    2295.2352   -31922.478    855.89655   0.98623782 
  299800    243.25703   -30.195301    95697.598   -29627.404    2286.9748   -31914.378    856.44742   0.98623782 
  299900    238.60836    -339.2527    95697.598   -29627.173    2243.2705   -31870.444    856.68814   0.98623782 
  300000    245.25119   -851.30642    95697.598   -29627.233    2305.7229   -31932.956    857.32415   0.98623782 
  300100    243.67656   -369.08361    95697.598   -29627.408     2290.919   -31918.327     857.5533   0.98623782 
  300200     247.1576   -390.73859    95697.598   -29627.476     2323.646   -31951.122    857.92957   0.98623782 
  300300    239.57485   -508.10723    95697.598   -29627.297    2252.3569   -31879.654    858.63515   0.98623782 
  300400     241.3156   -407.47669    95697.598   -29627.531    2268.7226   -31896.254    859.27344   0.98623782 
  300500    241.53279   -208.37146    95697.598   -29627.234    2270.7645   -31897.999    860.26023   0.98623782 
  300600    243.40638   -502.50305    95697.598   -29627.362    2288.3789   -31915.741    862.01171   0.98623782 
  300638    248.91685   -237.11262    95697.598   -29627.585    2340.1855   -31967.771    861.82133   0.98623782 
Loop time of 73.4386 on 12 procs for 100000 steps with 3155 atoms

Performance: 588.247 ns/day, 0.041 hours/ns, 1361.682 timesteps/s
96.5% CPU use with 12 MPI tasks x no OpenMP threads

MPI task timing breakdown:
Section |  min time  |  avg time  |  max time  |%varavg| %total
---------------------------------------------------------------
Pair    | 47.195     | 48.071     | 49.367     |   9.0 | 65.46
Neigh   | 2.7527     | 2.7996     | 2.895      |   2.4 |  3.81
Comm    | 17.653     | 18.75      | 19.617     |  14.0 | 25.53
Output  | 0.18997    | 0.19542    | 0.24791    |   3.6 |  0.27
Modify  | 0.77634    | 0.79873    | 0.82209    |   1.5 |  1.09
Other   |            | 2.824      |            |       |  3.85

Nlocal:        262.917 ave         275 max         252 min
Histogram: 1 0 1 5 1 0 1 1 1 1
Nghost:        828.667 ave         840 max         814 min
Histogram: 1 0 3 0 1 1 1 2 1 2
Neighs:        0.00000 ave           0 max           0 min
Histogram: 12 0 0 0 0 0 0 0 0 0
FullNghs:      7515.67 ave        7959 max        7121 min
Histogram: 1 1 0 3 3 1 1 0 1 1

Total # of neighbors = 90188
Ave neighs/atom = 28.585737
Neighbor list builds = 5905
Dangerous builds = 0

write_data		data.${NAME}
write_data		data.ML_1atm_240K
System init for write_data ...
Total wall time: 0:03:31
