LAMMPS data file via write_data, version 16 Mar 2018, timestep = 100000

6736 atoms
2 atom types

0.0000000000000000e+00 4.9219999999999999e+01 xlo xhi
0.0000000000000000e+00 4.9019635930410494e+01 ylo yhi
9.2181036807380679e-01 5.9140189631926219e+01 zlo zhi

Masses

1 18.015
2 12.01

Atoms # atomic

1100 1 2.5828334736020393e+00 2.2600006311792535e+00 2.4208672710604233e+00 1 0 1
24 1 1.0582449937898208e+01 3.5431774142121943e+00 3.9897359183284329e+00 2 0 0
151 1 6.0949243915801103e+00 2.5133165599517500e+00 3.4737532591769513e+00 0 2 0
5314 1 8.3710716683173043e+00 2.4788174225700543e+00 5.3978984295597376e+00 1 0 1
3596 1 1.8829784481999059e+00 6.2204987682862791e+00 3.6195022840413387e+00 1 0 0
2067 1 7.0460412142403914e+00 6.1553587389186655e+00 2.7535049281463557e+00 1 0 0
6173 1 3.4769326555440516e+00 1.6295976433819014e+01 9.6232102099138501e+00 1 0 1
3394 1 1.5083061822070665e-01 3.7360830665395812e+00 1.0703060166596872e+01 1 -1 0
3370 1 9.5515132082991339e-01 1.2883374967090708e+01 1.1261917897928944e+01 1 1 1
1027 1 1.0859179514551723e+01 4.5870165252181456e+00 7.0964870513336331e+00 1 -1 1
4412 1 2.7851444915236696e+00 8.2937538567448037e+00 1.4553290709809055e+00 1 0 1
6178 1 1.0337966641339460e+01 1.4484452168784326e+01 1.1420611076560512e+01 0 1 1
5476 1 2.1505077616979711e+00 1.0860167768365866e+01 2.6604867283866542e+00 1 0 0
785 1 6.6050480377375180e+00 9.1770570475319282e+00 3.9140609674310638e+00 0 2 0
991 1 4.9156771429470263e+00 1.1393178408573256e+01 2.8975771596538564e+00 0 0 1
3810 1 9.0971592961928156e+00 3.2641638324474829e+00 9.8687124139174962e+00 -1 -1 0
3416 1 1.0457923864466821e+01 1.4088024652915554e+01 8.7205471138363428e+00 -1 0 1
4572 1 3.8317136927979751e+00 1.5479410635825792e+01 5.4519793399994114e+00 2 1 1
5419 1 3.0182025911621082e+00 1.3092920898114247e+01 1.0228459907800906e+00 1 1 0
4497 1 1.4086095200274436e+00 1.5398785391020152e+01 1.9101638252538478e+00 0 -1 1
6032 1 5.6253420321506971e+00 1.3445790578353172e+01 4.5157905727992276e+00 1 1 1
3646 1 7.4653189621676193e+00 1.4457414980094999e+01 1.1033257769670179e+01 0 -1 0
5474 1 9.6775841334657340e+00 1.1183283227278702e+01 2.2422985201490220e+00 2 -1 0
5229 1 8.9877316236471803e+00 1.3960507258234802e+01 4.1703680316889509e+00 0 -1 0
2844 1 1.0397178332761339e+01 1.6167193698876487e+00 1.1277835508954121e+01 1 -1 1
2861 1 7.5635645747483364e+00 6.5025800829851366e-01 1.4938748743091719e+00 0 2 1
2556 1 1.9289879911478389e+00 2.1619587985416446e+00 6.3190962536046396e+00 2 0 1
1231 1 3.6089583487927044e+00 4.4267160101090690e+00 1.2436994488576033e+01 0 1 0
4423 1 1.0812513695222457e+00 1.5953774001995757e+01 8.2784410058917892e+00 1 1 1
365 1 1.0064294471265793e+01 2.0198858496473053e+00 7.6168390161376909e+00 0 0 0
2487 1 6.7513512640277495e+00 3.9494677096168553e+00 7.1727278366348584e+00 0 1 0
2732 1 3.2393721268450948e+00 3.9861094515702971e+00 4.3898420561212221e+00 0 1 1
793 1 5.3460107409505553e-01 5.6416120496128235e+00 8.2838959247729100e+00 -1 0 1
3739 1 2.9698854997416828e+00 4.2754882628553208e+00 8.0447951823970776e+00 1 2 0
6195 1 5.0854484437131582e+00 5.8809941112400361e+00 8.3427172408114707e+00 1 2 1
5516 1 5.6921493288074823e+00 5.2065918192951282e+00 4.8777085047593598e+00 2 0 1
5576 1 8.4415676871037224e+00 8.0934046437559193e+00 8.2629685306355540e+00 0 -1 0
752 1 9.7097723253122421e+00 5.7442625058255041e+00 3.2491471443292168e+00 0 1 1
2734 1 1.0441740003811338e+01 5.9611990422906036e+00 9.5809131120780986e+00 0 1 1
4320 1 1.1075451366724263e+01 7.6419793723507858e+00 4.3502384527918183e+00 2 1 0
5153 1 1.8335550851450073e+00 7.3748611994890307e+00 6.3535601683978813e+00 -1 0 0
1738 1 1.1441665582310618e+00 1.1390333043051898e+01 6.5533344510895395e+00 1 0 1
4312 1 3.3155654369909247e+00 1.0299999224598281e+01 8.1457836597361677e+00 0 -1 1
5416 1 4.6589906273908834e+00 7.5068364472404729e+00 6.0758488816323926e+00 1 1 0
2777 1 8.6650888929333245e+00 1.0739695105061356e+01 4.8466755528867687e+00 1 1 1
1104 1 1.0247268786266265e+01 9.3792172890426126e+00 6.4635528469062900e+00 1 0 0
5810 1 4.6674820254802309e+00 1.1050126493939690e+01 1.2111484160623409e+01 1 0 1
2167 1 1.1373292199354836e+01 9.3320253989514228e+00 2.4029399388193373e+00 1 0 0
465 1 1.7644255678457557e+00 1.4232035179883200e+01 6.2064689726872988e+00 0 0 0
152 1 1.0286050848531243e+01 4.0599294570827782e-01 1.3242125933414692e+00 0 -1 0
5450 1 1.1749742868286503e+01 2.7982838321100028e+00 1.5974184886802476e+00 1 2 0
2674 1 6.1437245043587136e+00 1.2713114097520801e+01 7.2028031601790312e+00 0 1 1
4461 1 8.5291796195894900e+00 8.4036397183650813e+00 1.1324331378747429e+01 0 0 1
2542 1 1.1326958229546104e+01 1.3438193130909644e+01 1.8516831453985920e+00 1 1 1
496 1 7.6743804730627367e+00 1.5898223925203165e+01 8.0011350726443276e+00 0 1 0
1942 1 2.4043541658876202e+00 1.0319068179778661e-01 1.0714446886922760e+01 0 2 0
2794 1 3.5642527164108997e+00 2.7681347683817856e+00 1.0220390201525438e+01 0 0 1
1131 1 6.0071230495057675e+00 5.7325097508805267e-01 7.9753741516000067e+00 -1 1 1
5316 1 3.9019075058503261e+00 3.8097637141906804e-01 6.5468783885650526e+00 1 0 0
2739 1 7.0006413870978070e+00 1.5320644929695726e+01 2.2909108952551054e+00 0 1 1
5296 1 7.0979899943715896e+00 5.8188428582528919e+00 1.0378897563027516e+01 1 1 0
195 1 1.0516470952471661e+01 5.0094197000715752e+00 1.2316327972083494e+01 0 0 1
1025 1 7.1693191846785831e-01 9.6046410161584479e+00 4.6941060958941918e+00 1 0 1
2727 1 3.7057336241643375e+00 7.1774331071626305e+00 1.1155079036053898e+01 1 1 1
5344 1 6.3707030749449096e+00 2.7096013198123949e+00 1.0128339765459602e+01 1 1 0
753 1 8.6210824210587376e+00 5.9724155576649558e+00 6.3622440575605586e+00 0 0 1
1825 1 1.1808241555919521e+01 8.3695122504625665e+00 9.6032702425692360e+00 -1 1 0
2429 1 1.7989602050292435e+00 8.2773329134227609e+00 9.4726918863557081e+00 0 0 0
150 1 3.4500737084924569e+00 1.2085141505715271e+01 1.0151913914026645e+01 0 0 0
2858 1 5.1795955907146505e+00 1.4117121687023143e+01 9.5472903880394107e+00 0 0 1
1233 1 1.1829370130987162e+01 1.4572834734706307e+01 5.0960071756661796e+00 0 -1 1
746 1 6.1067457198248833e+00 1.0030980821619226e+01 7.4792105247739933e+00 0 -1 1
3846 1 1.0736746743488085e+01 1.1152630545395201e+01 1.0110111801811080e+01 0 1 1
5578 1 8.0986123323036683e+00 1.0907577130525096e+01 9.7705415307710215e+00 1 1 0
6221 1 8.5411905169128222e+00 1.2852002752927918e+01 6.7517566950645769e+00 0 1 0
1975 1 4.4204410587034477e+00 4.1622738073050708e-01 4.0193074044815225e+00 1 0 0
4473 1 5.9673054338977733e+00 8.6344592626331398e+00 1.2481363024897055e+01 -1 2 0
4265 1 2.9693632136152892e-01 1.4347656929588423e+01 4.1001776725736354e+00 1 0 1
1821 1 1.0844555116691648e+01 1.6265796321364871e+01 1.2962187281848352e+00 0 -2 1
29 1 7.2493194584176779e+00 1.2046940274150636e+01 1.2134629720785803e+01 0 1 0
5311 1 5.4284584295937748e+00 7.9578535859553412e+00 1.1521840025349694e+00 0 0 0
6292 1 6.6638437691722245e+00 3.8851322836938986e+00 9.6371710823613910e-01 0 0 1
5504 1 5.3426891719956193e-01 2.3405969362973904e+00 1.5022965291615847e+01 0 0 0
5981 1 2.5547999212458108e+00 1.5109308883089204e+01 2.3593117577284787e+01 1 -1 1
3624 1 4.2470516292444067e+00 5.1452195392336186e+00 1.9035219608117956e+01 1 0 0
2828 1 5.6220567702396620e+00 4.7223570417498673e+00 1.6925298003197589e+01 0 0 1
450 1 7.7685192936203054e+00 3.1539863439429352e+00 1.7941755349843579e+01 1 0 0
4472 1 4.5881673813071835e+00 3.7372393144104175e+00 2.3498389724571425e+01 1 0 1
1904 1 9.6886589886725805e+00 3.3638532648846069e+00 1.5803075664534228e+01 1 0 1
4169 1 6.7223529189838116e+00 1.3597240236526538e+01 2.3485591270157474e+01 0 0 1
2588 1 6.1466545908585415e+00 9.6536026829864117e+00 1.5198301176270753e+01 1 1 1
177 1 7.0757817978321036e+00 7.3126368443785310e+00 1.7838522933871882e+01 0 1 0
380 1 8.3205423798820810e+00 1.3959486477537874e+01 1.9748043443958597e+01 0 -2 0
2202 1 9.3749453746096076e+00 7.8613786467343783e+00 1.6002861284452212e+01 0 0 0
262 1 1.5638617418008547e+00 1.0353121490421625e+01 1.4331908325028657e+01 0 1 1
5202 1 3.1729164345861804e-01 6.7835369170324258e+00 1.5146152056897197e+01 0 1 0
3476 1 8.2184674537663582e+00 2.9017156604181404e-01 2.3474128313689768e+01 1 0 0
4257 1 9.0580476491069923e+00 1.2333618660319990e+01 1.4360223305843292e+01 0 1 1
188 1 1.0865783031095193e+00 1.0903760924857727e+01 2.0763895363968729e+01 1 1 1
2811 1 1.3690547380924531e+00 1.4380478470789308e+01 1.7502444305690709e+01 0 -1 0
5524 1 5.5964153245951997e-01 1.5972101801382502e+01 1.9938916641505067e+01 1 1 0
1008 1 3.3441890284550215e+00 1.2544483582851552e+01 1.4149413937173037e+01 0 0 1
3738 1 4.3317516169517853e+00 1.1895328083425527e+01 1.6832241745600502e+01 1 0 0
3809 1 8.1818717210952183e+00 4.0315552439721858e-01 1.7158582774471522e+01 2 0 0
1247 1 4.0682010024328674e+00 1.9745235298169532e+00 2.1461645785746057e+01 1 0 1
4266 1 5.1578542671712162e+00 2.8675469359440218e+00 1.4416918052482172e+01 1 2 1
42 1 1.1989294494535462e+01 7.1661859537304595e+00 2.1963794114964081e+01 1 1 0
2868 1 3.2886691130034063e+00 2.5645681853225102e+00 1.9021872382832822e+01 -1 0 0
3783 1 6.4187407293896548e-01 2.4908923487414785e+00 1.9314086977635764e+01 0 0 0
4616 1 9.5952352990013754e+00 4.4149483103115417e+00 1.9444670432966184e+01 1 0 1
2895 1 1.1812504776756162e+01 1.6720781761795571e+00 2.0900458846599783e+01 -1 0 1
2797 1 7.7030033029847651e+00 1.5958523001328297e+01 1.5752015343942491e+01 -1 0 1
4264 1 1.2689390018628470e+00 4.4150798240051392e+00 1.3280894638322945e+01 1 1 1
5139 1 4.3182722134648373e+00 7.2938663711623022e+00 1.5507190621686064e+01 1 0 1
2212 1 4.3748895015567859e+00 9.6686031952767451e+00 1.8597017512118743e+01 1 1 0
6016 1 6.9394859025137370e+00 6.8351202347004305e+00 2.1004368330833387e+01 1 0 1
345 1 1.0852321392325420e+01 1.1226432663360251e+01 1.8161657119588892e+01 0 0 0
4578 1 8.2410438011222844e+00 1.0665057346691970e+01 1.6385584572813102e+01 1 1 1
5887 1 4.2324427417659072e+00 1.2724593675498397e+01 2.3594111145857319e+01 0 -1 1
226 1 1.6437692597636206e+00 1.1429757040344736e+01 1.8139201429024858e+01 0 -1 1
5487 1 2.8399012230752798e+00 7.2705869809659722e+00 1.8079520034584611e+01 2 0 0
2698 1 7.1001412925587983e+00 1.0285561450319111e+01 1.9003763334661727e+01 1 1 1
3381 1 4.3624256104879553e+00 1.3260479292910592e+01 1.9876476497875519e+01 1 1 0
842 1 9.2078289640497353e+00 1.4893683238286544e+00 1.3867830379563024e+01 1 0 0
5209 1 5.8627203786485949e-01 1.0015819325593514e+01 2.3614882952790598e+01 1 0 1
3499 1 1.1332368645363980e+01 1.1226093310013431e+01 2.3647295583940668e+01 1 -1 0
3644 1 6.1878159982575172e+00 1.4464789985350549e+01 1.7895665380563869e+01 1 2 0
901 1 3.7176613307863775e+00 1.6111759736364892e+01 1.7717768205513817e+01 1 0 0
4345 1 1.0816863615299319e+01 1.4263829910262277e+01 1.7980371508426227e+01 1 1 1
6196 1 9.9461992911733166e+00 1.4609950023797495e+01 1.5361011257768379e+01 -1 1 1
4576 1 6.4690792250114146e+00 5.7935762444374967e+00 1.3713749094542681e+01 1 0 0
2179 1 6.5113230707707759e+00 1.2297272276979546e+01 2.0852790167466001e+01 0 1 0
6160 1 1.0636014944448151e+01 1.6254851687117602e+00 2.3664492332865471e+01 1 0 1
2764 1 1.1681549298959505e+01 8.0593331015514948e+00 1.6969243944839540e+01 0 1 1
6211 1 3.1519888640254790e+00 1.5630732476561628e+01 2.1060026444121736e+01 1 1 1
6136 1 9.2846261847119056e+00 4.0518319591797232e+00 2.1825510070715517e+01 0 0 0
2718 1 7.9883355407177641e+00 1.3015737627013548e+00 2.0835393663451967e+01 0 0 1
4342 1 7.9896119316316581e+00 1.5835757438704537e+01 2.3494746714013289e+01 0 0 1
2020 1 1.1034994550376245e+01 4.7229209446415359e+00 2.4190044086834682e+01 1 2 0
459 1 8.8450862585988421e+00 5.4448675566433087e+00 1.4392226758189917e+01 0 0 0
3801 1 2.4807989944701605e+00 5.1622968034813894e+00 2.1583920339839434e+01 1 0 0
2018 1 1.1134235443261806e+01 8.6465029940752736e+00 2.4107004692626607e+01 1 1 0
189 1 4.1117535299862631e+00 7.7681180904899314e+00 2.1276667140375491e+01 1 1 0
2637 1 8.9342794093083668e+00 9.1314343190201388e+00 2.0482534163200810e+01 0 0 1
5568 1 1.1801659695520792e+01 1.4104790493977816e+01 2.1078776477614127e+01 0 0 0
2033 1 2.8243275634531356e-01 9.4514191933447904e+00 1.6835415786360961e+01 1 0 0
5106 1 1.0393013379004008e+01 6.9527436996702381e+00 1.9519015413397025e+01 0 -1 0
2089 1 1.0871410063713904e+01 8.2388244378745412e+00 1.3468895774533324e+01 1 0 0
5386 1 3.4265226277654732e+00 1.0539208378887077e+01 2.1209472946113788e+01 1 0 0
6171 1 5.3066108262913216e+00 8.1617808064999871e+00 2.3818907587171974e+01 1 -1 1
2181 1 8.2732556792636291e+00 9.2176486991603799e+00 2.3198929631004184e+01 -1 0 0
205 1 1.1342572946235650e+01 1.1154604665484404e+01 2.0819634347200299e+01 1 1 1
1947 1 3.1122337959641944e+00 1.1744120251197734e+00 1.4810618258562057e+01 1 0 0
2540 1 2.6474352166357602e+00 7.5889440307156946e+00 1.3608332138678504e+01 1 2 1
3753 1 3.6342650376810871e-02 1.3412284203777343e+01 2.1040855182811445e+01 2 0 0
4319 1 6.8138193613751845e+00 5.3991471983044219e+00 2.3043275311134149e+01 0 1 1
5119 1 3.5561275071626977e+00 1.0218733523972187e+01 2.3965253509558131e+01 0 1 0
1221 1 1.0938584455612348e+01 1.0821439001545841e+01 1.2825442039178483e+01 0 0 1
3608 1 1.8897891946056018e+00 1.5097609285599187e+01 1.3081053800230217e+01 0 -1 0
4547 1 6.7132299213627586e+00 1.7269033665236686e+00 1.2673063181092276e+01 1 1 1
5400 1 1.0671593431900197e+01 1.4838434731912457e+01 2.3664352956414120e+01 1 1 0
283 1 8.5169977834100816e+00 1.6215602465234543e+01 2.0915090211895176e+01 0 0 0
3431 1 6.4303483157248129e+00 1.6309432077104514e+01 1.2809098292194044e+01 1 1 1
511 2 0.0000000000000000e+00 2.8417180249513345e+00 2.6822514791857792e+01 0 0 0
512 2 0.0000000000000000e+00 0.0000000000000000e+00 2.6822514791857792e+01 0 0 0
513 2 1.2305000000000001e+00 7.1042950623783474e-01 2.6822514791857792e+01 0 0 0
517 2 1.2305000000000001e+00 2.1312885187134998e+00 2.6822514791857792e+01 0 0 0
518 2 2.4610000000000003e+00 2.8417180249513345e+00 2.6822514791857792e+01 0 0 0
519 2 2.4610000000000003e+00 0.0000000000000000e+00 2.6822514791857792e+01 0 0 0
520 2 3.6915000000000004e+00 7.1042950623783474e-01 2.6822514791857792e+01 0 0 0
528 2 3.6914999999999996e+00 2.1312885187134998e+00 2.6822514791857792e+01 0 0 0
529 2 4.9220000000000006e+00 2.8417180249513332e+00 2.6822514791857792e+01 0 0 0
530 2 4.9220000000000006e+00 0.0000000000000000e+00 2.6822514791857792e+01 0 0 0
531 2 6.1524999999999999e+00 7.1042950623783407e-01 2.6822514791857792e+01 0 0 0
543 2 6.1524999999999999e+00 2.1312885187134989e+00 2.6822514791857792e+01 0 0 0
544 2 7.3829999999999991e+00 2.8417180249513345e+00 2.6822514791857792e+01 0 0 0
545 2 7.3829999999999991e+00 0.0000000000000000e+00 2.6822514791857792e+01 0 0 0
546 2 8.6134999999999984e+00 7.1042950623783407e-01 2.6822514791857792e+01 0 0 0
562 2 8.6134999999999984e+00 2.1312885187135002e+00 2.6822514791857792e+01 0 0 0
563 2 9.8440000000000012e+00 2.8417180249513332e+00 2.6822514791857792e+01 0 0 0
564 2 9.8440000000000012e+00 0.0000000000000000e+00 2.6822514791857792e+01 0 0 0
565 2 1.1074500000000002e+01 7.1042950623783330e-01 2.6822514791857792e+01 0 0 0
585 2 1.1074500000000002e+01 2.1312885187135002e+00 2.6822514791857792e+01 0 0 0
514 2 0.0000000000000000e+00 7.1042950623783341e+00 2.6822514791857792e+01 0 0 0
515 2 0.0000000000000000e+00 4.2625770374269996e+00 2.6822514791857792e+01 0 0 0
516 2 1.2305000000000001e+00 4.9730065436648339e+00 2.6822514791857792e+01 0 0 0
524 2 1.2305000000000001e+00 6.3938655561404980e+00 2.6822514791857792e+01 0 0 0
525 2 2.4610000000000003e+00 7.1042950623783341e+00 2.6822514791857792e+01 0 0 0
526 2 2.4610000000000003e+00 4.2625770374269996e+00 2.6822514791857792e+01 0 0 0
527 2 3.6914999999999996e+00 4.9730065436648339e+00 2.6822514791857792e+01 0 0 0
539 2 3.6914999999999996e+00 6.3938655561404980e+00 2.6822514791857792e+01 0 0 0
1542 2 1.1074500000000002e+01 1.4919019630994494e+01 3.3239485208141353e+01 0 0 0
540 2 4.9220000000000006e+00 7.1042950623783341e+00 2.6822514791857792e+01 0 0 0
541 2 4.9220000000000006e+00 4.2625770374269978e+00 2.6822514791857792e+01 0 0 0
542 2 6.1524999999999999e+00 4.9730065436648339e+00 2.6822514791857792e+01 0 0 0
558 2 6.1524999999999999e+00 6.3938655561404980e+00 2.6822514791857792e+01 0 0 0
559 2 7.3830000000000009e+00 7.1042950623783341e+00 2.6822514791857792e+01 0 0 0
560 2 7.3829999999999991e+00 4.2625770374269996e+00 2.6822514791857792e+01 0 0 0
1499 2 7.3829999999999991e+00 1.2787731112280996e+01 3.3239485208141353e+01 0 0 0
561 2 8.6135000000000002e+00 4.9730065436648339e+00 2.6822514791857792e+01 0 0 0
581 2 8.6135000000000002e+00 6.3938655561404980e+00 2.6822514791857792e+01 0 0 0
582 2 9.8440000000000012e+00 7.1042950623783341e+00 2.6822514791857792e+01 0 0 0
583 2 9.8440000000000012e+00 4.2625770374270004e+00 2.6822514791857792e+01 0 0 0
584 2 1.1074500000000002e+01 4.9730065436648339e+00 2.6822514791857792e+01 0 0 0
605 2 1.1074500000000002e+01 6.3938655561404980e+00 2.6822514791857792e+01 0 0 0
5180 1 8.5882323817019923e+00 1.1942793689908926e+01 2.4408947671436238e+01 0 0 0
1500 2 8.6135000000000002e+00 1.3498160618518835e+01 3.3239485208141353e+01 0 0 0
521 2 0.0000000000000000e+00 1.1366872099805333e+01 2.6822514791857792e+01 0 0 0
522 2 0.0000000000000000e+00 8.5251540748539991e+00 2.6822514791857792e+01 0 0 0
523 2 1.2305000000000001e+00 9.2355835810918343e+00 2.6822514791857792e+01 0 0 0
535 2 1.2305000000000001e+00 1.0656442593567498e+01 2.6822514791857792e+01 0 0 0
536 2 2.4610000000000003e+00 1.1366872099805333e+01 2.6822514791857792e+01 0 0 0
537 2 2.4610000000000003e+00 8.5251540748539991e+00 2.6822514791857792e+01 0 0 0
538 2 3.6915000000000004e+00 9.2355835810918343e+00 2.6822514791857792e+01 0 0 0
554 2 3.6914999999999996e+00 1.0656442593567499e+01 2.6822514791857792e+01 0 0 0
555 2 4.9220000000000006e+00 1.1366872099805333e+01 2.6822514791857792e+01 0 0 0
556 2 4.9220000000000006e+00 8.5251540748539991e+00 2.6822514791857792e+01 0 0 0
557 2 6.1524999999999999e+00 9.2355835810918343e+00 2.6822514791857792e+01 0 0 0
577 2 6.1524999999999999e+00 1.0656442593567499e+01 2.6822514791857792e+01 0 0 0
578 2 7.3829999999999991e+00 1.1366872099805333e+01 2.6822514791857792e+01 0 0 0
579 2 7.3830000000000009e+00 8.5251540748539991e+00 2.6822514791857792e+01 0 0 0
580 2 8.6134999999999984e+00 9.2355835810918343e+00 2.6822514791857792e+01 0 0 0
601 2 8.6134999999999984e+00 1.0656442593567498e+01 2.6822514791857792e+01 0 0 0
602 2 9.8440000000000012e+00 1.1366872099805333e+01 2.6822514791857792e+01 0 0 0
603 2 9.8440000000000012e+00 8.5251540748539956e+00 2.6822514791857792e+01 0 0 0
604 2 1.1074500000000002e+01 9.2355835810918343e+00 2.6822514791857792e+01 0 0 0
625 2 1.1074500000000002e+01 1.0656442593567498e+01 2.6822514791857792e+01 0 0 0
626 2 1.2304999999999998e+01 1.1366872099805333e+01 2.6822514791857792e+01 0 0 0
532 2 0.0000000000000000e+00 1.5629449137232333e+01 2.6822514791857792e+01 0 0 0
533 2 0.0000000000000000e+00 1.2787731112280996e+01 2.6822514791857792e+01 0 0 0
534 2 1.2305000000000001e+00 1.3498160618518829e+01 2.6822514791857792e+01 0 0 0
550 2 1.2305000000000001e+00 1.4919019630994494e+01 2.6822514791857792e+01 0 0 0
551 2 2.4610000000000003e+00 1.5629449137232328e+01 2.6822514791857792e+01 0 0 0
552 2 2.4610000000000003e+00 1.2787731112280996e+01 2.6822514791857792e+01 0 0 0
553 2 3.6915000000000004e+00 1.3498160618518829e+01 2.6822514791857792e+01 0 0 0
573 2 3.6915000000000004e+00 1.4919019630994494e+01 2.6822514791857792e+01 0 0 0
574 2 4.9220000000000006e+00 1.5629449137232333e+01 2.6822514791857792e+01 0 0 0
575 2 4.9220000000000006e+00 1.2787731112280996e+01 2.6822514791857792e+01 0 0 0
576 2 6.1524999999999990e+00 1.3498160618518829e+01 2.6822514791857792e+01 0 0 0
597 2 6.1524999999999990e+00 1.4919019630994494e+01 2.6822514791857792e+01 0 0 0
598 2 7.3829999999999991e+00 1.5629449137232333e+01 2.6822514791857792e+01 0 0 0
599 2 7.3829999999999991e+00 1.2787731112280996e+01 2.6822514791857792e+01 0 0 0
1497 2 6.1524999999999990e+00 1.4919019630994494e+01 3.3239485208141353e+01 0 0 0
1498 2 7.3829999999999991e+00 1.5629449137232333e+01 3.3239485208141353e+01 0 0 0
600 2 8.6135000000000002e+00 1.3498160618518835e+01 2.6822514791857792e+01 0 0 0
621 2 8.6135000000000002e+00 1.4919019630994494e+01 2.6822514791857792e+01 0 0 0
622 2 9.8440000000000012e+00 1.5629449137232328e+01 2.6822514791857792e+01 0 0 0
623 2 9.8440000000000012e+00 1.2787731112280996e+01 2.6822514791857792e+01 0 0 0
624 2 1.1074500000000002e+01 1.3498160618518829e+01 2.6822514791857792e+01 0 0 0
642 2 1.1074500000000002e+01 1.4919019630994494e+01 2.6822514791857792e+01 0 0 0
1250 2 0.0000000000000000e+00 1.4208590124756650e+00 3.0031000000000173e+01 0 0 0
1251 2 0.0000000000000000e+00 0.0000000000000000e+00 3.0031000000000173e+01 0 0 0
1254 2 1.2305000000000001e+00 3.5521475311891644e+00 3.0031000000000173e+01 0 0 0
1255 2 1.2305000000000001e+00 2.1312885187134998e+00 3.0031000000000173e+01 0 0 0
1256 2 2.4610000000000003e+00 1.4208590124756650e+00 3.0031000000000173e+01 0 0 0
1257 2 2.4610000000000003e+00 0.0000000000000000e+00 3.0031000000000173e+01 0 0 0
1264 2 3.6914999999999996e+00 3.5521475311891644e+00 3.0031000000000173e+01 0 0 0
1265 2 3.6914999999999996e+00 2.1312885187134998e+00 3.0031000000000173e+01 0 0 0
1266 2 4.9220000000000006e+00 1.4208590124756650e+00 3.0031000000000173e+01 0 0 0
1267 2 4.9220000000000006e+00 0.0000000000000000e+00 3.0031000000000173e+01 0 0 0
1278 2 6.1524999999999999e+00 3.5521475311891644e+00 3.0031000000000173e+01 0 0 0
1279 2 6.1524999999999999e+00 2.1312885187134989e+00 3.0031000000000173e+01 0 0 0
1280 2 7.3829999999999991e+00 1.4208590124756659e+00 3.0031000000000173e+01 0 0 0
1281 2 7.3829999999999991e+00 0.0000000000000000e+00 3.0031000000000173e+01 0 0 0
1296 2 8.6134999999999984e+00 3.5521475311891657e+00 3.0031000000000173e+01 0 0 0
1297 2 8.6134999999999984e+00 2.1312885187135002e+00 3.0031000000000173e+01 0 0 0
1298 2 9.8440000000000012e+00 1.4208590124756659e+00 3.0031000000000173e+01 0 0 0
1299 2 9.8440000000000012e+00 0.0000000000000000e+00 3.0031000000000173e+01 0 0 0
1318 2 1.1074500000000002e+01 3.5521475311891644e+00 3.0031000000000173e+01 0 0 0
1319 2 1.1074500000000002e+01 2.1312885187135002e+00 3.0031000000000173e+01 0 0 0
1252 2 0.0000000000000000e+00 5.6834360499026637e+00 3.0031000000000173e+01 0 0 0
1253 2 0.0000000000000000e+00 4.2625770374269996e+00 3.0031000000000173e+01 0 0 0
1260 2 1.2305000000000001e+00 7.8147245686161639e+00 3.0031000000000173e+01 0 0 0
1261 2 1.2305000000000001e+00 6.3938655561404980e+00 3.0031000000000173e+01 0 0 0
1262 2 2.4610000000000003e+00 5.6834360499026637e+00 3.0031000000000173e+01 0 0 0
1263 2 2.4610000000000003e+00 4.2625770374269996e+00 3.0031000000000173e+01 0 0 0
1274 2 3.6914999999999996e+00 7.8147245686161639e+00 3.0031000000000173e+01 0 0 0
1275 2 3.6914999999999996e+00 6.3938655561404980e+00 3.0031000000000173e+01 0 0 0
1276 2 4.9220000000000006e+00 5.6834360499026637e+00 3.0031000000000173e+01 0 0 0
1277 2 4.9220000000000006e+00 4.2625770374269978e+00 3.0031000000000173e+01 0 0 0
1292 2 6.1524999999999999e+00 7.8147245686161639e+00 3.0031000000000173e+01 0 0 0
1293 2 6.1524999999999999e+00 6.3938655561404980e+00 3.0031000000000173e+01 0 0 0
1294 2 7.3829999999999991e+00 5.6834360499026637e+00 3.0031000000000173e+01 0 0 0
1295 2 7.3829999999999991e+00 4.2625770374269996e+00 3.0031000000000173e+01 0 0 0
1314 2 8.6135000000000002e+00 7.8147245686161639e+00 3.0031000000000173e+01 0 0 0
1315 2 8.6135000000000002e+00 6.3938655561404980e+00 3.0031000000000173e+01 0 0 0
1316 2 9.8440000000000012e+00 5.6834360499026637e+00 3.0031000000000173e+01 0 0 0
1317 2 9.8440000000000012e+00 4.2625770374270004e+00 3.0031000000000173e+01 0 0 0
1337 2 1.1074500000000002e+01 7.8147245686161639e+00 3.0031000000000173e+01 0 0 0
1338 2 1.1074500000000002e+01 6.3938655561404980e+00 3.0031000000000173e+01 0 0 0
1258 2 0.0000000000000000e+00 9.9460130873296642e+00 3.0031000000000173e+01 0 0 0
1259 2 0.0000000000000000e+00 8.5251540748539991e+00 3.0031000000000173e+01 0 0 0
1270 2 1.2305000000000001e+00 1.2077301606043163e+01 3.0031000000000173e+01 0 0 0
1271 2 1.2305000000000001e+00 1.0656442593567498e+01 3.0031000000000173e+01 0 0 0
1272 2 2.4610000000000003e+00 9.9460130873296642e+00 3.0031000000000173e+01 0 0 0
1273 2 2.4610000000000003e+00 8.5251540748539991e+00 3.0031000000000173e+01 0 0 0
1288 2 3.6914999999999996e+00 1.2077301606043163e+01 3.0031000000000173e+01 0 0 0
1289 2 3.6914999999999996e+00 1.0656442593567499e+01 3.0031000000000173e+01 0 0 0
1290 2 4.9220000000000006e+00 9.9460130873296642e+00 3.0031000000000173e+01 0 0 0
1291 2 4.9220000000000006e+00 8.5251540748539991e+00 3.0031000000000173e+01 0 0 0
1310 2 6.1524999999999999e+00 1.2077301606043163e+01 3.0031000000000173e+01 0 0 0
1311 2 6.1524999999999999e+00 1.0656442593567499e+01 3.0031000000000173e+01 0 0 0
1312 2 7.3830000000000009e+00 9.9460130873296642e+00 3.0031000000000173e+01 0 0 0
1313 2 7.3830000000000009e+00 8.5251540748539991e+00 3.0031000000000173e+01 0 0 0
1333 2 8.6135000000000002e+00 1.2077301606043163e+01 3.0031000000000173e+01 0 0 0
1334 2 8.6134999999999984e+00 1.0656442593567498e+01 3.0031000000000173e+01 0 0 0
1335 2 9.8440000000000012e+00 9.9460130873296642e+00 3.0031000000000173e+01 0 0 0
1336 2 9.8440000000000012e+00 8.5251540748539956e+00 3.0031000000000173e+01 0 0 0
1356 2 1.1074500000000002e+01 1.2077301606043163e+01 3.0031000000000173e+01 0 0 0
1357 2 1.1074500000000002e+01 1.0656442593567498e+01 3.0031000000000173e+01 0 0 0
1268 2 0.0000000000000000e+00 1.4208590124756663e+01 3.0031000000000173e+01 0 0 0
1269 2 0.0000000000000000e+00 1.2787731112280996e+01 3.0031000000000173e+01 0 0 0
1285 2 1.2305000000000001e+00 1.4919019630994494e+01 3.0031000000000173e+01 0 0 0
1286 2 2.4610000000000003e+00 1.4208590124756663e+01 3.0031000000000173e+01 0 0 0
1287 2 2.4610000000000003e+00 1.2787731112280996e+01 3.0031000000000173e+01 0 0 0
1307 2 3.6915000000000004e+00 1.4919019630994494e+01 3.0031000000000173e+01 0 0 0
1308 2 4.9220000000000006e+00 1.4208590124756663e+01 3.0031000000000173e+01 0 0 0
1309 2 4.9220000000000006e+00 1.2787731112280996e+01 3.0031000000000173e+01 0 0 0
1330 2 6.1524999999999990e+00 1.4919019630994494e+01 3.0031000000000173e+01 0 0 0
1331 2 7.3830000000000009e+00 1.4208590124756663e+01 3.0031000000000173e+01 0 0 0
1332 2 7.3829999999999991e+00 1.2787731112280996e+01 3.0031000000000173e+01 0 0 0
1374 2 1.1074500000000002e+01 1.4919019630994494e+01 3.0031000000000173e+01 0 0 0
1375 2 1.2304999999999998e+01 1.4208590124756658e+01 3.0031000000000173e+01 0 0 0
1353 2 8.6135000000000002e+00 1.4919019630994494e+01 3.0031000000000173e+01 0 0 0
1354 2 9.8440000000000012e+00 1.4208590124756663e+01 3.0031000000000173e+01 0 0 0
1373 2 1.1074500000000002e+01 1.6339878643470161e+01 3.0031000000000173e+01 0 0 0
1355 2 9.8440000000000012e+00 1.2787731112280996e+01 3.0031000000000173e+01 0 0 0
1411 2 0.0000000000000000e+00 2.8417180249513345e+00 3.3239485208141353e+01 0 0 0
1412 2 0.0000000000000000e+00 0.0000000000000000e+00 3.3239485208141353e+01 0 0 0
1413 2 1.2305000000000001e+00 7.1042950623783474e-01 3.3239485208141353e+01 0 0 0
1417 2 1.2305000000000001e+00 2.1312885187134998e+00 3.3239485208141353e+01 0 0 0
1418 2 2.4610000000000003e+00 2.8417180249513345e+00 3.3239485208141353e+01 0 0 0
1419 2 2.4610000000000003e+00 0.0000000000000000e+00 3.3239485208141353e+01 0 0 0
1420 2 3.6915000000000004e+00 7.1042950623783474e-01 3.3239485208141353e+01 0 0 0
1428 2 3.6914999999999996e+00 2.1312885187134998e+00 3.3239485208141353e+01 0 0 0
4571 1 1.0622616671781615e+00 3.5068251655441283e+00 2.4562533866585255e+01 1 1 1
1522 2 9.8440000000000012e+00 1.5629449137232328e+01 3.3239485208141353e+01 0 0 0
1429 2 4.9220000000000006e+00 2.8417180249513332e+00 3.3239485208141353e+01 0 0 0
1430 2 4.9220000000000006e+00 0.0000000000000000e+00 3.3239485208141353e+01 0 0 0
1431 2 6.1524999999999999e+00 7.1042950623783407e-01 3.3239485208141353e+01 0 0 0
1443 2 6.1524999999999999e+00 2.1312885187134989e+00 3.3239485208141353e+01 0 0 0
1444 2 7.3829999999999991e+00 2.8417180249513345e+00 3.3239485208141353e+01 0 0 0
1445 2 7.3829999999999991e+00 0.0000000000000000e+00 3.3239485208141353e+01 0 0 0
1446 2 8.6134999999999984e+00 7.1042950623783407e-01 3.3239485208141353e+01 0 0 0
1462 2 8.6134999999999984e+00 2.1312885187135002e+00 3.3239485208141353e+01 0 0 0
1463 2 9.8440000000000012e+00 2.8417180249513332e+00 3.3239485208141353e+01 0 0 0
1464 2 9.8440000000000012e+00 0.0000000000000000e+00 3.3239485208141353e+01 0 0 0
1465 2 1.1074500000000002e+01 7.1042950623783330e-01 3.3239485208141353e+01 0 0 0
1485 2 1.1074500000000002e+01 2.1312885187135002e+00 3.3239485208141353e+01 0 0 0
1414 2 0.0000000000000000e+00 7.1042950623783341e+00 3.3239485208141353e+01 0 0 0
1415 2 0.0000000000000000e+00 4.2625770374269996e+00 3.3239485208141353e+01 0 0 0
1416 2 1.2305000000000001e+00 4.9730065436648339e+00 3.3239485208141353e+01 0 0 0
1424 2 1.2305000000000001e+00 6.3938655561404980e+00 3.3239485208141353e+01 0 0 0
1425 2 2.4610000000000003e+00 7.1042950623783341e+00 3.3239485208141353e+01 0 0 0
1426 2 2.4610000000000003e+00 4.2625770374269996e+00 3.3239485208141353e+01 0 0 0
1427 2 3.6914999999999996e+00 4.9730065436648339e+00 3.3239485208141353e+01 0 0 0
1439 2 3.6914999999999996e+00 6.3938655561404980e+00 3.3239485208141353e+01 0 0 0
1524 2 1.1074500000000002e+01 1.3498160618518829e+01 3.3239485208141353e+01 0 0 0
1440 2 4.9220000000000006e+00 7.1042950623783341e+00 3.3239485208141353e+01 0 0 0
1441 2 4.9220000000000006e+00 4.2625770374269978e+00 3.3239485208141353e+01 0 0 0
1442 2 6.1524999999999999e+00 4.9730065436648339e+00 3.3239485208141353e+01 0 0 0
1458 2 6.1524999999999999e+00 6.3938655561404980e+00 3.3239485208141353e+01 0 0 0
1459 2 7.3830000000000009e+00 7.1042950623783341e+00 3.3239485208141353e+01 0 0 0