LAMMPS data file via write_data, version 16 Mar 2018, timestep = 6000000

5021 atoms
2 atom types

0.0000000000000000e+00 4.9219999999999999e+01 xlo xhi
0.0000000000000000e+00 4.9019635930410494e+01 ylo yhi
5.0524257774752357e-01 3.9494757422261074e+01 zlo zhi

Masses

1 18.015
2 12.01

Atoms # atomic

201 2 0.0000000000000000e+00 2.8417180249513345e+00 2.2768102277471289e+00 0 0 0
203 2 0.0000000000000000e+00 0.0000000000000000e+00 2.2768102277471289e+00 0 0 0
205 2 1.2305000000000001e+00 7.1042950623783474e-01 2.2768102277471289e+00 0 0 0
212 2 1.2305000000000001e+00 2.1312885187134998e+00 2.2768102277471289e+00 0 0 0
214 2 2.4610000000000003e+00 2.8417180249513345e+00 2.2768102277471289e+00 0 0 0
216 2 2.4610000000000003e+00 0.0000000000000000e+00 2.2768102277471289e+00 0 0 0
218 2 3.6915000000000004e+00 7.1042950623783474e-01 2.2768102277471289e+00 0 0 0
233 2 3.6914999999999996e+00 2.1312885187134998e+00 2.2768102277471289e+00 0 0 0
235 2 4.9220000000000006e+00 2.8417180249513332e+00 2.2768102277471289e+00 0 0 0
237 2 4.9220000000000006e+00 0.0000000000000000e+00 2.2768102277471289e+00 0 0 0
239 2 6.1524999999999999e+00 7.1042950623783407e-01 2.2768102277471289e+00 0 0 0
262 2 6.1524999999999999e+00 2.1312885187134989e+00 2.2768102277471289e+00 0 0 0
264 2 7.3829999999999991e+00 2.8417180249513345e+00 2.2768102277471289e+00 0 0 0
266 2 7.3829999999999991e+00 0.0000000000000000e+00 2.2768102277471289e+00 0 0 0
268 2 8.6134999999999984e+00 7.1042950623783407e-01 2.2768102277471289e+00 0 0 0
299 2 8.6134999999999984e+00 2.1312885187135002e+00 2.2768102277471289e+00 0 0 0
208 2 0.0000000000000000e+00 4.2625770374269996e+00 2.2768102277471289e+00 0 0 0
210 2 1.2305000000000001e+00 4.9730065436648339e+00 2.2768102277471289e+00 0 0 0
225 2 1.2305000000000001e+00 6.3938655561404980e+00 2.2768102277471289e+00 0 0 0
229 2 2.4610000000000003e+00 4.2625770374269996e+00 2.2768102277471289e+00 0 0 0
231 2 3.6914999999999996e+00 4.9730065436648339e+00 2.2768102277471289e+00 0 0 0
254 2 3.6914999999999996e+00 6.3938655561404980e+00 2.2768102277471289e+00 0 0 0
206 2 0.0000000000000000e+00 7.1042950623783341e+00 2.2768102277471289e+00 0 0 0
227 2 2.4610000000000003e+00 7.1042950623783341e+00 2.2768102277471289e+00 0 0 0
258 2 4.9220000000000006e+00 4.2625770374269978e+00 2.2768102277471289e+00 0 0 0
260 2 6.1524999999999999e+00 4.9730065436648339e+00 2.2768102277471289e+00 0 0 0
291 2 6.1524999999999999e+00 6.3938655561404980e+00 2.2768102277471289e+00 0 0 0
295 2 7.3829999999999991e+00 4.2625770374269996e+00 2.2768102277471289e+00 0 0 0
297 2 8.6135000000000002e+00 4.9730065436648339e+00 2.2768102277471289e+00 0 0 0
336 2 8.6135000000000002e+00 6.3938655561404980e+00 2.2768102277471289e+00 0 0 0
256 2 4.9220000000000006e+00 7.1042950623783341e+00 2.2768102277471289e+00 0 0 0
293 2 7.3830000000000009e+00 7.1042950623783341e+00 2.2768102277471289e+00 0 0 0
221 2 0.0000000000000000e+00 8.5251540748539991e+00 2.2768102277471289e+00 0 0 0
223 2 1.2305000000000001e+00 9.2355835810918343e+00 2.2768102277471289e+00 0 0 0
250 2 2.4610000000000003e+00 8.5251540748539991e+00 2.2768102277471289e+00 0 0 0
252 2 3.6915000000000004e+00 9.2355835810918343e+00 2.2768102277471289e+00 0 0 0
219 2 0.0000000000000000e+00 1.1366872099805333e+01 2.2768102277471289e+00 0 0 0
246 2 1.2305000000000001e+00 1.0656442593567498e+01 2.2768102277471289e+00 0 0 0
248 2 2.4610000000000003e+00 1.1366872099805333e+01 2.2768102277471289e+00 0 0 0
283 2 3.6914999999999996e+00 1.0656442593567499e+01 2.2768102277471289e+00 0 0 0
287 2 4.9220000000000006e+00 8.5251540748539991e+00 2.2768102277471289e+00 0 0 0
289 2 6.1524999999999999e+00 9.2355835810918343e+00 2.2768102277471289e+00 0 0 0
332 2 7.3830000000000009e+00 8.5251540748539991e+00 2.2768102277471289e+00 0 0 0
334 2 8.6134999999999984e+00 9.2355835810918343e+00 2.2768102277471289e+00 0 0 0
285 2 4.9220000000000006e+00 1.1366872099805333e+01 2.2768102277471289e+00 0 0 0
328 2 6.1524999999999999e+00 1.0656442593567499e+01 2.2768102277471289e+00 0 0 0
330 2 7.3829999999999991e+00 1.1366872099805333e+01 2.2768102277471289e+00 0 0 0
375 2 8.6134999999999984e+00 1.0656442593567498e+01 2.2768102277471289e+00 0 0 0
202 2 0.0000000000000000e+00 1.4208590124756650e+00 5.5210157888547968e+00 0 0 0
204 2 0.0000000000000000e+00 0.0000000000000000e+00 5.5210157888547968e+00 0 0 0
213 2 1.2305000000000001e+00 2.1312885187134998e+00 5.5210157888547968e+00 0 0 0
215 2 2.4610000000000003e+00 1.4208590124756650e+00 5.5210157888547968e+00 0 0 0
217 2 2.4610000000000003e+00 0.0000000000000000e+00 5.5210157888547968e+00 0 0 0
234 2 3.6914999999999996e+00 2.1312885187134998e+00 5.5210157888547968e+00 0 0 0
211 2 1.2305000000000001e+00 3.5521475311891644e+00 5.5210157888547968e+00 0 0 0
232 2 3.6914999999999996e+00 3.5521475311891644e+00 5.5210157888547968e+00 0 0 0
530 2 0.0000000000000000e+00 2.8417180249513345e+00 8.7652213499586207e+00 0 0 0
531 2 0.0000000000000000e+00 0.0000000000000000e+00 8.7652213499586207e+00 0 0 0
532 2 1.2305000000000001e+00 7.1042950623783474e-01 8.7652213499586207e+00 0 0 0
536 2 1.2305000000000001e+00 2.1312885187134998e+00 8.7652213499586207e+00 0 0 0
537 2 2.4610000000000003e+00 2.8417180249513345e+00 8.7652213499586207e+00 0 0 0
538 2 2.4610000000000003e+00 0.0000000000000000e+00 8.7652213499586207e+00 0 0 0
539 2 3.6915000000000004e+00 7.1042950623783474e-01 8.7652213499586207e+00 0 0 0
547 2 3.6914999999999996e+00 2.1312885187134998e+00 8.7652213499586207e+00 0 0 0
236 2 4.9220000000000006e+00 1.4208590124756650e+00 5.5210157888547968e+00 0 0 0
238 2 4.9220000000000006e+00 0.0000000000000000e+00 5.5210157888547968e+00 0 0 0
263 2 6.1524999999999999e+00 2.1312885187134989e+00 5.5210157888547968e+00 0 0 0
265 2 7.3829999999999991e+00 1.4208590124756659e+00 5.5210157888547968e+00 0 0 0
267 2 7.3829999999999991e+00 0.0000000000000000e+00 5.5210157888547968e+00 0 0 0
300 2 8.6134999999999984e+00 2.1312885187135002e+00 5.5210157888547968e+00 0 0 0
261 2 6.1524999999999999e+00 3.5521475311891644e+00 5.5210157888547968e+00 0 0 0
298 2 8.6134999999999984e+00 3.5521475311891657e+00 5.5210157888547968e+00 0 0 0
548 2 4.9220000000000006e+00 2.8417180249513332e+00 8.7652213499586207e+00 0 0 0
549 2 4.9220000000000006e+00 0.0000000000000000e+00 8.7652213499586207e+00 0 0 0
550 2 6.1524999999999999e+00 7.1042950623783407e-01 8.7652213499586207e+00 0 0 0
562 2 6.1524999999999999e+00 2.1312885187134989e+00 8.7652213499586207e+00 0 0 0
563 2 7.3829999999999991e+00 2.8417180249513345e+00 8.7652213499586207e+00 0 0 0
564 2 7.3829999999999991e+00 0.0000000000000000e+00 8.7652213499586207e+00 0 0 0
565 2 8.6134999999999984e+00 7.1042950623783407e-01 8.7652213499586207e+00 0 0 0
581 2 8.6134999999999984e+00 2.1312885187135002e+00 8.7652213499586207e+00 0 0 0
207 2 0.0000000000000000e+00 5.6834360499026637e+00 5.5210157888547968e+00 0 0 0
209 2 0.0000000000000000e+00 4.2625770374269996e+00 5.5210157888547968e+00 0 0 0
226 2 1.2305000000000001e+00 6.3938655561404980e+00 5.5210157888547968e+00 0 0 0
228 2 2.4610000000000003e+00 5.6834360499026637e+00 5.5210157888547968e+00 0 0 0
230 2 2.4610000000000003e+00 4.2625770374269996e+00 5.5210157888547968e+00 0 0 0
255 2 3.6914999999999996e+00 6.3938655561404980e+00 5.5210157888547968e+00 0 0 0
224 2 1.2305000000000001e+00 7.8147245686161639e+00 5.5210157888547968e+00 0 0 0
253 2 3.6914999999999996e+00 7.8147245686161639e+00 5.5210157888547968e+00 0 0 0
534 2 0.0000000000000000e+00 4.2625770374269996e+00 8.7652213499586207e+00 0 0 0
535 2 1.2305000000000001e+00 4.9730065436648339e+00 8.7652213499586207e+00 0 0 0
543 2 1.2305000000000001e+00 6.3938655561404980e+00 8.7652213499586207e+00 0 0 0
545 2 2.4610000000000003e+00 4.2625770374269996e+00 8.7652213499586207e+00 0 0 0
546 2 3.6914999999999996e+00 4.9730065436648339e+00 8.7652213499586207e+00 0 0 0
558 2 3.6914999999999996e+00 6.3938655561404980e+00 8.7652213499586207e+00 0 0 0
533 2 0.0000000000000000e+00 7.1042950623783341e+00 8.7652213499586207e+00 0 0 0
544 2 2.4610000000000003e+00 7.1042950623783341e+00 8.7652213499586207e+00 0 0 0
257 2 4.9220000000000006e+00 5.6834360499026637e+00 5.5210157888547968e+00 0 0 0
259 2 4.9220000000000006e+00 4.2625770374269978e+00 5.5210157888547968e+00 0 0 0
292 2 6.1524999999999999e+00 6.3938655561404980e+00 5.5210157888547968e+00 0 0 0
294 2 7.3829999999999991e+00 5.6834360499026637e+00 5.5210157888547968e+00 0 0 0
296 2 7.3829999999999991e+00 4.2625770374269996e+00 5.5210157888547968e+00 0 0 0
337 2 8.6135000000000002e+00 6.3938655561404980e+00 5.5210157888547968e+00 0 0 0
290 2 6.1524999999999999e+00 7.8147245686161639e+00 5.5210157888547968e+00 0 0 0
335 2 8.6135000000000002e+00 7.8147245686161639e+00 5.5210157888547968e+00 0 0 0
560 2 4.9220000000000006e+00 4.2625770374269978e+00 8.7652213499586207e+00 0 0 0
561 2 6.1524999999999999e+00 4.9730065436648339e+00 8.7652213499586207e+00 0 0 0
577 2 6.1524999999999999e+00 6.3938655561404980e+00 8.7652213499586207e+00 0 0 0
579 2 7.3829999999999991e+00 4.2625770374269996e+00 8.7652213499586207e+00 0 0 0
580 2 8.6135000000000002e+00 4.9730065436648339e+00 8.7652213499586207e+00 0 0 0
600 2 8.6135000000000002e+00 6.3938655561404980e+00 8.7652213499586207e+00 0 0 0
559 2 4.9220000000000006e+00 7.1042950623783341e+00 8.7652213499586207e+00 0 0 0
578 2 7.3830000000000009e+00 7.1042950623783341e+00 8.7652213499586207e+00 0 0 0
220 2 0.0000000000000000e+00 9.9460130873296642e+00 5.5210157888547968e+00 0 0 0
222 2 0.0000000000000000e+00 8.5251540748539991e+00 5.5210157888547968e+00 0 0 0
249 2 2.4610000000000003e+00 9.9460130873296642e+00 5.5210157888547968e+00 0 0 0
251 2 2.4610000000000003e+00 8.5251540748539991e+00 5.5210157888547968e+00 0 0 0
245 2 1.2305000000000001e+00 1.2077301606043163e+01 5.5210157888547968e+00 0 0 0
247 2 1.2305000000000001e+00 1.0656442593567498e+01 5.5210157888547968e+00 0 0 0
282 2 3.6914999999999996e+00 1.2077301606043163e+01 5.5210157888547968e+00 0 0 0
284 2 3.6914999999999996e+00 1.0656442593567499e+01 5.5210157888547968e+00 0 0 0
541 2 0.0000000000000000e+00 8.5251540748539991e+00 8.7652213499586207e+00 0 0 0
542 2 1.2305000000000001e+00 9.2355835810918343e+00 8.7652213499586207e+00 0 0 0
556 2 2.4610000000000003e+00 8.5251540748539991e+00 8.7652213499586207e+00 0 0 0
557 2 3.6915000000000004e+00 9.2355835810918343e+00 8.7652213499586207e+00 0 0 0
540 2 0.0000000000000000e+00 1.1366872099805333e+01 8.7652213499586207e+00 0 0 0
554 2 1.2305000000000001e+00 1.0656442593567498e+01 8.7652213499586207e+00 0 0 0
555 2 2.4610000000000003e+00 1.1366872099805333e+01 8.7652213499586207e+00 0 0 0
573 2 3.6914999999999996e+00 1.0656442593567499e+01 8.7652213499586207e+00 0 0 0
286 2 4.9220000000000006e+00 9.9460130873296642e+00 5.5210157888547968e+00 0 0 0
288 2 4.9220000000000006e+00 8.5251540748539991e+00 5.5210157888547968e+00 0 0 0
331 2 7.3830000000000009e+00 9.9460130873296642e+00 5.5210157888547968e+00 0 0 0
333 2 7.3830000000000009e+00 8.5251540748539991e+00 5.5210157888547968e+00 0 0 0
327 2 6.1524999999999999e+00 1.2077301606043163e+01 5.5210157888547968e+00 0 0 0
329 2 6.1524999999999999e+00 1.0656442593567499e+01 5.5210157888547968e+00 0 0 0
374 2 8.6135000000000002e+00 1.2077301606043163e+01 5.5210157888547968e+00 0 0 0
376 2 8.6134999999999984e+00 1.0656442593567498e+01 5.5210157888547968e+00 0 0 0
575 2 4.9220000000000006e+00 8.5251540748539991e+00 8.7652213499586207e+00 0 0 0
576 2 6.1524999999999999e+00 9.2355835810918343e+00 8.7652213499586207e+00 0 0 0
598 2 7.3830000000000009e+00 8.5251540748539991e+00 8.7652213499586207e+00 0 0 0
599 2 8.6134999999999984e+00 9.2355835810918343e+00 8.7652213499586207e+00 0 0 0
574 2 4.9220000000000006e+00 1.1366872099805333e+01 8.7652213499586207e+00 0 0 0
596 2 6.1524999999999999e+00 1.0656442593567499e+01 8.7652213499586207e+00 0 0 0
597 2 7.3829999999999991e+00 1.1366872099805333e+01 8.7652213499586207e+00 0 0 0
620 2 8.6134999999999984e+00 1.0656442593567498e+01 8.7652213499586207e+00 0 0 0
1383 1 3.5623101970112332e+00 1.7468791905638876e+00 1.1083919565694707e+01 1 0 0
2440 1 9.7817330770753441e-01 8.3398142068944603e-01 1.4465240379436025e+01 0 -1 0
1206 1 3.5497151821131645e+00 2.0720516534630460e+00 1.4762054367321138e+01 -2 -1 0
3584 1 9.7617679903596821e-01 9.4908076829981780e-01 1.1822021431522916e+01 1 -2 0
2316 1 6.0549278968023810e+00 7.4943427637980975e-01 1.1445318600903166e+01 3 3 0
2424 1 8.3081829850238513e+00 2.3246292225690821e+00 1.1106727966605741e+01 1 -2 -1
2165 1 8.4255336902862297e+00 2.1434974874984221e+00 1.5064168675770224e+01 0 1 0
3516 1 6.0677944382558211e+00 7.4688494239616454e-01 1.4425936774379622e+01 0 1 -1
2358 1 3.4466391812057928e+00 4.5262855052090831e+00 1.1245743377279769e+01 2 2 0
3597 1 1.2270651335025264e+00 6.2142827318744995e+00 1.1511450120060838e+01 -1 -2 0
4705 1 4.0575031761331113e+00 4.6111137574421379e+00 1.3985409072252578e+01 1 1 0
3842 1 1.3853503078864855e+00 6.0533481459621266e+00 1.4416951773889634e+01 3 1 0
1368 1 8.4515742881582092e+00 4.9216064710358411e+00 1.1577264158945122e+01 0 1 0
3685 1 5.8553853253019481e+00 5.8760088515673825e+00 1.1401090565583342e+01 1 0 0
1218 1 8.6501265850150073e+00 4.6717636476368254e+00 1.4362575468277774e+01 -1 -1 0
3545 1 6.1925507627801437e+00 5.9008589684013240e+00 1.4877073139648120e+01 -3 0 0
3653 1 1.4041240267711652e+00 9.0167570030998458e+00 1.1342636147438762e+01 1 -1 -1
2624 1 3.8071604392432663e+00 1.0207294497671089e+01 1.1262783013283441e+01 4 -1 1
1004 1 8.2425789650556947e-01 8.8162456135698459e+00 1.4253609721471719e+01 1 0 0
4720 1 6.1863348965635767e+00 8.6953486028866376e+00 1.1473143612200982e+01 0 0 -1
4815 1 8.6819699484764019e+00 9.7961721074745078e+00 1.1401535797728734e+01 1 3 0
4718 1 5.8857377372939652e+00 8.2723983941242167e+00 1.4041550530898744e+01 1 1 -1
3954 1 8.4232804548337548e+00 9.6523949106680700e+00 1.4680950775057376e+01 1 0 1
1484 1 3.5507718611634758e+00 1.7701914701683474e+00 1.7589889879490340e+01 0 0 1
1324 1 1.3085458175993454e+00 6.5741785124087893e-01 1.8378097063699258e+01 1 -2 0
130 1 8.1720179939585904e+00 1.9352706560844981e+00 1.7785191305600392e+01 0 -1 1
4978 1 8.4230802892088565e+00 9.7715847198392112e+00 1.7643195384284052e+01 -2 -2 0
1182 1 3.9262427596419696e+00 4.3478734388635312e+00 1.8547856901454672e+01 0 2 0
4799 1 1.8504400381102415e+00 5.4949951088672622e+00 1.7199201570842074e+01 -3 -1 0
3600 1 8.2665378811132566e+00 4.4255904987622117e+00 1.8496175902086211e+01 -1 -1 0
909 1 5.9872145685231581e+00 5.8077663756329132e+00 1.7698825475138594e+01 0 -1 0
3813 1 3.4450415807623793e+00 9.7606658709068927e+00 1.4808968773152452e+01 1 0 0
4988 1 1.7318327144654040e+00 8.5608384395585606e+00 1.8291254036169811e+01 -1 0 -1
60 1 3.8743648683758192e+00 9.9810999013817732e+00 1.7374096668872308e+01 2 1 0
1370 1 5.9276724034114450e+00 8.3280025382186871e+00 1.8450378734712615e+01 0 0 0
8 1 6.0036698837096028e+00 6.1718919616164836e-01 1.8280822340314362e+01 -1 3 1
3745 1 1.5528444075341068e+00 3.3747134192794497e+00 2.1916348563062574e+01 1 0 -1
54 1 6.0467622739662863e+00 5.3081781240471271e-01 2.1046571082010615e+01 1 2 -1
4836 1 1.6355966388143586e+00 2.9084415170423235e+00 2.4501065453984776e+01 1 2 0
3957 1 6.2720626892512463e+00 3.2518564547428763e+00 2.2105596905885925e+01 -1 0 0
2536 1 6.7037227592604465e+00 8.0663020122670659e+00 2.8609949057597568e+01 0 -1 0
1085 1 4.0684334323585363e+00 4.6351527302264914e+00 2.1282904184954504e+01 -1 1 0
4954 1 4.3375895847944337e+00 7.3621655428769879e+00 2.1959504017955620e+01 -1 0 -1
1246 1 4.3334747684685508e+00 6.9318839423617069e+00 2.4758713980544545e+01 -1 0 -1
1300 1 8.3440895920594294e+00 4.7432166186664562e+00 2.1255298777729536e+01 2 1 0
2653 1 8.6965044733594343e+00 7.4793370341297001e+00 2.1874356230950603e+01 0 1 0
4791 1 8.6752720945144688e+00 7.1541771677321808e+00 2.4482213960908368e+01 1 2 0
2603 1 2.0485508085275299e+00 8.6539713057232444e+00 2.1009886591070320e+01 2 0 0
4847 1 1.3914317727748018e+00 1.1231943197848407e+01 2.1785802753190900e+01 1 -1 -1
3753 1 1.8178762682623644e+00 1.1153760445166448e+01 2.4574043238302494e+01 0 0 0
3454 1 6.2758921907808194e+00 8.8038425470157993e+00 2.1097182869376038e+01 0 0 1
2246 1 6.0495304209599459e+00 1.1371863988701829e+01 2.1608446177042140e+01 3 2 0
4807 1 6.2369515322827747e+00 1.1415609893029689e+01 2.4254887838793319e+01 -1 0 0
3971 1 3.9417350849456980e+00 1.5754761274733045e+00 2.5370883935347120e+01 0 2 0
4670 1 3.9576632426163720e+00 1.5397727843210947e+00 2.7892049963808606e+01 -1 -2 0
1258 1 3.7003794151913532e+00 4.1028033980823757e+00 2.8937396400737679e+01 1 1 0
1152 1 9.1533274577120736e+00 9.6928016921718161e+00 2.7603962792677905e+01 -1 -2 0
911 1 6.4745817161037298e+00 3.1952036093820770e+00 2.4810706725228584e+01 -1 2 0
989 1 8.8076969331428270e+00 1.3966935625665353e+00 2.5396967862227079e+01 -1 0 -1
3705 1 8.5313499724707160e+00 1.3756741252673048e+00 2.8229355132766774e+01 2 0 0
1013 1 8.5274019592224288e+00 9.8106546388263052e+00 2.4881739044802138e+01 0 0 0
4880 1 2.0058972032205289e+00 5.6441884136413361e+00 2.5268012468072751e+01 1 0 0
3474 1 1.6800326391253746e+00 5.5763792401248766e+00 2.7899833979092879e+01 -2 1 0
3856 1 8.5937841393252317e+00 3.9901477421243912e+00 2.9008248032603298e+01 1 0 0
4891 1 6.3218656111718232e+00 5.3486120816227913e+00 2.8230937818391691e+01 -1 1 0
2574 1 6.3623528971857404e+00 5.7342107323421505e+00 2.5661593201577634e+01 0 -1 -1
3969 1 1.9014063848463862e+00 8.3794913310890333e+00 2.8853709201429137e+01 0 -1 1
4650 1 4.1438754525534058e+00 9.7784072616377653e+00 2.5145106755970797e+01 2 2 0
2240 1 4.2502109631051894e+00 9.4023879111747615e+00 2.7813283473498444e+01 4 0 0
1266 1 1.4913688133991327e+00 5.7782579022058278e-01 2.1174770418183023e+01 1 1 0
3839 1 1.6291837940815688e+00 7.0752579629014323e-02 2.8416332080532261e+01 1 -3 0
907 1 6.3559481973806768e+00 1.6193571814490879e-01 2.9095958790806105e+01 2 0 0
2159 1 4.3253246487210371e+00 1.2071724763337329e+01 2.8788442696810197e+01 2 1 0
3410 1 1.9589403129057257e+00 2.7880681517918298e+00 3.2549143257349080e+01 -3 -1 -1
2494 1 6.3828819903845586e+00 2.7089677258220184e+00 3.2669841112468525e+01 0 2 0
4945 1 6.2037200588671597e+00 4.2546138803731821e-02 3.8507124598023786e+01 3 3 0
1005 1 4.1993705159426717e+00 4.1534141354876786e+00 3.1552965440279465e+01 0 -1 0
3718 1 3.9758026578708625e+00 7.0394415089775340e+00 3.2212680912579010e+01 1 2 0
2632 1 8.4017757679181209e+00 4.2708325015456410e+00 3.1758822043478510e+01 -3 6 1
3563 1 8.8103589043880373e+00 6.6935947193040031e+00 3.2575486522625511e+01 0 1 0
180 1 6.5497324793589309e+00 8.0147107274586329e+00 3.1398527789373357e+01 0 0 0
4901 1 1.5139770317782797e+00 8.1985034248349340e+00 3.1501436769995340e+01 -1 1 0
1410 1 2.2515827982828358e+00 1.0857635035770331e+01 3.2510737745808235e+01 2 -1 0
1021 1 6.7120967276601213e+00 1.1040146408877284e+01 3.2369846929122033e+01 -3 1 0
3681 1 1.6923210625551370e+00 2.6341808771063078e+00 3.8919018536192112e+01 3 3 -1
3412 1 1.2762241794687967e+00 2.8137958192484147e+00 3.5559942502193785e+01 -2 -1 0
5013 1 3.8467712058004637e+00 4.2167711831709109e+00 3.5701515402776344e+01 0 3 -1
4733 1 3.7497473648620665e+00 4.5727952271473162e+00 3.8545022469080841e+01 -1 1 0
3768 1 6.0496016191991675e+00 2.7817766082112905e+00 3.5730352261521951e+01 0 1 0
2485 1 6.1896063232900964e+00 3.2064274184783099e+00 3.8511342965039482e+01 -1 -1 0
1033 1 4.5044008259156385e+00 7.0688835511717310e+00 3.4768873655031612e+01 1 1 -1
3453 1 4.9842238254838911e+00 7.3992686028807206e+00 3.8642374335176157e+01 0 0 -1
2364 1 8.5205538828118677e+00 4.2539434142602675e+00 3.5919181080252670e+01 -1 1 0
2645 1 8.5147501805323405e+00 4.4031957530921533e+00 3.8779565044174170e+01 3 -1 0
2268 1 8.6022499231693299e+00 6.9590842244637763e+00 3.5398232180544056e+01 1 0 -1
986 1 1.4241030382540636e+00 1.0958934436687857e-01 3.5808816142601181e+01 0 3 0
3729 1 2.3438698692560784e+00 8.3894357124794272e+00 3.5911526500378692e+01 2 -1 0
4678 1 2.4251997796897231e+00 8.8912109181744547e+00 3.8620665439897301e+01 2 0 -1
3636 1 1.7545399129709329e+00 1.0817919842142178e+01 3.5450281550269743e+01 0 -1 -1
3580 1 3.9445490705846864e+00 1.1278851564308752e+01 3.8961909464919820e+01 1 2 -1
1427 1 6.1641378612832805e+00 1.1026372342914595e+01 3.5000597729651524e+01 0 1 0
3623 1 6.6144638912617069e+00 1.0122213703896897e+01 3.8891700730195723e+01 0 -2 -1
3511 1 6.5471958077109313e+00 8.5446912783997693e+00 3.6220027143557871e+01 0 -3 0
999 1 9.0501198602590200e+00 1.1523780240087287e+01 3.8418670196623900e+01 2 2 1
3507 1 8.4506227837012720e+00 1.2251927848734317e+01 3.5687525743466587e+01 -1 -1 0
1222 1 6.1633903337658102e+00 9.4263639060443438e-02 3.1952077168321143e+01 0 1 0
242 2 0.0000000000000000e+00 1.2787731112280996e+01 2.2768102277471289e+00 0 0 0
244 2 1.2305000000000001e+00 1.3498160618518829e+01 2.2768102277471289e+00 0 0 0
279 2 2.4610000000000003e+00 1.2787731112280996e+01 2.2768102277471289e+00 0 0 0
281 2 3.6915000000000004e+00 1.3498160618518829e+01 2.2768102277471289e+00 0 0 0
240 2 0.0000000000000000e+00 1.5629449137232333e+01 2.2768102277471289e+00 0 0 0
275 2 1.2305000000000001e+00 1.4919019630994494e+01 2.2768102277471289e+00 0 0 0
277 2 2.4610000000000003e+00 1.5629449137232328e+01 2.2768102277471289e+00 0 0 0
320 2 3.6915000000000004e+00 1.4919019630994494e+01 2.2768102277471289e+00 0 0 0
324 2 4.9220000000000006e+00 1.2787731112280996e+01 2.2768102277471289e+00 0 0 0
326 2 6.1524999999999990e+00 1.3498160618518829e+01 2.2768102277471289e+00 0 0 0
371 2 7.3829999999999991e+00 1.2787731112280996e+01 2.2768102277471289e+00 0 0 0
373 2 8.6135000000000002e+00 1.3498160618518835e+01 2.2768102277471289e+00 0 0 0
322 2 4.9220000000000006e+00 1.5629449137232333e+01 2.2768102277471289e+00 0 0 0
367 2 6.1524999999999990e+00 1.4919019630994494e+01 2.2768102277471289e+00 0 0 0
369 2 7.3829999999999991e+00 1.5629449137232333e+01 2.2768102277471289e+00 0 0 0
414 2 8.6135000000000002e+00 1.4919019630994494e+01 2.2768102277471289e+00 0 0 0
271 2 0.0000000000000000e+00 1.7050308149707998e+01 2.2768102277471289e+00 0 0 0
316 2 2.4610000000000003e+00 1.7050308149707998e+01 2.2768102277471289e+00 0 0 0
269 2 0.0000000000000000e+00 1.9892026174659328e+01 2.2768102277471289e+00 0 0 0
273 2 1.2305000000000001e+00 1.7760737655945832e+01 2.2768102277471289e+00 0 0 0
312 2 1.2305000000000001e+00 1.9181596668421495e+01 2.2768102277471289e+00 0 0 0
314 2 2.4610000000000003e+00 1.9892026174659328e+01 2.2768102277471289e+00 0 0 0
318 2 3.6914999999999996e+00 1.7760737655945832e+01 2.2768102277471289e+00 0 0 0
359 2 3.6914999999999996e+00 1.9181596668421495e+01 2.2768102277471289e+00 0 0 0
363 2 4.9220000000000006e+00 1.7050308149707998e+01 2.2768102277471289e+00 0 0 0
410 2 7.3830000000000009e+00 1.7050308149707998e+01 2.2768102277471289e+00 0 0 0
361 2 4.9220000000000006e+00 1.9892026174659328e+01 2.2768102277471289e+00 0 0 0
365 2 6.1524999999999999e+00 1.7760737655945832e+01 2.2768102277471289e+00 0 0 0
406 2 6.1524999999999999e+00 1.9181596668421495e+01 2.2768102277471289e+00 0 0 0
408 2 7.3829999999999991e+00 1.9892026174659328e+01 2.2768102277471289e+00 0 0 0
412 2 8.6134999999999984e+00 1.7760737655945832e+01 2.2768102277471289e+00 0 0 0
448 2 8.6135000000000002e+00 1.9181596668421495e+01 2.2768102277471289e+00 0 0 0
306 2 0.0000000000000000e+00 2.4154603212086325e+01 2.2768102277471289e+00 0 0 0
308 2 0.0000000000000000e+00 2.1312885187134999e+01 2.2768102277471289e+00 0 0 0
310 2 1.2304999999999993e+00 2.2023314693372832e+01 2.2768102277471289e+00 0 0 0
351 2 1.2304999999999993e+00 2.3444173705848499e+01 2.2768102277471289e+00 0 0 0
353 2 2.4610000000000003e+00 2.4154603212086325e+01 2.2768102277471289e+00 0 0 0
355 2 2.4610000000000003e+00 2.1312885187134995e+01 2.2768102277471289e+00 0 0 0
357 2 3.6914999999999996e+00 2.2023314693372832e+01 2.2768102277471289e+00 0 0 0
398 2 3.6915000000000004e+00 2.3444173705848499e+01 2.2768102277471289e+00 0 0 0
400 2 4.9220000000000006e+00 2.4154603212086325e+01 2.2768102277471289e+00 0 0 0
402 2 4.9220000000000006e+00 2.1312885187134995e+01 2.2768102277471289e+00 0 0 0
404 2 6.1524999999999990e+00 2.2023314693372832e+01 2.2768102277471289e+00 0 0 0
440 2 6.1524999999999999e+00 2.3444173705848499e+01 2.2768102277471289e+00 0 0 0
442 2 7.3830000000000009e+00 2.4154603212086336e+01 2.2768102277471289e+00 0 0 0
444 2 7.3829999999999991e+00 2.1312885187134999e+01 2.2768102277471289e+00 0 0 0
446 2 8.6135000000000002e+00 2.2023314693372832e+01 2.2768102277471289e+00 0 0 0
474 2 8.6134999999999984e+00 2.3444173705848499e+01 2.2768102277471289e+00 0 0 0
243 2 0.0000000000000000e+00 1.2787731112280996e+01 5.5210157888547968e+00 0 0 0
280 2 2.4610000000000003e+00 1.2787731112280996e+01 5.5210157888547968e+00 0 0 0
241 2 0.0000000000000000e+00 1.4208590124756663e+01 5.5210157888547968e+00 0 0 0
276 2 1.2305000000000001e+00 1.4919019630994494e+01 5.5210157888547968e+00 0 0 0
278 2 2.4610000000000003e+00 1.4208590124756663e+01 5.5210157888547968e+00 0 0 0
321 2 3.6915000000000004e+00 1.4919019630994494e+01 5.5210157888547968e+00 0 0 0
552 2 0.0000000000000000e+00 1.2787731112280996e+01 8.7652213499586207e+00 0 0 0
553 2 1.2305000000000001e+00 1.3498160618518829e+01 8.7652213499586207e+00 0 0 0
571 2 2.4610000000000003e+00 1.2787731112280996e+01 8.7652213499586207e+00 0 0 0
572 2 3.6915000000000004e+00 1.3498160618518829e+01 8.7652213499586207e+00 0 0 0
551 2 0.0000000000000000e+00 1.5629449137232333e+01 8.7652213499586207e+00 0 0 0
569 2 1.2305000000000001e+00 1.4919019630994494e+01 8.7652213499586207e+00 0 0 0
570 2 2.4610000000000003e+00 1.5629449137232328e+01 8.7652213499586207e+00 0 0 0
592 2 3.6915000000000004e+00 1.4919019630994494e+01 8.7652213499586207e+00 0 0 0
325 2 4.9220000000000006e+00 1.2787731112280996e+01 5.5210157888547968e+00 0 0 0
372 2 7.3829999999999991e+00 1.2787731112280996e+01 5.5210157888547968e+00 0 0 0
323 2 4.9220000000000006e+00 1.4208590124756663e+01 5.5210157888547968e+00 0 0 0
368 2 6.1524999999999990e+00 1.4919019630994494e+01 5.5210157888547968e+00 0 0 0
370 2 7.3830000000000009e+00 1.4208590124756663e+01 5.5210157888547968e+00 0 0 0
415 2 8.6135000000000002e+00 1.4919019630994494e+01 5.5210157888547968e+00 0 0 0
594 2 4.9220000000000006e+00 1.2787731112280996e+01 8.7652213499586207e+00 0 0 0
595 2 6.1524999999999990e+00 1.3498160618518829e+01 8.7652213499586207e+00 0 0 0
618 2 7.3829999999999991e+00 1.2787731112280996e+01 8.7652213499586207e+00 0 0 0
619 2 8.6135000000000002e+00 1.3498160618518835e+01 8.7652213499586207e+00 0 0 0
593 2 4.9220000000000006e+00 1.5629449137232333e+01 8.7652213499586207e+00 0 0 0
616 2 6.1524999999999990e+00 1.4919019630994494e+01 8.7652213499586207e+00 0 0 0
617 2 7.3829999999999991e+00 1.5629449137232333e+01 8.7652213499586207e+00 0 0 0
640 2 8.6135000000000002e+00 1.4919019630994494e+01 8.7652213499586207e+00 0 0 0
272 2 0.0000000000000000e+00 1.7050308149707998e+01 5.5210157888547968e+00 0 0 0
274 2 1.2305000000000001e+00 1.6339878643470165e+01 5.5210157888547968e+00 0 0 0
317 2 2.4610000000000003e+00 1.7050308149707998e+01 5.5210157888547968e+00 0 0 0
319 2 3.6915000000000004e+00 1.6339878643470165e+01 5.5210157888547968e+00 0 0 0
270 2 0.0000000000000000e+00 1.8471167162183658e+01 5.5210157888547968e+00 0 0 0
313 2 1.2305000000000001e+00 1.9181596668421495e+01 5.5210157888547968e+00 0 0 0
315 2 2.4610000000000003e+00 1.8471167162183658e+01 5.5210157888547968e+00 0 0 0
360 2 3.6914999999999996e+00 1.9181596668421495e+01 5.5210157888547968e+00 0 0 0
567 2 0.0000000000000000e+00 1.7050308149707998e+01 8.7652213499586207e+00 0 0 0
590 2 2.4610000000000003e+00 1.7050308149707998e+01 8.7652213499586207e+00 0 0 0
566 2 0.0000000000000000e+00 1.9892026174659328e+01 8.7652213499586207e+00 0 0 0
568 2 1.2305000000000001e+00 1.7760737655945832e+01 8.7652213499586207e+00 0 0 0
588 2 1.2305000000000001e+00 1.9181596668421495e+01 8.7652213499586207e+00 0 0 0
589 2 2.4610000000000003e+00 1.9892026174659328e+01 8.7652213499586207e+00 0 0 0
591 2 3.6914999999999996e+00 1.7760737655945832e+01 8.7652213499586207e+00 0 0 0
612 2 3.6914999999999996e+00 1.9181596668421495e+01 8.7652213499586207e+00 0 0 0
364 2 4.9220000000000006e+00 1.7050308149707998e+01 5.5210157888547968e+00 0 0 0
366 2 6.1524999999999999e+00 1.6339878643470165e+01 5.5210157888547968e+00 0 0 0
411 2 7.3830000000000009e+00 1.7050308149707998e+01 5.5210157888547968e+00 0 0 0
413 2 8.6134999999999984e+00 1.6339878643470165e+01 5.5210157888547968e+00 0 0 0
362 2 4.9220000000000006e+00 1.8471167162183658e+01 5.5210157888547968e+00 0 0 0
407 2 6.1524999999999999e+00 1.9181596668421495e+01 5.5210157888547968e+00 0 0 0
409 2 7.3829999999999991e+00 1.8471167162183658e+01 5.5210157888547968e+00 0 0 0
449 2 8.6135000000000002e+00 1.9181596668421495e+01 5.5210157888547968e+00 0 0 0
614 2 4.9220000000000006e+00 1.7050308149707998e+01 8.7652213499586207e+00 0 0 0
638 2 7.3830000000000009e+00 1.7050308149707998e+01 8.7652213499586207e+00 0 0 0
613 2 4.9220000000000006e+00 1.9892026174659328e+01 8.7652213499586207e+00 0 0 0
615 2 6.1524999999999999e+00 1.7760737655945832e+01 8.7652213499586207e+00 0 0 0
636 2 6.1524999999999999e+00 1.9181596668421495e+01 8.7652213499586207e+00 0 0 0
637 2 7.3829999999999991e+00 1.9892026174659328e+01 8.7652213499586207e+00 0 0 0
639 2 8.6134999999999984e+00 1.7760737655945832e+01 8.7652213499586207e+00 0 0 0
657 2 8.6135000000000002e+00 1.9181596668421495e+01 8.7652213499586207e+00 0 0 0
311 2 1.2305000000000001e+00 2.0602455680897162e+01 5.5210157888547968e+00 0 0 0
358 2 3.6915000000000004e+00 2.0602455680897162e+01 5.5210157888547968e+00 0 0 0
307 2 0.0000000000000000e+00 2.2733744199610655e+01 5.5210157888547968e+00 0 0 0
309 2 0.0000000000000000e+00 2.1312885187134999e+01 5.5210157888547968e+00 0 0 0
352 2 1.2304999999999993e+00 2.3444173705848499e+01 5.5210157888547968e+00 0 0 0
354 2 2.4610000000000003e+00 2.2733744199610655e+01 5.5210157888547968e+00 0 0 0