LAMMPS data file via write_data, version 16 Mar 2018, timestep = 100000

6489 atoms
2 atom types

0.0000000000000000e+00 4.9219999999999999e+01 xlo xhi
0.0000000000000000e+00 4.9019635930410494e+01 ylo yhi
2.0200167437517536e+00 5.8041983256247825e+01 zlo zhi

Masses

1 18.015
2 12.01

Atoms # atomic

3131 1 2.3079111429276042e+00 4.7598310906858368e+00 3.5714119338668340e+00 0 1 1
2909 1 7.6499610336381716e+00 5.5561903577184939e+00 5.0313760618671086e+00 1 0 1
3407 1 8.1875022408479712e+00 1.1592688287415713e+01 7.5912394105008971e+00 0 -1 0
4580 1 4.4504919248512476e+00 4.6345595659509167e+00 6.7942925642298952e+00 0 0 1
5249 1 5.8028197479223420e-01 4.2105045085124519e+00 6.7331212321988323e+00 1 -1 0
263 1 5.0375295978606580e+00 6.6440427779292870e+00 4.6334103550261068e+00 0 0 0
1686 1 1.6678328250691647e+00 6.3718914480872284e+00 8.0499998767811860e+00 0 2 1
222 1 2.2623443428157746e+00 9.3962872158523680e+00 4.6011640308603603e+00 0 1 0
4595 1 7.9415128600349272e+00 2.4400592129381130e-01 3.4534564540684558e+00 1 2 0
219 1 7.6274850883027168e-01 1.0607254875940225e+01 7.5184388392933048e+00 0 0 1
4708 1 1.3475623386253517e+00 1.1586576747601020e+01 3.1404958779555869e+00 1 1 0
3546 1 2.6866182453833827e+00 2.8364390998895290e+00 5.8138133215813212e+00 0 1 0
3633 1 3.0000090307711296e+00 7.3264571378955461e+00 2.2685105074283118e+00 0 1 1
16 1 7.5882719615784255e+00 1.1606502048474876e+01 2.9131577853067800e+00 0 0 1
1917 1 6.3029016117606256e+00 9.4915089525700524e-01 5.5828293815882200e+00 1 1 0
1757 1 6.1410872861631267e+00 7.8757529897659495e+00 2.2629874394821843e+00 1 1 1
3359 1 1.6895701463414492e-01 8.1093434989430051e+00 6.2155956947245992e+00 1 0 0
2904 1 7.1668271313442613e+00 3.2856140519431132e+00 6.6972445607140614e+00 1 1 1
1977 1 8.8327721907052421e+00 8.9833177369189201e+00 2.6043641260711490e+00 0 0 0
1955 1 3.8963313593181637e+00 1.1393418343012045e+00 3.7783561899726479e+00 0 0 0
1289 1 5.0183551212857678e+00 8.2573600497361799e+00 6.8591979866496144e+00 1 -1 1
5029 1 3.4068627515293328e+00 1.0651139136005003e+01 6.9817574279459285e+00 1 1 1
1699 1 7.8949569960805324e+00 9.0778743152319539e+00 7.0319512430993374e+00 0 1 0
1766 1 7.5590895692387177e+00 4.3715568302991619e+00 2.5341928885445117e+00 1 0 0
6157 1 9.5254189105378888e+00 7.8148462896206601e+00 5.3033996640902021e+00 0 1 1
1611 1 4.2823469008387214e+00 6.3770677651261378e+00 8.9760538961089189e+00 0 1 1
3279 1 6.2090854095930563e+00 1.9076959347581075e+00 2.0758397054247695e+00 0 0 1
3018 1 2.2481640543882615e+00 2.5411617280236545e+00 1.1919975551027358e+01 0 0 1
6288 1 4.7209692840634974e+00 1.9352925110210484e+00 1.2670229541244369e+01 0 1 1
1617 1 1.0916947909049977e+00 1.2269977904156990e+00 1.3909546062482008e+01 0 1 1
1994 1 8.7789675639168552e-01 7.1136356449502438e+00 1.0817867541535776e+01 0 1 0
4831 1 6.6476157120737041e+00 4.0829912014856067e+00 1.1767945207638595e+01 1 0 0
5319 1 1.2423774529279914e+00 1.0224624170586120e+01 1.4033270301183142e+01 0 0 0
3801 1 9.1718687301335198e+00 2.9642107407207354e+00 1.1712825258345074e+01 0 -1 0
374 1 6.0065813669678043e+00 1.1183096347850050e+01 1.4625164116800590e+01 0 -1 1
70 1 6.4047283992024671e+00 8.5757265949895576e+00 1.0434951553631297e+01 1 1 0
3635 1 2.3080055451558810e+00 9.4410898308515545e+00 1.1623624174622670e+01 0 0 0
4723 1 9.7051290415153630e+00 2.0696274257689407e+00 1.3999083296896885e+01 0 1 0
364 1 7.8145975500147626e+00 7.0466473528829332e-01 1.5729784253227216e+01 0 -1 1
6407 1 9.7617591733513969e+00 1.1439236826090669e+01 1.2980120451436738e+01 0 0 0
2938 1 6.0133439981940446e+00 2.9076636931810689e+00 1.4999527462583929e+01 1 1 1
5076 1 4.2926950399408748e+00 1.0338153126238504e+01 9.7380414952486376e+00 1 1 0
1533 1 3.6753573485592659e+00 1.0089421436147829e+01 1.5296041162281959e+01 1 1 1
4977 1 7.5101269560908008e+00 9.5712679138141485e+00 1.2672101405032040e+01 1 0 0
1664 1 6.3676665499843410e-01 1.2367705214846172e+00 9.9220350181560448e+00 1 0 0
3194 1 5.4006226479085182e+00 6.6058388397567693e+00 1.2223140917070035e+01 1 0 1
5069 1 4.7320995255675662e+00 7.6371663924589344e+00 1.4876548606100815e+01 0 0 0
3575 1 9.0897776627110698e+00 7.5174538239522466e+00 1.3920840831539250e+01 0 0 0
5360 1 1.5266507056272862e+00 5.0854082996461738e+00 1.2699133885582746e+01 0 0 0
1992 1 7.3541814605569487e+00 5.6149200198655471e+00 1.4590645124382091e+01 0 0 0
297 1 8.3265543404605040e+00 7.1299527661661157e+00 9.0376991812925471e+00 0 0 0
5291 1 2.2550800953602264e+00 6.0274709363388972e+00 1.5230538969826917e+01 1 0 0
3570 1 4.2164677957770352e-01 8.0171135997582024e+00 1.5405942604284565e+01 1 0 0
5242 1 8.5596322275493222e+00 9.9749029251741259e+00 1.5781142824407178e+01 0 0 0
4528 1 9.5910929493337296e+00 4.1252696545651046e+00 1.5600237506488178e+01 -1 0 1
3665 1 6.8108650695330670e+00 4.9556951109079055e+00 9.0389780540823779e+00 0 0 0
14 1 2.5473822506424382e+00 1.1559984642644478e+01 2.1486836259459601e+01 0 -1 0
5346 1 4.1637479038136229e+00 5.2193330555456159e+00 1.7561128057312082e+01 0 1 1
6236 1 2.9739519037477624e+00 1.0853407056960732e+01 1.7841615779810876e+01 0 0 1
3374 1 8.4451044666565576e+00 2.7089332854075443e+00 1.8028874023299640e+01 1 0 0
3516 1 7.2253191371031358e+00 5.1167868605502402e+00 1.9168072890236729e+01 2 1 0
4729 1 6.2398527061342994e+00 9.5591629522848098e+00 2.0834375123233681e+01 0 1 0
383 1 4.3961499135513948e+00 7.2728469224072834e+00 1.9633141740967798e+01 1 0 1
4546 1 2.1318472185527746e+00 8.8773337898273983e+00 1.9731000935798900e+01 0 1 1
5041 1 3.9269610944816198e+00 9.7333128821154458e-01 2.1013360241905588e+01 0 1 1
1418 1 1.0175384889381396e+00 4.3980570092659779e+00 1.7542792145059543e+01 0 1 1
3591 1 7.8993591519813089e+00 8.7632248516224820e+00 1.8211511376675436e+01 1 0 0
109 1 9.7044920370000121e+00 1.2232763610135887e+01 1.6845561017255811e+01 1 2 1
6160 1 8.1143170048325342e+00 1.3572711740982557e+00 2.1750873372505865e+01 1 0 1
1772 1 5.1868115105970150e+00 1.1511596620644179e+01 1.9360067847849557e+01 1 1 1
3642 1 6.2678813236218600e-01 6.6633756061866585e+00 2.1879191585710284e+01 1 0 0
4907 1 2.1932976875869478e-02 8.9118188534103950e+00 1.8000383785239990e+01 2 -1 1
258 1 5.7125626929647870e+00 3.1996908933547830e+00 2.1440299127638038e+01 0 1 0
5271 1 8.8146476770813251e+00 9.8822347824792391e+00 2.1856324833932579e+01 0 0 0
1659 1 2.0291097790241710e+00 2.8860376020908070e+00 1.9682569051819510e+01 0 0 0
5104 1 3.4205624879348302e+00 5.3161240881622831e+00 2.1453450145274271e+01 0 0 0
473 1 5.7477009113887839e-02 9.7837463076768447e+00 2.2154765196680831e+01 1 1 0
3726 1 7.3612170171789391e+00 6.6805466505330351e+00 2.1355539025298036e+01 0 0 0
5114 1 6.4631241327485807e+00 1.0606754319582243e+00 1.9103264053935273e+01 1 1 0
141 1 4.9196155429175743e+00 2.8329157557420572e+00 1.7630540815455578e+01 0 0 0
6267 1 1.2836181036408665e+00 7.8169707452916892e-01 1.8239061796509329e+01 0 0 1
3014 1 9.4842830735634305e+00 1.1898751713242431e+01 1.9937928429066954e+01 0 -1 1
4573 1 6.5577098597383872e+00 6.7417133844628330e+00 1.6874795913037154e+01 1 0 0
55 1 3.0375676709744761e+00 9.2793249619385898e-01 1.6211821524348281e+01 0 1 0
3120 1 4.1793545480666712e+00 8.8337922982107351e+00 2.2862975566012366e+01 0 0 1
5303 1 8.0377162208092976e+00 1.0759673705746094e+01 2.4414606508941795e+01 0 1 0
1883 1 1.4125494071176006e+00 3.4434405535991988e+00 2.3622862392078094e+01 1 1 0
3721 1 5.3992605431499729e+00 4.0443581307508714e+00 2.4120238301420549e+01 1 0 0
5092 1 7.8466494869768040e+00 2.6564852470276104e+00 2.4281398734658854e+01 0 0 0
3230 1 3.5273330114647456e+00 6.5184450282140967e+00 2.4207796072201756e+01 1 -1 1
5107 1 6.5132879466104141e+00 8.5151253561045319e+00 2.4280886819808835e+01 1 -1 1
5345 1 7.7566024425291937e+00 5.9769509912500576e+00 2.4244237871556322e+01 1 1 0
3290 1 5.3852589436536269e-01 1.1993620035846893e+01 2.4501197588043080e+01 0 0 0
658 2 4.9220000000000006e+00 8.5251540748539991e+00 2.6876064147315613e+01 0 0 0
249 1 3.0773462545382628e+00 1.1002814368744714e+01 2.4329991996475819e+01 0 0 0
3013 1 3.7227124207579907e+00 1.2533538686603147e+00 2.3876920450549243e+01 1 1 1
699 2 6.1524999999999999e+00 1.0656442593567499e+01 2.6876064147315613e+01 0 0 0
572 2 0.0000000000000000e+00 2.8417180249513345e+00 2.6876064147315613e+01 0 0 0
574 2 0.0000000000000000e+00 0.0000000000000000e+00 2.6876064147315613e+01 0 0 0
576 2 1.2305000000000001e+00 7.1042950623783474e-01 2.6876064147315613e+01 0 0 0
583 2 1.2305000000000001e+00 2.1312885187134998e+00 2.6876064147315613e+01 0 0 0
585 2 2.4610000000000003e+00 2.8417180249513345e+00 2.6876064147315613e+01 0 0 0
587 2 2.4610000000000003e+00 0.0000000000000000e+00 2.6876064147315613e+01 0 0 0
589 2 3.6915000000000004e+00 7.1042950623783474e-01 2.6876064147315613e+01 0 0 0
604 2 3.6914999999999996e+00 2.1312885187134998e+00 2.6876064147315613e+01 0 0 0
606 2 4.9220000000000006e+00 2.8417180249513332e+00 2.6876064147315613e+01 0 0 0
608 2 4.9220000000000006e+00 0.0000000000000000e+00 2.6876064147315613e+01 0 0 0
610 2 6.1524999999999999e+00 7.1042950623783407e-01 2.6876064147315613e+01 0 0 0
633 2 6.1524999999999999e+00 2.1312885187134989e+00 2.6876064147315613e+01 0 0 0
635 2 7.3829999999999991e+00 2.8417180249513345e+00 2.6876064147315613e+01 0 0 0
637 2 7.3829999999999991e+00 0.0000000000000000e+00 2.6876064147315613e+01 0 0 0
639 2 8.6134999999999984e+00 7.1042950623783407e-01 2.6876064147315613e+01 0 0 0
670 2 8.6134999999999984e+00 2.1312885187135002e+00 2.6876064147315613e+01 0 0 0
579 2 0.0000000000000000e+00 4.2625770374269996e+00 2.6876064147315613e+01 0 0 0
581 2 1.2305000000000001e+00 4.9730065436648339e+00 2.6876064147315613e+01 0 0 0
596 2 1.2305000000000001e+00 6.3938655561404980e+00 2.6876064147315613e+01 0 0 0
600 2 2.4610000000000003e+00 4.2625770374269996e+00 2.6876064147315613e+01 0 0 0
602 2 3.6914999999999996e+00 4.9730065436648339e+00 2.6876064147315613e+01 0 0 0
625 2 3.6914999999999996e+00 6.3938655561404980e+00 2.6876064147315613e+01 0 0 0
577 2 0.0000000000000000e+00 7.1042950623783341e+00 2.6876064147315613e+01 0 0 0
598 2 2.4610000000000003e+00 7.1042950623783341e+00 2.6876064147315613e+01 0 0 0
629 2 4.9220000000000006e+00 4.2625770374269978e+00 2.6876064147315613e+01 0 0 0
631 2 6.1524999999999999e+00 4.9730065436648339e+00 2.6876064147315613e+01 0 0 0
662 2 6.1524999999999999e+00 6.3938655561404980e+00 2.6876064147315613e+01 0 0 0
666 2 7.3829999999999991e+00 4.2625770374269996e+00 2.6876064147315613e+01 0 0 0
668 2 8.6135000000000002e+00 4.9730065436648339e+00 2.6876064147315613e+01 0 0 0
707 2 8.6135000000000002e+00 6.3938655561404980e+00 2.6876064147315613e+01 0 0 0
627 2 4.9220000000000006e+00 7.1042950623783341e+00 2.6876064147315613e+01 0 0 0
664 2 7.3830000000000009e+00 7.1042950623783341e+00 2.6876064147315613e+01 0 0 0
592 2 0.0000000000000000e+00 8.5251540748539991e+00 2.6876064147315613e+01 0 0 0
594 2 1.2305000000000001e+00 9.2355835810918343e+00 2.6876064147315613e+01 0 0 0
621 2 2.4610000000000003e+00 8.5251540748539991e+00 2.6876064147315613e+01 0 0 0
623 2 3.6915000000000004e+00 9.2355835810918343e+00 2.6876064147315613e+01 0 0 0
590 2 0.0000000000000000e+00 1.1366872099805333e+01 2.6876064147315613e+01 0 0 0
617 2 1.2305000000000001e+00 1.0656442593567498e+01 2.6876064147315613e+01 0 0 0
619 2 2.4610000000000003e+00 1.1366872099805333e+01 2.6876064147315613e+01 0 0 0
654 2 3.6914999999999996e+00 1.0656442593567499e+01 2.6876064147315613e+01 0 0 0
703 2 7.3830000000000009e+00 8.5251540748539991e+00 2.6876064147315613e+01 0 0 0
746 2 8.6134999999999984e+00 1.0656442593567498e+01 2.6876064147315613e+01 0 0 0
660 2 6.1524999999999999e+00 9.2355835810918343e+00 2.6876064147315613e+01 0 0 0
705 2 8.6134999999999984e+00 9.2355835810918343e+00 2.6876064147315613e+01 0 0 0
656 2 4.9220000000000006e+00 1.1366872099805333e+01 2.6876064147315613e+01 0 0 0
701 2 7.3829999999999991e+00 1.1366872099805333e+01 2.6876064147315613e+01 0 0 0
5235 1 4.6510248809671362e-01 6.0741575783512207e+00 2.4557133859689557e+01 1 -1 0
2020 1 8.8964111553990555e-01 7.0138864831325853e-01 2.4431897129504748e+01 1 0 0
573 2 0.0000000000000000e+00 1.4208590124756650e+00 3.0031000000000105e+01 0 0 0
575 2 0.0000000000000000e+00 0.0000000000000000e+00 3.0031000000000105e+01 0 0 0
584 2 1.2305000000000001e+00 2.1312885187134998e+00 3.0031000000000105e+01 0 0 0
586 2 2.4610000000000003e+00 1.4208590124756650e+00 3.0031000000000105e+01 0 0 0
588 2 2.4610000000000003e+00 0.0000000000000000e+00 3.0031000000000105e+01 0 0 0
605 2 3.6914999999999996e+00 2.1312885187134998e+00 3.0031000000000105e+01 0 0 0
582 2 1.2305000000000001e+00 3.5521475311891644e+00 3.0031000000000105e+01 0 0 0
603 2 3.6914999999999996e+00 3.5521475311891644e+00 3.0031000000000105e+01 0 0 0
901 2 0.0000000000000000e+00 2.8417180249513345e+00 3.3185935852686256e+01 0 0 0
902 2 0.0000000000000000e+00 0.0000000000000000e+00 3.3185935852686256e+01 0 0 0
903 2 1.2305000000000001e+00 7.1042950623783474e-01 3.3185935852686256e+01 0 0 0
907 2 1.2305000000000001e+00 2.1312885187134998e+00 3.3185935852686256e+01 0 0 0
908 2 2.4610000000000003e+00 2.8417180249513345e+00 3.3185935852686256e+01 0 0 0
909 2 2.4610000000000003e+00 0.0000000000000000e+00 3.3185935852686256e+01 0 0 0
910 2 3.6915000000000004e+00 7.1042950623783474e-01 3.3185935852686256e+01 0 0 0
918 2 3.6914999999999996e+00 2.1312885187134998e+00 3.3185935852686256e+01 0 0 0
607 2 4.9220000000000006e+00 1.4208590124756650e+00 3.0031000000000105e+01 0 0 0
609 2 4.9220000000000006e+00 0.0000000000000000e+00 3.0031000000000105e+01 0 0 0
634 2 6.1524999999999999e+00 2.1312885187134989e+00 3.0031000000000105e+01 0 0 0
636 2 7.3829999999999991e+00 1.4208590124756659e+00 3.0031000000000105e+01 0 0 0
638 2 7.3829999999999991e+00 0.0000000000000000e+00 3.0031000000000105e+01 0 0 0
671 2 8.6134999999999984e+00 2.1312885187135002e+00 3.0031000000000105e+01 0 0 0
632 2 6.1524999999999999e+00 3.5521475311891644e+00 3.0031000000000105e+01 0 0 0
669 2 8.6134999999999984e+00 3.5521475311891657e+00 3.0031000000000105e+01 0 0 0
919 2 4.9220000000000006e+00 2.8417180249513332e+00 3.3185935852686256e+01 0 0 0
920 2 4.9220000000000006e+00 0.0000000000000000e+00 3.3185935852686256e+01 0 0 0
921 2 6.1524999999999999e+00 7.1042950623783407e-01 3.3185935852686256e+01 0 0 0
933 2 6.1524999999999999e+00 2.1312885187134989e+00 3.3185935852686256e+01 0 0 0
934 2 7.3829999999999991e+00 2.8417180249513345e+00 3.3185935852686256e+01 0 0 0
935 2 7.3829999999999991e+00 0.0000000000000000e+00 3.3185935852686256e+01 0 0 0
936 2 8.6134999999999984e+00 7.1042950623783407e-01 3.3185935852686256e+01 0 0 0
952 2 8.6134999999999984e+00 2.1312885187135002e+00 3.3185935852686256e+01 0 0 0
578 2 0.0000000000000000e+00 5.6834360499026637e+00 3.0031000000000105e+01 0 0 0
580 2 0.0000000000000000e+00 4.2625770374269996e+00 3.0031000000000105e+01 0 0 0
597 2 1.2305000000000001e+00 6.3938655561404980e+00 3.0031000000000105e+01 0 0 0
599 2 2.4610000000000003e+00 5.6834360499026637e+00 3.0031000000000105e+01 0 0 0
601 2 2.4610000000000003e+00 4.2625770374269996e+00 3.0031000000000105e+01 0 0 0
626 2 3.6914999999999996e+00 6.3938655561404980e+00 3.0031000000000105e+01 0 0 0
595 2 1.2305000000000001e+00 7.8147245686161639e+00 3.0031000000000105e+01 0 0 0
624 2 3.6914999999999996e+00 7.8147245686161639e+00 3.0031000000000105e+01 0 0 0
905 2 0.0000000000000000e+00 4.2625770374269996e+00 3.3185935852686256e+01 0 0 0
906 2 1.2305000000000001e+00 4.9730065436648339e+00 3.3185935852686256e+01 0 0 0
914 2 1.2305000000000001e+00 6.3938655561404980e+00 3.3185935852686256e+01 0 0 0
916 2 2.4610000000000003e+00 4.2625770374269996e+00 3.3185935852686256e+01 0 0 0
917 2 3.6914999999999996e+00 4.9730065436648339e+00 3.3185935852686256e+01 0 0 0
929 2 3.6914999999999996e+00 6.3938655561404980e+00 3.3185935852686256e+01 0 0 0
904 2 0.0000000000000000e+00 7.1042950623783341e+00 3.3185935852686256e+01 0 0 0
915 2 2.4610000000000003e+00 7.1042950623783341e+00 3.3185935852686256e+01 0 0 0
628 2 4.9220000000000006e+00 5.6834360499026637e+00 3.0031000000000105e+01 0 0 0
630 2 4.9220000000000006e+00 4.2625770374269978e+00 3.0031000000000105e+01 0 0 0
663 2 6.1524999999999999e+00 6.3938655561404980e+00 3.0031000000000105e+01 0 0 0
665 2 7.3829999999999991e+00 5.6834360499026637e+00 3.0031000000000105e+01 0 0 0
667 2 7.3829999999999991e+00 4.2625770374269996e+00 3.0031000000000105e+01 0 0 0
708 2 8.6135000000000002e+00 6.3938655561404980e+00 3.0031000000000105e+01 0 0 0
661 2 6.1524999999999999e+00 7.8147245686161639e+00 3.0031000000000105e+01 0 0 0
706 2 8.6135000000000002e+00 7.8147245686161639e+00 3.0031000000000105e+01 0 0 0
931 2 4.9220000000000006e+00 4.2625770374269978e+00 3.3185935852686256e+01 0 0 0
932 2 6.1524999999999999e+00 4.9730065436648339e+00 3.3185935852686256e+01 0 0 0
948 2 6.1524999999999999e+00 6.3938655561404980e+00 3.3185935852686256e+01 0 0 0
950 2 7.3829999999999991e+00 4.2625770374269996e+00 3.3185935852686256e+01 0 0 0
951 2 8.6135000000000002e+00 4.9730065436648339e+00 3.3185935852686256e+01 0 0 0
971 2 8.6135000000000002e+00 6.3938655561404980e+00 3.3185935852686256e+01 0 0 0
930 2 4.9220000000000006e+00 7.1042950623783341e+00 3.3185935852686256e+01 0 0 0
949 2 7.3830000000000009e+00 7.1042950623783341e+00 3.3185935852686256e+01 0 0 0
591 2 0.0000000000000000e+00 9.9460130873296642e+00 3.0031000000000105e+01 0 0 0
593 2 0.0000000000000000e+00 8.5251540748539991e+00 3.0031000000000105e+01 0 0 0
620 2 2.4610000000000003e+00 9.9460130873296642e+00 3.0031000000000105e+01 0 0 0
622 2 2.4610000000000003e+00 8.5251540748539991e+00 3.0031000000000105e+01 0 0 0
616 2 1.2305000000000001e+00 1.2077301606043163e+01 3.0031000000000105e+01 0 0 0
618 2 1.2305000000000001e+00 1.0656442593567498e+01 3.0031000000000105e+01 0 0 0
653 2 3.6914999999999996e+00 1.2077301606043163e+01 3.0031000000000105e+01 0 0 0
655 2 3.6914999999999996e+00 1.0656442593567499e+01 3.0031000000000105e+01 0 0 0
912 2 0.0000000000000000e+00 8.5251540748539991e+00 3.3185935852686256e+01 0 0 0
913 2 1.2305000000000001e+00 9.2355835810918343e+00 3.3185935852686256e+01 0 0 0
927 2 2.4610000000000003e+00 8.5251540748539991e+00 3.3185935852686256e+01 0 0 0
928 2 3.6915000000000004e+00 9.2355835810918343e+00 3.3185935852686256e+01 0 0 0
911 2 0.0000000000000000e+00 1.1366872099805333e+01 3.3185935852686256e+01 0 0 0
925 2 1.2305000000000001e+00 1.0656442593567498e+01 3.3185935852686256e+01 0 0 0
926 2 2.4610000000000003e+00 1.1366872099805333e+01 3.3185935852686256e+01 0 0 0
944 2 3.6914999999999996e+00 1.0656442593567499e+01 3.3185935852686256e+01 0 0 0
657 2 4.9220000000000006e+00 9.9460130873296642e+00 3.0031000000000105e+01 0 0 0
659 2 4.9220000000000006e+00 8.5251540748539991e+00 3.0031000000000105e+01 0 0 0
702 2 7.3830000000000009e+00 9.9460130873296642e+00 3.0031000000000105e+01 0 0 0
704 2 7.3830000000000009e+00 8.5251540748539991e+00 3.0031000000000105e+01 0 0 0
698 2 6.1524999999999999e+00 1.2077301606043163e+01 3.0031000000000105e+01 0 0 0
700 2 6.1524999999999999e+00 1.0656442593567499e+01 3.0031000000000105e+01 0 0 0
745 2 8.6135000000000002e+00 1.2077301606043163e+01 3.0031000000000105e+01 0 0 0
747 2 8.6134999999999984e+00 1.0656442593567498e+01 3.0031000000000105e+01 0 0 0
946 2 4.9220000000000006e+00 8.5251540748539991e+00 3.3185935852686256e+01 0 0 0
947 2 6.1524999999999999e+00 9.2355835810918343e+00 3.3185935852686256e+01 0 0 0
969 2 7.3830000000000009e+00 8.5251540748539991e+00 3.3185935852686256e+01 0 0 0
970 2 8.6134999999999984e+00 9.2355835810918343e+00 3.3185935852686256e+01 0 0 0
945 2 4.9220000000000006e+00 1.1366872099805333e+01 3.3185935852686256e+01 0 0 0
967 2 6.1524999999999999e+00 1.0656442593567499e+01 3.3185935852686256e+01 0 0 0
968 2 7.3829999999999991e+00 1.1366872099805333e+01 3.3185935852686256e+01 0 0 0
991 2 8.6134999999999984e+00 1.0656442593567498e+01 3.3185935852686256e+01 0 0 0
6445 1 4.2245440709900803e+00 3.1069950336319145e+00 3.6261348367660773e+01 1 2 -1
487 1 3.0106844685500705e-01 1.2196868713116332e+01 3.5950267609216787e+01 0 1 0
2115 1 8.1605205135964596e+00 9.1216672532842278e+00 3.5913256985875194e+01 0 1 0
4934 1 1.3461596412985610e+00 7.3413027457894415e+00 3.6065614266254919e+01 0 0 -1
6457 1 5.3972065020660285e+00 8.2442496129680762e+00 3.6469760449084426e+01 1 1 -1
4815 1 9.3669289633352388e+00 2.2869956547294663e+00 3.5861278853971683e+01 0 0 0
4527 1 8.4393137091378865e+00 5.1769799229126994e+00 3.5495664666476578e+01 0 1 0
3776 1 5.2377180918218178e+00 1.1214826831689823e+01 3.6035054896353820e+01 1 1 0
1354 1 4.1608480202216951e+00 1.6742700325982331e-02 3.5909476059581287e+01 0 0 0
6384 1 5.6887753726977195e+00 5.5086209477438750e+00 3.6060803795157845e+01 1 1 0
1524 1 1.7355809484600695e+00 4.4619682863244634e+00 3.6381667068929417e+01 1 0 0
6270 1 2.3086173057143142e+00 1.0078181095613990e+01 3.5980327985130451e+01 1 0 -1
1612 1 8.6443126690506222e-01 5.3083304031119933e+00 4.3486459227649583e+01 0 1 0
4526 1 2.3402250905353190e+00 4.6108140333610379e+00 3.9210595200678320e+01 1 1 0
5332 1 6.5838210247020266e+00 4.6269823833811383e+00 3.8531783874093023e+01 1 1 -1
5125 1 9.6327429817490131e+00 6.1977034441897088e+00 4.1794740631129500e+01 0 0 -1
5100 1 8.5782581215359190e+00 2.1895520711675052e+00 3.8715746301697706e+01 1 1 -1
4706 1 4.6697822566193325e+00 6.0755312156879322e+00 3.9993116294096964e+01 0 0 0
3401 1 4.7050548407220987e+00 8.9642749880007777e+00 3.8951910844191602e+01 0 0 0
168 1 5.5977936666315342e+00 1.1939140914753846e+01 4.3983958936048694e+01 0 0 0
6480 1 1.7016464113194507e+00 1.0279751047536683e+01 4.3419311599310937e+01 0 0 0
4624 1 9.7113972391170371e+00 3.1555592597120645e+00 4.1585239150306606e+01 0 0 0
3063 1 8.2752724964658935e+00 9.9955290411614488e+00 4.2265485595686165e+01 0 1 -1
1262 1 6.6005562681249312e+00 1.0508556983201782e+01 3.9950912533468774e+01 1 0 0
3460 1 8.7535147296167164e+00 9.0887825225677812e+00 3.8512572152270607e+01 0 1 -1
4868 1 1.1875390183381433e+00 3.4921161839902140e+00 4.1467309564300287e+01 0 0 -1
3560 1 2.6884315961784311e+00 1.5749449032636862e+00 4.2962074712081971e+01 1 -1 -1
123 1 5.5934625120101717e+00 5.7845752153644892e+00 4.2556207719017920e+01 1 1 0
5310 1 5.3578067198959056e+00 1.1366373722199228e+00 4.3749494381804595e+01 1 1 0
34 1 7.1674080717283122e+00 3.3421669380782659e+00 4.3028406685850179e+01 0 0 0
2034 1 8.7178246396521502e+00 6.3299142663105012e+00 3.9346226899225343e+01 -1 0 -1
1412 1 3.7872921742411974e+00 2.3031737256762166e+00 3.9024106309111467e+01 0 1 0
468 1 7.8774481828621719e+00 7.4098935511783042e+00 4.3162963738798652e+01 0 0 -1
2197 1 2.5888409481315882e+00 1.0440115974341158e+01 4.0003732138420041e+01 -1 1 0
3035 1 1.6368654296519789e+00 7.8349618014711844e+00 3.8738658811340684e+01 0 0 0
6115 1 6.1361998738230836e+00 2.3075344426331243e+00 4.0713064494174596e+01 0 0 0
4853 1 1.3334945953000292e+00 8.1990083961868654e-01 3.8833890695296390e+01 0 1 0
1522 1 4.4334656062427866e+00 1.2121935283908396e+01 4.1592203447364149e+01 0 1 0
6200 1 1.8046976466443709e-01 9.5204242273848205e+00 4.1430531953229746e+01 0 1 0
3062 1 1.6906701961805666e+00 1.5475673628724735e+00 4.5890210726855514e+01 1 0 0
6108 1 3.5778286332657556e+00 2.6992750506589238e+00 4.7298902969864770e+01 0 1 0
46 1 3.5437318299159513e+00 8.6289893662860031e+00 4.4454902235299592e+01 0 0 0
3147 1 5.6413187139996204e+00 8.8132811731608063e-01 4.6725627175021536e+01 1 -1 0
2956 1 9.0239773204231906e+00 3.2375424115640996e+00 4.5160239755197622e+01 0 1 0
1653 1 4.6599909888456192e+00 8.4700128131359360e+00 5.0219757628805674e+01 0 0 0
4920 1 4.1665551071870208e+00 5.2452575043154059e+00 4.6890689472311884e+01 1 1 -1
3724 1 6.7467857798603985e+00 6.5074914310094183e+00 4.7149786788959204e+01 0 1 0
1740 1 8.6827997868873936e+00 5.8367110309002124e+00 4.5475214161093341e+01 1 -1 -1
1359 1 6.1713473676640325e+00 9.4332572115915490e+00 4.4598533223425719e+01 0 0 0
4715 1 5.4829831039602506e-01 8.6308752940173701e+00 4.7658301578190709e+01 1 0 0
4590 1 7.8804301188426091e+00 5.0246533315480528e+00 4.9127452408075136e+01 0 1 0
1729 1 6.5669495504009090e+00 9.4898511953168754e+00 4.7696060135686487e+01 0 1 -1
2923 1 5.1878021694444876e-01 1.1379183643702891e+01 4.9046682736901971e+01 0 1 -1
1489 1 5.2338492566059824e-01 3.4534437462073440e+00 5.0861477398537687e+01 0 1 0
1619 1 3.4089958789708570e+00 9.5211553337784185e+00 4.7245882071732261e+01 0 1 -1
6165 1 3.1585538733677541e+00 2.9438769460442029e+00 5.0163990957583557e+01 -1 1 0
5388 1 7.7993190033899031e+00 2.4404492697547027e+00 4.7529694680312069e+01 0 1 0
3115 1 1.8845108483375854e+00 6.0519437368419133e+00 4.8119293768644710e+01 0 0 0
3525 1 9.0885313708698696e+00 1.0054253198257994e+01 4.8846140370308149e+01 1 0 -1
4724 1 2.7463269206294156e+00 6.4038841948156726e+00 5.0890260243721109e+01 0 1 0
4746 1 3.5184806743226829e+00 5.9865194992082316e+00 4.4322518830858534e+01 0 1 0
5398 1 6.9082375763526285e+00 7.0890120394170628e+00 5.0604622807236517e+01 0 0 0
3061 1 3.4527669786524644e+00 1.3580206523201827e-01 5.0523296303641153e+01 0 1 -1
6349 1 6.0491546692619051e+00 3.0336924089781632e+00 5.0690361867949449e+01 0 1 0
2024 1 3.0611874294044359e+00 1.2135624555265222e+01 4.7956573431159512e+01 1 0 -1
243 1 4.0836068253862265e+00 4.3668819370607883e+00 5.2818668878148735e+01 0 0 -1
4958 1 3.0951042874193178e+00 8.1235018512702464e+00 5.3234511663903440e+01 0 1 0
1631 1 9.5869041541935562e+00 2.4323300966272412e+00 5.3680608932303649e+01 0 0 0
1442 1 4.9761337127491112e+00 1.4154613098939119e+00 5.3673613687878237e+01 0 0 -1
4850 1 7.6663360809516794e+00 1.0784270964246145e+01 5.3429853475787674e+01 0 0 0
6472 1 4.5569944844993691e+00 7.9833421567593525e+00 5.5450748449625635e+01 1 0 -1
456 1 7.5020714486365314e+00 1.0989170425385928e+00 5.2018221186635643e+01 0 1 0
4631 1 5.8673317965344625e+00 6.5297351809606292e+00 5.3138750164057356e+01 1 0 -1
2204 1 1.0758250672010026e+00 1.0809277346028425e+01 5.6583602595236940e+01 0 1 0
4974 1 1.6124190711065918e+00 4.3652487375908819e+00 5.3965230949873686e+01 1 0 -1
4755 1 9.9600075775178987e-02 8.7142609985976449e+00 5.3259064272616641e+01 1 -1 0
4589 1 3.9013171098795110e+00 1.0681506278549467e+01 5.1799312563209661e+01 0 0 0
1278 1 8.6435179067968164e+00 9.0841526908171755e+00 5.1355255296441371e+01 1 2 -1
4795 1 2.4912685082811254e+00 2.3715177497365141e+00 5.7446978719163539e+01 0 1 0
5053 1 4.6365707609136493e+00 3.3079602789683524e+00 5.6003232493845566e+01 -1 1 -1
2969 1 3.7154424549766940e+00 1.0736857537986106e+01 5.5744378477690013e+01 -1 1 0
1513 1 1.0846757452331219e+00 1.0761453501689649e+01 5.1602450071425750e+01 1 1 -1
3624 1 8.7706819382054846e+00 9.0514627718619556e-01 5.6352269078054640e+01 1 0 0
1984 1 8.5747693877862119e+00 6.5553753958078431e+00 5.4500720766699857e+01 0 1 -1
1854 1 1.5290060516428521e+00 5.9152339701657235e+00 5.6333735065410586e+01 1 0 0
1405 1 6.4408952244759448e+00 5.9311129482624114e+00 5.6533147796355770e+01 -1 1 0
5142 1 8.3991425520425835e+00 9.2802958036933934e+00 5.5648249218881979e+01 1 0 -1
1570 1 4.1481515164042182e-01 6.1474508941288200e+00 5.1960698523096596e+01 1 1 0
1443 1 5.0496604357749018e+00 1.2118731265303085e+01 5.7638370708159130e+01 0 0 0
6244 1 5.6178299693669942e-03 8.3452365526728567e+00 5.6090413505674213e+01 1 1 -1
3512 1 4.2801277461962153e+00 2.3778913831012964e+01 3.5299017725418542e+00 1 0 0
5404 1 3.4296056783932820e+00 1.3319123778634495e+01 3.5015094094221899e+00 0 0 1
525 1 5.0115727935575052e+00 2.0429986121506854e+01 6.3939980773679590e+00 0 0 1
94 1 3.7216764637434254e+00 1.3743296070573226e+01 8.9424404321283006e+00 1 0 0
6291 1 2.6762268135100507e+00 2.1834356833100383e+01 5.9830933431793962e+00 0 0 1
3756 1 1.6180024408415596e+00 1.9021659190366734e+01 2.4149337671972591e+00 0 -1 0
224 1 6.8886583022554566e+00 2.1212754512524793e+01 8.6731501792569503e+00 1 0 1
1578 1 5.9153941892571842e+00 1.8547447178972025e+01 2.6876656014661386e+00 0 1 0
3151 1 8.4469386340535717e+00 1.9699535183184338e+01 6.3525932570261689e+00 0 -1 1
132 1 2.2515827389022349e+00 2.1697449279799379e+01 3.1798352116477711e+00 0 -1 0
1660 1 1.3432139891075567e+00 1.9494043742878070e+01 6.3527487491135917e+00 1 0 0
4964 1 7.1786289774011793e+00 2.0614480168853952e+01 3.9876528696974143e+00 0 0 1
3170 1 1.6176066187268363e+00 2.4275619756180109e+01 6.4179700761232423e+00 1 -1 1
3306 1 1.4683257179768414e+00 1.4722904109026882e+01 7.6091161952393840e+00 -1 0 0
376 1 8.8334833377369915e+00 2.3949048033287468e+01 5.5785445196193510e+00 1 0 0
4586 1 3.2117817057098769e-01 1.7673667273643058e+01 4.3919164639373882e+00 0 0 1
3583 1 2.6883056127895721e+00 1.8369784498721256e+01 8.6505910001862141e+00 0 0 0
317 1 8.2369969410222694e+00 1.5305576329317287e+01 4.8435105332427639e+00 1 0 0
6170 1 2.3455202799861588e+00 1.6095360557988531e+01 5.1673718641169195e+00 0 0 0
2129 1 4.7875213323102566e+00 1.8001096742070555e+01 5.1353163877039272e+00 0 -1 1
6415 1 6.2733679623688001e+00 2.3368256943047527e+01 5.6479278763814831e+00 0 0 0
3490 1 6.9377044091447049e+00 1.7216129866361673e+01 6.5497007005327443e+00 1 0 1
451 1 4.6591351986366014e+00 1.6340111598015309e+01 8.6910159087771355e+00 0 0 0
5369 1 7.0314007735579196e+00 1.2912614029800098e+01 5.4326447123162005e+00 0 0 1
2077 1 4.4206475111601176e+00 1.3107748884527389e+01 6.0758710421303501e+00 0 1 0
5123 1 3.0142937801244254e+00 1.5731885391509037e+01 2.1727181037955745e+00 2 1 1
5045 1 3.7909528863628483e+00 2.2937932522885362e+01 1.1715148896088754e+01 1 0 0
1588 1 7.0074157038731686e+00 1.7934409156618578e+01 9.5885701793367062e+00 1 0 1
6169 1 8.0298938048576041e+00 2.3532555810107688e+01 1.4656088875946143e+01 1 0 1
431 1 3.9324239288585738e-01 1.2938813653632739e+01 1.4972330595982219e+01 2 1 0
454 1 5.0742196085846674e+00 1.7502194603529741e+01 1.2238823004288585e+01 0 1 1
1681 1 3.7512631702568471e+00 1.7199932311166481e+01 1.4881426264113474e+01 0 0 0