LAMMPS data file via write_data, version 16 Mar 2018, timestep = 6000000

5021 atoms
2 atom types

0.0000000000000000e+00 4.9219999999999999e+01 xlo xhi
0.0000000000000000e+00 4.9019635930410494e+01 ylo yhi
5.0717994192695670e-01 3.9492820058067110e+01 zlo zhi

Masses

1 18.015
2 12.01

Atoms # atomic

201 2 0.0000000000000000e+00 2.8417180249513345e+00 2.2785715357882470e+00 0 0 0
203 2 0.0000000000000000e+00 0.0000000000000000e+00 2.2785715357882470e+00 0 0 0
205 2 1.2305000000000001e+00 7.1042950623783474e-01 2.2785715357882470e+00 0 0 0
212 2 1.2305000000000001e+00 2.1312885187134998e+00 2.2785715357882470e+00 0 0 0
214 2 2.4610000000000003e+00 2.8417180249513345e+00 2.2785715357882470e+00 0 0 0
216 2 2.4610000000000003e+00 0.0000000000000000e+00 2.2785715357882470e+00 0 0 0
218 2 3.6915000000000004e+00 7.1042950623783474e-01 2.2785715357882470e+00 0 0 0
233 2 3.6914999999999996e+00 2.1312885187134998e+00 2.2785715357882470e+00 0 0 0
235 2 4.9220000000000006e+00 2.8417180249513332e+00 2.2785715357882470e+00 0 0 0
237 2 4.9220000000000006e+00 0.0000000000000000e+00 2.2785715357882470e+00 0 0 0
239 2 6.1524999999999999e+00 7.1042950623783407e-01 2.2785715357882470e+00 0 0 0
262 2 6.1524999999999999e+00 2.1312885187134989e+00 2.2785715357882470e+00 0 0 0
264 2 7.3829999999999991e+00 2.8417180249513345e+00 2.2785715357882470e+00 0 0 0
266 2 7.3829999999999991e+00 0.0000000000000000e+00 2.2785715357882470e+00 0 0 0
268 2 8.6134999999999984e+00 7.1042950623783407e-01 2.2785715357882470e+00 0 0 0
299 2 8.6134999999999984e+00 2.1312885187135002e+00 2.2785715357882470e+00 0 0 0
208 2 0.0000000000000000e+00 4.2625770374269996e+00 2.2785715357882470e+00 0 0 0
210 2 1.2305000000000001e+00 4.9730065436648339e+00 2.2785715357882470e+00 0 0 0
225 2 1.2305000000000001e+00 6.3938655561404980e+00 2.2785715357882470e+00 0 0 0
229 2 2.4610000000000003e+00 4.2625770374269996e+00 2.2785715357882470e+00 0 0 0
231 2 3.6914999999999996e+00 4.9730065436648339e+00 2.2785715357882470e+00 0 0 0
254 2 3.6914999999999996e+00 6.3938655561404980e+00 2.2785715357882470e+00 0 0 0
206 2 0.0000000000000000e+00 7.1042950623783341e+00 2.2785715357882470e+00 0 0 0
227 2 2.4610000000000003e+00 7.1042950623783341e+00 2.2785715357882470e+00 0 0 0
258 2 4.9220000000000006e+00 4.2625770374269978e+00 2.2785715357882470e+00 0 0 0
260 2 6.1524999999999999e+00 4.9730065436648339e+00 2.2785715357882470e+00 0 0 0
291 2 6.1524999999999999e+00 6.3938655561404980e+00 2.2785715357882470e+00 0 0 0
295 2 7.3829999999999991e+00 4.2625770374269996e+00 2.2785715357882470e+00 0 0 0
297 2 8.6135000000000002e+00 4.9730065436648339e+00 2.2785715357882470e+00 0 0 0
336 2 8.6135000000000002e+00 6.3938655561404980e+00 2.2785715357882470e+00 0 0 0
256 2 4.9220000000000006e+00 7.1042950623783341e+00 2.2785715357882470e+00 0 0 0
293 2 7.3830000000000009e+00 7.1042950623783341e+00 2.2785715357882470e+00 0 0 0
221 2 0.0000000000000000e+00 8.5251540748539991e+00 2.2785715357882470e+00 0 0 0
223 2 1.2305000000000001e+00 9.2355835810918343e+00 2.2785715357882470e+00 0 0 0
250 2 2.4610000000000003e+00 8.5251540748539991e+00 2.2785715357882470e+00 0 0 0
252 2 3.6915000000000004e+00 9.2355835810918343e+00 2.2785715357882470e+00 0 0 0
219 2 0.0000000000000000e+00 1.1366872099805333e+01 2.2785715357882470e+00 0 0 0
246 2 1.2305000000000001e+00 1.0656442593567498e+01 2.2785715357882470e+00 0 0 0
248 2 2.4610000000000003e+00 1.1366872099805333e+01 2.2785715357882470e+00 0 0 0
283 2 3.6914999999999996e+00 1.0656442593567499e+01 2.2785715357882470e+00 0 0 0
287 2 4.9220000000000006e+00 8.5251540748539991e+00 2.2785715357882470e+00 0 0 0
289 2 6.1524999999999999e+00 9.2355835810918343e+00 2.2785715357882470e+00 0 0 0
332 2 7.3830000000000009e+00 8.5251540748539991e+00 2.2785715357882470e+00 0 0 0
334 2 8.6134999999999984e+00 9.2355835810918343e+00 2.2785715357882470e+00 0 0 0
285 2 4.9220000000000006e+00 1.1366872099805333e+01 2.2785715357882470e+00 0 0 0
328 2 6.1524999999999999e+00 1.0656442593567499e+01 2.2785715357882470e+00 0 0 0
330 2 7.3829999999999991e+00 1.1366872099805333e+01 2.2785715357882470e+00 0 0 0
375 2 8.6134999999999984e+00 1.0656442593567498e+01 2.2785715357882470e+00 0 0 0
202 2 0.0000000000000000e+00 1.4208590124756650e+00 5.5224546918728148e+00 0 0 0
204 2 0.0000000000000000e+00 0.0000000000000000e+00 5.5224546918728148e+00 0 0 0
213 2 1.2305000000000001e+00 2.1312885187134998e+00 5.5224546918728148e+00 0 0 0
215 2 2.4610000000000003e+00 1.4208590124756650e+00 5.5224546918728148e+00 0 0 0
217 2 2.4610000000000003e+00 0.0000000000000000e+00 5.5224546918728148e+00 0 0 0
234 2 3.6914999999999996e+00 2.1312885187134998e+00 5.5224546918728148e+00 0 0 0
211 2 1.2305000000000001e+00 3.5521475311891644e+00 5.5224546918728148e+00 0 0 0
232 2 3.6914999999999996e+00 3.5521475311891644e+00 5.5224546918728148e+00 0 0 0
530 2 0.0000000000000000e+00 2.8417180249513345e+00 8.7663378479590968e+00 0 0 0
531 2 0.0000000000000000e+00 0.0000000000000000e+00 8.7663378479590968e+00 0 0 0
532 2 1.2305000000000001e+00 7.1042950623783474e-01 8.7663378479590968e+00 0 0 0
536 2 1.2305000000000001e+00 2.1312885187134998e+00 8.7663378479590968e+00 0 0 0
537 2 2.4610000000000003e+00 2.8417180249513345e+00 8.7663378479590968e+00 0 0 0
538 2 2.4610000000000003e+00 0.0000000000000000e+00 8.7663378479590968e+00 0 0 0
539 2 3.6915000000000004e+00 7.1042950623783474e-01 8.7663378479590968e+00 0 0 0
547 2 3.6914999999999996e+00 2.1312885187134998e+00 8.7663378479590968e+00 0 0 0
236 2 4.9220000000000006e+00 1.4208590124756650e+00 5.5224546918728148e+00 0 0 0
238 2 4.9220000000000006e+00 0.0000000000000000e+00 5.5224546918728148e+00 0 0 0
263 2 6.1524999999999999e+00 2.1312885187134989e+00 5.5224546918728148e+00 0 0 0
265 2 7.3829999999999991e+00 1.4208590124756659e+00 5.5224546918728148e+00 0 0 0
267 2 7.3829999999999991e+00 0.0000000000000000e+00 5.5224546918728148e+00 0 0 0
300 2 8.6134999999999984e+00 2.1312885187135002e+00 5.5224546918728148e+00 0 0 0
261 2 6.1524999999999999e+00 3.5521475311891644e+00 5.5224546918728148e+00 0 0 0
298 2 8.6134999999999984e+00 3.5521475311891657e+00 5.5224546918728148e+00 0 0 0
548 2 4.9220000000000006e+00 2.8417180249513332e+00 8.7663378479590968e+00 0 0 0
549 2 4.9220000000000006e+00 0.0000000000000000e+00 8.7663378479590968e+00 0 0 0
550 2 6.1524999999999999e+00 7.1042950623783407e-01 8.7663378479590968e+00 0 0 0
562 2 6.1524999999999999e+00 2.1312885187134989e+00 8.7663378479590968e+00 0 0 0
563 2 7.3829999999999991e+00 2.8417180249513345e+00 8.7663378479590968e+00 0 0 0
564 2 7.3829999999999991e+00 0.0000000000000000e+00 8.7663378479590968e+00 0 0 0
565 2 8.6134999999999984e+00 7.1042950623783407e-01 8.7663378479590968e+00 0 0 0
581 2 8.6134999999999984e+00 2.1312885187135002e+00 8.7663378479590968e+00 0 0 0
207 2 0.0000000000000000e+00 5.6834360499026637e+00 5.5224546918728148e+00 0 0 0
209 2 0.0000000000000000e+00 4.2625770374269996e+00 5.5224546918728148e+00 0 0 0
226 2 1.2305000000000001e+00 6.3938655561404980e+00 5.5224546918728148e+00 0 0 0
228 2 2.4610000000000003e+00 5.6834360499026637e+00 5.5224546918728148e+00 0 0 0
230 2 2.4610000000000003e+00 4.2625770374269996e+00 5.5224546918728148e+00 0 0 0
255 2 3.6914999999999996e+00 6.3938655561404980e+00 5.5224546918728148e+00 0 0 0
224 2 1.2305000000000001e+00 7.8147245686161639e+00 5.5224546918728148e+00 0 0 0
253 2 3.6914999999999996e+00 7.8147245686161639e+00 5.5224546918728148e+00 0 0 0
534 2 0.0000000000000000e+00 4.2625770374269996e+00 8.7663378479590968e+00 0 0 0
535 2 1.2305000000000001e+00 4.9730065436648339e+00 8.7663378479590968e+00 0 0 0
543 2 1.2305000000000001e+00 6.3938655561404980e+00 8.7663378479590968e+00 0 0 0
545 2 2.4610000000000003e+00 4.2625770374269996e+00 8.7663378479590968e+00 0 0 0
546 2 3.6914999999999996e+00 4.9730065436648339e+00 8.7663378479590968e+00 0 0 0
558 2 3.6914999999999996e+00 6.3938655561404980e+00 8.7663378479590968e+00 0 0 0
533 2 0.0000000000000000e+00 7.1042950623783341e+00 8.7663378479590968e+00 0 0 0
544 2 2.4610000000000003e+00 7.1042950623783341e+00 8.7663378479590968e+00 0 0 0
257 2 4.9220000000000006e+00 5.6834360499026637e+00 5.5224546918728148e+00 0 0 0
259 2 4.9220000000000006e+00 4.2625770374269978e+00 5.5224546918728148e+00 0 0 0
292 2 6.1524999999999999e+00 6.3938655561404980e+00 5.5224546918728148e+00 0 0 0
294 2 7.3829999999999991e+00 5.6834360499026637e+00 5.5224546918728148e+00 0 0 0
296 2 7.3829999999999991e+00 4.2625770374269996e+00 5.5224546918728148e+00 0 0 0
337 2 8.6135000000000002e+00 6.3938655561404980e+00 5.5224546918728148e+00 0 0 0
290 2 6.1524999999999999e+00 7.8147245686161639e+00 5.5224546918728148e+00 0 0 0
335 2 8.6135000000000002e+00 7.8147245686161639e+00 5.5224546918728148e+00 0 0 0
560 2 4.9220000000000006e+00 4.2625770374269978e+00 8.7663378479590968e+00 0 0 0
561 2 6.1524999999999999e+00 4.9730065436648339e+00 8.7663378479590968e+00 0 0 0
577 2 6.1524999999999999e+00 6.3938655561404980e+00 8.7663378479590968e+00 0 0 0
579 2 7.3829999999999991e+00 4.2625770374269996e+00 8.7663378479590968e+00 0 0 0
580 2 8.6135000000000002e+00 4.9730065436648339e+00 8.7663378479590968e+00 0 0 0
600 2 8.6135000000000002e+00 6.3938655561404980e+00 8.7663378479590968e+00 0 0 0
559 2 4.9220000000000006e+00 7.1042950623783341e+00 8.7663378479590968e+00 0 0 0
578 2 7.3830000000000009e+00 7.1042950623783341e+00 8.7663378479590968e+00 0 0 0
220 2 0.0000000000000000e+00 9.9460130873296642e+00 5.5224546918728148e+00 0 0 0
222 2 0.0000000000000000e+00 8.5251540748539991e+00 5.5224546918728148e+00 0 0 0
249 2 2.4610000000000003e+00 9.9460130873296642e+00 5.5224546918728148e+00 0 0 0
251 2 2.4610000000000003e+00 8.5251540748539991e+00 5.5224546918728148e+00 0 0 0
245 2 1.2305000000000001e+00 1.2077301606043163e+01 5.5224546918728148e+00 0 0 0
247 2 1.2305000000000001e+00 1.0656442593567498e+01 5.5224546918728148e+00 0 0 0
282 2 3.6914999999999996e+00 1.2077301606043163e+01 5.5224546918728148e+00 0 0 0
284 2 3.6914999999999996e+00 1.0656442593567499e+01 5.5224546918728148e+00 0 0 0
541 2 0.0000000000000000e+00 8.5251540748539991e+00 8.7663378479590968e+00 0 0 0
542 2 1.2305000000000001e+00 9.2355835810918343e+00 8.7663378479590968e+00 0 0 0
556 2 2.4610000000000003e+00 8.5251540748539991e+00 8.7663378479590968e+00 0 0 0
557 2 3.6915000000000004e+00 9.2355835810918343e+00 8.7663378479590968e+00 0 0 0
540 2 0.0000000000000000e+00 1.1366872099805333e+01 8.7663378479590968e+00 0 0 0
554 2 1.2305000000000001e+00 1.0656442593567498e+01 8.7663378479590968e+00 0 0 0
555 2 2.4610000000000003e+00 1.1366872099805333e+01 8.7663378479590968e+00 0 0 0
573 2 3.6914999999999996e+00 1.0656442593567499e+01 8.7663378479590968e+00 0 0 0
286 2 4.9220000000000006e+00 9.9460130873296642e+00 5.5224546918728148e+00 0 0 0
288 2 4.9220000000000006e+00 8.5251540748539991e+00 5.5224546918728148e+00 0 0 0
331 2 7.3830000000000009e+00 9.9460130873296642e+00 5.5224546918728148e+00 0 0 0
333 2 7.3830000000000009e+00 8.5251540748539991e+00 5.5224546918728148e+00 0 0 0
327 2 6.1524999999999999e+00 1.2077301606043163e+01 5.5224546918728148e+00 0 0 0
329 2 6.1524999999999999e+00 1.0656442593567499e+01 5.5224546918728148e+00 0 0 0
374 2 8.6135000000000002e+00 1.2077301606043163e+01 5.5224546918728148e+00 0 0 0
376 2 8.6134999999999984e+00 1.0656442593567498e+01 5.5224546918728148e+00 0 0 0
575 2 4.9220000000000006e+00 8.5251540748539991e+00 8.7663378479590968e+00 0 0 0
576 2 6.1524999999999999e+00 9.2355835810918343e+00 8.7663378479590968e+00 0 0 0
598 2 7.3830000000000009e+00 8.5251540748539991e+00 8.7663378479590968e+00 0 0 0
599 2 8.6134999999999984e+00 9.2355835810918343e+00 8.7663378479590968e+00 0 0 0
574 2 4.9220000000000006e+00 1.1366872099805333e+01 8.7663378479590968e+00 0 0 0
596 2 6.1524999999999999e+00 1.0656442593567499e+01 8.7663378479590968e+00 0 0 0
597 2 7.3829999999999991e+00 1.1366872099805333e+01 8.7663378479590968e+00 0 0 0
620 2 8.6134999999999984e+00 1.0656442593567498e+01 8.7663378479590968e+00 0 0 0
2295 1 3.6521933424917115e+00 2.8980796242648679e+00 1.1533839133357779e+01 -1 -1 0
114 1 8.9296894749970912e-01 1.9485155949774589e+00 1.1396295113977247e+01 0 0 0
148 1 3.2940797156519026e+00 2.8989893676499929e+00 1.4506836771949070e+01 -1 -1 1
1206 1 5.8589245984715776e-01 1.8417545799652733e+00 1.4499884764485701e+01 3 2 0
1335 1 6.1327134057719519e+00 1.9091581242823099e+00 1.1611739288267440e+01 0 -1 0
116 1 8.5516314708138577e+00 2.9783873755374324e+00 1.1496021613178518e+01 0 1 0
4902 1 5.9432991679249705e+00 1.9385575607502716e+00 1.4449957556008735e+01 0 0 0
3681 1 8.5419809104332565e+00 2.9999170644024016e+00 1.4573172353099800e+01 0 3 -1
3420 1 3.5800784975716722e+00 5.4290436241821514e+00 1.1321661660576513e+01 2 3 0
1273 1 1.0805391841533210e+00 7.0939581136999834e+00 1.1860939952665822e+01 0 1 -1
2465 1 3.8351534181871241e+00 5.6314430683739758e+00 1.4140795407059398e+01 1 0 -1
5008 1 1.5885009321240662e+00 7.0083040946547488e+00 1.4888780799146794e+01 -1 1 0
2582 1 6.1720765234165222e+00 6.8278030812062900e+00 1.1546545781904694e+01 2 0 0
4627 1 8.8094879491939881e+00 5.7261755551193634e+00 1.1373057851991165e+01 0 0 -1
49 1 9.0749730290392918e+00 5.7407872755264799e+00 1.4397318040939359e+01 1 1 0
3557 1 6.5309822384620873e+00 6.5274320827078594e+00 1.4511545425877657e+01 0 1 -1
3667 1 9.6188137126617235e-01 1.0044868972716655e+01 1.1450078847680643e+01 0 0 -1
2144 1 3.6246925136321066e+00 1.1019134099382169e+01 1.1146048079043071e+01 3 2 0
4923 1 4.0620784072987055e+00 1.0786920312381655e+01 1.3924822118127979e+01 -1 2 -1
2397 1 1.5070876981979269e+00 9.9363741912053758e+00 1.4275943269216276e+01 -1 -1 0
1 1 6.1895860772189470e+00 9.6389996380723630e+00 1.1577279564926727e+01 1 2 0
2513 1 8.7774546716486004e+00 1.0728947582922643e+01 1.1649550584629864e+01 -1 -1 0
1204 1 6.4268519050828319e+00 9.3978610590168081e+00 1.4868544533695555e+01 0 1 0
2663 1 8.5495014328770065e+00 1.0833937732864833e+01 1.4727360918112439e+01 1 2 0
3741 1 2.9452476757957884e+00 1.2266901734734081e+00 1.8189592224111347e+01 1 1 0
2471 1 4.8419703218730348e+00 2.9062524876386449e+00 1.7456291491490227e+01 1 1 0
4766 1 5.9191699538311748e-01 2.2936325462722071e+00 1.7413048590458768e+01 0 0 0
3633 1 6.8622375509264177e+00 9.0443191726593819e-01 1.7963248577379318e+01 0 2 -1
1345 1 9.0605131160389245e+00 2.5005698456753018e+00 1.7185914856015124e+01 -1 2 0
1041 1 2.4718471111326190e+00 6.8346845440828128e+00 1.7418713679964590e+01 -1 2 -1
1433 1 4.7134303005034717e+00 5.5066589629276814e+00 1.8181012934866597e+01 0 -1 0
5009 1 6.9004230341525510e+00 9.4951345971149657e+00 1.8113166978778992e+01 2 0 0
2694 1 6.9034855016628391e+00 6.8189236847141670e+00 1.7212630217695121e+01 0 2 1
2484 1 8.9216862002315018e+00 5.1837967778645853e+00 1.8103095749568606e+01 0 0 -1
3937 1 9.2792103076122299e+00 1.0655823000113921e+01 1.7615146726378470e+01 -2 1 0
970 1 2.3840023433720789e+00 9.4934130666349894e+00 1.8338118628399556e+01 0 1 0
1077 1 4.5429806838016704e+00 1.0664569992072085e+01 1.7169558548517912e+01 -1 -2 -1
2357 1 3.1579302897973188e-01 1.0758577277956212e+01 1.7173813420853339e+01 1 2 0
1124 1 2.9479461055061496e-01 5.1759478672325807e+00 1.8092851013243436e+01 -1 1 0
2675 1 2.8764388783004922e+00 9.9901538299382098e-01 2.0787895833301135e+01 1 1 0
2234 1 5.0009778917478176e+00 2.3917678537814617e+00 2.4429455790897386e+01 -1 0 0
1084 1 8.9854300233056446e+00 1.0580835262145772e+01 2.1746567921606935e+01 -2 -1 -1
4808 1 2.8187875845527843e-01 5.2072871695299492e+00 2.9084925155135380e+01 0 0 0
4771 1 5.0287141190739391e+00 2.4225460721627758e+00 2.1684393397648581e+01 0 -1 0
2258 1 7.3260029875193151e+00 1.1494820949104032e+00 2.0756983333653405e+01 0 0 0
3827 1 9.3232166568456254e+00 2.6233360084627755e+00 2.1573030399928705e+01 0 0 0
4926 1 9.1697981284556516e+00 2.4017716593486602e+00 2.4267378860465779e+01 0 0 -1
3408 1 2.2613412370582004e+00 6.5495908654879873e+00 2.1675813364949025e+01 -1 0 0
4800 1 2.3303022734102430e+00 6.2865123788273145e+00 2.4306368084007453e+01 -2 1 0
1321 1 2.7022265297957299e-01 1.0359541197928760e+01 2.1900357517194017e+01 1 -1 0
926 1 6.8878628450001687e+00 1.2133256637704903e+01 2.8296591953735739e+01 0 -1 0
3789 1 9.2910441245737410e+00 5.4243164388328404e+00 2.0926330085936538e+01 3 -2 1
1225 1 4.5606669950853362e+00 5.3372664802629624e+00 2.0937262532320350e+01 -1 2 0
1238 1 6.9519611458609596e+00 6.4933105837324998e+00 2.1792619242243674e+01 2 -1 -1
3588 1 6.8050713593445327e+00 6.5350944757012979e+00 2.4500098398356020e+01 -1 1 0
1257 1 6.4508097665433239e-01 2.2392461139589273e+00 2.4524897716231628e+01 0 0 -1
4879 1 2.1566389247484921e+00 9.2373342061419468e+00 2.1038060614263941e+01 1 1 0
4715 1 4.7058157634314890e+00 1.0651861809060200e+01 2.1717759099547788e+01 2 -1 0
4671 1 4.0148327218415475e-01 4.9679819448835749e+00 2.0824134382253682e+01 -1 -1 0
2232 1 4.7296799150734818e+00 1.0445715530419584e+01 2.4368959084908283e+01 0 0 0
3759 1 9.2984521626818619e+00 1.0828268260561684e+01 2.4567573235860671e+01 -1 0 -1
3549 1 6.9087556386444247e+00 9.0998995100930458e+00 2.0711775631560787e+01 1 0 0
3755 1 8.9665437652664381e-01 7.7217614476935665e+00 2.8339366510372180e+01 2 0 -1
2349 1 2.7136612113280654e+00 3.8950495587680405e+00 2.5370928902129489e+01 1 -1 0
3841 1 2.7632647836820454e+00 4.0210416567492286e+00 2.8243066797465215e+01 0 1 1
3953 1 2.5610133183281198e+00 1.3622165571714024e+00 2.8991777197968112e+01 0 1 0
1011 1 7.1791192278923930e+00 1.4466362417963314e+00 2.8860447226414522e+01 1 -1 -1
2300 1 7.1633611566423223e+00 3.9318750388505705e+00 2.5153981408824869e+01 2 1 0
950 1 2.5449462404633505e+00 1.1823675032007646e+01 2.5511790687479206e+01 -1 -1 0
971 1 6.8153656876542659e+00 9.3066855600019149e+00 2.8930576253122108e+01 2 1 0
1057 1 5.0642490063588950e+00 5.2366585964741130e+00 2.8985738238183639e+01 0 -1 0
1112 1 4.4908135203235773e+00 7.6480836294892995e+00 2.5258397348186104e+01 -2 -1 0
2235 1 4.9052059771569922e+00 7.6488252785137956e+00 2.8035474721327919e+01 1 2 0
4937 1 7.1462563345371564e+00 3.9421129910415167e+00 2.7784554200747902e+01 0 0 -1
2345 1 9.0589991463276913e+00 8.0585113222463143e+00 2.8019902811371779e+01 2 1 0
4786 1 9.3140730940111602e+00 5.5906117843451462e+00 2.8682297614622023e+01 1 1 0
4764 1 8.9975329553158829e+00 8.1010138410408619e+00 2.5309727869412914e+01 0 2 -1
2642 1 2.9522357798552794e+00 9.5391836057651673e+00 2.9157310080788143e+01 2 1 0
4960 1 2.5891593305763863e+00 1.2016803183079940e+01 2.8311138218695721e+01 1 0 0
1319 1 6.4194997752101135e-01 1.0288424462464093e+01 2.4553500145212080e+01 -2 1 0
1036 1 2.7432638895640638e-01 7.7348958206593847e+00 2.5765782021942215e+01 0 -1 0
4838 1 5.7024783040264848e-01 2.4025760691375408e+00 2.1625990769433411e+01 1 0 -1
1300 1 6.9206835285666939e+00 1.1764422817553143e+01 2.5439660695663179e+01 1 2 0
1229 1 4.9085151796979005e+00 1.2272647452086299e-01 2.8209560168315104e+01 0 2 0
3513 1 2.5660899332119018e+00 1.1208583328742783e+00 3.1878722960653473e+01 -1 0 0
1239 1 8.6421017848086894e+00 1.0529973824533227e+01 3.8553841051833984e+01 3 -1 0
4994 1 8.9993683742620245e+00 2.4218200466368436e+00 3.2502158849183807e+01 0 0 0
2603 1 4.7303994907568461e+00 2.6918148761625833e+00 3.2239489372802524e+01 0 1 0
3476 1 6.9700595057923351e+00 1.0508373760961076e+00 3.1588722630723833e+01 1 -1 0
2467 1 8.9453125425859294e+00 1.0695961953911327e+01 3.5406691933550384e+01 1 0 0
1313 1 2.7036348428828165e+00 6.3983393583302659e+00 3.2783527528877237e+01 1 1 0
3824 1 4.8790480942672447e+00 5.3815441795535817e+00 3.1658558216189377e+01 0 2 0
4746 1 7.1709214428644508e+00 6.4789992606701441e+00 3.2745741713035471e+01 1 -1 0
2409 1 9.1125180671072226e+00 5.0743127057008817e+00 3.1396694599474543e+01 0 0 -1
4765 1 2.6994065505750213e+00 9.0929842521479358e+00 3.2091675991755949e+01 3 2 0
4837 1 4.7244398812043054e+00 1.0189590315505953e+01 3.3217766962623088e+01 1 -1 0
2231 1 9.0199673201901724e+00 1.0736936570165755e+01 3.2838573937473434e+01 -1 0 0
1027 1 7.0276645269117219e+00 9.0127053581777012e+00 3.1749429578935462e+01 0 -1 0
3416 1 4.0035948893821791e+00 2.8138138183812798e+00 3.5012536767526164e+01 2 0 0
1418 1 1.4249139352147182e+00 1.5914512639929248e+00 3.5701663654842193e+01 4 2 1
5 1 1.2220002140479491e+00 1.8603897098683053e+00 3.8573760829613086e+01 0 0 -1
3679 1 3.8326203596400492e+00 2.7224753222675484e+00 3.8292569643095192e+01 0 -1 0
4910 1 8.9686352217905263e+00 2.3527930595904247e+00 3.5492801556592688e+01 0 -1 0
4741 1 6.2130886788820261e+00 1.3245864634288778e+00 3.5784066375793877e+01 0 -1 0
4861 1 6.2874906862743511e+00 1.4204209288311374e+00 3.8401590187101810e+01 0 1 -1
2631 1 8.7752389162476945e+00 2.4289270132438245e+00 3.8484831713920748e+01 1 1 0
3680 1 1.5970124041612153e+00 7.0577705898171939e+00 3.5691056244421610e+01 0 0 0
959 1 3.9711794907549254e+00 5.5267633086845036e+00 3.5542219812877732e+01 0 0 -1
2274 1 3.9510303992754410e+00 5.5648212257180392e+00 3.8220348952028871e+01 2 0 0
3932 1 1.5187053540011191e+00 7.0617314526974591e+00 3.8593833339165293e+01 0 0 0
3733 1 6.7576181767695349e+00 6.6140093112766589e+00 3.5641206342985924e+01 -1 -1 0
119 1 8.6397677145341465e+00 5.0944104058055499e+00 3.8407643155401516e+01 -1 2 0
3504 1 6.4872405710538903e+00 6.3977471205562058e+00 3.8776752443754340e+01 2 0 0
3466 1 9.2362577297926052e+00 5.0920215636833754e+00 3.5690384986214504e+01 1 1 0
2438 1 1.2101573428979535e+00 9.7443921479903750e+00 3.5566403901274718e+01 1 -1 -1
2172 1 3.7103584704049792e+00 1.1111401246208578e+01 3.6036200440880322e+01 2 -2 0
1454 1 3.7330318488128515e+00 1.1176285154246857e+01 3.8795603485181609e+01 1 -1 0
72 1 1.3945402262828472e+00 9.8461828540991885e+00 3.8576636133313791e+01 0 0 0
143 1 6.0361315547979570e+00 9.3146901802168856e+00 3.8676742209453508e+01 2 3 0
1270 1 6.6081087532724423e+00 9.5549559949296441e+00 3.5809595846321486e+01 0 1 0
925 1 7.0248328531511306e-01 5.1260442663104087e+00 3.2134302746393743e+01 0 -1 0
1402 1 5.2944947494014971e-01 2.5928616739777457e+00 3.2913986266991657e+01 1 -1 0
2535 1 3.7120779767709994e-01 1.0246699923396307e+01 3.2920642604383943e+01 0 0 0
242 2 0.0000000000000000e+00 1.2787731112280996e+01 2.2785715357882470e+00 0 0 0
244 2 1.2305000000000001e+00 1.3498160618518829e+01 2.2785715357882470e+00 0 0 0
279 2 2.4610000000000003e+00 1.2787731112280996e+01 2.2785715357882470e+00 0 0 0
281 2 3.6915000000000004e+00 1.3498160618518829e+01 2.2785715357882470e+00 0 0 0
240 2 0.0000000000000000e+00 1.5629449137232333e+01 2.2785715357882470e+00 0 0 0
275 2 1.2305000000000001e+00 1.4919019630994494e+01 2.2785715357882470e+00 0 0 0
277 2 2.4610000000000003e+00 1.5629449137232328e+01 2.2785715357882470e+00 0 0 0
320 2 3.6915000000000004e+00 1.4919019630994494e+01 2.2785715357882470e+00 0 0 0
324 2 4.9220000000000006e+00 1.2787731112280996e+01 2.2785715357882470e+00 0 0 0
326 2 6.1524999999999990e+00 1.3498160618518829e+01 2.2785715357882470e+00 0 0 0
371 2 7.3829999999999991e+00 1.2787731112280996e+01 2.2785715357882470e+00 0 0 0
373 2 8.6135000000000002e+00 1.3498160618518835e+01 2.2785715357882470e+00 0 0 0
322 2 4.9220000000000006e+00 1.5629449137232333e+01 2.2785715357882470e+00 0 0 0
367 2 6.1524999999999990e+00 1.4919019630994494e+01 2.2785715357882470e+00 0 0 0
369 2 7.3829999999999991e+00 1.5629449137232333e+01 2.2785715357882470e+00 0 0 0
414 2 8.6135000000000002e+00 1.4919019630994494e+01 2.2785715357882470e+00 0 0 0
271 2 0.0000000000000000e+00 1.7050308149707998e+01 2.2785715357882470e+00 0 0 0
316 2 2.4610000000000003e+00 1.7050308149707998e+01 2.2785715357882470e+00 0 0 0
269 2 0.0000000000000000e+00 1.9892026174659328e+01 2.2785715357882470e+00 0 0 0
273 2 1.2305000000000001e+00 1.7760737655945832e+01 2.2785715357882470e+00 0 0 0
312 2 1.2305000000000001e+00 1.9181596668421495e+01 2.2785715357882470e+00 0 0 0
314 2 2.4610000000000003e+00 1.9892026174659328e+01 2.2785715357882470e+00 0 0 0
318 2 3.6914999999999996e+00 1.7760737655945832e+01 2.2785715357882470e+00 0 0 0
359 2 3.6914999999999996e+00 1.9181596668421495e+01 2.2785715357882470e+00 0 0 0
363 2 4.9220000000000006e+00 1.7050308149707998e+01 2.2785715357882470e+00 0 0 0
410 2 7.3830000000000009e+00 1.7050308149707998e+01 2.2785715357882470e+00 0 0 0
361 2 4.9220000000000006e+00 1.9892026174659328e+01 2.2785715357882470e+00 0 0 0
365 2 6.1524999999999999e+00 1.7760737655945832e+01 2.2785715357882470e+00 0 0 0
406 2 6.1524999999999999e+00 1.9181596668421495e+01 2.2785715357882470e+00 0 0 0
408 2 7.3829999999999991e+00 1.9892026174659328e+01 2.2785715357882470e+00 0 0 0
412 2 8.6134999999999984e+00 1.7760737655945832e+01 2.2785715357882470e+00 0 0 0
448 2 8.6135000000000002e+00 1.9181596668421495e+01 2.2785715357882470e+00 0 0 0
306 2 0.0000000000000000e+00 2.4154603212086325e+01 2.2785715357882470e+00 0 0 0
308 2 0.0000000000000000e+00 2.1312885187134999e+01 2.2785715357882470e+00 0 0 0
310 2 1.2304999999999993e+00 2.2023314693372832e+01 2.2785715357882470e+00 0 0 0
351 2 1.2304999999999993e+00 2.3444173705848499e+01 2.2785715357882470e+00 0 0 0
353 2 2.4610000000000003e+00 2.4154603212086325e+01 2.2785715357882470e+00 0 0 0
355 2 2.4610000000000003e+00 2.1312885187134995e+01 2.2785715357882470e+00 0 0 0
357 2 3.6914999999999996e+00 2.2023314693372832e+01 2.2785715357882470e+00 0 0 0
398 2 3.6915000000000004e+00 2.3444173705848499e+01 2.2785715357882470e+00 0 0 0
400 2 4.9220000000000006e+00 2.4154603212086325e+01 2.2785715357882470e+00 0 0 0
402 2 4.9220000000000006e+00 2.1312885187134995e+01 2.2785715357882470e+00 0 0 0
404 2 6.1524999999999990e+00 2.2023314693372832e+01 2.2785715357882470e+00 0 0 0
440 2 6.1524999999999999e+00 2.3444173705848499e+01 2.2785715357882470e+00 0 0 0
442 2 7.3830000000000009e+00 2.4154603212086336e+01 2.2785715357882470e+00 0 0 0
444 2 7.3829999999999991e+00 2.1312885187134999e+01 2.2785715357882470e+00 0 0 0
446 2 8.6135000000000002e+00 2.2023314693372832e+01 2.2785715357882470e+00 0 0 0
474 2 8.6134999999999984e+00 2.3444173705848499e+01 2.2785715357882470e+00 0 0 0
243 2 0.0000000000000000e+00 1.2787731112280996e+01 5.5224546918728148e+00 0 0 0
280 2 2.4610000000000003e+00 1.2787731112280996e+01 5.5224546918728148e+00 0 0 0
241 2 0.0000000000000000e+00 1.4208590124756663e+01 5.5224546918728148e+00 0 0 0
276 2 1.2305000000000001e+00 1.4919019630994494e+01 5.5224546918728148e+00 0 0 0
278 2 2.4610000000000003e+00 1.4208590124756663e+01 5.5224546918728148e+00 0 0 0
321 2 3.6915000000000004e+00 1.4919019630994494e+01 5.5224546918728148e+00 0 0 0
552 2 0.0000000000000000e+00 1.2787731112280996e+01 8.7663378479590968e+00 0 0 0
553 2 1.2305000000000001e+00 1.3498160618518829e+01 8.7663378479590968e+00 0 0 0
571 2 2.4610000000000003e+00 1.2787731112280996e+01 8.7663378479590968e+00 0 0 0
572 2 3.6915000000000004e+00 1.3498160618518829e+01 8.7663378479590968e+00 0 0 0
551 2 0.0000000000000000e+00 1.5629449137232333e+01 8.7663378479590968e+00 0 0 0
569 2 1.2305000000000001e+00 1.4919019630994494e+01 8.7663378479590968e+00 0 0 0
570 2 2.4610000000000003e+00 1.5629449137232328e+01 8.7663378479590968e+00 0 0 0
592 2 3.6915000000000004e+00 1.4919019630994494e+01 8.7663378479590968e+00 0 0 0
325 2 4.9220000000000006e+00 1.2787731112280996e+01 5.5224546918728148e+00 0 0 0
372 2 7.3829999999999991e+00 1.2787731112280996e+01 5.5224546918728148e+00 0 0 0
323 2 4.9220000000000006e+00 1.4208590124756663e+01 5.5224546918728148e+00 0 0 0
368 2 6.1524999999999990e+00 1.4919019630994494e+01 5.5224546918728148e+00 0 0 0
370 2 7.3830000000000009e+00 1.4208590124756663e+01 5.5224546918728148e+00 0 0 0
415 2 8.6135000000000002e+00 1.4919019630994494e+01 5.5224546918728148e+00 0 0 0
594 2 4.9220000000000006e+00 1.2787731112280996e+01 8.7663378479590968e+00 0 0 0
595 2 6.1524999999999990e+00 1.3498160618518829e+01 8.7663378479590968e+00 0 0 0
618 2 7.3829999999999991e+00 1.2787731112280996e+01 8.7663378479590968e+00 0 0 0
619 2 8.6135000000000002e+00 1.3498160618518835e+01 8.7663378479590968e+00 0 0 0
593 2 4.9220000000000006e+00 1.5629449137232333e+01 8.7663378479590968e+00 0 0 0
616 2 6.1524999999999990e+00 1.4919019630994494e+01 8.7663378479590968e+00 0 0 0
617 2 7.3829999999999991e+00 1.5629449137232333e+01 8.7663378479590968e+00 0 0 0
640 2 8.6135000000000002e+00 1.4919019630994494e+01 8.7663378479590968e+00 0 0 0
272 2 0.0000000000000000e+00 1.7050308149707998e+01 5.5224546918728148e+00 0 0 0
274 2 1.2305000000000001e+00 1.6339878643470165e+01 5.5224546918728148e+00 0 0 0
317 2 2.4610000000000003e+00 1.7050308149707998e+01 5.5224546918728148e+00 0 0 0
319 2 3.6915000000000004e+00 1.6339878643470165e+01 5.5224546918728148e+00 0 0 0
270 2 0.0000000000000000e+00 1.8471167162183658e+01 5.5224546918728148e+00 0 0 0
313 2 1.2305000000000001e+00 1.9181596668421495e+01 5.5224546918728148e+00 0 0 0
315 2 2.4610000000000003e+00 1.8471167162183658e+01 5.5224546918728148e+00 0 0 0
360 2 3.6914999999999996e+00 1.9181596668421495e+01 5.5224546918728148e+00 0 0 0
567 2 0.0000000000000000e+00 1.7050308149707998e+01 8.7663378479590968e+00 0 0 0
590 2 2.4610000000000003e+00 1.7050308149707998e+01 8.7663378479590968e+00 0 0 0
566 2 0.0000000000000000e+00 1.9892026174659328e+01 8.7663378479590968e+00 0 0 0
568 2 1.2305000000000001e+00 1.7760737655945832e+01 8.7663378479590968e+00 0 0 0
588 2 1.2305000000000001e+00 1.9181596668421495e+01 8.7663378479590968e+00 0 0 0
589 2 2.4610000000000003e+00 1.9892026174659328e+01 8.7663378479590968e+00 0 0 0
591 2 3.6914999999999996e+00 1.7760737655945832e+01 8.7663378479590968e+00 0 0 0
612 2 3.6914999999999996e+00 1.9181596668421495e+01 8.7663378479590968e+00 0 0 0
364 2 4.9220000000000006e+00 1.7050308149707998e+01 5.5224546918728148e+00 0 0 0
366 2 6.1524999999999999e+00 1.6339878643470165e+01 5.5224546918728148e+00 0 0 0
411 2 7.3830000000000009e+00 1.7050308149707998e+01 5.5224546918728148e+00 0 0 0
413 2 8.6134999999999984e+00 1.6339878643470165e+01 5.5224546918728148e+00 0 0 0
362 2 4.9220000000000006e+00 1.8471167162183658e+01 5.5224546918728148e+00 0 0 0