LAMMPS data file via write_data, version 16 Mar 2018, timestep = 100000

5021 atoms
2 atom types

0.0000000000000000e+00 4.9219999999999999e+01 xlo xhi
0.0000000000000000e+00 4.9019635930410494e+01 ylo yhi
1.5295579121401026e+00 3.8470442087861414e+01 zlo zhi

Masses

1 18.015
2 12.01

Atoms # atomic

201 2 0.0000000000000000e+00 2.8417180249513345e+00 3.2080418745349952e+00 0 0 0
203 2 0.0000000000000000e+00 0.0000000000000000e+00 3.2080418745349952e+00 0 0 0
205 2 1.2305000000000001e+00 7.1042950623783474e-01 3.2080418745349952e+00 0 0 0
212 2 1.2305000000000001e+00 2.1312885187134998e+00 3.2080418745349952e+00 0 0 0
214 2 2.4610000000000003e+00 2.8417180249513345e+00 3.2080418745349952e+00 0 0 0
216 2 2.4610000000000003e+00 0.0000000000000000e+00 3.2080418745349952e+00 0 0 0
218 2 3.6915000000000004e+00 7.1042950623783474e-01 3.2080418745349952e+00 0 0 0
233 2 3.6914999999999996e+00 2.1312885187134998e+00 3.2080418745349952e+00 0 0 0
235 2 4.9220000000000006e+00 2.8417180249513332e+00 3.2080418745349952e+00 0 0 0
237 2 4.9220000000000006e+00 0.0000000000000000e+00 3.2080418745349952e+00 0 0 0
239 2 6.1524999999999999e+00 7.1042950623783407e-01 3.2080418745349952e+00 0 0 0
262 2 6.1524999999999999e+00 2.1312885187134989e+00 3.2080418745349952e+00 0 0 0
264 2 7.3829999999999991e+00 2.8417180249513345e+00 3.2080418745349952e+00 0 0 0
266 2 7.3829999999999991e+00 0.0000000000000000e+00 3.2080418745349952e+00 0 0 0
268 2 8.6134999999999984e+00 7.1042950623783407e-01 3.2080418745349952e+00 0 0 0
299 2 8.6134999999999984e+00 2.1312885187135002e+00 3.2080418745349952e+00 0 0 0
208 2 0.0000000000000000e+00 4.2625770374269996e+00 3.2080418745349952e+00 0 0 0
210 2 1.2305000000000001e+00 4.9730065436648339e+00 3.2080418745349952e+00 0 0 0
225 2 1.2305000000000001e+00 6.3938655561404980e+00 3.2080418745349952e+00 0 0 0
229 2 2.4610000000000003e+00 4.2625770374269996e+00 3.2080418745349952e+00 0 0 0
231 2 3.6914999999999996e+00 4.9730065436648339e+00 3.2080418745349952e+00 0 0 0
254 2 3.6914999999999996e+00 6.3938655561404980e+00 3.2080418745349952e+00 0 0 0
206 2 0.0000000000000000e+00 7.1042950623783341e+00 3.2080418745349952e+00 0 0 0
227 2 2.4610000000000003e+00 7.1042950623783341e+00 3.2080418745349952e+00 0 0 0
258 2 4.9220000000000006e+00 4.2625770374269978e+00 3.2080418745349952e+00 0 0 0
260 2 6.1524999999999999e+00 4.9730065436648339e+00 3.2080418745349952e+00 0 0 0
291 2 6.1524999999999999e+00 6.3938655561404980e+00 3.2080418745349952e+00 0 0 0
295 2 7.3829999999999991e+00 4.2625770374269996e+00 3.2080418745349952e+00 0 0 0
297 2 8.6135000000000002e+00 4.9730065436648339e+00 3.2080418745349952e+00 0 0 0
336 2 8.6135000000000002e+00 6.3938655561404980e+00 3.2080418745349952e+00 0 0 0
256 2 4.9220000000000006e+00 7.1042950623783341e+00 3.2080418745349952e+00 0 0 0
293 2 7.3830000000000009e+00 7.1042950623783341e+00 3.2080418745349952e+00 0 0 0
221 2 0.0000000000000000e+00 8.5251540748539991e+00 3.2080418745349952e+00 0 0 0
223 2 1.2305000000000001e+00 9.2355835810918343e+00 3.2080418745349952e+00 0 0 0
250 2 2.4610000000000003e+00 8.5251540748539991e+00 3.2080418745349952e+00 0 0 0
252 2 3.6915000000000004e+00 9.2355835810918343e+00 3.2080418745349952e+00 0 0 0
219 2 0.0000000000000000e+00 1.1366872099805333e+01 3.2080418745349952e+00 0 0 0
246 2 1.2305000000000001e+00 1.0656442593567498e+01 3.2080418745349952e+00 0 0 0
248 2 2.4610000000000003e+00 1.1366872099805333e+01 3.2080418745349952e+00 0 0 0
283 2 3.6914999999999996e+00 1.0656442593567499e+01 3.2080418745349952e+00 0 0 0
287 2 4.9220000000000006e+00 8.5251540748539991e+00 3.2080418745349952e+00 0 0 0
289 2 6.1524999999999999e+00 9.2355835810918343e+00 3.2080418745349952e+00 0 0 0
332 2 7.3830000000000009e+00 8.5251540748539991e+00 3.2080418745349952e+00 0 0 0
334 2 8.6134999999999984e+00 9.2355835810918343e+00 3.2080418745349952e+00 0 0 0
285 2 4.9220000000000006e+00 1.1366872099805333e+01 3.2080418745349952e+00 0 0 0
328 2 6.1524999999999999e+00 1.0656442593567499e+01 3.2080418745349952e+00 0 0 0
330 2 7.3829999999999991e+00 1.1366872099805333e+01 3.2080418745349952e+00 0 0 0
375 2 8.6134999999999984e+00 1.0656442593567498e+01 3.2080418745349952e+00 0 0 0
202 2 0.0000000000000000e+00 1.4208590124756650e+00 6.2817867608971003e+00 0 0 0
204 2 0.0000000000000000e+00 0.0000000000000000e+00 6.2817867608971003e+00 0 0 0
213 2 1.2305000000000001e+00 2.1312885187134998e+00 6.2817867608971003e+00 0 0 0
215 2 2.4610000000000003e+00 1.4208590124756650e+00 6.2817867608971003e+00 0 0 0
217 2 2.4610000000000003e+00 0.0000000000000000e+00 6.2817867608971003e+00 0 0 0
234 2 3.6914999999999996e+00 2.1312885187134998e+00 6.2817867608971003e+00 0 0 0
211 2 1.2305000000000001e+00 3.5521475311891644e+00 6.2817867608971003e+00 0 0 0
232 2 3.6914999999999996e+00 3.5521475311891644e+00 6.2817867608971003e+00 0 0 0
530 2 0.0000000000000000e+00 2.8417180249513345e+00 9.3555316472589034e+00 0 0 0
531 2 0.0000000000000000e+00 0.0000000000000000e+00 9.3555316472589034e+00 0 0 0
532 2 1.2305000000000001e+00 7.1042950623783474e-01 9.3555316472589034e+00 0 0 0
536 2 1.2305000000000001e+00 2.1312885187134998e+00 9.3555316472589034e+00 0 0 0
537 2 2.4610000000000003e+00 2.8417180249513345e+00 9.3555316472589034e+00 0 0 0
538 2 2.4610000000000003e+00 0.0000000000000000e+00 9.3555316472589034e+00 0 0 0
539 2 3.6915000000000004e+00 7.1042950623783474e-01 9.3555316472589034e+00 0 0 0
547 2 3.6914999999999996e+00 2.1312885187134998e+00 9.3555316472589034e+00 0 0 0
236 2 4.9220000000000006e+00 1.4208590124756650e+00 6.2817867608971003e+00 0 0 0
238 2 4.9220000000000006e+00 0.0000000000000000e+00 6.2817867608971003e+00 0 0 0
263 2 6.1524999999999999e+00 2.1312885187134989e+00 6.2817867608971003e+00 0 0 0
265 2 7.3829999999999991e+00 1.4208590124756659e+00 6.2817867608971003e+00 0 0 0
267 2 7.3829999999999991e+00 0.0000000000000000e+00 6.2817867608971003e+00 0 0 0
300 2 8.6134999999999984e+00 2.1312885187135002e+00 6.2817867608971003e+00 0 0 0
261 2 6.1524999999999999e+00 3.5521475311891644e+00 6.2817867608971003e+00 0 0 0
298 2 8.6134999999999984e+00 3.5521475311891657e+00 6.2817867608971003e+00 0 0 0
548 2 4.9220000000000006e+00 2.8417180249513332e+00 9.3555316472589034e+00 0 0 0
549 2 4.9220000000000006e+00 0.0000000000000000e+00 9.3555316472589034e+00 0 0 0
550 2 6.1524999999999999e+00 7.1042950623783407e-01 9.3555316472589034e+00 0 0 0
562 2 6.1524999999999999e+00 2.1312885187134989e+00 9.3555316472589034e+00 0 0 0
563 2 7.3829999999999991e+00 2.8417180249513345e+00 9.3555316472589034e+00 0 0 0
564 2 7.3829999999999991e+00 0.0000000000000000e+00 9.3555316472589034e+00 0 0 0
565 2 8.6134999999999984e+00 7.1042950623783407e-01 9.3555316472589034e+00 0 0 0
581 2 8.6134999999999984e+00 2.1312885187135002e+00 9.3555316472589034e+00 0 0 0
207 2 0.0000000000000000e+00 5.6834360499026637e+00 6.2817867608971003e+00 0 0 0
209 2 0.0000000000000000e+00 4.2625770374269996e+00 6.2817867608971003e+00 0 0 0
226 2 1.2305000000000001e+00 6.3938655561404980e+00 6.2817867608971003e+00 0 0 0
228 2 2.4610000000000003e+00 5.6834360499026637e+00 6.2817867608971003e+00 0 0 0
230 2 2.4610000000000003e+00 4.2625770374269996e+00 6.2817867608971003e+00 0 0 0
255 2 3.6914999999999996e+00 6.3938655561404980e+00 6.2817867608971003e+00 0 0 0
224 2 1.2305000000000001e+00 7.8147245686161639e+00 6.2817867608971003e+00 0 0 0
253 2 3.6914999999999996e+00 7.8147245686161639e+00 6.2817867608971003e+00 0 0 0
534 2 0.0000000000000000e+00 4.2625770374269996e+00 9.3555316472589034e+00 0 0 0
535 2 1.2305000000000001e+00 4.9730065436648339e+00 9.3555316472589034e+00 0 0 0
543 2 1.2305000000000001e+00 6.3938655561404980e+00 9.3555316472589034e+00 0 0 0
545 2 2.4610000000000003e+00 4.2625770374269996e+00 9.3555316472589034e+00 0 0 0
546 2 3.6914999999999996e+00 4.9730065436648339e+00 9.3555316472589034e+00 0 0 0
558 2 3.6914999999999996e+00 6.3938655561404980e+00 9.3555316472589034e+00 0 0 0
533 2 0.0000000000000000e+00 7.1042950623783341e+00 9.3555316472589034e+00 0 0 0
544 2 2.4610000000000003e+00 7.1042950623783341e+00 9.3555316472589034e+00 0 0 0
257 2 4.9220000000000006e+00 5.6834360499026637e+00 6.2817867608971003e+00 0 0 0
259 2 4.9220000000000006e+00 4.2625770374269978e+00 6.2817867608971003e+00 0 0 0
292 2 6.1524999999999999e+00 6.3938655561404980e+00 6.2817867608971003e+00 0 0 0
294 2 7.3829999999999991e+00 5.6834360499026637e+00 6.2817867608971003e+00 0 0 0
296 2 7.3829999999999991e+00 4.2625770374269996e+00 6.2817867608971003e+00 0 0 0
337 2 8.6135000000000002e+00 6.3938655561404980e+00 6.2817867608971003e+00 0 0 0
290 2 6.1524999999999999e+00 7.8147245686161639e+00 6.2817867608971003e+00 0 0 0
335 2 8.6135000000000002e+00 7.8147245686161639e+00 6.2817867608971003e+00 0 0 0
560 2 4.9220000000000006e+00 4.2625770374269978e+00 9.3555316472589034e+00 0 0 0
561 2 6.1524999999999999e+00 4.9730065436648339e+00 9.3555316472589034e+00 0 0 0
577 2 6.1524999999999999e+00 6.3938655561404980e+00 9.3555316472589034e+00 0 0 0
579 2 7.3829999999999991e+00 4.2625770374269996e+00 9.3555316472589034e+00 0 0 0
580 2 8.6135000000000002e+00 4.9730065436648339e+00 9.3555316472589034e+00 0 0 0
600 2 8.6135000000000002e+00 6.3938655561404980e+00 9.3555316472589034e+00 0 0 0
559 2 4.9220000000000006e+00 7.1042950623783341e+00 9.3555316472589034e+00 0 0 0
578 2 7.3830000000000009e+00 7.1042950623783341e+00 9.3555316472589034e+00 0 0 0
220 2 0.0000000000000000e+00 9.9460130873296642e+00 6.2817867608971003e+00 0 0 0
222 2 0.0000000000000000e+00 8.5251540748539991e+00 6.2817867608971003e+00 0 0 0
249 2 2.4610000000000003e+00 9.9460130873296642e+00 6.2817867608971003e+00 0 0 0
251 2 2.4610000000000003e+00 8.5251540748539991e+00 6.2817867608971003e+00 0 0 0
245 2 1.2305000000000001e+00 1.2077301606043163e+01 6.2817867608971003e+00 0 0 0
247 2 1.2305000000000001e+00 1.0656442593567498e+01 6.2817867608971003e+00 0 0 0
282 2 3.6914999999999996e+00 1.2077301606043163e+01 6.2817867608971003e+00 0 0 0
284 2 3.6914999999999996e+00 1.0656442593567499e+01 6.2817867608971003e+00 0 0 0
541 2 0.0000000000000000e+00 8.5251540748539991e+00 9.3555316472589034e+00 0 0 0
542 2 1.2305000000000001e+00 9.2355835810918343e+00 9.3555316472589034e+00 0 0 0
556 2 2.4610000000000003e+00 8.5251540748539991e+00 9.3555316472589034e+00 0 0 0
557 2 3.6915000000000004e+00 9.2355835810918343e+00 9.3555316472589034e+00 0 0 0
540 2 0.0000000000000000e+00 1.1366872099805333e+01 9.3555316472589034e+00 0 0 0
554 2 1.2305000000000001e+00 1.0656442593567498e+01 9.3555316472589034e+00 0 0 0
555 2 2.4610000000000003e+00 1.1366872099805333e+01 9.3555316472589034e+00 0 0 0
573 2 3.6914999999999996e+00 1.0656442593567499e+01 9.3555316472589034e+00 0 0 0
286 2 4.9220000000000006e+00 9.9460130873296642e+00 6.2817867608971003e+00 0 0 0
288 2 4.9220000000000006e+00 8.5251540748539991e+00 6.2817867608971003e+00 0 0 0
331 2 7.3830000000000009e+00 9.9460130873296642e+00 6.2817867608971003e+00 0 0 0
333 2 7.3830000000000009e+00 8.5251540748539991e+00 6.2817867608971003e+00 0 0 0
327 2 6.1524999999999999e+00 1.2077301606043163e+01 6.2817867608971003e+00 0 0 0
329 2 6.1524999999999999e+00 1.0656442593567499e+01 6.2817867608971003e+00 0 0 0
374 2 8.6135000000000002e+00 1.2077301606043163e+01 6.2817867608971003e+00 0 0 0
376 2 8.6134999999999984e+00 1.0656442593567498e+01 6.2817867608971003e+00 0 0 0
575 2 4.9220000000000006e+00 8.5251540748539991e+00 9.3555316472589034e+00 0 0 0
576 2 6.1524999999999999e+00 9.2355835810918343e+00 9.3555316472589034e+00 0 0 0
598 2 7.3830000000000009e+00 8.5251540748539991e+00 9.3555316472589034e+00 0 0 0
599 2 8.6134999999999984e+00 9.2355835810918343e+00 9.3555316472589034e+00 0 0 0
574 2 4.9220000000000006e+00 1.1366872099805333e+01 9.3555316472589034e+00 0 0 0
596 2 6.1524999999999999e+00 1.0656442593567499e+01 9.3555316472589034e+00 0 0 0
597 2 7.3829999999999991e+00 1.1366872099805333e+01 9.3555316472589034e+00 0 0 0
620 2 8.6134999999999984e+00 1.0656442593567498e+01 9.3555316472589034e+00 0 0 0
3426 1 2.9107470676893943e+00 4.4324083562787013e+00 1.2187077724495214e+01 0 0 0
56 1 3.2859494233338360e+00 4.7217544093808632e+00 1.5094711149314991e+01 0 0 0
4852 1 4.5997075617362726e-01 2.4920279395219875e+00 1.1919410808207743e+01 0 0 0
1121 1 9.4046952316232080e+00 3.4830592768342061e+00 1.8284740324116115e+01 1 0 0
1414 1 7.3340372862039320e+00 1.1876297313051709e+00 1.1598446716526439e+01 0 0 0
5010 1 5.7186232917636701e+00 3.6166755576035476e+00 1.4955713943086907e+01 1 1 0
3799 1 5.6160039951575378e+00 3.3241513980271198e+00 1.2301397705360294e+01 1 1 1
3859 1 9.9244113695726457e-02 1.1229387807395691e+01 1.5547767698965187e+01 1 1 0
4762 1 2.0097910663306870e+00 7.2054001669699606e+00 1.4916758796878119e+01 1 0 0
3658 1 1.7543558217318336e+00 7.1560476972343929e+00 1.2083644205224610e+01 1 0 0
2706 1 7.3522196196689826e+00 5.7102029505320893e+00 1.2019134972339122e+01 1 2 0
36 1 2.4436139440680107e-01 1.0241405749986082e+01 1.8077984987568730e+01 0 0 0
2627 1 4.3009999650159676e+00 8.8010217639063484e+00 1.4866281833461638e+01 1 0 0
946 1 3.3838976158449778e+00 9.3610881962373877e+00 1.1695630813939763e+01 1 1 -1
2249 1 6.1033206905654849e+00 8.3129773658736248e+00 1.2196855862767150e+01 1 -1 0
1302 1 5.1001839613867883e+00 1.0946314936679652e+01 1.6750558721283095e+01 0 1 0
1281 1 2.2944224305917338e+00 1.2058581433735894e+01 1.2137234693951207e+01 1 0 -1
4699 1 7.7086463334547739e+00 1.0929677494617223e+01 1.2533634227906772e+01 0 0 0
3935 1 9.7120221052716413e+00 3.0985011286677935e+00 1.2568916749703932e+01 1 1 0
1237 1 2.4035061671961859e+00 1.5556294774714270e+00 1.6650660984114634e+01 0 0 -1
3580 1 2.8365682424846534e+00 3.3701630540887630e+00 1.8722588672403500e+01 1 1 -1
1400 1 5.4870624876546996e+00 8.9135266204255870e-01 1.6411556244724682e+01 1 0 0
5003 1 5.2167034401923651e+00 1.7880038329715484e+00 1.9176539020893795e+01 1 1 0
2175 1 9.4306145737186373e+00 2.6173639058250631e+00 1.5501927239910669e+01 0 1 0
3763 1 3.7332528184527747e+00 9.1903166841700195e+00 1.8568846679010154e+01 0 0 -1
3762 1 8.1076924133291932e+00 3.3819940331345738e-01 1.5844868722641422e+01 0 1 0
1309 1 1.0384579588257861e+00 7.3301586740164133e+00 1.8183082060017906e+01 0 0 0
1019 1 3.5656299117243937e+00 5.7282602262940259e+00 1.7742383636399968e+01 0 0 0
1231 1 9.1737441304742156e+00 6.9860762509743708e+00 1.5501357904965214e+01 0 0 -1
3669 1 6.3471653647809996e+00 6.3036694074694024e+00 1.8118957463935391e+01 1 1 -1
1299 1 6.4319449226508691e+00 6.5970824572790017e+00 1.5133893162371077e+01 1 1 0
4896 1 7.6154869822937590e+00 1.1540675485380143e+01 1.5213098369721582e+01 -1 0 0
3759 1 7.1541324713557408e+00 1.0997904039997334e+01 1.9872539797701915e+01 0 0 -1
4920 1 6.9219475834762605e+00 4.0252098887616867e+00 1.9508704509529522e+01 1 1 -1
2236 1 2.4423558889517167e+00 9.1282093098385045e-02 1.2127917830511958e+01 1 1 -1
3918 1 7.7672781158340043e-01 2.8138424340363462e+00 1.4717389876569444e+01 1 0 0
3910 1 2.9259244686305395e+00 1.1862839211130344e+01 1.5079513518084266e+01 1 1 0
24 1 5.9312291521543292e+00 8.4271172103700067e+00 1.9937234288050366e+01 0 0 0
3906 1 2.4125694001683340e+00 2.8178778932183004e+00 2.1532510968798704e+01 1 1 0
145 1 4.8769972810444937e+00 2.2775594426980112e+00 2.3289551421882528e+01 0 0 0
2252 1 6.6176178438776034e+00 4.4608287015345667e+00 2.4054895516970017e+01 1 1 0
3434 1 8.7343812392803297e+00 2.1614124070904226e+00 2.4815113103187812e+01 1 -1 0
2562 1 1.8749172123976046e+00 5.5256107979157401e+00 2.1942843599897675e+01 0 0 0
2561 1 3.2481317641475362e+00 7.1361829203665677e+00 2.3397552420180943e+01 1 0 0
121 1 6.0398218860693103e+00 7.3208760986527848e+00 2.2454444394082287e+01 0 0 0
3850 1 8.0184373906329860e+00 5.2117454761736735e+00 2.1680866142541959e+01 0 0 0
1456 1 8.4814393228315996e+00 1.0389496886277882e+01 2.3121827959251156e+01 0 1 0
4875 1 2.3094387269203489e+00 9.0726358130078322e-01 2.6758322988226034e+01 1 1 -1
4628 1 2.1515614743814684e+00 1.0735348381586434e+01 2.0029141811161285e+01 -1 0 1
3461 1 2.1825987855226296e+00 9.7874156702845099e+00 2.3076266197124383e+01 0 0 0
1154 1 7.7545767054356673e-01 9.8921987383195695e+00 2.5651062895437985e+01 0 0 0
1028 1 5.7878369286554268e+00 5.8450218876888960e-01 2.8625402703628502e+01 0 1 0
1387 1 9.3488284990581221e+00 6.2791849566536744e+00 2.7832054644830748e+01 0 0 1
4630 1 9.7548799381677558e+00 9.4468461090418892e+00 2.6233994536980354e+01 0 1 0
2677 1 2.2676746954221199e+00 1.0834948105723100e+01 2.8741640044206228e+01 0 0 0
1088 1 4.2468957290691121e+00 3.2166086766798316e+00 2.5882455083065331e+01 -1 0 0
1294 1 4.9594407759419630e+00 9.9838245890702293e+00 2.6319065809588775e+01 1 0 0
2342 1 6.3993019299898348e+00 3.4421442061428649e+00 2.7961870197128537e+01 0 1 0
1080 1 9.7632889311563620e+00 4.9324960347212254e+00 2.4219224130352700e+01 0 1 -1
171 1 4.3723797466978764e-01 4.3096756085668400e+00 2.4016795495554973e+01 1 1 0
1215 1 8.8452454482022116e+00 1.4472743084730630e+00 2.7537937621641898e+01 1 0 -1
1110 1 7.1583604753276582e+00 8.5942678492309241e+00 2.5100217718084370e+01 1 0 -1
1377 1 3.4839648174652038e+00 6.0191510615390484e+00 2.5897951193474302e+01 1 0 0
2151 1 6.2889685986121755e+00 6.1265704580892830e+00 2.6470357413423869e+01 0 -1 0
2414 1 1.1796063684505766e+00 3.8960226225094261e+00 2.6491156398418958e+01 1 -1 -1
1054 1 5.9508531542677567e-01 6.3012605733858704e+00 2.8095581716513419e+01 1 0 0
4631 1 6.4923655943469081e+00 1.0506230508685684e+01 2.8714612887993315e+01 1 0 1
154 1 4.1000987944829204e+00 1.1831617871634744e+01 2.3644999861497482e+01 1 0 1
3739 1 2.5218067360539940e+00 8.7371449176277771e+00 2.7002664308574047e+01 1 0 1
2595 1 3.8737234778761396e+00 7.0925439158178882e+00 2.9194138775111501e+01 1 0 0
3722 1 7.0642487509292202e+00 7.3895003736645783e+00 2.9172087061336963e+01 1 0 -1
4650 1 3.5853877975478610e+00 4.3840233861713713e+00 2.8741885409307741e+01 1 1 0
4813 1 7.2062483928035537e+00 8.1995386683205052e+00 3.3480522339705828e+01 1 0 -1
968 1 7.9913792756388524e+00 1.6728984092011934e+00 3.2339903476723066e+01 0 1 0
4670 1 8.7748613617854829e+00 3.3991946626693861e+00 3.0430332655666003e+01 0 0 0
161 1 1.5606255328469792e-02 1.0538135422066091e+00 3.0202639001864863e+01 0 1 0
5000 1 9.5014470555836705e-01 7.2614566721352789e+00 3.0700807360418402e+01 0 1 0
3803 1 1.0688692059481875e+00 3.9986982853245197e+00 3.4820366644358216e+01 1 0 0
3416 1 6.2837567024823588e+00 5.0494759296732807e+00 3.0661783310970890e+01 1 0 0
4769 1 7.0258244938302514e+00 6.1751669598862247e+00 3.7711597505705356e+01 0 0 -1
3891 1 7.0292488204099579e-01 7.8342978761756721e-01 3.7394145387889509e+01 0 0 0
3670 1 9.4177648827927865e+00 9.8043860325767742e+00 3.4704325026736143e+01 1 0 -1
2444 1 1.1488780545877135e+00 6.1449116179402514e+00 3.7496722389227656e+01 0 1 -1
2506 1 2.3604323433915577e+00 9.9833721363387369e+00 3.3454138160760223e+01 1 0 -1
3709 1 3.1404545270501072e+00 9.2693677100048948e+00 3.0805095247677350e+01 0 0 -1
3409 1 8.9533018082145990e+00 9.9403540747188739e+00 3.1005932388652120e+01 0 0 -1
1173 1 3.9667754345207480e+00 7.7066158811838168e+00 3.4399053037327022e+01 1 0 -1
3543 1 3.3972608526409815e+00 7.3447157974212294e+00 3.7662811888550692e+01 0 0 0
4647 1 5.9335582923856443e+00 9.5570387593425252e+00 3.1353558797453875e+01 0 0 0
3705 1 2.3750504720442396e+00 5.9413355392899003e+00 3.2916458274772040e+01 1 1 0
1079 1 2.0951595775664722e+00 3.2320789372532079e+00 3.7372505951544952e+01 0 0 -1
3433 1 8.4940880475600036e+00 4.3409508052057841e+00 3.5258496284907309e+01 1 1 -1
1195 1 4.8833001004729821e+00 2.3270292891181610e+00 3.7438479407714368e+01 0 0 0
2428 1 3.1620792051401923e+00 1.6359401303620089e+00 2.9705746545002903e+01 0 0 0
1191 1 3.9897906485518302e+00 1.4657887030033139e+00 3.3656186942126411e+01 1 0 0
2507 1 6.5082378963731866e+00 2.3776729836665509e+00 3.4827081864029523e+01 0 -1 0
2425 1 8.0926577442009506e+00 1.7273008728318746e+00 3.7654454025014488e+01 0 0 -1
3556 1 9.1438314951504420e+00 4.1651507543272439e+00 3.7937933489151803e+01 0 0 0
2391 1 6.2514469185510384e+00 9.8820289048734153e+00 3.5495276599757730e+01 1 1 -1
2638 1 7.6752360666380000e+00 9.0888417623218611e+00 3.7559475126766429e+01 0 0 0
18 1 4.1770773686810347e+00 9.9379691664366732e+00 3.7870231481128428e+01 0 0 0
1461 1 1.4384187121012590e+00 9.9210910909261052e-01 3.4830289224746025e+01 0 0 0
5013 1 4.7120401815536894e+00 5.2636501372709201e+00 3.6389942614394883e+01 0 1 -1
951 1 3.7727605315501354e+00 3.7465292727041493e+00 3.1894787582231825e+01 0 0 -1
1455 1 6.1201091103484897e+00 5.6217865104359026e+00 3.3852909592215070e+01 0 -1 1
242 2 0.0000000000000000e+00 1.2787731112280996e+01 3.2080418745349952e+00 0 0 0
244 2 1.2305000000000001e+00 1.3498160618518829e+01 3.2080418745349952e+00 0 0 0
279 2 2.4610000000000003e+00 1.2787731112280996e+01 3.2080418745349952e+00 0 0 0
281 2 3.6915000000000004e+00 1.3498160618518829e+01 3.2080418745349952e+00 0 0 0
240 2 0.0000000000000000e+00 1.5629449137232333e+01 3.2080418745349952e+00 0 0 0
275 2 1.2305000000000001e+00 1.4919019630994494e+01 3.2080418745349952e+00 0 0 0
277 2 2.4610000000000003e+00 1.5629449137232328e+01 3.2080418745349952e+00 0 0 0
320 2 3.6915000000000004e+00 1.4919019630994494e+01 3.2080418745349952e+00 0 0 0
324 2 4.9220000000000006e+00 1.2787731112280996e+01 3.2080418745349952e+00 0 0 0
326 2 6.1524999999999990e+00 1.3498160618518829e+01 3.2080418745349952e+00 0 0 0
371 2 7.3829999999999991e+00 1.2787731112280996e+01 3.2080418745349952e+00 0 0 0
373 2 8.6135000000000002e+00 1.3498160618518835e+01 3.2080418745349952e+00 0 0 0
322 2 4.9220000000000006e+00 1.5629449137232333e+01 3.2080418745349952e+00 0 0 0
367 2 6.1524999999999990e+00 1.4919019630994494e+01 3.2080418745349952e+00 0 0 0
369 2 7.3829999999999991e+00 1.5629449137232333e+01 3.2080418745349952e+00 0 0 0
414 2 8.6135000000000002e+00 1.4919019630994494e+01 3.2080418745349952e+00 0 0 0
271 2 0.0000000000000000e+00 1.7050308149707998e+01 3.2080418745349952e+00 0 0 0
316 2 2.4610000000000003e+00 1.7050308149707998e+01 3.2080418745349952e+00 0 0 0
269 2 0.0000000000000000e+00 1.9892026174659328e+01 3.2080418745349952e+00 0 0 0
273 2 1.2305000000000001e+00 1.7760737655945832e+01 3.2080418745349952e+00 0 0 0
312 2 1.2305000000000001e+00 1.9181596668421495e+01 3.2080418745349952e+00 0 0 0
314 2 2.4610000000000003e+00 1.9892026174659328e+01 3.2080418745349952e+00 0 0 0
318 2 3.6914999999999996e+00 1.7760737655945832e+01 3.2080418745349952e+00 0 0 0
359 2 3.6914999999999996e+00 1.9181596668421495e+01 3.2080418745349952e+00 0 0 0
363 2 4.9220000000000006e+00 1.7050308149707998e+01 3.2080418745349952e+00 0 0 0
410 2 7.3830000000000009e+00 1.7050308149707998e+01 3.2080418745349952e+00 0 0 0
361 2 4.9220000000000006e+00 1.9892026174659328e+01 3.2080418745349952e+00 0 0 0
365 2 6.1524999999999999e+00 1.7760737655945832e+01 3.2080418745349952e+00 0 0 0
406 2 6.1524999999999999e+00 1.9181596668421495e+01 3.2080418745349952e+00 0 0 0
408 2 7.3829999999999991e+00 1.9892026174659328e+01 3.2080418745349952e+00 0 0 0
412 2 8.6134999999999984e+00 1.7760737655945832e+01 3.2080418745349952e+00 0 0 0
448 2 8.6135000000000002e+00 1.9181596668421495e+01 3.2080418745349952e+00 0 0 0
306 2 0.0000000000000000e+00 2.4154603212086325e+01 3.2080418745349952e+00 0 0 0
308 2 0.0000000000000000e+00 2.1312885187134999e+01 3.2080418745349952e+00 0 0 0
310 2 1.2304999999999993e+00 2.2023314693372832e+01 3.2080418745349952e+00 0 0 0
351 2 1.2304999999999993e+00 2.3444173705848499e+01 3.2080418745349952e+00 0 0 0
353 2 2.4610000000000003e+00 2.4154603212086325e+01 3.2080418745349952e+00 0 0 0
355 2 2.4610000000000003e+00 2.1312885187134995e+01 3.2080418745349952e+00 0 0 0
357 2 3.6914999999999996e+00 2.2023314693372832e+01 3.2080418745349952e+00 0 0 0
398 2 3.6915000000000004e+00 2.3444173705848499e+01 3.2080418745349952e+00 0 0 0
400 2 4.9220000000000006e+00 2.4154603212086325e+01 3.2080418745349952e+00 0 0 0
402 2 4.9220000000000006e+00 2.1312885187134995e+01 3.2080418745349952e+00 0 0 0
404 2 6.1524999999999990e+00 2.2023314693372832e+01 3.2080418745349952e+00 0 0 0
440 2 6.1524999999999999e+00 2.3444173705848499e+01 3.2080418745349952e+00 0 0 0
442 2 7.3830000000000009e+00 2.4154603212086336e+01 3.2080418745349952e+00 0 0 0
444 2 7.3829999999999991e+00 2.1312885187134999e+01 3.2080418745349952e+00 0 0 0
446 2 8.6135000000000002e+00 2.2023314693372832e+01 3.2080418745349952e+00 0 0 0
474 2 8.6134999999999984e+00 2.3444173705848499e+01 3.2080418745349952e+00 0 0 0
243 2 0.0000000000000000e+00 1.2787731112280996e+01 6.2817867608971003e+00 0 0 0
280 2 2.4610000000000003e+00 1.2787731112280996e+01 6.2817867608971003e+00 0 0 0
241 2 0.0000000000000000e+00 1.4208590124756663e+01 6.2817867608971003e+00 0 0 0
276 2 1.2305000000000001e+00 1.4919019630994494e+01 6.2817867608971003e+00 0 0 0
278 2 2.4610000000000003e+00 1.4208590124756663e+01 6.2817867608971003e+00 0 0 0
321 2 3.6915000000000004e+00 1.4919019630994494e+01 6.2817867608971003e+00 0 0 0
552 2 0.0000000000000000e+00 1.2787731112280996e+01 9.3555316472589034e+00 0 0 0
553 2 1.2305000000000001e+00 1.3498160618518829e+01 9.3555316472589034e+00 0 0 0
571 2 2.4610000000000003e+00 1.2787731112280996e+01 9.3555316472589034e+00 0 0 0
572 2 3.6915000000000004e+00 1.3498160618518829e+01 9.3555316472589034e+00 0 0 0
551 2 0.0000000000000000e+00 1.5629449137232333e+01 9.3555316472589034e+00 0 0 0
569 2 1.2305000000000001e+00 1.4919019630994494e+01 9.3555316472589034e+00 0 0 0
570 2 2.4610000000000003e+00 1.5629449137232328e+01 9.3555316472589034e+00 0 0 0
592 2 3.6915000000000004e+00 1.4919019630994494e+01 9.3555316472589034e+00 0 0 0
325 2 4.9220000000000006e+00 1.2787731112280996e+01 6.2817867608971003e+00 0 0 0
372 2 7.3829999999999991e+00 1.2787731112280996e+01 6.2817867608971003e+00 0 0 0
323 2 4.9220000000000006e+00 1.4208590124756663e+01 6.2817867608971003e+00 0 0 0
368 2 6.1524999999999990e+00 1.4919019630994494e+01 6.2817867608971003e+00 0 0 0
370 2 7.3830000000000009e+00 1.4208590124756663e+01 6.2817867608971003e+00 0 0 0
415 2 8.6135000000000002e+00 1.4919019630994494e+01 6.2817867608971003e+00 0 0 0
594 2 4.9220000000000006e+00 1.2787731112280996e+01 9.3555316472589034e+00 0 0 0
595 2 6.1524999999999990e+00 1.3498160618518829e+01 9.3555316472589034e+00 0 0 0
618 2 7.3829999999999991e+00 1.2787731112280996e+01 9.3555316472589034e+00 0 0 0
619 2 8.6135000000000002e+00 1.3498160618518835e+01 9.3555316472589034e+00 0 0 0
593 2 4.9220000000000006e+00 1.5629449137232333e+01 9.3555316472589034e+00 0 0 0
616 2 6.1524999999999990e+00 1.4919019630994494e+01 9.3555316472589034e+00 0 0 0
617 2 7.3829999999999991e+00 1.5629449137232333e+01 9.3555316472589034e+00 0 0 0
640 2 8.6135000000000002e+00 1.4919019630994494e+01 9.3555316472589034e+00 0 0 0
272 2 0.0000000000000000e+00 1.7050308149707998e+01 6.2817867608971003e+00 0 0 0
274 2 1.2305000000000001e+00 1.6339878643470165e+01 6.2817867608971003e+00 0 0 0
317 2 2.4610000000000003e+00 1.7050308149707998e+01 6.2817867608971003e+00 0 0 0
319 2 3.6915000000000004e+00 1.6339878643470165e+01 6.2817867608971003e+00 0 0 0
270 2 0.0000000000000000e+00 1.8471167162183658e+01 6.2817867608971003e+00 0 0 0
313 2 1.2305000000000001e+00 1.9181596668421495e+01 6.2817867608971003e+00 0 0 0
315 2 2.4610000000000003e+00 1.8471167162183658e+01 6.2817867608971003e+00 0 0 0
360 2 3.6914999999999996e+00 1.9181596668421495e+01 6.2817867608971003e+00 0 0 0
567 2 0.0000000000000000e+00 1.7050308149707998e+01 9.3555316472589034e+00 0 0 0
590 2 2.4610000000000003e+00 1.7050308149707998e+01 9.3555316472589034e+00 0 0 0
566 2 0.0000000000000000e+00 1.9892026174659328e+01 9.3555316472589034e+00 0 0 0
568 2 1.2305000000000001e+00 1.7760737655945832e+01 9.3555316472589034e+00 0 0 0
588 2 1.2305000000000001e+00 1.9181596668421495e+01 9.3555316472589034e+00 0 0 0
589 2 2.4610000000000003e+00 1.9892026174659328e+01 9.3555316472589034e+00 0 0 0
591 2 3.6914999999999996e+00 1.7760737655945832e+01 9.3555316472589034e+00 0 0 0
612 2 3.6914999999999996e+00 1.9181596668421495e+01 9.3555316472589034e+00 0 0 0
364 2 4.9220000000000006e+00 1.7050308149707998e+01 6.2817867608971003e+00 0 0 0
366 2 6.1524999999999999e+00 1.6339878643470165e+01 6.2817867608971003e+00 0 0 0
411 2 7.3830000000000009e+00 1.7050308149707998e+01 6.2817867608971003e+00 0 0 0
413 2 8.6134999999999984e+00 1.6339878643470165e+01 6.2817867608971003e+00 0 0 0
362 2 4.9220000000000006e+00 1.8471167162183658e+01 6.2817867608971003e+00 0 0 0
407 2 6.1524999999999999e+00 1.9181596668421495e+01 6.2817867608971003e+00 0 0 0
409 2 7.3829999999999991e+00 1.8471167162183658e+01 6.2817867608971003e+00 0 0 0
449 2 8.6135000000000002e+00 1.9181596668421495e+01 6.2817867608971003e+00 0 0 0
614 2 4.9220000000000006e+00 1.7050308149707998e+01 9.3555316472589034e+00 0 0 0
638 2 7.3830000000000009e+00 1.7050308149707998e+01 9.3555316472589034e+00 0 0 0
613 2 4.9220000000000006e+00 1.9892026174659328e+01 9.3555316472589034e+00 0 0 0
615 2 6.1524999999999999e+00 1.7760737655945832e+01 9.3555316472589034e+00 0 0 0
636 2 6.1524999999999999e+00 1.9181596668421495e+01 9.3555316472589034e+00 0 0 0
637 2 7.3829999999999991e+00 1.9892026174659328e+01 9.3555316472589034e+00 0 0 0
639 2 8.6134999999999984e+00 1.7760737655945832e+01 9.3555316472589034e+00 0 0 0
657 2 8.6135000000000002e+00 1.9181596668421495e+01 9.3555316472589034e+00 0 0 0
311 2 1.2305000000000001e+00 2.0602455680897162e+01 6.2817867608971003e+00 0 0 0
358 2 3.6915000000000004e+00 2.0602455680897162e+01 6.2817867608971003e+00 0 0 0
307 2 0.0000000000000000e+00 2.2733744199610655e+01 6.2817867608971003e+00 0 0 0
309 2 0.0000000000000000e+00 2.1312885187134999e+01 6.2817867608971003e+00 0 0 0
352 2 1.2304999999999993e+00 2.3444173705848499e+01 6.2817867608971003e+00 0 0 0
354 2 2.4610000000000003e+00 2.2733744199610655e+01 6.2817867608971003e+00 0 0 0
356 2 2.4610000000000003e+00 2.1312885187134995e+01 6.2817867608971003e+00 0 0 0
399 2 3.6915000000000004e+00 2.3444173705848499e+01 6.2817867608971003e+00 0 0 0