LAMMPS data file via write_data, version 16 Mar 2018, timestep = 6000000

6337 atoms
2 atom types

0.0000000000000000e+00 4.9219999999999999e+01 xlo xhi
0.0000000000000000e+00 4.9019635930410494e+01 ylo yhi
1.9270733734980361e+00 5.8134926626498768e+01 zlo zhi

Masses

1 18.015
2 12.01

Atoms # atomic

3165 1 3.0204493618874295e+00 1.6255487023651038e+00 6.0996481597040360e+00 0 -1 0
3082 1 7.8596714218510400e+00 9.2797385314848793e+00 8.5704348846230722e+00 -1 -2 1
1759 1 7.3529018620138960e+00 4.3401666256409221e+00 2.2778751654600509e+00 1 -3 0
4820 1 7.6415944857243021e+00 1.5042745593106863e+00 5.8925278530196481e+00 -1 5 0
3264 1 7.6414784677129299e+00 4.2516933173808091e+00 5.1128454461894748e+00 1 2 0
4959 1 5.2702720478489837e+00 2.9804123127064164e-01 9.8053544459679109e+00 2 3 0
1611 1 9.1333121494984415e-01 1.5732365243823521e+01 2.2247876888875835e+00 1 -1 1
6279 1 9.6486622127269406e-01 7.8920146799600719e+00 2.2080320733835599e+00 -2 0 0
3008 1 3.3880580822522797e+00 4.1932870100064656e+00 4.5902699031379672e+00 4 1 0
1260 1 1.0839409198681986e+00 4.9409787212793548e+00 5.6454493240380081e+00 1 0 1
6016 1 1.0062548197192651e+00 7.6926627519011967e+00 4.9317342099533414e+00 2 2 1
1478 1 9.8278869589025231e+00 7.8100882036740860e+00 9.6820634189688057e+00 1 0 1
3681 1 5.2795015767122306e+00 5.7260739178463114e+00 6.1331917561646687e+00 3 -2 1
1715 1 6.9752424385430079e-01 3.0456368219144014e-01 4.7443347564152694e+00 3 2 1
1959 1 3.1785774130868223e+00 9.0913630386094333e+00 5.8683946510572369e+00 -1 0 0
143 1 3.4325559118681030e+00 1.1570688154275681e+01 4.9914788553273866e+00 -3 -1 0
3745 1 7.6650285683693271e+00 1.1906812516863509e+01 2.1152269211556467e+00 -1 2 1
1680 1 1.2918871597155583e+00 1.5793183563909821e+01 9.5451825900429697e+00 -2 -1 0
288 1 5.3637733149872249e+00 8.1849488712645933e+00 4.6741966524614087e+00 0 2 0
1244 1 7.6081143395206103e+00 9.2934363873050554e+00 5.6791015366714834e+00 2 0 0
6185 1 7.7941335570016745e+00 1.1668920163254322e+01 5.0561537924475983e+00 1 2 1
1645 1 9.1652181994446291e-01 1.2965984318207113e+01 8.5152342243116514e+00 -1 4 1
3570 1 1.3085620206946127e+00 1.5401083985094365e+01 4.7487518759275318e+00 0 2 0
359 1 1.2054729114558769e+00 1.2832163205092163e+01 5.7626432743416647e+00 1 0 0
481 1 5.9358718175730214e+00 1.5345956191113039e+01 9.6081717443618810e+00 -1 1 1
1640 1 5.5230710575538318e+00 1.2992171210934941e+01 5.8238325627600114e+00 1 4 1
4979 1 5.7304117442077898e+00 1.5483147198335368e+01 4.6590432744803243e+00 0 0 0
2903 1 5.4818925673022560e+00 1.2948987950403025e+01 8.6551741632053396e+00 -4 -2 1
3261 1 3.0538275077887795e+00 1.3945976164583818e+00 8.8874293334278924e+00 1 2 1
3334 1 3.3083892147501222e+00 4.1539802283053939e+00 9.8709231085728799e+00 1 1 0
1484 1 7.6665554849207762e+00 1.1728367325633059e+01 9.7386078723761287e+00 1 0 0
3136 1 7.5149026177472980e+00 1.4480209999743128e+00 8.6560976130652474e+00 -1 3 0
6320 1 7.5710064885795179e+00 4.0020192228851741e+00 9.6958337884423145e+00 -1 -2 1
333 1 1.0057830210278149e+00 5.0088081880135542e+00 8.3656577127147997e+00 1 -1 0
6075 1 5.3297255154406029e+00 5.3371916531141794e+00 8.7412265570909931e+00 -2 1 1
2904 1 5.7818060405568472e+00 7.9631635924705169e+00 9.4974424221126217e+00 2 -2 1
5302 1 9.5995546818994171e-01 7.5708262718789383e+00 9.7331304848374476e+00 0 1 1
1961 1 3.1169463004400892e+00 1.1359508198539249e+01 9.7589688599769921e+00 1 2 0
1277 1 3.3748946025901376e+00 8.8592514735166290e+00 8.7005412129392710e+00 2 0 1
5265 1 1.0284836715066832e+00 3.6383696223116535e-01 2.1161736799618933e+00 3 0 1
3057 1 5.6014101104284579e+00 5.3949648592508614e-01 2.4538177693789076e+00 2 2 1
3279 1 5.3114491161517243e+00 5.6422727096885794e-01 5.2199933534514447e+00 2 2 0
309 1 9.8393390943902315e+00 5.4580397670650269e+00 5.8339286604782448e+00 1 1 0
1766 1 3.3904763318458877e+00 1.1910985039724109e+01 2.3742557926462515e+00 1 2 0
3454 1 3.2070389491039109e+00 4.3614722168391333e+00 2.0021943808807805e+00 1 -1 0
545 1 1.0087083830958159e+00 2.9719858032378319e+00 1.3426941172567318e+01 -2 0 1
4848 1 3.3285848043929080e+00 4.0746236125033519e+00 1.2819602164177924e+01 -2 0 0
4504 1 1.1144001635596041e+00 1.4756583511720114e-01 1.7312080305059922e+01 -1 2 1
2037 1 7.7296571677859471e-01 4.1638887363003152e-01 1.2624012486496259e+01 2 -1 0
6036 1 5.6785226644779216e+00 2.9425355330289986e+00 1.3535567917733879e+01 -3 1 1
1887 1 5.3030089163189933e+00 5.6624832433772743e-01 2.0065984330557686e+01 0 -2 0
3491 1 3.6259516363306008e+00 6.7216128767492584e+00 1.3202219037325751e+01 -1 -1 1
5024 1 7.8779209966045904e+00 4.2131085594313760e+00 1.2525822495575646e+01 1 -2 0
19 1 7.6842198517265512e+00 6.7721162861160442e+00 1.3470584378619840e+01 -1 -1 0
3163 1 1.0868830866698320e+00 7.6746662785601503e+00 1.2338456787911220e+01 0 -1 1
3187 1 9.1420257737039234e-01 1.0168153062962816e+01 1.3671290477046675e+01 1 2 0
113 1 3.3366954540449894e+00 1.1248282071968987e+01 1.2540435529033045e+01 0 1 1
3144 1 5.8937842651828811e+00 8.1056799968699558e+00 1.2349280533867521e+01 4 -2 1
3558 1 5.9229384618288661e+00 1.0530499128958096e+01 1.3473338503878280e+01 1 1 0
2082 1 8.1156536776574288e+00 1.1691677185384721e+01 1.2448042198651470e+01 -1 0 0
91 1 3.7789062059600433e+00 1.3965187810443929e+01 1.3543680409117171e+01 0 2 0
4759 1 1.5434753216078707e+00 1.5250708120558361e+01 1.2431037506077274e+01 0 1 1
3365 1 8.1459350602004932e+00 1.4219303184493208e+01 1.3301174147863804e+01 -2 4 1
1934 1 5.8268754234397173e+00 1.5483500736982796e+01 1.2525001525241818e+01 1 0 0
3670 1 5.2078369359069505e+00 5.6848951506993628e-01 1.7287090856723246e+01 -1 -2 1
1391 1 1.3964745910253371e+00 2.7279476682956885e+00 1.6046167123753328e+01 3 0 1
3399 1 1.1160748431384957e+00 3.3815521533094478e-01 2.0094686462259681e+01 1 3 0
327 1 5.5746643828053299e+00 3.0979848298779711e+00 1.6439500359505789e+01 -1 -1 0
5101 1 5.3070115811544074e+00 4.4296939202099539e-01 1.2506318330290393e+01 -3 2 0
417 1 3.4646214728962437e+00 4.2280838017084221e+00 1.7201868939103729e+01 -2 3 0
4518 1 3.4007886546790629e+00 4.1285933855989629e+00 1.9895293138607443e+01 1 -2 1
2965 1 3.3360896697894504e+00 6.7535806866400678e+00 1.5995931047880235e+01 0 -1 1
4772 1 1.0198521676084782e+00 7.6933569657373688e+00 1.7187488600367004e+01 1 1 1
2889 1 5.7854950877834854e+00 1.5447383815339927e+01 2.0265704395718739e+01 1 0 1
4589 1 7.9209560589839034e+00 3.9887750155581889e+00 1.7275697693593422e+01 -2 0 1
5092 1 8.1179473008097389e+00 3.9098528120101039e+00 2.0014307597878034e+01 1 -1 0
188 1 7.8425675547147788e+00 6.6413219363212992e+00 1.6251230047821490e+01 -2 3 0
1991 1 5.5519235499704092e+00 8.0119114924990082e+00 1.7177341137843214e+01 3 3 1
5082 1 5.7125146459327532e+00 7.8333087005761053e+00 2.0050398868027781e+01 1 -1 0
271 1 1.3150696516107796e+00 1.0177911318593468e+01 1.6337992884558055e+01 1 2 0
3390 1 3.4393357844402082e+00 1.1723804528172478e+01 1.7425038737759238e+01 -1 0 0
2 1 3.7086428253194850e+00 1.1913423346097291e+01 2.0267753620619189e+01 1 -3 0
6070 1 5.7681567978869008e+00 1.0549906684788160e+01 1.6332917086315369e+01 4 5 1
2938 1 8.1184898742462455e+00 1.1634635876939251e+01 2.0128384405093186e+01 0 3 0
3355 1 7.7564935568793327e+00 1.2016566419067388e+01 1.7341813922050651e+01 2 -2 0
1443 1 1.4237749901716443e+00 1.5228482776851786e+01 1.9884602826465624e+01 0 -1 1
3635 1 3.8096437682642601e+00 1.4012343035484244e+01 1.6229485068585284e+01 -3 3 1
2089 1 1.8422531307524204e+00 1.5529199860737013e+01 1.7073727063872216e+01 0 0 1
2834 1 5.5123872083536476e+00 1.5736858456358764e+01 1.7372287719436304e+01 2 -1 1
1823 1 7.6006393934817602e+00 1.4457276581208861e+01 1.6213300111698985e+01 0 -2 0
3101 1 1.5189744742482312e+00 7.9389903570201747e+00 1.9943885096796635e+01 1 1 1
4771 1 9.6097015693855727e+00 5.6087606939949561e-02 2.0063477522109846e+01 -1 -1 0
6312 1 1.2260995911982919e+00 3.5632101005507435e+00 2.3394100003358261e+01 -4 1 0
6026 1 5.9652845158794809e+00 2.1024699067626906e-01 2.4140130053980350e+01 -2 2 1
5206 1 1.3645229291896186e+00 1.0706165232307109e+01 2.1011851848190492e+01 1 1 0
1553 1 5.4350143192306994e+00 1.6137918484609667e+01 2.4639468890008821e+01 0 1 0
4681 1 6.1450961300227718e+00 2.8849829110504159e+00 2.3834334215871060e+01 2 2 1
364 1 8.7953347296336588e+00 3.8023341130725790e+00 2.3925585274716571e+01 1 0 0
726 2 8.6135000000000002e+00 1.3498160618518835e+01 2.6794163347781623e+01 0 0 0
2853 1 3.8390714971415818e+00 4.3244218990132559e+00 2.4376414631557470e+01 -1 -2 1
1294 1 3.4880210616545790e+00 7.1430687131430943e+00 2.3792154709102274e+01 2 1 0
767 2 8.6135000000000002e+00 1.4919019630994494e+01 2.6794163347781623e+01 0 0 0
6029 1 8.4042817500861453e+00 6.6678289281927894e+00 2.3567249264694585e+01 1 -3 1
679 2 6.1524999999999990e+00 1.3498160618518829e+01 2.6794163347781623e+01 0 0 0
5233 1 8.2003554367486018e+00 6.6847335253936606e+00 2.1003560439801383e+01 0 5 1
3510 1 1.0034800250934555e+00 8.3278647159744743e+00 2.4122452510923427e+01 3 2 0
6225 1 1.2252731302943185e+00 1.1021134865836771e+01 2.3727368263379820e+01 1 0 1
63 1 5.9856897900368091e+00 7.8251370378629490e+00 2.4527720080765167e+01 0 -1 1
1584 1 6.1530123613081598e+00 1.0596484113644017e+01 2.4118451840509849e+01 -2 0 0
722 2 7.3829999999999991e+00 1.5629449137232333e+01 2.6794163347781623e+01 0 0 0
677 2 4.9220000000000006e+00 1.2787731112280996e+01 2.6794163347781623e+01 0 0 0
86 1 3.5193442703610676e+00 1.2094954903759641e+01 2.4085371506821115e+01 -1 1 0
1758 1 3.2947884225159134e+00 1.4858084184557637e+01 2.3812493014593034e+01 -3 1 0
3232 1 8.4392107377662349e+00 1.1801197717576814e+01 2.4542099161676823e+01 -1 -2 0
1872 1 7.6228404778771219e+00 1.4449389219495007e+01 2.3885755364238459e+01 0 0 1
66 1 7.8613378969787853e+00 1.4184129078100053e+01 2.1160315989195169e+01 -1 2 0
554 2 0.0000000000000000e+00 2.8417180249513345e+00 2.6794163347781623e+01 0 0 0
556 2 0.0000000000000000e+00 0.0000000000000000e+00 2.6794163347781623e+01 0 0 0
558 2 1.2305000000000001e+00 7.1042950623783474e-01 2.6794163347781623e+01 0 0 0
565 2 1.2305000000000001e+00 2.1312885187134998e+00 2.6794163347781623e+01 0 0 0
567 2 2.4610000000000003e+00 2.8417180249513345e+00 2.6794163347781623e+01 0 0 0
569 2 2.4610000000000003e+00 0.0000000000000000e+00 2.6794163347781623e+01 0 0 0
571 2 3.6915000000000004e+00 7.1042950623783474e-01 2.6794163347781623e+01 0 0 0
586 2 3.6914999999999996e+00 2.1312885187134998e+00 2.6794163347781623e+01 0 0 0
588 2 4.9220000000000006e+00 2.8417180249513332e+00 2.6794163347781623e+01 0 0 0
590 2 4.9220000000000006e+00 0.0000000000000000e+00 2.6794163347781623e+01 0 0 0
592 2 6.1524999999999999e+00 7.1042950623783407e-01 2.6794163347781623e+01 0 0 0
615 2 6.1524999999999999e+00 2.1312885187134989e+00 2.6794163347781623e+01 0 0 0
617 2 7.3829999999999991e+00 2.8417180249513345e+00 2.6794163347781623e+01 0 0 0
619 2 7.3829999999999991e+00 0.0000000000000000e+00 2.6794163347781623e+01 0 0 0
621 2 8.6134999999999984e+00 7.1042950623783407e-01 2.6794163347781623e+01 0 0 0
652 2 8.6134999999999984e+00 2.1312885187135002e+00 2.6794163347781623e+01 0 0 0
561 2 0.0000000000000000e+00 4.2625770374269996e+00 2.6794163347781623e+01 0 0 0
563 2 1.2305000000000001e+00 4.9730065436648339e+00 2.6794163347781623e+01 0 0 0
578 2 1.2305000000000001e+00 6.3938655561404980e+00 2.6794163347781623e+01 0 0 0
582 2 2.4610000000000003e+00 4.2625770374269996e+00 2.6794163347781623e+01 0 0 0
584 2 3.6914999999999996e+00 4.9730065436648339e+00 2.6794163347781623e+01 0 0 0
607 2 3.6914999999999996e+00 6.3938655561404980e+00 2.6794163347781623e+01 0 0 0
559 2 0.0000000000000000e+00 7.1042950623783341e+00 2.6794163347781623e+01 0 0 0
580 2 2.4610000000000003e+00 7.1042950623783341e+00 2.6794163347781623e+01 0 0 0
611 2 4.9220000000000006e+00 4.2625770374269978e+00 2.6794163347781623e+01 0 0 0
613 2 6.1524999999999999e+00 4.9730065436648339e+00 2.6794163347781623e+01 0 0 0
644 2 6.1524999999999999e+00 6.3938655561404980e+00 2.6794163347781623e+01 0 0 0
648 2 7.3829999999999991e+00 4.2625770374269996e+00 2.6794163347781623e+01 0 0 0
650 2 8.6135000000000002e+00 4.9730065436648339e+00 2.6794163347781623e+01 0 0 0
689 2 8.6135000000000002e+00 6.3938655561404980e+00 2.6794163347781623e+01 0 0 0
609 2 4.9220000000000006e+00 7.1042950623783341e+00 2.6794163347781623e+01 0 0 0
646 2 7.3830000000000009e+00 7.1042950623783341e+00 2.6794163347781623e+01 0 0 0
574 2 0.0000000000000000e+00 8.5251540748539991e+00 2.6794163347781623e+01 0 0 0
576 2 1.2305000000000001e+00 9.2355835810918343e+00 2.6794163347781623e+01 0 0 0
603 2 2.4610000000000003e+00 8.5251540748539991e+00 2.6794163347781623e+01 0 0 0
605 2 3.6915000000000004e+00 9.2355835810918343e+00 2.6794163347781623e+01 0 0 0
572 2 0.0000000000000000e+00 1.1366872099805333e+01 2.6794163347781623e+01 0 0 0
599 2 1.2305000000000001e+00 1.0656442593567498e+01 2.6794163347781623e+01 0 0 0
601 2 2.4610000000000003e+00 1.1366872099805333e+01 2.6794163347781623e+01 0 0 0
636 2 3.6914999999999996e+00 1.0656442593567499e+01 2.6794163347781623e+01 0 0 0
640 2 4.9220000000000006e+00 8.5251540748539991e+00 2.6794163347781623e+01 0 0 0
642 2 6.1524999999999999e+00 9.2355835810918343e+00 2.6794163347781623e+01 0 0 0
685 2 7.3830000000000009e+00 8.5251540748539991e+00 2.6794163347781623e+01 0 0 0
687 2 8.6134999999999984e+00 9.2355835810918343e+00 2.6794163347781623e+01 0 0 0
638 2 4.9220000000000006e+00 1.1366872099805333e+01 2.6794163347781623e+01 0 0 0
681 2 6.1524999999999999e+00 1.0656442593567499e+01 2.6794163347781623e+01 0 0 0
683 2 7.3829999999999991e+00 1.1366872099805333e+01 2.6794163347781623e+01 0 0 0
728 2 8.6134999999999984e+00 1.0656442593567498e+01 2.6794163347781623e+01 0 0 0
597 2 1.2305000000000001e+00 1.3498160618518829e+01 2.6794163347781623e+01 0 0 0
595 2 0.0000000000000000e+00 1.2787731112280996e+01 2.6794163347781623e+01 0 0 0
593 2 0.0000000000000000e+00 1.5629449137232333e+01 2.6794163347781623e+01 0 0 0
630 2 2.4610000000000003e+00 1.5629449137232328e+01 2.6794163347781623e+01 0 0 0
634 2 3.6915000000000004e+00 1.3498160618518829e+01 2.6794163347781623e+01 0 0 0
632 2 2.4610000000000003e+00 1.2787731112280996e+01 2.6794163347781623e+01 0 0 0
673 2 3.6915000000000004e+00 1.4919019630994494e+01 2.6794163347781623e+01 0 0 0
628 2 1.2305000000000001e+00 1.4919019630994494e+01 2.6794163347781623e+01 0 0 0
724 2 7.3829999999999991e+00 1.2787731112280996e+01 2.6794163347781623e+01 0 0 0
720 2 6.1524999999999990e+00 1.4919019630994494e+01 2.6794163347781623e+01 0 0 0
675 2 4.9220000000000006e+00 1.5629449137232333e+01 2.6794163347781623e+01 0 0 0
2029 1 5.6249822197903834e+00 2.9583396713565029e+00 2.1037731085344696e+01 1 1 1
4644 1 3.3994612192967897e+00 6.4903973335867438e+00 2.1081532091747416e+01 3 -1 1
5986 1 1.0400621731138775e+00 6.5116226758493534e-01 2.4414125534251767e+01 -2 1 1
5237 1 3.5797104211840338e+00 1.4478875751746786e+01 2.1107766732535630e+01 -1 2 0
3221 1 5.8996130182125386e+00 1.0342268686610225e+01 2.1455580961331243e+01 0 0 0
4532 1 1.1456233129401971e+00 2.9041743944308318e+00 2.0852009485735376e+01 -1 2 1
555 2 0.0000000000000000e+00 1.4208590124756650e+00 3.0030999999998443e+01 0 0 0
557 2 0.0000000000000000e+00 0.0000000000000000e+00 3.0030999999998443e+01 0 0 0
566 2 1.2305000000000001e+00 2.1312885187134998e+00 3.0030999999998443e+01 0 0 0
568 2 2.4610000000000003e+00 1.4208590124756650e+00 3.0030999999998443e+01 0 0 0
570 2 2.4610000000000003e+00 0.0000000000000000e+00 3.0030999999998443e+01 0 0 0
587 2 3.6914999999999996e+00 2.1312885187134998e+00 3.0030999999998443e+01 0 0 0
564 2 1.2305000000000001e+00 3.5521475311891644e+00 3.0030999999998443e+01 0 0 0
585 2 3.6914999999999996e+00 3.5521475311891644e+00 3.0030999999998443e+01 0 0 0
883 2 0.0000000000000000e+00 2.8417180249513345e+00 3.3267836652213148e+01 0 0 0
884 2 0.0000000000000000e+00 0.0000000000000000e+00 3.3267836652213148e+01 0 0 0
885 2 1.2305000000000001e+00 7.1042950623783474e-01 3.3267836652213148e+01 0 0 0
889 2 1.2305000000000001e+00 2.1312885187134998e+00 3.3267836652213148e+01 0 0 0
890 2 2.4610000000000003e+00 2.8417180249513345e+00 3.3267836652213148e+01 0 0 0
891 2 2.4610000000000003e+00 0.0000000000000000e+00 3.3267836652213148e+01 0 0 0
892 2 3.6915000000000004e+00 7.1042950623783474e-01 3.3267836652213148e+01 0 0 0
900 2 3.6914999999999996e+00 2.1312885187134998e+00 3.3267836652213148e+01 0 0 0
589 2 4.9220000000000006e+00 1.4208590124756650e+00 3.0030999999998443e+01 0 0 0
591 2 4.9220000000000006e+00 0.0000000000000000e+00 3.0030999999998443e+01 0 0 0
616 2 6.1524999999999999e+00 2.1312885187134989e+00 3.0030999999998443e+01 0 0 0
618 2 7.3829999999999991e+00 1.4208590124756659e+00 3.0030999999998443e+01 0 0 0
620 2 7.3829999999999991e+00 0.0000000000000000e+00 3.0030999999998443e+01 0 0 0
653 2 8.6134999999999984e+00 2.1312885187135002e+00 3.0030999999998443e+01 0 0 0
614 2 6.1524999999999999e+00 3.5521475311891644e+00 3.0030999999998443e+01 0 0 0
651 2 8.6134999999999984e+00 3.5521475311891657e+00 3.0030999999998443e+01 0 0 0
901 2 4.9220000000000006e+00 2.8417180249513332e+00 3.3267836652213148e+01 0 0 0
902 2 4.9220000000000006e+00 0.0000000000000000e+00 3.3267836652213148e+01 0 0 0
903 2 6.1524999999999999e+00 7.1042950623783407e-01 3.3267836652213148e+01 0 0 0
915 2 6.1524999999999999e+00 2.1312885187134989e+00 3.3267836652213148e+01 0 0 0
916 2 7.3829999999999991e+00 2.8417180249513345e+00 3.3267836652213148e+01 0 0 0
917 2 7.3829999999999991e+00 0.0000000000000000e+00 3.3267836652213148e+01 0 0 0
918 2 8.6134999999999984e+00 7.1042950623783407e-01 3.3267836652213148e+01 0 0 0
934 2 8.6134999999999984e+00 2.1312885187135002e+00 3.3267836652213148e+01 0 0 0
560 2 0.0000000000000000e+00 5.6834360499026637e+00 3.0030999999998443e+01 0 0 0
562 2 0.0000000000000000e+00 4.2625770374269996e+00 3.0030999999998443e+01 0 0 0
579 2 1.2305000000000001e+00 6.3938655561404980e+00 3.0030999999998443e+01 0 0 0
581 2 2.4610000000000003e+00 5.6834360499026637e+00 3.0030999999998443e+01 0 0 0
583 2 2.4610000000000003e+00 4.2625770374269996e+00 3.0030999999998443e+01 0 0 0
608 2 3.6914999999999996e+00 6.3938655561404980e+00 3.0030999999998443e+01 0 0 0
577 2 1.2305000000000001e+00 7.8147245686161639e+00 3.0030999999998443e+01 0 0 0
606 2 3.6914999999999996e+00 7.8147245686161639e+00 3.0030999999998443e+01 0 0 0
887 2 0.0000000000000000e+00 4.2625770374269996e+00 3.3267836652213148e+01 0 0 0
888 2 1.2305000000000001e+00 4.9730065436648339e+00 3.3267836652213148e+01 0 0 0
896 2 1.2305000000000001e+00 6.3938655561404980e+00 3.3267836652213148e+01 0 0 0
898 2 2.4610000000000003e+00 4.2625770374269996e+00 3.3267836652213148e+01 0 0 0
899 2 3.6914999999999996e+00 4.9730065436648339e+00 3.3267836652213148e+01 0 0 0
911 2 3.6914999999999996e+00 6.3938655561404980e+00 3.3267836652213148e+01 0 0 0
886 2 0.0000000000000000e+00 7.1042950623783341e+00 3.3267836652213148e+01 0 0 0
897 2 2.4610000000000003e+00 7.1042950623783341e+00 3.3267836652213148e+01 0 0 0
610 2 4.9220000000000006e+00 5.6834360499026637e+00 3.0030999999998443e+01 0 0 0
612 2 4.9220000000000006e+00 4.2625770374269978e+00 3.0030999999998443e+01 0 0 0
645 2 6.1524999999999999e+00 6.3938655561404980e+00 3.0030999999998443e+01 0 0 0
647 2 7.3829999999999991e+00 5.6834360499026637e+00 3.0030999999998443e+01 0 0 0
649 2 7.3829999999999991e+00 4.2625770374269996e+00 3.0030999999998443e+01 0 0 0
690 2 8.6135000000000002e+00 6.3938655561404980e+00 3.0030999999998443e+01 0 0 0
643 2 6.1524999999999999e+00 7.8147245686161639e+00 3.0030999999998443e+01 0 0 0
688 2 8.6135000000000002e+00 7.8147245686161639e+00 3.0030999999998443e+01 0 0 0
913 2 4.9220000000000006e+00 4.2625770374269978e+00 3.3267836652213148e+01 0 0 0
914 2 6.1524999999999999e+00 4.9730065436648339e+00 3.3267836652213148e+01 0 0 0
930 2 6.1524999999999999e+00 6.3938655561404980e+00 3.3267836652213148e+01 0 0 0
932 2 7.3829999999999991e+00 4.2625770374269996e+00 3.3267836652213148e+01 0 0 0
933 2 8.6135000000000002e+00 4.9730065436648339e+00 3.3267836652213148e+01 0 0 0
953 2 8.6135000000000002e+00 6.3938655561404980e+00 3.3267836652213148e+01 0 0 0
912 2 4.9220000000000006e+00 7.1042950623783341e+00 3.3267836652213148e+01 0 0 0
931 2 7.3830000000000009e+00 7.1042950623783341e+00 3.3267836652213148e+01 0 0 0
573 2 0.0000000000000000e+00 9.9460130873296642e+00 3.0030999999998443e+01 0 0 0
575 2 0.0000000000000000e+00 8.5251540748539991e+00 3.0030999999998443e+01 0 0 0
602 2 2.4610000000000003e+00 9.9460130873296642e+00 3.0030999999998443e+01 0 0 0
604 2 2.4610000000000003e+00 8.5251540748539991e+00 3.0030999999998443e+01 0 0 0
598 2 1.2305000000000001e+00 1.2077301606043163e+01 3.0030999999998443e+01 0 0 0
600 2 1.2305000000000001e+00 1.0656442593567498e+01 3.0030999999998443e+01 0 0 0
635 2 3.6914999999999996e+00 1.2077301606043163e+01 3.0030999999998443e+01 0 0 0
637 2 3.6914999999999996e+00 1.0656442593567499e+01 3.0030999999998443e+01 0 0 0
894 2 0.0000000000000000e+00 8.5251540748539991e+00 3.3267836652213148e+01 0 0 0
895 2 1.2305000000000001e+00 9.2355835810918343e+00 3.3267836652213148e+01 0 0 0
909 2 2.4610000000000003e+00 8.5251540748539991e+00 3.3267836652213148e+01 0 0 0
910 2 3.6915000000000004e+00 9.2355835810918343e+00 3.3267836652213148e+01 0 0 0
893 2 0.0000000000000000e+00 1.1366872099805333e+01 3.3267836652213148e+01 0 0 0
907 2 1.2305000000000001e+00 1.0656442593567498e+01 3.3267836652213148e+01 0 0 0
908 2 2.4610000000000003e+00 1.1366872099805333e+01 3.3267836652213148e+01 0 0 0
926 2 3.6914999999999996e+00 1.0656442593567499e+01 3.3267836652213148e+01 0 0 0
639 2 4.9220000000000006e+00 9.9460130873296642e+00 3.0030999999998443e+01 0 0 0
641 2 4.9220000000000006e+00 8.5251540748539991e+00 3.0030999999998443e+01 0 0 0
684 2 7.3830000000000009e+00 9.9460130873296642e+00 3.0030999999998443e+01 0 0 0
686 2 7.3830000000000009e+00 8.5251540748539991e+00 3.0030999999998443e+01 0 0 0
680 2 6.1524999999999999e+00 1.2077301606043163e+01 3.0030999999998443e+01 0 0 0
682 2 6.1524999999999999e+00 1.0656442593567499e+01 3.0030999999998443e+01 0 0 0
727 2 8.6135000000000002e+00 1.2077301606043163e+01 3.0030999999998443e+01 0 0 0
729 2 8.6134999999999984e+00 1.0656442593567498e+01 3.0030999999998443e+01 0 0 0
928 2 4.9220000000000006e+00 8.5251540748539991e+00 3.3267836652213148e+01 0 0 0
929 2 6.1524999999999999e+00 9.2355835810918343e+00 3.3267836652213148e+01 0 0 0
951 2 7.3830000000000009e+00 8.5251540748539991e+00 3.3267836652213148e+01 0 0 0
952 2 8.6134999999999984e+00 9.2355835810918343e+00 3.3267836652213148e+01 0 0 0
927 2 4.9220000000000006e+00 1.1366872099805333e+01 3.3267836652213148e+01 0 0 0
949 2 6.1524999999999999e+00 1.0656442593567499e+01 3.3267836652213148e+01 0 0 0
950 2 7.3829999999999991e+00 1.1366872099805333e+01 3.3267836652213148e+01 0 0 0
973 2 8.6134999999999984e+00 1.0656442593567498e+01 3.3267836652213148e+01 0 0 0
596 2 0.0000000000000000e+00 1.2787731112280996e+01 3.0030999999998443e+01 0 0 0
633 2 2.4610000000000003e+00 1.2787731112280996e+01 3.0030999999998443e+01 0 0 0
594 2 0.0000000000000000e+00 1.4208590124756663e+01 3.0030999999998443e+01 0 0 0
629 2 1.2305000000000001e+00 1.4919019630994494e+01 3.0030999999998443e+01 0 0 0
631 2 2.4610000000000003e+00 1.4208590124756663e+01 3.0030999999998443e+01 0 0 0
674 2 3.6915000000000004e+00 1.4919019630994494e+01 3.0030999999998443e+01 0 0 0
905 2 0.0000000000000000e+00 1.2787731112280996e+01 3.3267836652213148e+01 0 0 0
906 2 1.2305000000000001e+00 1.3498160618518829e+01 3.3267836652213148e+01 0 0 0
924 2 2.4610000000000003e+00 1.2787731112280996e+01 3.3267836652213148e+01 0 0 0
925 2 3.6915000000000004e+00 1.3498160618518829e+01 3.3267836652213148e+01 0 0 0
904 2 0.0000000000000000e+00 1.5629449137232333e+01 3.3267836652213148e+01 0 0 0
922 2 1.2305000000000001e+00 1.4919019630994494e+01 3.3267836652213148e+01 0 0 0
923 2 2.4610000000000003e+00 1.5629449137232328e+01 3.3267836652213148e+01 0 0 0
945 2 3.6915000000000004e+00 1.4919019630994494e+01 3.3267836652213148e+01 0 0 0
678 2 4.9220000000000006e+00 1.2787731112280996e+01 3.0030999999998443e+01 0 0 0
725 2 7.3829999999999991e+00 1.2787731112280996e+01 3.0030999999998443e+01 0 0 0
676 2 4.9220000000000006e+00 1.4208590124756663e+01 3.0030999999998443e+01 0 0 0
721 2 6.1524999999999990e+00 1.4919019630994494e+01 3.0030999999998443e+01 0 0 0
723 2 7.3830000000000009e+00 1.4208590124756663e+01 3.0030999999998443e+01 0 0 0
768 2 8.6135000000000002e+00 1.4919019630994494e+01 3.0030999999998443e+01 0 0 0
947 2 4.9220000000000006e+00 1.2787731112280996e+01 3.3267836652213148e+01 0 0 0
948 2 6.1524999999999990e+00 1.3498160618518829e+01 3.3267836652213148e+01 0 0 0
971 2 7.3829999999999991e+00 1.2787731112280996e+01 3.3267836652213148e+01 0 0 0
972 2 8.6135000000000002e+00 1.3498160618518835e+01 3.3267836652213148e+01 0 0 0
946 2 4.9220000000000006e+00 1.5629449137232333e+01 3.3267836652213148e+01 0 0 0
969 2 6.1524999999999990e+00 1.4919019630994494e+01 3.3267836652213148e+01 0 0 0
970 2 7.3829999999999991e+00 1.5629449137232333e+01 3.3267836652213148e+01 0 0 0
993 2 8.6135000000000002e+00 1.4919019630994494e+01 3.3267836652213148e+01 0 0 0
4737 1 8.9793709094871355e-01 2.7226317398296631e+00 3.6753882719843205e+01 0 3 0
2114 1 2.9741462689613001e+00 4.1425397560404971e+00 3.5723330037098705e+01 -3 2 0
4680 1 7.6475438961120679e+00 1.4980465056975763e+01 3.6147612186954532e+01 1 3 0
1359 1 5.2005151228128019e+00 2.6990879245895361e+00 3.6293928812148053e+01 2 1 0
1282 1 7.6480808610237681e+00 6.6973376751130509e+00 3.9076304175332723e+01 2 3 0
1967 1 7.6008963108896372e+00 4.0199806334911399e+00 3.5194213860449167e+01 3 2 -1
3468 1 7.4616234865010895e+00 1.2423265078831793e+01 3.5858568211155173e+01 1 2 0
3273 1 9.7304154576508264e+00 3.0249840139110451e-01 3.5614598017794023e+01 -2 1 0
3435 1 2.9679000564703717e+00 6.9173260773584193e+00 3.6369937718428218e+01 0 -1 -1
4945 1 3.2060188960336706e+00 1.2389540060412813e+01 3.5878144615744787e+01 1 1 -1
5189 1 7.7712129333247679e+00 6.7511100202743890e+00 3.6068044470696421e+01 2 2 -1
1639 1 3.1165207284978522e+00 1.4959211035487357e+01 3.7006871431471154e+01 -1 3 -1
4602 1 3.1764616926013862e+00 6.8159416029769950e+00 3.9343145488680378e+01 0 0 0
6288 1 7.0431445314644636e-01 8.2903988811620781e+00 3.5842043884161143e+01 4 1 -1
250 1 9.2907215761685713e-01 1.1078700155581945e+01 3.6357494528297138e+01 -1 2 -1
233 1 5.7846498553477188e+00 1.0879860456875113e+01 3.9134835552145873e+01 1 1 -1
1457 1 9.0576444938554990e-01 1.1156666640401399e+01 3.9077380584040625e+01 0 0 0
3535 1 5.4670158305218113e+00 1.0992508053739286e+01 3.6452252391989163e+01 -1 0 -1
6149 1 5.3932117406537730e+00 8.3238485657589809e+00 3.5770529329106097e+01 -2 -1 0
4969 1 5.4704729487826640e+00 2.9109377701240757e+00 3.8893413377007917e+01 3 -1 0
3038 1 9.7971792843613006e+00 3.1568314495271674e+00 3.6175377376750220e+01 0 0 0
6055 1 7.6711038479231339e+00 1.4891349922433463e+01 3.8888377204911194e+01 -1 0 0
160 1 5.3264944239374703e+00 1.6250047244397884e+01 3.6023196742208270e+01 2 3 -1
5045 1 7.8364545322941170e-01 2.8041125920631349e+00 3.9293975576247902e+01 0 -2 -1
2869 1 6.3644091658041413e-01 3.1990348795094636e+00 4.3734092946499487e+01 3 -1 0
1445 1 3.2457423185059366e+00 1.2367982420249470e+01 4.7131158644406540e+01 1 0 0
1543 1 3.0259360148710042e+00 4.2840074650149687e+00 4.2617084141506766e+01 -2 2 0
318 1 3.1389455251382330e+00 4.1076433125065357e+00 3.9768905484216091e+01 4 2 -1
4906 1 7.5467064384483011e+00 1.1880878881697857e+01 4.6871097957021732e+01 3 3 -1
3557 1 5.0701334512884335e+00 3.0546962749233666e+00 4.3563979884634463e+01 -1 -1 -1
3601 1 5.4156380824324097e+00 4.6641227258885604e-01 4.2820893834495550e+01 0 0 -1
3617 1 7.7318074963880328e+00 4.1071896493983022e+00 4.2616872429978784e+01 -1 0 -1
4834 1 5.2242269233009084e+00 6.0262777766500031e-01 4.7058583892717849e+01 2 1 -1
3020 1 1.1162118059040320e+00 1.0995950308553992e+01 4.5972266935409195e+01 3 1 0
216 1 3.3171696156974195e+00 1.4983899171967591e+01 4.5978818460340648e+01 1 1 -1
1306 1 7.6787198607546152e+00 1.4683763970389551e+01 4.6091680736453995e+01 1 1 -1
4630 1 8.7189650696352239e-01 1.6302182747134228e+01 4.7263520526756665e+01 0 -2 0
316 1 3.0973704484345381e+00 6.9886449723816444e+00 4.3077139712394782e+01 0 0 -1
4933 1 8.2848740026553136e-01 8.3475573233596148e+00 4.2713381900247967e+01 1 2 -1
469 1 5.5978512509335197e+00 8.2231133559640881e+00 4.0027590329620224e+01 4 0 -1
1474 1 7.5227110932965520e+00 6.5310151868215680e+00 4.3657447898898624e+01 -1 -2 0
4920 1 5.4038462129450346e+00 7.8497281848332277e+00 4.7109390931752287e+01 2 2 -1
4669 1 8.4565866012313973e-01 1.1234362863446593e+01 4.3186040904817204e+01 2 2 0
1267 1 7.8648071420888210e-01 8.5370028773039994e+00 4.0119232301435673e+01 0 3 -1
4773 1 3.2639942281465917e+00 1.2270721182888233e+01 4.2518091129476147e+01 -2 1 0
3448 1 3.3785186311563487e+00 1.2098952170659743e+01 3.9718238125816924e+01 0 1 -1
2013 1 5.3564272950636909e+00 8.1593260597880430e+00 4.2612915060135251e+01 3 1 -1
4998 1 5.3156367831516596e+00 1.0719475849553723e+01 4.3176995361212789e+01 2 2 -1
3436 1 3.6424777187736956e+00 1.4851419398826549e+01 4.3349905276091661e+01 -2 1 -1
1732 1 7.9814676168011571e+00 6.7847378907691871e+00 4.6435992967584014e+01 0 -1 -1
3199 1 7.6270426210380062e+00 4.2597188877039143e+00 4.7278307774469724e+01 -3 2 0
356 1 7.6287948871737497e+00 1.2263151890398094e+01 4.2651090431305605e+01 -1 -2 -1
4467 1 7.7719551746825912e+00 1.4765674723883674e+01 4.3457203235185560e+01 2 -1 0
6147 1 7.9505808035487169e+00 1.2480053226486081e+01 3.9925817062974730e+01 -1 2 0
3100 1 7.3291533233035733e-01 3.1073925567942076e+00 4.6482939235036369e+01 1 1 0
3402 1 3.1618455815205260e+00 4.2867643198885039e+00 4.7119548070499292e+01 2 -2 -1
3148 1 2.9306675212800104e+00 6.7672376181820972e+00 4.6171920674679640e+01 3 1 -1
5275 1 5.3481939790257682e+00 3.2190723352504391e+00 4.6135531600844587e+01 -1 -2 -1