LAMMPS data file via write_data, version 16 Mar 2018, timestep = 100000

6337 atoms
2 atom types

0.0000000000000000e+00 4.9219999999999999e+01 xlo xhi
0.0000000000000000e+00 4.9019635930410494e+01 ylo yhi
2.5890287317620064e+00 5.7472971268236634e+01 zlo zhi

Masses

1 18.015
2 12.01

Atoms # atomic

1271 1 5.0776145384340206e+00 1.9801360231827829e+00 6.4060559912938286e+00 0 0 1
5177 1 3.6877404637321578e+00 4.4228926693769006e+00 5.3634876097358850e+00 0 1 0
2958 1 1.7825183836143415e+00 2.4439669879508785e+00 4.0203262773250410e+00 0 -1 1
1684 1 7.3593395664306911e+00 2.6194506586818740e+00 7.9061917121348966e+00 1 1 0
4947 1 8.5221508809091340e+00 3.5959266413031536e+00 3.8766551571264762e+00 0 1 1
4836 1 7.5796641117630816e+00 6.1222690081184048e+00 3.8292722536078836e+00 1 1 0
1807 1 5.5172608064244919e+00 6.3311711035347695e+00 5.7281578659832917e+00 0 1 0
3713 1 3.2900632184571590e+00 1.2765392161590693e+01 3.6199107443020697e+00 0 -1 1
398 1 8.5805105889482221e+00 7.0034458842753666e-01 1.0697011159990062e+01 0 0 0
3295 1 6.8984525722614611e+00 5.8595597427638388e+00 7.8411992981995580e+00 0 0 0
1247 1 6.6104760903049220e+00 1.0325917139192139e+01 6.2918443446421994e+00 1 0 1
2093 1 1.3527384555479480e+00 8.6834563952958401e+00 2.9622384562247603e+00 0 1 1
2015 1 8.5862488674773854e+00 1.1911412410021416e+01 9.8213000271933488e+00 1 0 0
238 1 3.0014633746216699e+00 1.0723583815295445e+00 8.0499750123891936e+00 0 1 0
1601 1 7.8207415429829708e-01 1.2750106426220613e+01 4.8846157527807819e+00 0 0 0
5034 1 1.2038844270825713e+00 1.4315527063840086e+01 1.0949591708326103e+01 0 1 0
6180 1 4.4608202544898212e+00 8.6945982078761155e+00 5.5173093544422089e+00 1 0 1
1978 1 9.0436942109327692e-02 1.0818255431920679e+01 6.7400456368897395e+00 0 1 0
1388 1 1.9685808333738535e+00 1.0501648921792809e+01 8.3791118439659336e+00 0 -1 1
1397 1 7.9536827309213365e+00 9.4116271857836189e+00 8.5727747671127137e+00 0 0 0
3208 1 8.5135323284270363e+00 1.0854245599616702e+01 4.1363729403784149e+00 0 1 0
335 1 3.8288180048325953e+00 1.0252613384727589e+01 3.1265353578789137e+00 1 0 0
5063 1 3.4859723879616705e-01 1.5203539394452891e+01 6.3291511320601082e+00 1 0 0
3355 1 5.7446622607266375e+00 1.2713087924576469e+01 7.3595097333403077e+00 0 1 0
2956 1 4.8701282680792817e+00 1.4396952919025299e+01 5.3505332112026114e+00 0 1 1
5116 1 9.6096491872210823e+00 4.3897592904149967e+00 9.0391155377600292e+00 1 1 0
4541 1 7.5265665036339326e+00 1.4392844662926320e+01 9.1486309393734402e+00 -1 1 1
4856 1 9.6403979183965181e+00 1.5089758445181525e+01 1.0882073376519706e+01 1 0 1
4658 1 2.5602811554877216e+00 3.4309655399429091e+00 9.5888220853118824e+00 1 1 1
4991 1 4.8742128973935195e+00 4.8035717066345516e+00 1.0202372401438812e+01 0 1 1
5047 1 6.2699766312334271e+00 2.2278943587389461e+00 1.0662042490381495e+01 0 1 0
3545 1 8.3087457602780415e+00 1.4980807552259947e+01 6.4208954709686861e+00 0 0 0
1362 1 3.5382033315618511e+00 1.2631073607968569e+01 9.2489247678484148e+00 1 0 0
1248 1 9.3307839046847296e-01 9.0457467381055032e+00 1.0284466978787703e+01 1 0 1
5216 1 2.4571982704853257e+00 5.4689187494493989e+00 7.7467369472115282e+00 0 0 1
3465 1 3.5773661730782851e+00 8.0623515785868793e+00 8.1909719418595319e+00 0 0 0
2996 1 3.3075247621145540e+00 7.5519119563054220e+00 1.1317090305132218e+01 0 1 1
4457 1 3.2425919216309080e+00 1.5906231655316681e+01 9.5612314099300519e+00 0 1 1
6250 1 6.1964283060634813e+00 7.6728329597678915e+00 9.7147460382236002e+00 0 1 1
1910 1 9.1213263963242888e+00 1.6136649964858352e+00 6.1257683592558729e+00 0 0 0
2926 1 4.2720630786343010e+00 1.7144027347151866e-01 4.0414772223713706e+00 1 0 1
1501 1 3.0618590722381294e+00 1.5901322930838106e+01 6.6436296728938222e+00 0 0 0
2150 1 9.5792895375938034e+00 8.2762354910396763e+00 3.6860026548582465e+00 0 1 1
3141 1 9.4329642561834692e+00 6.3504511767634568e+00 6.5109794559701690e+00 0 0 0
77 1 6.1129662686863961e-01 1.4373025158233994e+00 1.4070348667375384e+01 0 0 1
3254 1 2.3136119601262557e+00 2.8701950885773564e+00 1.2368304348564598e+01 1 0 1
1257 1 7.2896412143371530e+00 5.6311403044384569e+00 1.3609585977565699e+01 0 1 1
362 1 8.8082218046239902e+00 2.5897892576046573e+00 1.7223824307618742e+01 0 0 0
3532 1 4.7272269953302359e+00 4.1987767484623761e+00 1.3087941112037090e+01 0 1 0
3198 1 9.3242990793291403e-01 3.6893137268939564e+00 2.0311188852156398e+01 0 -1 0
3591 1 8.0763439854473447e+00 1.3963670471694233e+01 1.7587670437625608e+01 0 0 0
202 1 1.4951891834762587e+00 6.1539203214297507e+00 1.5833336768359006e+01 1 1 0
5122 1 3.9977197410518266e+00 6.5067582121442760e+00 1.4563908464290899e+01 1 1 0
5029 1 5.4324334021578444e+00 5.5937149169531608e+00 1.6971745442948340e+01 1 1 0
337 1 6.9729060415003374e+00 1.1409612020887302e+01 1.2145246630292291e+01 0 0 0
1772 1 5.0817713756683194e+00 1.3148732984100799e+00 1.6110955336856314e+01 1 1 1
1841 1 4.2980581127317645e+00 9.1721657486996193e+00 1.3306824873295612e+01 0 -1 0
3596 1 3.2915535635048285e+00 1.0995175278403414e+01 1.5163735050610766e+01 1 0 0
399 1 4.3614726954728296e+00 1.3751921848387850e+01 1.4047736056539639e+01 0 0 0
1814 1 7.2459235733531280e-01 1.0902932926457421e+01 1.4298525838525061e+01 0 1 0
6119 1 6.7562955395328732e+00 8.2300233647966454e+00 1.2561691919232819e+01 1 1 0
172 1 6.2003163989751009e+00 1.5272099611847137e+01 1.3160984879941529e+01 1 0 1
1988 1 9.3658395035959374e-01 9.1249073226979576e+00 1.9354603600799127e+01 0 0 0
2014 1 3.9374209019476680e-01 1.2816220969527457e+01 1.6497231091280000e+01 0 -1 0
217 1 9.7040431168744803e+00 1.1564718827289791e+01 1.4701489476816445e+01 0 0 1
1638 1 6.5155616087881043e+00 1.9824935688572585e+00 1.4030466618441960e+01 1 0 0
3165 1 5.1896400105572782e-02 1.5238604402562856e+01 1.4975372964945388e+01 -1 -1 0
344 1 7.3756087317055599e+00 1.5436446032171334e+01 2.0064575919966106e+01 0 1 1
3226 1 5.0186934924639353e+00 1.2483130045224474e+01 1.7158324418299870e+01 0 0 1
3183 1 4.0962354523960531e+00 3.0066993494778673e+00 2.0396170203627584e+01 0 1 1
6133 1 1.1742745156388810e+00 3.9710133875543376e+00 1.7562998286747582e+01 1 0 1
5009 1 3.9730959801741990e+00 3.2540457039858621e+00 1.7555327100180278e+01 0 1 0
315 1 9.3658674131334436e+00 8.7577072697634186e+00 1.3973440700673743e+01 0 0 0
5062 1 8.9163758628240490e+00 1.3744372095339035e+01 1.3585502902687818e+01 1 1 0
1825 1 8.6250133055570597e+00 1.5875132860070327e+01 1.5587931315963001e+01 0 0 0
5212 1 9.2886578836144640e+00 7.4183623694038214e+00 1.6286255235531698e+01 1 1 0
105 1 7.0885680819055468e+00 5.8044446570509800e-01 1.7950119274440205e+01 1 0 0
3507 1 9.2917935730959140e+00 4.2055548681263533e+00 1.2051718784494508e+01 0 0 0
4640 1 7.9343291989584186e+00 4.9927511224240577e+00 1.6227605414930004e+01 1 0 0
5004 1 5.3352038208043489e+00 8.1360599177103339e+00 1.8164650336018109e+01 0 1 1
221 1 8.8413358856679345e+00 3.9290508210299042e+00 2.0001316901547771e+01 0 0 0
5161 1 4.1206524696934732e+00 3.7356726476863955e-01 1.2366455519438224e+01 -1 0 0
1385 1 2.6206354665812346e+00 8.7090388436704931e+00 1.7002629410653114e+01 0 0 1
1525 1 1.4606326091539763e+00 1.1957285271577629e+01 1.8949937579786340e+01 0 0 0
12 1 4.1132265351143369e+00 1.1129205946825788e+01 1.9612172741511657e+01 0 -1 1
1934 1 8.1300955858001469e+00 8.4095999695722377e+00 1.8155411258413331e+01 0 0 0
5083 1 8.0664621036626425e+00 1.1431305671445136e+01 1.6848270378987138e+01 0 0 0
2976 1 6.4413015344824505e+00 1.2323913379931422e+00 2.0573819279750850e+01 0 1 1
341 1 1.4647361117561741e+00 1.5270030209951935e+01 1.7871713138729799e+01 0 0 0
3520 1 4.1253656978831179e+00 1.5008442929764547e+01 1.7966911453419751e+01 1 0 0
2898 1 2.3218354197736106e+00 1.5427297946499948e+01 1.3305197292079423e+01 0 0 1
1635 1 8.5545533296336611e+00 4.4393815134561275e-02 1.3425083293526967e+01 0 1 1
2895 1 4.1161721253005927e+00 1.1928502188059586e+01 1.1784313888042881e+01 1 0 1
1947 1 3.5265983215759547e+00 8.6360552142759666e+00 2.0810300668241474e+01 0 0 0
3638 1 1.3098643331879622e+00 5.5787047682162410e+00 1.1786146727764564e+01 1 0 1
4917 1 4.4120623999012638e+00 1.5031420301295885e+01 2.0792532341671901e+01 1 0 0
1897 1 6.2275482307759522e-01 1.1483874362136078e+01 1.1747047430008106e+01 0 -1 0
4741 1 4.6688360819438293e+00 7.1734279427688330e-01 2.4261518310282739e+01 1 1 0
4933 1 1.8123892973555247e+00 1.8881598523262719e+00 2.4163512547770665e+01 0 0 0
352 1 6.3438830409666203e+00 2.8286013312776577e+00 2.3808591958454663e+01 0 0 1
1718 1 9.1547168323942945e+00 2.5731973598760551e+00 2.4067780894744182e+01 1 1 0
3529 1 6.6026093305432427e+00 4.6750293625503563e+00 2.1413824930743932e+01 0 0 1
724 2 7.3829999999999991e+00 1.2787731112280996e+01 2.6870403276611480e+01 0 0 0
5234 1 1.7113333209448094e+00 4.7182767044117666e+00 2.3493508113818855e+01 1 0 0
4743 1 1.4361440372013112e-01 6.5589520505913903e+00 2.1000563683545916e+01 1 0 1
1872 1 2.5806620316669795e+00 1.2083828886229002e+00 2.1566933942414693e+01 1 0 1
2170 1 4.7898786717176280e+00 5.1833631479314191e+00 2.4068610217586222e+01 -1 0 0
3036 1 8.5761149343015894e+00 7.4077437550199869e+00 2.4097389702744916e+01 0 1 1
5106 1 5.9018964540638397e+00 7.7280278035357979e+00 2.3946851482853244e+01 1 0 0
679 2 6.1524999999999990e+00 1.3498160618518829e+01 2.6870403276611480e+01 0 0 0
2165 1 8.7610256591277569e+00 1.4930267695788940e+01 2.4294542146780763e+01 1 1 1
2073 1 1.4015198830176507e+00 1.0190040028993840e+01 2.4538946667100504e+01 1 0 0
1986 1 8.8731858117543361e+00 8.0341570648161991e+00 2.1382610963286364e+01 1 1 0
1750 1 3.9940285738870354e+00 9.5744365100990176e+00 2.3461510294213920e+01 0 0 0
5081 1 3.3255536430272787e+00 5.4356015868764205e+00 2.1311025295261889e+01 -1 0 0
1875 1 7.5066715660911623e+00 1.2391747657384117e+01 2.4544665129206365e+01 0 0 0
174 1 4.8326094400978983e+00 1.2386106302630557e+01 2.4272626895348587e+01 0 1 1
5131 1 9.1975495936973370e+00 1.0488120210290662e+01 2.3818378162677863e+01 0 1 0
3558 1 8.9886535757170236e+00 1.4988922061265422e+00 2.1530822043743964e+01 1 1 0
300 1 7.4824029793551827e-01 1.3001483664397856e+01 2.3815812647279028e+01 0 -1 0
726 2 8.6135000000000002e+00 1.3498160618518835e+01 2.6870403276611480e+01 0 0 0
5187 1 3.4055507686855968e+00 1.5033980733737341e+01 2.3930408350214449e+01 0 -1 0
767 2 8.6135000000000002e+00 1.4919019630994494e+01 2.6870403276611480e+01 0 0 0
554 2 0.0000000000000000e+00 2.8417180249513345e+00 2.6870403276611480e+01 0 0 0
556 2 0.0000000000000000e+00 0.0000000000000000e+00 2.6870403276611480e+01 0 0 0
558 2 1.2305000000000001e+00 7.1042950623783474e-01 2.6870403276611480e+01 0 0 0
565 2 1.2305000000000001e+00 2.1312885187134998e+00 2.6870403276611480e+01 0 0 0
567 2 2.4610000000000003e+00 2.8417180249513345e+00 2.6870403276611480e+01 0 0 0
569 2 2.4610000000000003e+00 0.0000000000000000e+00 2.6870403276611480e+01 0 0 0
571 2 3.6915000000000004e+00 7.1042950623783474e-01 2.6870403276611480e+01 0 0 0
586 2 3.6914999999999996e+00 2.1312885187134998e+00 2.6870403276611480e+01 0 0 0
588 2 4.9220000000000006e+00 2.8417180249513332e+00 2.6870403276611480e+01 0 0 0
590 2 4.9220000000000006e+00 0.0000000000000000e+00 2.6870403276611480e+01 0 0 0
592 2 6.1524999999999999e+00 7.1042950623783407e-01 2.6870403276611480e+01 0 0 0
615 2 6.1524999999999999e+00 2.1312885187134989e+00 2.6870403276611480e+01 0 0 0
617 2 7.3829999999999991e+00 2.8417180249513345e+00 2.6870403276611480e+01 0 0 0
619 2 7.3829999999999991e+00 0.0000000000000000e+00 2.6870403276611480e+01 0 0 0
621 2 8.6134999999999984e+00 7.1042950623783407e-01 2.6870403276611480e+01 0 0 0
652 2 8.6134999999999984e+00 2.1312885187135002e+00 2.6870403276611480e+01 0 0 0
561 2 0.0000000000000000e+00 4.2625770374269996e+00 2.6870403276611480e+01 0 0 0
563 2 1.2305000000000001e+00 4.9730065436648339e+00 2.6870403276611480e+01 0 0 0
578 2 1.2305000000000001e+00 6.3938655561404980e+00 2.6870403276611480e+01 0 0 0
582 2 2.4610000000000003e+00 4.2625770374269996e+00 2.6870403276611480e+01 0 0 0
584 2 3.6914999999999996e+00 4.9730065436648339e+00 2.6870403276611480e+01 0 0 0
607 2 3.6914999999999996e+00 6.3938655561404980e+00 2.6870403276611480e+01 0 0 0
559 2 0.0000000000000000e+00 7.1042950623783341e+00 2.6870403276611480e+01 0 0 0
580 2 2.4610000000000003e+00 7.1042950623783341e+00 2.6870403276611480e+01 0 0 0
611 2 4.9220000000000006e+00 4.2625770374269978e+00 2.6870403276611480e+01 0 0 0
613 2 6.1524999999999999e+00 4.9730065436648339e+00 2.6870403276611480e+01 0 0 0
644 2 6.1524999999999999e+00 6.3938655561404980e+00 2.6870403276611480e+01 0 0 0
648 2 7.3829999999999991e+00 4.2625770374269996e+00 2.6870403276611480e+01 0 0 0
650 2 8.6135000000000002e+00 4.9730065436648339e+00 2.6870403276611480e+01 0 0 0
689 2 8.6135000000000002e+00 6.3938655561404980e+00 2.6870403276611480e+01 0 0 0
609 2 4.9220000000000006e+00 7.1042950623783341e+00 2.6870403276611480e+01 0 0 0
646 2 7.3830000000000009e+00 7.1042950623783341e+00 2.6870403276611480e+01 0 0 0
574 2 0.0000000000000000e+00 8.5251540748539991e+00 2.6870403276611480e+01 0 0 0
576 2 1.2305000000000001e+00 9.2355835810918343e+00 2.6870403276611480e+01 0 0 0
603 2 2.4610000000000003e+00 8.5251540748539991e+00 2.6870403276611480e+01 0 0 0
605 2 3.6915000000000004e+00 9.2355835810918343e+00 2.6870403276611480e+01 0 0 0
572 2 0.0000000000000000e+00 1.1366872099805333e+01 2.6870403276611480e+01 0 0 0
599 2 1.2305000000000001e+00 1.0656442593567498e+01 2.6870403276611480e+01 0 0 0
601 2 2.4610000000000003e+00 1.1366872099805333e+01 2.6870403276611480e+01 0 0 0
636 2 3.6914999999999996e+00 1.0656442593567499e+01 2.6870403276611480e+01 0 0 0
640 2 4.9220000000000006e+00 8.5251540748539991e+00 2.6870403276611480e+01 0 0 0
642 2 6.1524999999999999e+00 9.2355835810918343e+00 2.6870403276611480e+01 0 0 0
685 2 7.3830000000000009e+00 8.5251540748539991e+00 2.6870403276611480e+01 0 0 0
687 2 8.6134999999999984e+00 9.2355835810918343e+00 2.6870403276611480e+01 0 0 0
638 2 4.9220000000000006e+00 1.1366872099805333e+01 2.6870403276611480e+01 0 0 0
681 2 6.1524999999999999e+00 1.0656442593567499e+01 2.6870403276611480e+01 0 0 0
683 2 7.3829999999999991e+00 1.1366872099805333e+01 2.6870403276611480e+01 0 0 0
728 2 8.6134999999999984e+00 1.0656442593567498e+01 2.6870403276611480e+01 0 0 0
593 2 0.0000000000000000e+00 1.5629449137232333e+01 2.6870403276611480e+01 0 0 0
628 2 1.2305000000000001e+00 1.4919019630994494e+01 2.6870403276611480e+01 0 0 0
673 2 3.6915000000000004e+00 1.4919019630994494e+01 2.6870403276611480e+01 0 0 0
630 2 2.4610000000000003e+00 1.5629449137232328e+01 2.6870403276611480e+01 0 0 0
595 2 0.0000000000000000e+00 1.2787731112280996e+01 2.6870403276611480e+01 0 0 0
597 2 1.2305000000000001e+00 1.3498160618518829e+01 2.6870403276611480e+01 0 0 0
632 2 2.4610000000000003e+00 1.2787731112280996e+01 2.6870403276611480e+01 0 0 0
634 2 3.6915000000000004e+00 1.3498160618518829e+01 2.6870403276611480e+01 0 0 0
675 2 4.9220000000000006e+00 1.5629449137232333e+01 2.6870403276611480e+01 0 0 0
720 2 6.1524999999999990e+00 1.4919019630994494e+01 2.6870403276611480e+01 0 0 0
722 2 7.3829999999999991e+00 1.5629449137232333e+01 2.6870403276611480e+01 0 0 0
677 2 4.9220000000000006e+00 1.2787731112280996e+01 2.6870403276611480e+01 0 0 0
4921 1 8.0686230074899061e+00 1.1276779788041834e+01 2.1198981606427775e+01 0 0 0
4982 1 6.2879423762905571e+00 7.4886879521100367e+00 2.1215328292576164e+01 1 0 0
4667 1 8.8795334880577759e+00 1.3840695736495523e+01 2.1736623124000101e+01 0 1 1
4468 1 5.4525370176221069e+00 1.2120636022055184e+01 2.1629659366021155e+01 1 -1 1
555 2 0.0000000000000000e+00 1.4208590124756650e+00 3.0030999999999356e+01 0 0 0
557 2 0.0000000000000000e+00 0.0000000000000000e+00 3.0030999999999356e+01 0 0 0
566 2 1.2305000000000001e+00 2.1312885187134998e+00 3.0030999999999356e+01 0 0 0
568 2 2.4610000000000003e+00 1.4208590124756650e+00 3.0030999999999356e+01 0 0 0
570 2 2.4610000000000003e+00 0.0000000000000000e+00 3.0030999999999356e+01 0 0 0
587 2 3.6914999999999996e+00 2.1312885187134998e+00 3.0030999999999356e+01 0 0 0
564 2 1.2305000000000001e+00 3.5521475311891644e+00 3.0030999999999356e+01 0 0 0
585 2 3.6914999999999996e+00 3.5521475311891644e+00 3.0030999999999356e+01 0 0 0
883 2 0.0000000000000000e+00 2.8417180249513345e+00 3.3191596723387228e+01 0 0 0
884 2 0.0000000000000000e+00 0.0000000000000000e+00 3.3191596723387228e+01 0 0 0
885 2 1.2305000000000001e+00 7.1042950623783474e-01 3.3191596723387228e+01 0 0 0
889 2 1.2305000000000001e+00 2.1312885187134998e+00 3.3191596723387228e+01 0 0 0
890 2 2.4610000000000003e+00 2.8417180249513345e+00 3.3191596723387228e+01 0 0 0
891 2 2.4610000000000003e+00 0.0000000000000000e+00 3.3191596723387228e+01 0 0 0
892 2 3.6915000000000004e+00 7.1042950623783474e-01 3.3191596723387228e+01 0 0 0
900 2 3.6914999999999996e+00 2.1312885187134998e+00 3.3191596723387228e+01 0 0 0
589 2 4.9220000000000006e+00 1.4208590124756650e+00 3.0030999999999356e+01 0 0 0
591 2 4.9220000000000006e+00 0.0000000000000000e+00 3.0030999999999356e+01 0 0 0
616 2 6.1524999999999999e+00 2.1312885187134989e+00 3.0030999999999356e+01 0 0 0
618 2 7.3829999999999991e+00 1.4208590124756659e+00 3.0030999999999356e+01 0 0 0
620 2 7.3829999999999991e+00 0.0000000000000000e+00 3.0030999999999356e+01 0 0 0
653 2 8.6134999999999984e+00 2.1312885187135002e+00 3.0030999999999356e+01 0 0 0
614 2 6.1524999999999999e+00 3.5521475311891644e+00 3.0030999999999356e+01 0 0 0
651 2 8.6134999999999984e+00 3.5521475311891657e+00 3.0030999999999356e+01 0 0 0
901 2 4.9220000000000006e+00 2.8417180249513332e+00 3.3191596723387228e+01 0 0 0
902 2 4.9220000000000006e+00 0.0000000000000000e+00 3.3191596723387228e+01 0 0 0
903 2 6.1524999999999999e+00 7.1042950623783407e-01 3.3191596723387228e+01 0 0 0
915 2 6.1524999999999999e+00 2.1312885187134989e+00 3.3191596723387228e+01 0 0 0
916 2 7.3829999999999991e+00 2.8417180249513345e+00 3.3191596723387228e+01 0 0 0
917 2 7.3829999999999991e+00 0.0000000000000000e+00 3.3191596723387228e+01 0 0 0
918 2 8.6134999999999984e+00 7.1042950623783407e-01 3.3191596723387228e+01 0 0 0
934 2 8.6134999999999984e+00 2.1312885187135002e+00 3.3191596723387228e+01 0 0 0
560 2 0.0000000000000000e+00 5.6834360499026637e+00 3.0030999999999356e+01 0 0 0
562 2 0.0000000000000000e+00 4.2625770374269996e+00 3.0030999999999356e+01 0 0 0
579 2 1.2305000000000001e+00 6.3938655561404980e+00 3.0030999999999356e+01 0 0 0
581 2 2.4610000000000003e+00 5.6834360499026637e+00 3.0030999999999356e+01 0 0 0
583 2 2.4610000000000003e+00 4.2625770374269996e+00 3.0030999999999356e+01 0 0 0
608 2 3.6914999999999996e+00 6.3938655561404980e+00 3.0030999999999356e+01 0 0 0
577 2 1.2305000000000001e+00 7.8147245686161639e+00 3.0030999999999356e+01 0 0 0
606 2 3.6914999999999996e+00 7.8147245686161639e+00 3.0030999999999356e+01 0 0 0
887 2 0.0000000000000000e+00 4.2625770374269996e+00 3.3191596723387228e+01 0 0 0
888 2 1.2305000000000001e+00 4.9730065436648339e+00 3.3191596723387228e+01 0 0 0
896 2 1.2305000000000001e+00 6.3938655561404980e+00 3.3191596723387228e+01 0 0 0
898 2 2.4610000000000003e+00 4.2625770374269996e+00 3.3191596723387228e+01 0 0 0
899 2 3.6914999999999996e+00 4.9730065436648339e+00 3.3191596723387228e+01 0 0 0
911 2 3.6914999999999996e+00 6.3938655561404980e+00 3.3191596723387228e+01 0 0 0
886 2 0.0000000000000000e+00 7.1042950623783341e+00 3.3191596723387228e+01 0 0 0
897 2 2.4610000000000003e+00 7.1042950623783341e+00 3.3191596723387228e+01 0 0 0
610 2 4.9220000000000006e+00 5.6834360499026637e+00 3.0030999999999356e+01 0 0 0
612 2 4.9220000000000006e+00 4.2625770374269978e+00 3.0030999999999356e+01 0 0 0
645 2 6.1524999999999999e+00 6.3938655561404980e+00 3.0030999999999356e+01 0 0 0
647 2 7.3829999999999991e+00 5.6834360499026637e+00 3.0030999999999356e+01 0 0 0
649 2 7.3829999999999991e+00 4.2625770374269996e+00 3.0030999999999356e+01 0 0 0
690 2 8.6135000000000002e+00 6.3938655561404980e+00 3.0030999999999356e+01 0 0 0
643 2 6.1524999999999999e+00 7.8147245686161639e+00 3.0030999999999356e+01 0 0 0
688 2 8.6135000000000002e+00 7.8147245686161639e+00 3.0030999999999356e+01 0 0 0
913 2 4.9220000000000006e+00 4.2625770374269978e+00 3.3191596723387228e+01 0 0 0
914 2 6.1524999999999999e+00 4.9730065436648339e+00 3.3191596723387228e+01 0 0 0
930 2 6.1524999999999999e+00 6.3938655561404980e+00 3.3191596723387228e+01 0 0 0
932 2 7.3829999999999991e+00 4.2625770374269996e+00 3.3191596723387228e+01 0 0 0
933 2 8.6135000000000002e+00 4.9730065436648339e+00 3.3191596723387228e+01 0 0 0
953 2 8.6135000000000002e+00 6.3938655561404980e+00 3.3191596723387228e+01 0 0 0
912 2 4.9220000000000006e+00 7.1042950623783341e+00 3.3191596723387228e+01 0 0 0
931 2 7.3830000000000009e+00 7.1042950623783341e+00 3.3191596723387228e+01 0 0 0
573 2 0.0000000000000000e+00 9.9460130873296642e+00 3.0030999999999356e+01 0 0 0
575 2 0.0000000000000000e+00 8.5251540748539991e+00 3.0030999999999356e+01 0 0 0
602 2 2.4610000000000003e+00 9.9460130873296642e+00 3.0030999999999356e+01 0 0 0
604 2 2.4610000000000003e+00 8.5251540748539991e+00 3.0030999999999356e+01 0 0 0
598 2 1.2305000000000001e+00 1.2077301606043163e+01 3.0030999999999356e+01 0 0 0
600 2 1.2305000000000001e+00 1.0656442593567498e+01 3.0030999999999356e+01 0 0 0
635 2 3.6914999999999996e+00 1.2077301606043163e+01 3.0030999999999356e+01 0 0 0
637 2 3.6914999999999996e+00 1.0656442593567499e+01 3.0030999999999356e+01 0 0 0
894 2 0.0000000000000000e+00 8.5251540748539991e+00 3.3191596723387228e+01 0 0 0
895 2 1.2305000000000001e+00 9.2355835810918343e+00 3.3191596723387228e+01 0 0 0
909 2 2.4610000000000003e+00 8.5251540748539991e+00 3.3191596723387228e+01 0 0 0
910 2 3.6915000000000004e+00 9.2355835810918343e+00 3.3191596723387228e+01 0 0 0
893 2 0.0000000000000000e+00 1.1366872099805333e+01 3.3191596723387228e+01 0 0 0
907 2 1.2305000000000001e+00 1.0656442593567498e+01 3.3191596723387228e+01 0 0 0
908 2 2.4610000000000003e+00 1.1366872099805333e+01 3.3191596723387228e+01 0 0 0
926 2 3.6914999999999996e+00 1.0656442593567499e+01 3.3191596723387228e+01 0 0 0
639 2 4.9220000000000006e+00 9.9460130873296642e+00 3.0030999999999356e+01 0 0 0
641 2 4.9220000000000006e+00 8.5251540748539991e+00 3.0030999999999356e+01 0 0 0
684 2 7.3830000000000009e+00 9.9460130873296642e+00 3.0030999999999356e+01 0 0 0
686 2 7.3830000000000009e+00 8.5251540748539991e+00 3.0030999999999356e+01 0 0 0
680 2 6.1524999999999999e+00 1.2077301606043163e+01 3.0030999999999356e+01 0 0 0
682 2 6.1524999999999999e+00 1.0656442593567499e+01 3.0030999999999356e+01 0 0 0
727 2 8.6135000000000002e+00 1.2077301606043163e+01 3.0030999999999356e+01 0 0 0
729 2 8.6134999999999984e+00 1.0656442593567498e+01 3.0030999999999356e+01 0 0 0
928 2 4.9220000000000006e+00 8.5251540748539991e+00 3.3191596723387228e+01 0 0 0
929 2 6.1524999999999999e+00 9.2355835810918343e+00 3.3191596723387228e+01 0 0 0
951 2 7.3830000000000009e+00 8.5251540748539991e+00 3.3191596723387228e+01 0 0 0
952 2 8.6134999999999984e+00 9.2355835810918343e+00 3.3191596723387228e+01 0 0 0
927 2 4.9220000000000006e+00 1.1366872099805333e+01 3.3191596723387228e+01 0 0 0
949 2 6.1524999999999999e+00 1.0656442593567499e+01 3.3191596723387228e+01 0 0 0
950 2 7.3829999999999991e+00 1.1366872099805333e+01 3.3191596723387228e+01 0 0 0
973 2 8.6134999999999984e+00 1.0656442593567498e+01 3.3191596723387228e+01 0 0 0
596 2 0.0000000000000000e+00 1.2787731112280996e+01 3.0030999999999356e+01 0 0 0
633 2 2.4610000000000003e+00 1.2787731112280996e+01 3.0030999999999356e+01 0 0 0
594 2 0.0000000000000000e+00 1.4208590124756663e+01 3.0030999999999356e+01 0 0 0
629 2 1.2305000000000001e+00 1.4919019630994494e+01 3.0030999999999356e+01 0 0 0
631 2 2.4610000000000003e+00 1.4208590124756663e+01 3.0030999999999356e+01 0 0 0
674 2 3.6915000000000004e+00 1.4919019630994494e+01 3.0030999999999356e+01 0 0 0
905 2 0.0000000000000000e+00 1.2787731112280996e+01 3.3191596723387228e+01 0 0 0
906 2 1.2305000000000001e+00 1.3498160618518829e+01 3.3191596723387228e+01 0 0 0
924 2 2.4610000000000003e+00 1.2787731112280996e+01 3.3191596723387228e+01 0 0 0
925 2 3.6915000000000004e+00 1.3498160618518829e+01 3.3191596723387228e+01 0 0 0
904 2 0.0000000000000000e+00 1.5629449137232333e+01 3.3191596723387228e+01 0 0 0
922 2 1.2305000000000001e+00 1.4919019630994494e+01 3.3191596723387228e+01 0 0 0
923 2 2.4610000000000003e+00 1.5629449137232328e+01 3.3191596723387228e+01 0 0 0
945 2 3.6915000000000004e+00 1.4919019630994494e+01 3.3191596723387228e+01 0 0 0
678 2 4.9220000000000006e+00 1.2787731112280996e+01 3.0030999999999356e+01 0 0 0
725 2 7.3829999999999991e+00 1.2787731112280996e+01 3.0030999999999356e+01 0 0 0
676 2 4.9220000000000006e+00 1.4208590124756663e+01 3.0030999999999356e+01 0 0 0
721 2 6.1524999999999990e+00 1.4919019630994494e+01 3.0030999999999356e+01 0 0 0
723 2 7.3830000000000009e+00 1.4208590124756663e+01 3.0030999999999356e+01 0 0 0
768 2 8.6135000000000002e+00 1.4919019630994494e+01 3.0030999999999356e+01 0 0 0
947 2 4.9220000000000006e+00 1.2787731112280996e+01 3.3191596723387228e+01 0 0 0
948 2 6.1524999999999990e+00 1.3498160618518829e+01 3.3191596723387228e+01 0 0 0
971 2 7.3829999999999991e+00 1.2787731112280996e+01 3.3191596723387228e+01 0 0 0
972 2 8.6135000000000002e+00 1.3498160618518835e+01 3.3191596723387228e+01 0 0 0
946 2 4.9220000000000006e+00 1.5629449137232333e+01 3.3191596723387228e+01 0 0 0
969 2 6.1524999999999990e+00 1.4919019630994494e+01 3.3191596723387228e+01 0 0 0
970 2 7.3829999999999991e+00 1.5629449137232333e+01 3.3191596723387228e+01 0 0 0
993 2 8.6135000000000002e+00 1.4919019630994494e+01 3.3191596723387228e+01 0 0 0
2922 1 2.0862719567507715e+00 3.1738308727712141e+00 3.5891471282161937e+01 0 1 0
1634 1 6.2312686540823563e+00 1.0720975206936057e+01 3.8599041111038638e+01 0 0 -1
2901 1 4.8275826837450770e+00 3.3279247443282394e+00 3.6029882766672912e+01 1 0 0
3134 1 9.1205321130569974e+00 3.3834043977308474e+00 3.5697803022926550e+01 0 1 0
3732 1 4.7461794493804588e+00 3.7134982747219270e+00 3.8789240617355986e+01 0 0 0
1472 1 7.2093594185540368e+00 1.3843590600219871e+01 3.6428976979913401e+01 0 1 -1
1350 1 3.4890770759790404e+00 9.6511461562437599e+00 3.8879848311738492e+01 0 1 0
4460 1 5.7524112263658755e-01 5.5113756085646814e+00 3.5815097172553557e+01 0 1 0
6269 1 1.7316937382130797e+00 1.5404756179921222e+01 3.5736935859411595e+01 0 1 0
5999 1 1.8560429222107824e+00 7.8760538265433571e+00 3.5432305505641118e+01 0 -1 0
1402 1 4.7766566484313172e-01 1.0358235801504897e+01 3.5968985256722604e+01 1 1 0
4843 1 2.0667482692219146e+00 3.0807691361430112e+00 3.8755520183139296e+01 0 0 -1
4666 1 8.4383608902004941e+00 4.4853950894789731e+00 3.8321231632554522e+01 1 0 0
3005 1 4.4527854995866667e+00 8.1180339962592694e+00 3.6509508384375209e+01 0 0 0
1418 1 6.0794181798832323e+00 5.8432615127111083e+00 3.5622025386953474e+01 0 0 0
2114 1 8.4750417177294963e+00 7.8043752520923029e+00 3.6031560046383063e+01 0 1 0
6139 1 2.2698552668157430e+00 1.2748201970360078e+01 3.5702310975141550e+01 -1 1 0
4897 1 5.9042115540914590e+00 6.5697590515225368e+00 3.8662148461442747e+01 0 0 -1
6289 1 4.9739435535343839e+00 1.2374162901119551e+01 3.5743158116501419e+01 1 1 0
517 1 5.8867670738779720e+00 7.3425414246689513e-01 3.5816719141119876e+01 1 0 0
4764 1 6.4716498672926610e+00 9.7453934956487895e+00 3.5867643240148830e+01 0 0 0
5154 1 1.1214789584711264e+00 1.4740929853181735e+01 3.8557055487903241e+01 1 0 -1
6011 1 1.2828886063716893e+00 7.9899240712407049e-01 3.5749958974277057e+01 0 0 0
6070 1 2.9664378774723932e-01 5.2890556020822670e+00 3.8478592952741955e+01 0 2 0
394 1 2.8128283710799664e+00 1.2466884215048221e+01 3.8531726738277960e+01 0 0 -1
1574 1 1.0037870991971038e+00 4.7032636395744598e-01 3.8340814798621786e+01 0 1 -1
1454 1 4.7891974906815049e+00 1.5744674908344814e+01 3.6046061367017572e+01 1 0 0
6167 1 5.7367581273086614e+00 1.3615560598687393e+01 3.9115624275266896e+01 0 0 -1
6255 1 9.4469230177673502e+00 1.2084059222615416e+01 3.6804634585940278e+01 0 0 -1
6120 1 1.1818525684719430e+00 2.3021333538779931e+00 4.1306572202938860e+01 0 1 -1
226 1 9.2047803093968483e-02 1.4369003474565130e+01 4.4058141121743944e+01 0 0 -1
3698 1 3.9952062767750318e+00 1.5966735017685922e+01 3.9219365252335017e+01 1 0 0
2970 1 8.7735221283400175e+00 2.1008778290139021e+00 3.9363552101931802e+01 0 1 0
524 1 6.5075840425510805e+00 2.2264949012887345e+00 4.2103928524976148e+01 2 0 0
1670 1 6.2878089989569927e+00 1.7257233055335790e+00 3.9480417856817667e+01 1 1 -1
6212 1 7.8395418452069006e+00 4.5762416626523406e+00 4.3065185119315395e+01 1 1 -1
3211 1 3.1050250543334408e+00 4.8472725985971534e+00 4.2980789416355769e+01 1 0 -1
3652 1 3.7013565206865220e+00 6.3255082499355195e+00 4.0569049039138918e+01 -1 0 0
6017 1 9.4847306799504967e+00 1.3860646195068037e+01 4.7781924739660639e+01 2 1 0
4870 1 7.9812787433710879e+00 6.3053862239500393e+00 4.0811157761957595e+01 1 0 -1
1812 1 3.1928508151172998e+00 1.3402474871465508e+01 4.1340416484673710e+01 0 1 -1
5325 1 3.4734871073537592e+00 4.7724508979293754e+00 4.6670852265815526e+01 1 0 0
6157 1 3.7308807138074438e+00 9.1140338766109199e+00 4.1782163728587598e+01 1 0 0
1876 1 9.1804914808112628e+00 8.4485100524040320e+00 4.1488043329037765e+01 0 1 -1
1389 1 6.5760545689097691e+00 9.5284304450297252e+00 4.1335032413090715e+01 -1 0 0
272 1 9.0830972219987434e+00 1.4184616480815750e+01 4.4731450023638878e+01 0 0 -1
1767 1 7.4079168356646719e+00 1.2432111099341784e+01 4.1546138862267128e+01 0 0 0
5243 1 6.3590103494064154e+00 1.5438750428001322e+01 4.2131350324726341e+01 1 1 0
3042 1 3.5230764580453394e-01 4.9945833955522927e+00 4.3210807639369051e+01 0 -1 0
2034 1 4.2485765445780599e+00 1.5415032066221341e+01 4.4194186454854872e+01 0 1 0
1398 1 5.5779500570388212e+00 1.4226244730982525e+00 4.8235056413784172e+01 1 1 0
36 1 3.7877456514338048e+00 2.1482415970253061e+00 4.3323949016427072e+01 0 1 0
2884 1 7.5880237068321321e-01 5.7494066391195346e+00 4.7152634794899114e+01 0 1 0