LAMMPS data file via write_data, version 16 Mar 2018, timestep = 6000000

6489 atoms
2 atom types

0.0000000000000000e+00 4.9219999999999999e+01 xlo xhi
0.0000000000000000e+00 4.9019635930410494e+01 ylo yhi
6.5529964821444153e-01 5.9406700351766020e+01 zlo zhi

Masses

1 18.015
2 12.01

Atoms # atomic

4926 1 2.4652807460229580e+00 2.8845348832046600e+00 2.3254561672448357e+00 -1 1 0
3520 1 3.4186230934549018e+00 7.0181425370476003e-01 3.3544941411470455e+00 1 0 0
6130 1 7.5680443563669746e+00 2.6810878318942581e+00 3.5066540062809053e+00 -2 2 1
354 1 8.0635764757305335e+00 7.2568117932184517e+00 6.0259197583515123e+00 0 0 0
2890 1 3.7448414700356927e+00 4.8680025504739977e+00 3.3543443876773043e+00 -2 0 0
271 1 2.7432973720082270e+00 7.2626342092152703e+00 2.2884142575450404e+00 1 0 0
288 1 8.1624307047543105e+00 1.1867525440876166e+01 6.0123506870702546e+00 -1 1 1
1556 1 6.5736116502695712e+00 5.0579472581220974e+00 2.4589270105683596e+00 -2 0 1
1721 1 8.0594797714819393e+00 7.0187319008813880e+00 3.4649577931479318e+00 -1 1 1
1384 1 4.0823209889593990e+00 9.4363430537017159e+00 3.4875611908420643e+00 0 3 1
192 1 6.8528113711063243e+00 9.6232019545454754e+00 7.0164890261062611e+00 0 2 0
3120 1 4.2477629238993098e+00 9.8847840031099192e+00 6.0686693160877274e+00 0 1 1
3792 1 6.6122212424293556e+00 9.5167231689499854e+00 2.2625944926757127e+00 -1 -1 0
4581 1 8.1965761302859050e+00 1.1792243256134141e+01 3.2965878821944425e+00 2 0 1
3585 1 6.3873803975077843e+00 5.2368467826215577e+00 6.8185606579547553e+00 0 0 0
3456 1 2.2455690421061489e+00 3.0237403820871829e+00 6.7506555336044460e+00 1 2 1
4720 1 6.0190157851351165e+00 3.7572892416127290e-01 7.0411317907797768e+00 1 1 1
4697 1 7.4854055114119946e+00 2.7534172819819864e+00 6.2492019397238403e+00 -1 1 1
256 1 2.6679126706270311e+00 7.4650702215482232e+00 7.1372980412455407e+00 1 -1 0
5311 1 3.7726627960847683e+00 5.0811013851834392e+00 6.2442902684104551e+00 0 -2 0
5216 1 3.6087557360468687e+00 5.5252687964023683e-01 6.2045050271298718e+00 1 1 0
284 1 6.1859072555974839e+00 4.7269451989392131e-01 2.7347436507023630e+00 2 2 1
4684 1 2.4690134937062319e-01 7.6306688195101300e+00 3.2499671750963248e+00 -1 -1 0
513 1 3.0454744178465143e-01 1.2041280336161218e+01 5.7515759959570829e+00 0 0 1
6207 1 3.2339443246700110e+00 1.1772834754520943e+01 2.1931366602829927e+00 0 2 1
5348 1 2.9238153145152657e+00 1.2118238901095154e+01 6.6977772884911229e+00 1 0 0
333 1 1.2976880510552416e-01 7.5205760987330281e+00 5.8964085725562354e+00 -1 0 0
6300 1 6.9504785179475614e-01 1.2218498067361169e+01 3.2933619793126594e+00 1 -2 1
1810 1 2.3902305350363653e+00 2.7609558576198578e+00 9.5947413781880613e+00 2 1 0
4971 1 9.1338896094022848e-01 6.8351362142077499e-01 1.0506208595272684e+01 -1 0 0
4930 1 5.1060141558443446e+00 3.0076890871323227e+00 1.0593641191231486e+01 2 3 0
5160 1 6.0083356495878890e+00 1.3237806293949628e-01 1.4124022358599490e+01 2 -1 0
4873 1 9.5379297584242835e+00 9.6756756467719747e+00 1.3182902529494129e+01 0 1 1
3161 1 1.5423199304034896e+00 5.0556613277598927e+00 1.0559278955823235e+01 -1 2 0
1795 1 2.4502454920006631e+00 7.3993521549451673e+00 9.8759660085036227e+00 2 0 0
4698 1 4.8827345698435582e+00 7.9178502760788900e+00 1.0448332898372737e+01 0 0 1
132 1 6.1795515021916412e+00 5.3533146279132806e+00 9.6536280182379031e+00 1 0 0
5258 1 8.9017199724795031e+00 5.0792768906090124e+00 1.0472515197824661e+01 -1 0 0
5331 1 1.6691805604784680e+00 1.0039513046050448e+01 1.0606554494382015e+01 2 2 0
5435 1 8.4951567238315295e+00 1.1665756822594325e-01 1.3261017325355400e+01 0 2 1
5374 1 6.7192600396895132e+00 9.9264690067289489e+00 9.8087483745223327e+00 -2 0 0
174 1 6.7581510627063421e+00 9.7138860761424848e+00 1.3988814926412191e+01 1 -1 0
5337 1 2.4356346002599651e+00 2.6700834042384796e+00 1.4738097315238573e+01 2 2 1
3117 1 1.2445906334883101e+00 6.9152222610741421e-01 1.3218832992235109e+01 0 1 1
3767 1 4.8829489490074636e+00 2.4946515674555343e+00 1.3083261997660482e+01 -1 0 0
5205 1 8.4390200684485226e+00 5.1443670308797806e-01 1.0444067882484012e+01 1 1 0
1659 1 1.8053055250882424e+00 9.9601803910659594e+00 1.3199344806977132e+01 -1 -2 0
4842 1 9.4301642073322043e+00 9.6530529133530205e+00 1.0380309269501588e+01 -1 1 1
1961 1 2.6206857089723252e+00 7.3191086058482240e+00 1.4230960849809660e+01 0 -1 1
1807 1 1.8270354627579304e+00 4.8906233322549557e+00 1.3227615096232530e+01 -1 0 0
5175 1 6.1981038126063730e+00 5.0232256404266336e+00 1.4118787359180466e+01 1 0 0
3672 1 8.9823546047287657e+00 5.1373052460965454e+00 1.3206074003502865e+01 1 0 1
3453 1 5.1016381755906357e+00 7.5060962045727795e+00 1.3119005822359185e+01 0 0 0
5112 1 5.8642169055973623e+00 6.1289245398138958e-01 9.6449824451774102e+00 -1 0 0
6428 1 2.8014963387635912e+00 1.2108763074640597e+01 1.4390788318075984e+01 2 1 1
1269 1 2.2806031598431273e+00 2.7606672394284133e+00 1.7674348400245911e+01 2 1 1
6136 1 6.8398240491398372e+00 9.3960923744540938e+00 2.0883352220721033e+01 3 1 1
6251 1 8.2276544242709253e+00 1.1738314362306980e+01 2.0284129787059687e+01 0 1 1
4560 1 7.2362852711514272e+00 2.2697629670262072e+00 1.7398962563003092e+01 -2 0 1
4714 1 2.8754015666372932e+00 7.4220844072715915e+00 1.7094243153429499e+01 2 1 1
1931 1 3.8476043330257097e+00 5.0921723436662312e+00 1.7913687796374695e+01 2 2 0
313 1 6.5353066581757764e+00 4.8364529473264648e+00 1.6796389513665446e+01 1 -3 0
3553 1 8.1565326750453160e+00 7.0290396262468162e+00 1.7503671070970029e+01 -1 1 0
4749 1 4.3181627664624784e+00 9.6657256690119606e+00 1.7807098397495977e+01 1 0 0
4597 1 3.0944598424279972e+00 1.5047112831501080e-01 1.7838864114763403e+01 0 0 1
4723 1 8.3967315092618406e+00 1.1920118752190914e+01 1.7357854353343928e+01 0 -1 0
75 1 6.9754724866601370e+00 9.5115591918373799e+00 1.6630074194427653e+01 2 1 0
2011 1 5.7608659491336445e+00 5.8683973167759684e-01 2.1115269998450326e+01 2 2 0
5063 1 2.2497169336324596e+00 2.7794682722420676e+00 2.1134088101071026e+01 0 1 1
6451 1 2.7702225276345088e-01 7.4979070083855115e+00 1.8077943400295680e+01 1 -1 1
318 1 7.3164932547396582e+00 2.5372498899306621e+00 2.0064491800279686e+01 1 -1 0
3074 1 3.0786051250534552e+00 2.3543751629773563e-01 2.0475462052560925e+01 0 1 1
401 1 3.5604929820543973e+00 5.3573564617021940e+00 2.0919735209773147e+01 0 1 1
3310 1 2.6808536685648496e+00 7.8859148332930777e+00 2.1543476645721746e+01 -2 0 0
6106 1 6.3866290690824297e+00 5.0744364992298818e+00 2.0957033457975012e+01 -1 0 1
3180 1 8.0721747232287164e+00 7.2648711186651411e+00 2.0043411472390193e+01 1 0 1
5170 1 4.3239562027106162e+00 9.8836978808167668e+00 2.0281915947365608e+01 2 -1 0
5142 1 2.9252126321517031e+00 1.2014113301940748e+01 2.1293205374062115e+01 2 -1 0
1274 1 9.7176125437552940e+00 1.8472904270252095e+00 1.6672589375502657e+01 0 0 1
484 1 9.6881927091545510e+00 2.1308028951393898e+00 2.1357221488874583e+01 1 1 1
1770 1 2.0288076643687702e-02 7.4582926140994941e+00 2.0884184443816565e+01 0 0 0
5058 1 5.7468617623638962e-01 1.2140071884916338e+01 1.7760541022912683e+01 2 0 0
4564 1 4.7282856441748744e-01 1.2244260990458292e+01 2.0639947036446820e+01 0 -1 1
5369 1 3.1387858150224779e+00 1.2053698966121960e+01 1.7013860888743103e+01 1 -3 1
1471 1 5.7356866991422191e+00 5.9750696571917672e-02 1.6849050216480105e+01 -1 -1 1
1641 1 1.8016738847672702e+00 2.8205391152494919e+00 2.3868214733935616e+01 0 3 1
746 2 8.6134999999999984e+00 1.0656442593567498e+01 2.6722353195651976e+01 0 0 0
4732 1 7.7626003728698088e+00 2.5209069451945334e+00 2.4450729049740627e+01 0 -2 1
34 1 3.3373762020341342e+00 5.7278468574626673e-01 2.3858480125786119e+01 0 -1 1
2922 1 2.5242056512569730e+00 7.3812260108064285e+00 2.4113548220888781e+01 0 0 1
3779 1 3.9677200746964338e+00 5.0893113567346511e+00 2.4136544371711558e+01 0 0 1
3263 1 6.7818632324067449e+00 4.8559063383680963e+00 2.3626242371477147e+01 0 1 0
1948 1 8.1250408185854077e+00 6.9917392488465069e+00 2.4478939907630927e+01 -1 1 0
705 2 8.6134999999999984e+00 9.2355835810918343e+00 2.6722353195651976e+01 0 0 0
2032 1 4.0174233413905185e+00 9.7820935803708000e+00 2.4362806878153709e+01 1 0 0
699 2 6.1524999999999999e+00 1.0656442593567499e+01 2.6722353195651976e+01 0 0 0
4870 1 6.5780176474282142e+00 9.3850457791956465e+00 2.3641190930642964e+01 0 -1 1
656 2 4.9220000000000006e+00 1.1366872099805333e+01 2.6722353195651976e+01 0 0 0
572 2 0.0000000000000000e+00 2.8417180249513345e+00 2.6722353195651976e+01 0 0 0
574 2 0.0000000000000000e+00 0.0000000000000000e+00 2.6722353195651976e+01 0 0 0
576 2 1.2305000000000001e+00 7.1042950623783474e-01 2.6722353195651976e+01 0 0 0
583 2 1.2305000000000001e+00 2.1312885187134998e+00 2.6722353195651976e+01 0 0 0
585 2 2.4610000000000003e+00 2.8417180249513345e+00 2.6722353195651976e+01 0 0 0
587 2 2.4610000000000003e+00 0.0000000000000000e+00 2.6722353195651976e+01 0 0 0
589 2 3.6915000000000004e+00 7.1042950623783474e-01 2.6722353195651976e+01 0 0 0
604 2 3.6914999999999996e+00 2.1312885187134998e+00 2.6722353195651976e+01 0 0 0
606 2 4.9220000000000006e+00 2.8417180249513332e+00 2.6722353195651976e+01 0 0 0
608 2 4.9220000000000006e+00 0.0000000000000000e+00 2.6722353195651976e+01 0 0 0
610 2 6.1524999999999999e+00 7.1042950623783407e-01 2.6722353195651976e+01 0 0 0
633 2 6.1524999999999999e+00 2.1312885187134989e+00 2.6722353195651976e+01 0 0 0
635 2 7.3829999999999991e+00 2.8417180249513345e+00 2.6722353195651976e+01 0 0 0
637 2 7.3829999999999991e+00 0.0000000000000000e+00 2.6722353195651976e+01 0 0 0
639 2 8.6134999999999984e+00 7.1042950623783407e-01 2.6722353195651976e+01 0 0 0
670 2 8.6134999999999984e+00 2.1312885187135002e+00 2.6722353195651976e+01 0 0 0
579 2 0.0000000000000000e+00 4.2625770374269996e+00 2.6722353195651976e+01 0 0 0
581 2 1.2305000000000001e+00 4.9730065436648339e+00 2.6722353195651976e+01 0 0 0
596 2 1.2305000000000001e+00 6.3938655561404980e+00 2.6722353195651976e+01 0 0 0
600 2 2.4610000000000003e+00 4.2625770374269996e+00 2.6722353195651976e+01 0 0 0
602 2 3.6914999999999996e+00 4.9730065436648339e+00 2.6722353195651976e+01 0 0 0
625 2 3.6914999999999996e+00 6.3938655561404980e+00 2.6722353195651976e+01 0 0 0
577 2 0.0000000000000000e+00 7.1042950623783341e+00 2.6722353195651976e+01 0 0 0
598 2 2.4610000000000003e+00 7.1042950623783341e+00 2.6722353195651976e+01 0 0 0
629 2 4.9220000000000006e+00 4.2625770374269978e+00 2.6722353195651976e+01 0 0 0
631 2 6.1524999999999999e+00 4.9730065436648339e+00 2.6722353195651976e+01 0 0 0
662 2 6.1524999999999999e+00 6.3938655561404980e+00 2.6722353195651976e+01 0 0 0
666 2 7.3829999999999991e+00 4.2625770374269996e+00 2.6722353195651976e+01 0 0 0
668 2 8.6135000000000002e+00 4.9730065436648339e+00 2.6722353195651976e+01 0 0 0
707 2 8.6135000000000002e+00 6.3938655561404980e+00 2.6722353195651976e+01 0 0 0
627 2 4.9220000000000006e+00 7.1042950623783341e+00 2.6722353195651976e+01 0 0 0
664 2 7.3830000000000009e+00 7.1042950623783341e+00 2.6722353195651976e+01 0 0 0
592 2 0.0000000000000000e+00 8.5251540748539991e+00 2.6722353195651976e+01 0 0 0
594 2 1.2305000000000001e+00 9.2355835810918343e+00 2.6722353195651976e+01 0 0 0
621 2 2.4610000000000003e+00 8.5251540748539991e+00 2.6722353195651976e+01 0 0 0
623 2 3.6915000000000004e+00 9.2355835810918343e+00 2.6722353195651976e+01 0 0 0
590 2 0.0000000000000000e+00 1.1366872099805333e+01 2.6722353195651976e+01 0 0 0
617 2 1.2305000000000001e+00 1.0656442593567498e+01 2.6722353195651976e+01 0 0 0
619 2 2.4610000000000003e+00 1.1366872099805333e+01 2.6722353195651976e+01 0 0 0
654 2 3.6914999999999996e+00 1.0656442593567499e+01 2.6722353195651976e+01 0 0 0
701 2 7.3829999999999991e+00 1.1366872099805333e+01 2.6722353195651976e+01 0 0 0
660 2 6.1524999999999999e+00 9.2355835810918343e+00 2.6722353195651976e+01 0 0 0
658 2 4.9220000000000006e+00 8.5251540748539991e+00 2.6722353195651976e+01 0 0 0
703 2 7.3830000000000009e+00 8.5251540748539991e+00 2.6722353195651976e+01 0 0 0
1416 1 8.3318140833750149e+00 1.1266561731383499e+01 2.4344373146830002e+01 -2 0 1
1852 1 5.2653591895804652e-02 1.2217612599448444e+01 2.3969736533169971e+01 3 1 0
573 2 0.0000000000000000e+00 1.4208590124756650e+00 3.0030999999990694e+01 0 0 0
575 2 0.0000000000000000e+00 0.0000000000000000e+00 3.0030999999990694e+01 0 0 0
584 2 1.2305000000000001e+00 2.1312885187134998e+00 3.0030999999990694e+01 0 0 0
586 2 2.4610000000000003e+00 1.4208590124756650e+00 3.0030999999990694e+01 0 0 0
588 2 2.4610000000000003e+00 0.0000000000000000e+00 3.0030999999990694e+01 0 0 0
605 2 3.6914999999999996e+00 2.1312885187134998e+00 3.0030999999990694e+01 0 0 0
582 2 1.2305000000000001e+00 3.5521475311891644e+00 3.0030999999990694e+01 0 0 0
603 2 3.6914999999999996e+00 3.5521475311891644e+00 3.0030999999990694e+01 0 0 0
901 2 0.0000000000000000e+00 2.8417180249513345e+00 3.3339646804370204e+01 0 0 0
902 2 0.0000000000000000e+00 0.0000000000000000e+00 3.3339646804370204e+01 0 0 0
903 2 1.2305000000000001e+00 7.1042950623783474e-01 3.3339646804370204e+01 0 0 0
907 2 1.2305000000000001e+00 2.1312885187134998e+00 3.3339646804370204e+01 0 0 0
908 2 2.4610000000000003e+00 2.8417180249513345e+00 3.3339646804370204e+01 0 0 0
909 2 2.4610000000000003e+00 0.0000000000000000e+00 3.3339646804370204e+01 0 0 0
910 2 3.6915000000000004e+00 7.1042950623783474e-01 3.3339646804370204e+01 0 0 0
918 2 3.6914999999999996e+00 2.1312885187134998e+00 3.3339646804370204e+01 0 0 0
607 2 4.9220000000000006e+00 1.4208590124756650e+00 3.0030999999990694e+01 0 0 0
609 2 4.9220000000000006e+00 0.0000000000000000e+00 3.0030999999990694e+01 0 0 0
634 2 6.1524999999999999e+00 2.1312885187134989e+00 3.0030999999990694e+01 0 0 0
636 2 7.3829999999999991e+00 1.4208590124756659e+00 3.0030999999990694e+01 0 0 0
638 2 7.3829999999999991e+00 0.0000000000000000e+00 3.0030999999990694e+01 0 0 0
671 2 8.6134999999999984e+00 2.1312885187135002e+00 3.0030999999990694e+01 0 0 0
632 2 6.1524999999999999e+00 3.5521475311891644e+00 3.0030999999990694e+01 0 0 0
669 2 8.6134999999999984e+00 3.5521475311891657e+00 3.0030999999990694e+01 0 0 0
919 2 4.9220000000000006e+00 2.8417180249513332e+00 3.3339646804370204e+01 0 0 0
920 2 4.9220000000000006e+00 0.0000000000000000e+00 3.3339646804370204e+01 0 0 0
921 2 6.1524999999999999e+00 7.1042950623783407e-01 3.3339646804370204e+01 0 0 0
933 2 6.1524999999999999e+00 2.1312885187134989e+00 3.3339646804370204e+01 0 0 0
934 2 7.3829999999999991e+00 2.8417180249513345e+00 3.3339646804370204e+01 0 0 0
935 2 7.3829999999999991e+00 0.0000000000000000e+00 3.3339646804370204e+01 0 0 0
936 2 8.6134999999999984e+00 7.1042950623783407e-01 3.3339646804370204e+01 0 0 0
952 2 8.6134999999999984e+00 2.1312885187135002e+00 3.3339646804370204e+01 0 0 0
578 2 0.0000000000000000e+00 5.6834360499026637e+00 3.0030999999990694e+01 0 0 0
580 2 0.0000000000000000e+00 4.2625770374269996e+00 3.0030999999990694e+01 0 0 0
597 2 1.2305000000000001e+00 6.3938655561404980e+00 3.0030999999990694e+01 0 0 0
599 2 2.4610000000000003e+00 5.6834360499026637e+00 3.0030999999990694e+01 0 0 0
601 2 2.4610000000000003e+00 4.2625770374269996e+00 3.0030999999990694e+01 0 0 0
626 2 3.6914999999999996e+00 6.3938655561404980e+00 3.0030999999990694e+01 0 0 0
595 2 1.2305000000000001e+00 7.8147245686161639e+00 3.0030999999990694e+01 0 0 0
624 2 3.6914999999999996e+00 7.8147245686161639e+00 3.0030999999990694e+01 0 0 0
905 2 0.0000000000000000e+00 4.2625770374269996e+00 3.3339646804370204e+01 0 0 0
906 2 1.2305000000000001e+00 4.9730065436648339e+00 3.3339646804370204e+01 0 0 0
914 2 1.2305000000000001e+00 6.3938655561404980e+00 3.3339646804370204e+01 0 0 0
916 2 2.4610000000000003e+00 4.2625770374269996e+00 3.3339646804370204e+01 0 0 0
917 2 3.6914999999999996e+00 4.9730065436648339e+00 3.3339646804370204e+01 0 0 0
929 2 3.6914999999999996e+00 6.3938655561404980e+00 3.3339646804370204e+01 0 0 0
904 2 0.0000000000000000e+00 7.1042950623783341e+00 3.3339646804370204e+01 0 0 0
915 2 2.4610000000000003e+00 7.1042950623783341e+00 3.3339646804370204e+01 0 0 0
628 2 4.9220000000000006e+00 5.6834360499026637e+00 3.0030999999990694e+01 0 0 0
630 2 4.9220000000000006e+00 4.2625770374269978e+00 3.0030999999990694e+01 0 0 0
663 2 6.1524999999999999e+00 6.3938655561404980e+00 3.0030999999990694e+01 0 0 0
665 2 7.3829999999999991e+00 5.6834360499026637e+00 3.0030999999990694e+01 0 0 0
667 2 7.3829999999999991e+00 4.2625770374269996e+00 3.0030999999990694e+01 0 0 0
708 2 8.6135000000000002e+00 6.3938655561404980e+00 3.0030999999990694e+01 0 0 0
661 2 6.1524999999999999e+00 7.8147245686161639e+00 3.0030999999990694e+01 0 0 0
706 2 8.6135000000000002e+00 7.8147245686161639e+00 3.0030999999990694e+01 0 0 0
931 2 4.9220000000000006e+00 4.2625770374269978e+00 3.3339646804370204e+01 0 0 0
932 2 6.1524999999999999e+00 4.9730065436648339e+00 3.3339646804370204e+01 0 0 0
948 2 6.1524999999999999e+00 6.3938655561404980e+00 3.3339646804370204e+01 0 0 0
950 2 7.3829999999999991e+00 4.2625770374269996e+00 3.3339646804370204e+01 0 0 0
951 2 8.6135000000000002e+00 4.9730065436648339e+00 3.3339646804370204e+01 0 0 0
971 2 8.6135000000000002e+00 6.3938655561404980e+00 3.3339646804370204e+01 0 0 0
930 2 4.9220000000000006e+00 7.1042950623783341e+00 3.3339646804370204e+01 0 0 0
949 2 7.3830000000000009e+00 7.1042950623783341e+00 3.3339646804370204e+01 0 0 0
591 2 0.0000000000000000e+00 9.9460130873296642e+00 3.0030999999990694e+01 0 0 0
593 2 0.0000000000000000e+00 8.5251540748539991e+00 3.0030999999990694e+01 0 0 0
620 2 2.4610000000000003e+00 9.9460130873296642e+00 3.0030999999990694e+01 0 0 0
622 2 2.4610000000000003e+00 8.5251540748539991e+00 3.0030999999990694e+01 0 0 0
616 2 1.2305000000000001e+00 1.2077301606043163e+01 3.0030999999990694e+01 0 0 0
618 2 1.2305000000000001e+00 1.0656442593567498e+01 3.0030999999990694e+01 0 0 0
653 2 3.6914999999999996e+00 1.2077301606043163e+01 3.0030999999990694e+01 0 0 0
655 2 3.6914999999999996e+00 1.0656442593567499e+01 3.0030999999990694e+01 0 0 0
912 2 0.0000000000000000e+00 8.5251540748539991e+00 3.3339646804370204e+01 0 0 0
913 2 1.2305000000000001e+00 9.2355835810918343e+00 3.3339646804370204e+01 0 0 0
927 2 2.4610000000000003e+00 8.5251540748539991e+00 3.3339646804370204e+01 0 0 0
928 2 3.6915000000000004e+00 9.2355835810918343e+00 3.3339646804370204e+01 0 0 0
911 2 0.0000000000000000e+00 1.1366872099805333e+01 3.3339646804370204e+01 0 0 0
925 2 1.2305000000000001e+00 1.0656442593567498e+01 3.3339646804370204e+01 0 0 0
926 2 2.4610000000000003e+00 1.1366872099805333e+01 3.3339646804370204e+01 0 0 0
944 2 3.6914999999999996e+00 1.0656442593567499e+01 3.3339646804370204e+01 0 0 0
657 2 4.9220000000000006e+00 9.9460130873296642e+00 3.0030999999990694e+01 0 0 0
659 2 4.9220000000000006e+00 8.5251540748539991e+00 3.0030999999990694e+01 0 0 0
702 2 7.3830000000000009e+00 9.9460130873296642e+00 3.0030999999990694e+01 0 0 0
704 2 7.3830000000000009e+00 8.5251540748539991e+00 3.0030999999990694e+01 0 0 0
698 2 6.1524999999999999e+00 1.2077301606043163e+01 3.0030999999990694e+01 0 0 0
700 2 6.1524999999999999e+00 1.0656442593567499e+01 3.0030999999990694e+01 0 0 0
745 2 8.6135000000000002e+00 1.2077301606043163e+01 3.0030999999990694e+01 0 0 0
747 2 8.6134999999999984e+00 1.0656442593567498e+01 3.0030999999990694e+01 0 0 0
946 2 4.9220000000000006e+00 8.5251540748539991e+00 3.3339646804370204e+01 0 0 0
947 2 6.1524999999999999e+00 9.2355835810918343e+00 3.3339646804370204e+01 0 0 0
969 2 7.3830000000000009e+00 8.5251540748539991e+00 3.3339646804370204e+01 0 0 0
970 2 8.6134999999999984e+00 9.2355835810918343e+00 3.3339646804370204e+01 0 0 0
945 2 4.9220000000000006e+00 1.1366872099805333e+01 3.3339646804370204e+01 0 0 0
967 2 6.1524999999999999e+00 1.0656442593567499e+01 3.3339646804370204e+01 0 0 0
968 2 7.3829999999999991e+00 1.1366872099805333e+01 3.3339646804370204e+01 0 0 0
991 2 8.6134999999999984e+00 1.0656442593567498e+01 3.3339646804370204e+01 0 0 0
4915 1 3.2848263022724744e+00 3.0034169023197581e+00 3.5923679916679376e+01 0 0 -1
6224 1 5.0266842668748568e+00 8.0007358008963558e-01 3.6060142337660622e+01 3 2 -1
3300 1 6.3389525434919491e-01 3.1607836029168515e+00 3.5893636173294283e+01 -1 1 -1
2905 1 5.3652812191437551e+00 5.2053435035683115e+00 3.6203860534263470e+01 -1 1 0
3306 1 9.7570176273184952e+00 7.2468659278986358e+00 3.5996262844356806e+01 -1 -1 -1
293 1 8.2925826248379675e+00 4.9706956546458310e+00 3.5952752935813109e+01 0 2 -1
3704 1 8.9918408909816083e+00 2.5803658024539833e+00 3.6834097406606872e+01 0 -1 -1
1812 1 7.6670403187720932e+00 6.8448222071184250e-01 3.5728769761825063e+01 0 -1 -1
3049 1 2.0860133780544952e+00 3.0404788788806458e+00 3.8742657651745176e+01 1 1 0
3020 1 3.1236057036666538e+00 5.9541663354332253e-01 4.2823195310714922e+01 0 -2 0
190 1 4.4769049251829018e-01 8.1479321716870992e+00 4.2828060290291930e+01 0 -2 -1
4615 1 6.9957582361325050e+00 2.6618102158437811e+00 3.9934339051075696e+01 1 0 0
3220 1 2.9651212454005327e+00 6.5015227662678288e-01 3.9876016258097636e+01 -2 3 0
1257 1 7.5477128806251423e+00 7.2325433017925658e+00 4.2858616578132910e+01 -1 0 -1
3112 1 3.3302827561038910e+00 5.3638255637730525e+00 4.0049440764439836e+01 2 0 0
5314 1 6.0237275131539836e-01 7.5619852648955481e+00 4.0122912633009193e+01 -1 1 0
1920 1 5.9382236572521752e+00 5.1368180628431350e+00 3.9061348716674914e+01 1 -2 0
3706 1 7.3870933669042085e+00 7.6768098356318353e+00 4.0192329290366033e+01 -1 -1 0
1668 1 5.4365777126245547e+00 5.6114239082832684e-01 3.8916469042611112e+01 1 1 0
3369 1 2.2769680562347547e+00 3.0065703944072344e+00 4.3636312725322568e+01 -2 0 -1
5049 1 6.1690785782081932e+00 5.0073048764079582e+00 4.3535810426227968e+01 1 0 0
216 1 5.6684616696764207e+00 9.0264325882970322e+00 4.3749348652931886e+01 -2 1 0
4548 1 7.0983291823567098e+00 2.4951069643739654e+00 4.2563900293882114e+01 0 2 0
3426 1 9.6535668105231451e+00 2.2996752047078650e+00 3.9342803491808155e+01 2 1 -1
296 1 3.6138892764813781e+00 5.2430846089596104e+00 4.2607228463660064e+01 2 -1 0
69 1 3.2373933865310307e+00 7.8077458911705202e+00 4.3647233194011363e+01 0 2 0
6368 1 5.8373197431630954e+00 3.9170338110969594e-01 4.3571166899142668e+01 1 2 0
1524 1 9.8129083089511848e+00 7.1821673705135645e+00 3.8831328428925289e+01 1 1 0
3568 1 9.8426884613462882e+00 2.7731792285042185e+00 4.3782707377958786e+01 0 1 -1
3437 1 4.3279040636878346e-01 1.2007196568074091e+01 3.9525370409529557e+01 2 -1 -1
1271 1 2.3452998453349014e+00 2.7652587830141004e+00 4.6212032388907218e+01 0 2 0
6220 1 8.7190042543790669e-01 7.8238310426059565e-01 4.7482541836569197e+01 1 3 0
1434 1 4.9206350541792725e+00 2.9767349777450711e+00 4.7033797107090464e+01 -2 -1 0
1785 1 9.4514866553352181e+00 9.7604499382156558e+00 4.9929966700149180e+01 -1 -1 0
91 1 3.5245114708434339e-01 3.3304287889484470e+00 5.0913273162897951e+01 0 2 0
6471 1 1.5881106374237597e+00 5.3931047494290283e+00 4.7026533464766402e+01 -1 2 0
389 1 3.0105193244748230e+00 7.7792106778579511e+00 4.6352270305403010e+01 0 -1 0
4529 1 5.3348748494792941e+00 7.4493149581011000e+00 4.7357811058388037e+01 2 -1 0
1868 1 6.3307295263158991e+00 5.2402359916542531e+00 4.6193691001207469e+01 3 0 0
3159 1 8.9174527802761716e+00 4.7719964697646766e+00 4.7443049759278367e+01 2 1 0
1744 1 1.8648814836043723e+00 1.0045370273943680e+01 4.7233928833637961e+01 1 2 0
3000 1 6.5360558665190007e+00 9.7163835659730360e+00 4.6279478857104621e+01 0 1 0
4910 1 9.1550929926564120e+00 9.4979804081100490e+00 4.7077040126193239e+01 0 -1 -1
4741 1 5.8606819840892950e+00 1.2067456751643986e+01 4.7299943944298789e+01 0 1 0
4779 1 3.9569455680544028e+00 4.7972115280626626e-01 5.0973445287916178e+01 -2 0 0
1542 1 1.2759170475251751e+00 7.2736400670703150e-01 5.0384749302050992e+01 0 1 0
5336 1 4.9336471246369218e+00 2.7708529889491720e+00 4.9835057725308474e+01 2 2 0
3738 1 7.5643630731084865e+00 2.8828837145800694e+00 5.1211855056205877e+01 -1 0 0
1738 1 8.4995975627265210e+00 4.4538854855955801e-01 5.0343937906597404e+01 3 0 -1
6127 1 3.0174509497078394e-01 8.0531426816391836e+00 5.0907993379161610e+01 2 1 0
5176 1 1.5093656458450773e+00 5.7419154383193840e+00 4.9973313937376716e+01 0 2 -1
5075 1 4.0195012753855917e+00 5.2470403729396304e+00 5.0932883130688680e+01 1 1 -1
427 1 8.7770464473905854e+00 5.0126503169157699e+00 5.0127986980420530e+01 0 0 -1
211 1 8.2366409112026542e+00 7.6126677311714346e+00 5.1086583284474742e+01 2 4 -1
3618 1 5.6456346730841700e+00 7.6744933679274707e+00 5.0004604532682478e+01 -1 -2 -1
3720 1 1.8122832363093402e+00 1.0360552941357344e+01 4.9999281852473686e+01 1 0 0
316 1 4.3452695555579499e+00 9.8498801465307668e+00 5.0997186642487620e+01 0 2 0
1468 1 8.4274329415886395e+00 4.0377974228874436e-01 4.7661349972684093e+01 -1 0 0
2116 1 8.3904931774225311e+00 1.2215679779616842e+01 5.0933223097829000e+01 1 1 0
1270 1 5.8646297346368925e+00 3.0655272469574407e-01 4.6325436476042896e+01 1 1 0
1734 1 3.0835711863468616e+00 1.2209455643266450e+01 4.6562249182197164e+01 2 0 0
5035 1 9.1669220748239255e-01 8.1619584556028635e-01 5.4425044264621519e+01 -1 -1 -1
292 1 3.6887514368101999e+00 4.0553234095168506e-01 5.3808430738602198e+01 0 -1 -1
2151 1 8.8134209453831502e+00 4.3927612569384633e-01 5.4745122171886578e+01 0 1 -1
510 1 5.1052038503091062e+00 2.6253267124791435e+00 5.4715866475383720e+01 0 0 -1
459 1 7.6243206532640793e+00 2.7114112473200995e+00 5.3922286361957347e+01 0 1 0
4606 1 6.3283282827215617e+00 4.9660492617931888e+00 5.8598820176278522e+01 0 1 -1
4521 1 1.3604651753334613e+00 5.4485252313967898e+00 5.4663944386117876e+01 0 1 0
4963 1 4.0136091023814124e+00 5.0612567544656395e+00 5.3753147459578784e+01 1 0 0
3408 1 5.9340492823028743e+00 2.1099501575179377e-01 5.8679065335435425e+01 -1 1 -1
2083 1 5.3911502649576004e+00 7.2895974031922171e+00 5.4647893380313832e+01 0 1 -1
2040 1 8.0107932207657981e+00 7.6674570321396232e+00 5.3853143976812774e+01 1 2 0
480 1 8.9826610498834487e+00 4.8987394672756812e+00 5.4450729434226403e+01 -1 -1 -1
5422 1 1.8115946596436656e+00 9.9822919498480971e+00 5.4760193491550211e+01 0 2 -1
3267 1 4.4229187477722771e+00 9.6449923861698483e+00 5.3817735834620137e+01 1 0 0
478 1 3.5175699967653085e-01 7.8469203370189033e+00 5.3800230277614475e+01 -1 0 0
1996 1 2.6230289885918645e-01 3.4172402203253385e+00 5.3658532894700699e+01 2 1 -1
5121 1 9.3367457513742345e+00 9.7245532024330643e+00 5.4799281998593429e+01 1 1 0
6164 1 1.8766903476436685e+00 9.8783891736038232e+00 5.7393373944326356e+01 1 1 0
1813 1 2.4703093551760005e+00 2.8935163155370769e+00 5.8287348882736623e+01 0 0 -1
2010 1 1.3679548204893592e+00 4.6328050203694365e-01 5.7074082612901378e+01 1 2 -1
3177 1 5.0652024770070030e+00 2.8595897163514281e+00 5.7426390937957763e+01 -1 2 -1
4510 1 6.8329859395279673e+00 9.7568693899024890e+00 5.8231868564070453e+01 -1 1 0
5381 1 9.2135644129155239e+00 9.6296736016000040e+00 5.7545349202416261e+01 0 1 0
3259 1 2.7456569736549623e+00 7.5256521589630019e+00 5.8241156746111557e+01 0 1 0
5380 1 1.4263895905730204e+00 5.2056661565486957e+00 5.7445470408154321e+01 0 0 -1
156 1 5.4382112763103354e+00 7.4803600677229793e+00 5.7548446920282160e+01 1 0 -1
1781 1 9.2123781974477161e+00 4.8970661085677669e+00 5.7353840004537020e+01 0 -1 0
6319 1 8.1635977510631133e+00 1.1911018882996821e+01 5.3700317262558045e+01 1 3 0
3433 1 5.6325481117010847e+00 1.1967219312406264e+01 5.7396758116867829e+01 0 0 -1
6311 1 8.5579467260132116e+00 2.6557575355061341e-01 5.7545347781776329e+01 1 -1 -1
3430 1 3.1661252093927685e+00 1.1997615234678808e+01 5.8328798939747202e+01 1 -1 0
3156 1 5.5799289941379895e+00 1.1957402701330704e+01 5.4687802076274409e+01 1 1 0
6197 1 5.5803895088043154e-01 1.2148760877652373e+01 5.3719910563125794e+01 0 0 0
3432 1 4.6222359013469942e+00 1.4025527677910471e+01 2.8975774330100985e+00 2 0 0
2042 1 7.0102465235048284e+00 1.4323317308176337e+01 2.2443986143725176e+00 1 0 0
3571 1 8.2840969170557059e+00 1.6592399042659871e+01 2.9183716099223678e+00 0 1 0
6289 1 3.5646586576497352e+00 1.6876438463811688e+01 2.2831018757155870e+00 2 0 1
6107 1 1.0847134955633393e+00 1.6996845517176432e+01 3.3791475859204034e+00 0 1 1
5441 1 4.9661715536616562e+00 1.9285524560453108e+01 2.7966535670219277e+00 0 0 1
48 1 7.4907081610280901e+00 1.8970008208531492e+01 2.0557743683924641e+00 -2 1 1
5382 1 1.2322450471947013e+00 2.1320440286506177e+01 3.0507902820038515e+00 0 0 1
3368 1 3.7123477317269531e+00 2.1587417482738825e+01 2.0368526908230908e+00 1 2 0
1875 1 4.8684822145856339e+00 2.3497471374165446e+01 6.0163275316480735e+00 0 0 0
4680 1 5.3193964751842344e+00 2.3499641072369304e+01 3.1781828861775701e+00 1 0 1
1474 1 8.8057333274615424e+00 2.1194471425389903e+01 3.0050531353485037e+00 2 3 1
1435 1 7.7479170956464740e+00 2.3533173684240126e+01 2.2905656407435897e+00 1 2 1
306 1 4.3361695214683067e+00 1.4385142415580042e+01 5.6813033351506927e+00 0 -1 0
3735 1 7.1043205881706184e+00 1.4325781443120885e+01 6.9531473281125349e+00 1 0 0
1469 1 8.5528391513172650e+00 1.6259845194569355e+01 5.6343492951214955e+00 0 0 1
4650 1 3.3799119147926873e+00 1.6862322763794584e+01 6.7793153813306484e+00 0 0 1
1460 1 6.8701100862879161e-01 1.7003052709541510e+01 6.0533598576320182e+00 2 0 1
443 1 4.9088202536138077e+00 1.8830904921389795e+01 5.4520970767308716e+00 1 2 0
6252 1 7.4085032780208619e+00 1.8768926385559006e+01 6.3633657255688858e+00 1 2 1
4945 1 3.7758266964745766e+00 2.1017034168061492e+01 6.8307164018006405e+00 0 -1 0
6353 1 1.0219605397893701e+00 2.1047240300370717e+01 5.8406138305005264e+00 -1 0 1
2866 1 7.6181790905946256e+00 2.3576675125730251e+01 6.7050091840903869e+00 -2 2 1
3201 1 8.4913827103286472e+00 2.1159863718254947e+01 5.6971988993407150e+00 -1 -1 1
1323 1 3.1981694113408121e-01 2.3566353547183574e+01 6.7330275587140607e+00 1 0 1
3037 1 4.8973158926508298e-01 2.4053044704623748e+01 2.3237963123246508e+00 2 -1 1
5433 1 1.9071063387451583e+00 1.4568933998875051e+01 1.0605381822760704e+01 -1 1 1
1967 1 3.6611105607620948e+00 2.1198475654868378e+01 1.4100808920273648e+01 0 -2 0