LAMMPS data file via write_data, version 16 Mar 2018, timestep = 100000

6489 atoms
2 atom types

0.0000000000000000e+00 4.9219999999999999e+01 xlo xhi
0.0000000000000000e+00 4.9019635930410494e+01 ylo yhi
1.9844552564948756e+00 5.8077544743503452e+01 zlo zhi

Masses

1 18.015
2 12.01

Atoms # atomic

6400 1 7.6396703998058415e+00 7.8432349250386899e+00 7.1758439654524580e+00 1 0 0
4491 1 9.0089154902127540e+00 8.8728572526684815e+00 3.0247957920822146e+00 0 1 1
3137 1 1.2843390934166621e-01 5.1394119771763256e+00 4.2181896578347198e+00 0 0 1
3549 1 8.3845370773997949e+00 3.0388584191818899e+00 5.1867117630554560e+00 0 1 0
158 1 1.2908874739010661e+00 2.0713697566417025e-01 2.1537257632467015e+00 0 1 0
3197 1 8.6438893942148489e+00 1.8110023078919026e+00 2.6689850894265303e+00 0 1 1
479 1 4.3866786285077852e+00 2.6751122112359771e+00 4.3580529886958272e+00 0 1 1
299 1 3.4684214023870883e+00 6.4804182257824765e+00 5.8931175333451016e+00 1 1 0
3486 1 6.5174859194239767e+00 5.8924274035976518e+00 5.4300035238711448e+00 1 -1 0
1654 1 6.8740114480442029e+00 1.0929490948157859e+01 7.4482288429529460e+00 0 1 0
5077 1 3.1283031707874387e+00 9.3433732673829208e+00 6.3212631636884486e+00 1 -1 1
3732 1 4.1963262982136680e+00 1.0486032380982792e+01 4.0992844690550942e+00 0 0 1
5178 1 6.9264907169170069e+00 1.1147505398185828e+01 2.9402754096917803e+00 1 1 0
3598 1 4.5768480664955984e+00 1.0804447814495546e+01 8.3427609610090236e+00 2 0 0
3084 1 3.4352937082175936e+00 4.2523814054334403e+00 7.8624881221331693e+00 1 1 1
5136 1 2.6612362797449558e+00 9.7994076449701040e-01 6.1701677434922937e+00 1 0 0
1481 1 6.8937407455400441e+00 7.1229271320231327e+00 2.6755939789117789e+00 0 0 1
73 1 6.0619993277071726e+00 2.3690262781761984e+00 2.3100386740079553e+00 2 0 0
3502 1 5.8361634228181494e+00 7.6150826442441122e-01 7.2797634884874345e+00 0 1 0
1931 1 4.6052429180514387e-01 6.6195833801870680e+00 6.5951807890228409e+00 2 1 0
5313 1 1.4211415793771847e+00 2.2478023412531059e+00 8.4284861431285449e+00 0 1 1
1902 1 6.0435055474620007e+00 3.3417827396147142e+00 6.8139919418754147e+00 0 0 0
6178 1 2.9768411966325853e-01 9.5727783837528015e+00 6.5112903356032765e+00 1 0 1
6281 1 2.7294791181562692e+00 4.8609397554649227e+00 3.6923971176026527e+00 1 1 0
1534 1 4.1417582706226428e+00 1.6421798751962691e-01 2.0166775414275975e+00 1 0 1
6183 1 2.1451620728840743e+00 2.7736253265486894e+00 1.1503390627867113e+01 0 1 1
3070 1 2.3119292662322266e-02 8.9564890663668439e+00 1.4527303687008594e+01 0 1 1
3435 1 6.6710241240457231e+00 9.9933396269238699e+00 1.5767184160269906e+01 1 1 0
1772 1 5.9156695582911540e+00 6.7849232440532092e-01 1.0104674425080681e+01 1 1 1
559 1 6.0460560239986245e+00 3.1937470050020105e+00 1.3217275409401166e+01 1 0 1
3178 1 5.0494944306772567e+00 6.3959942181285241e+00 1.0084325562708564e+01 0 0 1
5080 1 4.5501733879210962e+00 2.8779376249526471e-02 1.3666618210639406e+01 0 1 0
5116 1 5.1834197944108862e+00 9.0965931285363393e+00 1.0584697956714495e+01 1 0 1
6476 1 3.3251919266148353e+00 1.0205660972109042e+01 1.2307237999350376e+01 0 0 1
3617 1 9.5771408357527026e+00 2.1949074074408736e+00 9.2635667967736346e+00 0 0 0
2080 1 8.1141398809851406e+00 9.1142588706555046e+00 1.0987952160695007e+01 0 0 0
5014 1 8.9271652292741577e-01 1.1056753901768836e+01 1.1189227524799378e+01 0 0 0
1787 1 1.8261075957874429e+00 1.1629969330779484e+00 1.3877852874476766e+01 0 0 0
3269 1 4.9643100373854319e+00 3.3826654390989770e+00 1.0774860905669405e+01 1 0 0
4756 1 8.7186790547089146e+00 4.0905143560606652e+00 1.4028366003476906e+01 0 1 1
354 1 8.6253147828938665e+00 6.2517124132318118e+00 9.1371533293027891e+00 2 0 0
3233 1 4.7006189335701904e+00 4.8642807891818256e+00 1.4821554169371575e+01 0 0 1
332 1 6.5488541047138309e+00 1.1207752545606469e+00 1.5489766704944815e+01 1 1 0
1553 1 4.0764266734992001e+00 6.6809219743532546e+00 1.2850048729026744e+01 0 0 0
3195 1 8.3617311519189812e+00 1.1603898086070817e+01 9.7147948470008778e+00 0 0 0
1445 1 6.8193191425104527e-01 2.9001030800813203e+00 1.5621514073141581e+01 2 -1 1
1725 1 8.5797228480782586e+00 9.3895599016274023e+00 1.3731044902869666e+01 0 1 1
1819 1 1.6145487247807848e+00 5.2838398960181481e+00 1.1569400563475556e+01 0 0 1
400 1 3.0560965686089281e+00 8.5012473460659610e+00 1.4767639273155170e+01 1 1 0
3123 1 9.7580781699701991e+00 6.7467428428335205e+00 1.4120875305687029e+01 0 0 0
3038 1 2.7738346312835332e-01 8.9545236863948681e+00 9.3122057245511822e+00 1 -1 1
3570 1 2.2260710934467118e+00 6.5489082341605371e+00 9.0498871752696441e+00 1 0 0
3761 1 7.4784893810971766e+00 3.7897657201789685e+00 9.2271212609723001e+00 1 0 1
3585 1 3.6449333143405864e+00 2.8933631154842669e+00 1.9405297875689516e+01 1 0 0
3097 1 4.0910749457664619e-01 6.1813273314024031e-01 2.2614628713029514e+01 1 -1 1
1480 1 7.4025185754966936e+00 3.6403480931806707e+00 1.6603851366652769e+01 1 0 1
4681 1 8.3132237588910585e-01 2.0789773800566436e+00 2.0035443770642836e+01 1 0 1
4625 1 6.4512763123027916e+00 3.5335753760271165e+00 1.9273451670616353e+01 0 0 1
2873 1 6.9847545145393930e+00 6.5494009970351508e+00 1.7930645061628702e+01 0 -1 1
3583 1 7.7176253257890739e+00 1.1097033149131228e+00 2.1343052873139730e+01 0 0 0
3635 1 9.3471488449830762e+00 3.1135431201366344e+00 2.0506847405246972e+01 0 0 0
207 1 6.8238497311921131e+00 9.0170584679419754e+00 2.1617910023436284e+01 1 1 0
5183 1 8.6749248275965201e+00 1.0629708750290863e+01 1.7794509648753248e+01 1 0 1
5115 1 4.2228084022021264e+00 8.5003145909566413e+00 1.9717639657959854e+01 1 0 0
6285 1 1.8841859433324745e-01 1.0784822559769193e+01 2.2213876838064049e+01 1 1 0
5142 1 9.8366263678989618e+00 6.9009119450014769e+00 1.7105346826089047e+01 1 0 0
1994 1 8.5152730036479030e-01 4.4290321856660002e+00 2.1680519928129847e+01 0 1 0
565 1 3.5948694677953781e+00 5.0733059329322794e+00 2.1291505840195565e+01 1 0 0
561 1 9.0897531490181454e+00 1.0023411955725233e+01 2.0450374773024468e+01 -1 -1 1
5176 1 6.3936172746944138e+00 6.0366954886076796e+00 2.1144521228886525e+01 0 1 0
3613 1 4.4320721545481332e+00 1.1166797186221586e+01 2.0908980944305018e+01 1 0 0
3607 1 2.2541292232742824e+00 7.5680773811138780e+00 2.1087901726987997e+01 1 0 1
432 1 9.1088172547445989e+00 6.0985176861751444e+00 2.0127491445112032e+01 1 0 0
92 1 4.7825766313275881e+00 1.0793071024148435e+00 2.1347345790803100e+01 1 1 0
2017 1 1.6956119734036066e+00 7.0019164690217250e+00 1.6772176683163295e+01 0 -1 1
1888 1 4.1473149463831813e+00 9.6010309387615074e+00 1.7108540091529125e+01 1 0 0
5411 1 2.8419196316941786e+00 4.4327706083206735e+00 1.6697509221565667e+01 1 -1 1
1789 1 5.6530086324102458e+00 4.5585364834226261e-01 1.8146097523233987e+01 0 1 0
1610 1 4.1193263660881357e-01 7.9318365624728218e+00 1.9160307305593349e+01 0 0 0
3541 1 1.7091258272448553e+00 1.1461225205093251e+01 1.6172338428397257e+01 0 0 1
701 2 7.3829999999999991e+00 1.1366872099805333e+01 2.6872058782343210e+01 0 0 0
3479 1 9.0984382752109172e-01 4.1159336626352490e+00 2.4407165315160832e+01 1 0 0
1325 1 7.6763534346906450e+00 9.8404578109002727e-01 2.3939665655548236e+01 1 1 1
5277 1 4.9893352102863089e+00 9.0177627090526276e+00 2.4327043076134633e+01 1 1 0
3213 1 8.3140011207622122e-01 6.8850187499940034e+00 2.4033905026583508e+01 2 0 1
1998 1 6.1426167189197125e+00 6.4988192630854291e+00 2.3981571399708319e+01 1 0 0
1889 1 8.8680222559679827e+00 5.7453317104291015e+00 2.4283430924860777e+01 1 1 0
1733 1 5.0401652093295581e+00 2.0431225988378809e+00 2.3786740165181758e+01 0 0 0
514 1 9.8204453270622682e+00 1.0453670726003608e+01 2.4795006082118491e+01 0 0 0
3452 1 7.1178723694511694e+00 1.0994834200194328e+01 2.3935865740204147e+01 1 1 0
572 2 0.0000000000000000e+00 2.8417180249513345e+00 2.6872058782343210e+01 0 0 0
574 2 0.0000000000000000e+00 0.0000000000000000e+00 2.6872058782343210e+01 0 0 0
576 2 1.2305000000000001e+00 7.1042950623783474e-01 2.6872058782343210e+01 0 0 0
583 2 1.2305000000000001e+00 2.1312885187134998e+00 2.6872058782343210e+01 0 0 0
585 2 2.4610000000000003e+00 2.8417180249513345e+00 2.6872058782343210e+01 0 0 0
587 2 2.4610000000000003e+00 0.0000000000000000e+00 2.6872058782343210e+01 0 0 0
589 2 3.6915000000000004e+00 7.1042950623783474e-01 2.6872058782343210e+01 0 0 0
604 2 3.6914999999999996e+00 2.1312885187134998e+00 2.6872058782343210e+01 0 0 0
606 2 4.9220000000000006e+00 2.8417180249513332e+00 2.6872058782343210e+01 0 0 0
608 2 4.9220000000000006e+00 0.0000000000000000e+00 2.6872058782343210e+01 0 0 0
610 2 6.1524999999999999e+00 7.1042950623783407e-01 2.6872058782343210e+01 0 0 0
633 2 6.1524999999999999e+00 2.1312885187134989e+00 2.6872058782343210e+01 0 0 0
635 2 7.3829999999999991e+00 2.8417180249513345e+00 2.6872058782343210e+01 0 0 0
637 2 7.3829999999999991e+00 0.0000000000000000e+00 2.6872058782343210e+01 0 0 0
639 2 8.6134999999999984e+00 7.1042950623783407e-01 2.6872058782343210e+01 0 0 0
670 2 8.6134999999999984e+00 2.1312885187135002e+00 2.6872058782343210e+01 0 0 0
579 2 0.0000000000000000e+00 4.2625770374269996e+00 2.6872058782343210e+01 0 0 0
581 2 1.2305000000000001e+00 4.9730065436648339e+00 2.6872058782343210e+01 0 0 0
596 2 1.2305000000000001e+00 6.3938655561404980e+00 2.6872058782343210e+01 0 0 0
600 2 2.4610000000000003e+00 4.2625770374269996e+00 2.6872058782343210e+01 0 0 0
602 2 3.6914999999999996e+00 4.9730065436648339e+00 2.6872058782343210e+01 0 0 0
625 2 3.6914999999999996e+00 6.3938655561404980e+00 2.6872058782343210e+01 0 0 0
577 2 0.0000000000000000e+00 7.1042950623783341e+00 2.6872058782343210e+01 0 0 0
598 2 2.4610000000000003e+00 7.1042950623783341e+00 2.6872058782343210e+01 0 0 0
629 2 4.9220000000000006e+00 4.2625770374269978e+00 2.6872058782343210e+01 0 0 0
631 2 6.1524999999999999e+00 4.9730065436648339e+00 2.6872058782343210e+01 0 0 0
662 2 6.1524999999999999e+00 6.3938655561404980e+00 2.6872058782343210e+01 0 0 0
666 2 7.3829999999999991e+00 4.2625770374269996e+00 2.6872058782343210e+01 0 0 0
668 2 8.6135000000000002e+00 4.9730065436648339e+00 2.6872058782343210e+01 0 0 0
707 2 8.6135000000000002e+00 6.3938655561404980e+00 2.6872058782343210e+01 0 0 0
627 2 4.9220000000000006e+00 7.1042950623783341e+00 2.6872058782343210e+01 0 0 0
664 2 7.3830000000000009e+00 7.1042950623783341e+00 2.6872058782343210e+01 0 0 0
592 2 0.0000000000000000e+00 8.5251540748539991e+00 2.6872058782343210e+01 0 0 0
594 2 1.2305000000000001e+00 9.2355835810918343e+00 2.6872058782343210e+01 0 0 0
621 2 2.4610000000000003e+00 8.5251540748539991e+00 2.6872058782343210e+01 0 0 0
623 2 3.6915000000000004e+00 9.2355835810918343e+00 2.6872058782343210e+01 0 0 0
590 2 0.0000000000000000e+00 1.1366872099805333e+01 2.6872058782343210e+01 0 0 0
617 2 1.2305000000000001e+00 1.0656442593567498e+01 2.6872058782343210e+01 0 0 0
619 2 2.4610000000000003e+00 1.1366872099805333e+01 2.6872058782343210e+01 0 0 0
654 2 3.6914999999999996e+00 1.0656442593567499e+01 2.6872058782343210e+01 0 0 0
746 2 8.6134999999999984e+00 1.0656442593567498e+01 2.6872058782343210e+01 0 0 0
703 2 7.3830000000000009e+00 8.5251540748539991e+00 2.6872058782343210e+01 0 0 0
699 2 6.1524999999999999e+00 1.0656442593567499e+01 2.6872058782343210e+01 0 0 0
705 2 8.6134999999999984e+00 9.2355835810918343e+00 2.6872058782343210e+01 0 0 0
660 2 6.1524999999999999e+00 9.2355835810918343e+00 2.6872058782343210e+01 0 0 0
656 2 4.9220000000000006e+00 1.1366872099805333e+01 2.6872058782343210e+01 0 0 0
658 2 4.9220000000000006e+00 8.5251540748539991e+00 2.6872058782343210e+01 0 0 0
5392 1 3.7955319339158105e+00 4.5386142662874107e+00 2.4251034730210051e+01 0 1 0
1757 1 2.3485739073641505e+00 9.2513982598024658e+00 2.3498259121122054e+01 1 1 1
4494 1 9.7973401027082598e+00 2.8759860588084938e+00 2.4365168091980994e+01 0 1 1
573 2 0.0000000000000000e+00 1.4208590124756650e+00 3.0030999999999480e+01 0 0 0
575 2 0.0000000000000000e+00 0.0000000000000000e+00 3.0030999999999480e+01 0 0 0
584 2 1.2305000000000001e+00 2.1312885187134998e+00 3.0030999999999480e+01 0 0 0
586 2 2.4610000000000003e+00 1.4208590124756650e+00 3.0030999999999480e+01 0 0 0
588 2 2.4610000000000003e+00 0.0000000000000000e+00 3.0030999999999480e+01 0 0 0
605 2 3.6914999999999996e+00 2.1312885187134998e+00 3.0030999999999480e+01 0 0 0
582 2 1.2305000000000001e+00 3.5521475311891644e+00 3.0030999999999480e+01 0 0 0
603 2 3.6914999999999996e+00 3.5521475311891644e+00 3.0030999999999480e+01 0 0 0
901 2 0.0000000000000000e+00 2.8417180249513345e+00 3.3189941217654706e+01 0 0 0
902 2 0.0000000000000000e+00 0.0000000000000000e+00 3.3189941217654706e+01 0 0 0
903 2 1.2305000000000001e+00 7.1042950623783474e-01 3.3189941217654706e+01 0 0 0
907 2 1.2305000000000001e+00 2.1312885187134998e+00 3.3189941217654706e+01 0 0 0
908 2 2.4610000000000003e+00 2.8417180249513345e+00 3.3189941217654706e+01 0 0 0
909 2 2.4610000000000003e+00 0.0000000000000000e+00 3.3189941217654706e+01 0 0 0
910 2 3.6915000000000004e+00 7.1042950623783474e-01 3.3189941217654706e+01 0 0 0
918 2 3.6914999999999996e+00 2.1312885187134998e+00 3.3189941217654706e+01 0 0 0
607 2 4.9220000000000006e+00 1.4208590124756650e+00 3.0030999999999480e+01 0 0 0
609 2 4.9220000000000006e+00 0.0000000000000000e+00 3.0030999999999480e+01 0 0 0
634 2 6.1524999999999999e+00 2.1312885187134989e+00 3.0030999999999480e+01 0 0 0
636 2 7.3829999999999991e+00 1.4208590124756659e+00 3.0030999999999480e+01 0 0 0
638 2 7.3829999999999991e+00 0.0000000000000000e+00 3.0030999999999480e+01 0 0 0
671 2 8.6134999999999984e+00 2.1312885187135002e+00 3.0030999999999480e+01 0 0 0
632 2 6.1524999999999999e+00 3.5521475311891644e+00 3.0030999999999480e+01 0 0 0
669 2 8.6134999999999984e+00 3.5521475311891657e+00 3.0030999999999480e+01 0 0 0
919 2 4.9220000000000006e+00 2.8417180249513332e+00 3.3189941217654706e+01 0 0 0
920 2 4.9220000000000006e+00 0.0000000000000000e+00 3.3189941217654706e+01 0 0 0
921 2 6.1524999999999999e+00 7.1042950623783407e-01 3.3189941217654706e+01 0 0 0
933 2 6.1524999999999999e+00 2.1312885187134989e+00 3.3189941217654706e+01 0 0 0
934 2 7.3829999999999991e+00 2.8417180249513345e+00 3.3189941217654706e+01 0 0 0
935 2 7.3829999999999991e+00 0.0000000000000000e+00 3.3189941217654706e+01 0 0 0
936 2 8.6134999999999984e+00 7.1042950623783407e-01 3.3189941217654706e+01 0 0 0
952 2 8.6134999999999984e+00 2.1312885187135002e+00 3.3189941217654706e+01 0 0 0
578 2 0.0000000000000000e+00 5.6834360499026637e+00 3.0030999999999480e+01 0 0 0
580 2 0.0000000000000000e+00 4.2625770374269996e+00 3.0030999999999480e+01 0 0 0
597 2 1.2305000000000001e+00 6.3938655561404980e+00 3.0030999999999480e+01 0 0 0
599 2 2.4610000000000003e+00 5.6834360499026637e+00 3.0030999999999480e+01 0 0 0
601 2 2.4610000000000003e+00 4.2625770374269996e+00 3.0030999999999480e+01 0 0 0
626 2 3.6914999999999996e+00 6.3938655561404980e+00 3.0030999999999480e+01 0 0 0
595 2 1.2305000000000001e+00 7.8147245686161639e+00 3.0030999999999480e+01 0 0 0
624 2 3.6914999999999996e+00 7.8147245686161639e+00 3.0030999999999480e+01 0 0 0
905 2 0.0000000000000000e+00 4.2625770374269996e+00 3.3189941217654706e+01 0 0 0
906 2 1.2305000000000001e+00 4.9730065436648339e+00 3.3189941217654706e+01 0 0 0
914 2 1.2305000000000001e+00 6.3938655561404980e+00 3.3189941217654706e+01 0 0 0
916 2 2.4610000000000003e+00 4.2625770374269996e+00 3.3189941217654706e+01 0 0 0
917 2 3.6914999999999996e+00 4.9730065436648339e+00 3.3189941217654706e+01 0 0 0
929 2 3.6914999999999996e+00 6.3938655561404980e+00 3.3189941217654706e+01 0 0 0
904 2 0.0000000000000000e+00 7.1042950623783341e+00 3.3189941217654706e+01 0 0 0
915 2 2.4610000000000003e+00 7.1042950623783341e+00 3.3189941217654706e+01 0 0 0
628 2 4.9220000000000006e+00 5.6834360499026637e+00 3.0030999999999480e+01 0 0 0
630 2 4.9220000000000006e+00 4.2625770374269978e+00 3.0030999999999480e+01 0 0 0
663 2 6.1524999999999999e+00 6.3938655561404980e+00 3.0030999999999480e+01 0 0 0
665 2 7.3829999999999991e+00 5.6834360499026637e+00 3.0030999999999480e+01 0 0 0
667 2 7.3829999999999991e+00 4.2625770374269996e+00 3.0030999999999480e+01 0 0 0
708 2 8.6135000000000002e+00 6.3938655561404980e+00 3.0030999999999480e+01 0 0 0
661 2 6.1524999999999999e+00 7.8147245686161639e+00 3.0030999999999480e+01 0 0 0
706 2 8.6135000000000002e+00 7.8147245686161639e+00 3.0030999999999480e+01 0 0 0
931 2 4.9220000000000006e+00 4.2625770374269978e+00 3.3189941217654706e+01 0 0 0
932 2 6.1524999999999999e+00 4.9730065436648339e+00 3.3189941217654706e+01 0 0 0
948 2 6.1524999999999999e+00 6.3938655561404980e+00 3.3189941217654706e+01 0 0 0
950 2 7.3829999999999991e+00 4.2625770374269996e+00 3.3189941217654706e+01 0 0 0
951 2 8.6135000000000002e+00 4.9730065436648339e+00 3.3189941217654706e+01 0 0 0
971 2 8.6135000000000002e+00 6.3938655561404980e+00 3.3189941217654706e+01 0 0 0
930 2 4.9220000000000006e+00 7.1042950623783341e+00 3.3189941217654706e+01 0 0 0
949 2 7.3830000000000009e+00 7.1042950623783341e+00 3.3189941217654706e+01 0 0 0
591 2 0.0000000000000000e+00 9.9460130873296642e+00 3.0030999999999480e+01 0 0 0
593 2 0.0000000000000000e+00 8.5251540748539991e+00 3.0030999999999480e+01 0 0 0
620 2 2.4610000000000003e+00 9.9460130873296642e+00 3.0030999999999480e+01 0 0 0
622 2 2.4610000000000003e+00 8.5251540748539991e+00 3.0030999999999480e+01 0 0 0
616 2 1.2305000000000001e+00 1.2077301606043163e+01 3.0030999999999480e+01 0 0 0
618 2 1.2305000000000001e+00 1.0656442593567498e+01 3.0030999999999480e+01 0 0 0
653 2 3.6914999999999996e+00 1.2077301606043163e+01 3.0030999999999480e+01 0 0 0
655 2 3.6914999999999996e+00 1.0656442593567499e+01 3.0030999999999480e+01 0 0 0
912 2 0.0000000000000000e+00 8.5251540748539991e+00 3.3189941217654706e+01 0 0 0
913 2 1.2305000000000001e+00 9.2355835810918343e+00 3.3189941217654706e+01 0 0 0
927 2 2.4610000000000003e+00 8.5251540748539991e+00 3.3189941217654706e+01 0 0 0
928 2 3.6915000000000004e+00 9.2355835810918343e+00 3.3189941217654706e+01 0 0 0
911 2 0.0000000000000000e+00 1.1366872099805333e+01 3.3189941217654706e+01 0 0 0
925 2 1.2305000000000001e+00 1.0656442593567498e+01 3.3189941217654706e+01 0 0 0
926 2 2.4610000000000003e+00 1.1366872099805333e+01 3.3189941217654706e+01 0 0 0
944 2 3.6914999999999996e+00 1.0656442593567499e+01 3.3189941217654706e+01 0 0 0
657 2 4.9220000000000006e+00 9.9460130873296642e+00 3.0030999999999480e+01 0 0 0
659 2 4.9220000000000006e+00 8.5251540748539991e+00 3.0030999999999480e+01 0 0 0
702 2 7.3830000000000009e+00 9.9460130873296642e+00 3.0030999999999480e+01 0 0 0
704 2 7.3830000000000009e+00 8.5251540748539991e+00 3.0030999999999480e+01 0 0 0
698 2 6.1524999999999999e+00 1.2077301606043163e+01 3.0030999999999480e+01 0 0 0
700 2 6.1524999999999999e+00 1.0656442593567499e+01 3.0030999999999480e+01 0 0 0
745 2 8.6135000000000002e+00 1.2077301606043163e+01 3.0030999999999480e+01 0 0 0
747 2 8.6134999999999984e+00 1.0656442593567498e+01 3.0030999999999480e+01 0 0 0
946 2 4.9220000000000006e+00 8.5251540748539991e+00 3.3189941217654706e+01 0 0 0
947 2 6.1524999999999999e+00 9.2355835810918343e+00 3.3189941217654706e+01 0 0 0
969 2 7.3830000000000009e+00 8.5251540748539991e+00 3.3189941217654706e+01 0 0 0
970 2 8.6134999999999984e+00 9.2355835810918343e+00 3.3189941217654706e+01 0 0 0
945 2 4.9220000000000006e+00 1.1366872099805333e+01 3.3189941217654706e+01 0 0 0
967 2 6.1524999999999999e+00 1.0656442593567499e+01 3.3189941217654706e+01 0 0 0
968 2 7.3829999999999991e+00 1.1366872099805333e+01 3.3189941217654706e+01 0 0 0
991 2 8.6134999999999984e+00 1.0656442593567498e+01 3.3189941217654706e+01 0 0 0
6111 1 3.7362725230134539e+00 2.0275146937315167e+00 3.6431523190010132e+01 1 1 -1
1954 1 9.9128804672424997e-01 2.4558042943727521e+00 3.5802525695184926e+01 1 0 -1
1771 1 6.5593994432027340e+00 9.7059556567686815e+00 3.5925241642904503e+01 0 0 -1
5424 1 5.0803320653218433e+00 4.6376430570376463e+00 3.6318231588367226e+01 1 1 0
4916 1 9.3256307544470083e+00 2.5430466023353757e+00 3.5806189475539185e+01 0 0 -1
3047 1 2.9917070877416352e+00 6.4971226384296692e+00 3.6141896932203309e+01 0 1 -1
38 1 3.9384825567562132e-01 5.1886509432381205e+00 3.5885667621367105e+01 1 1 -1
3423 1 8.3003685544289034e+00 7.6201389303369229e+00 3.6646958469078278e+01 0 1 -1
2919 1 7.9404874805193053e+00 4.7627869003959882e+00 3.6378617838029299e+01 0 1 0
6380 1 3.7601971553263800e+00 9.1202584402332860e+00 3.6452417597282242e+01 0 1 0
3515 1 1.6231408479288185e+00 1.0867688565885793e+01 3.6107982434020350e+01 1 0 -1
4942 1 7.6047782353694462e+00 1.5623770252351066e-01 3.5633991433164312e+01 0 0 -1
1414 1 7.6065972967225024e+00 1.2104653128101365e+01 3.5618420454876620e+01 0 1 0
5034 1 3.4462198230917442e+00 1.3795431681303776e+00 3.9181628760582143e+01 0 -1 -1
3275 1 8.4500035000767841e+00 5.0229075472428759e+00 3.8923114137715508e+01 1 1 -1
6385 1 1.7969649175516491e+00 6.9185327958035128e+00 4.1368458395032008e+01 0 1 -1
6313 1 7.4415045454340776e+00 2.5750392568112139e+00 3.9576082717682212e+01 1 1 0
1490 1 3.9656050911061169e+00 8.1764935089001067e+00 3.9181993060193001e+01 0 0 0
423 1 1.8103584581989418e+00 5.6018432866409311e+00 3.8665234545523511e+01 0 0 -1
4798 1 4.6577463331756528e+00 5.1867895187781281e+00 3.9116665014428726e+01 1 0 0
529 1 6.7220528338181449e+00 7.2933912911346708e+00 3.9391812979967284e+01 0 0 0
1323 1 8.1157775546753941e-01 1.2100568498296276e+00 3.8276216847460951e+01 1 0 0
440 1 6.9696219607405592e+00 1.0247655804113451e+01 3.8765926208054672e+01 0 0 0
1914 1 9.6414849851060058e+00 1.0412688335752588e+01 4.0463951322753054e+01 1 0 0
229 1 2.4038382248039283e+00 4.8042579540680901e+00 4.3288507112397383e+01 0 1 0
4619 1 2.8778224475310039e+00 7.8068317808113263e-01 4.2041568342265464e+01 -1 2 0
2972 1 5.0487453571478627e+00 3.1883227224472721e+00 4.1079747331070649e+01 0 0 -1
1438 1 5.0836018213423717e+00 1.1723072443937010e+01 4.0309568927540369e+01 0 0 0
100 1 1.4299714163750985e+00 3.1348321230775329e+00 4.1073460956659197e+01 0 0 0
6112 1 9.1161611316060120e-01 1.0732931788702851e+01 4.2701671119072557e+01 1 1 0
3045 1 7.5714886603145874e+00 7.2100311293139709e+00 4.1976559688777087e+01 0 0 0
1653 1 3.3456447002456913e+00 9.8131755222519690e+00 4.1575996581014003e+01 0 0 0
4541 1 9.4480165949181174e+00 1.9289885362745427e+00 4.1384555360010701e+01 0 0 0
4577 1 5.5181041129448785e+00 5.3258980117176860e+00 4.3104014742565653e+01 -1 0 0
1331 1 4.1706774032698846e+00 7.7969932345626569e+00 4.3543732961159037e+01 1 1 -1
1336 1 8.4078039254840871e+00 1.1261950426294893e+01 4.2664339009386104e+01 -1 1 0
3304 1 9.3690339600656429e+00 1.2135284239093124e+01 3.8230814160666320e+01 0 0 0
282 1 6.7089753631096478e+00 9.3626792914683392e+00 4.3713185878261854e+01 1 1 -1
1507 1 1.6440692953995431e-01 3.7178942403211770e+00 4.6852310447208779e+01 0 1 -1
4694 1 2.2024161667051976e+00 1.7715002040492811e+00 4.6136730425899209e+01 -1 0 0
4667 1 2.3921924644097690e+00 1.2025957976136775e+01 4.4928992751696036e+01 1 0 0
1313 1 5.1030601183876882e+00 1.1825929059872809e+01 4.4399601188912484e+01 0 -1 0
3068 1 4.5946970825561069e+00 1.2133218882989262e+01 4.9086567354595715e+01 0 0 0
2937 1 2.6847761085916271e+00 5.2091904365906654e+00 4.7728723815918592e+01 1 -1 0
3463 1 3.2844337432759363e-01 7.5282568220925743e+00 4.8339218489638526e+01 0 0 -1
2190 1 6.5413987549454307e+00 4.1578419730521095e+00 4.5540418478042319e+01 0 1 0
57 1 5.4603847216135311e+00 5.0176571273291781e+00 4.7780631098263768e+01 1 1 0
6279 1 7.4877553258573259e+00 9.0684073625690598e+00 4.6263148178453420e+01 0 0 0
1260 1 5.4962077844424879e+00 7.6796564806652352e+00 4.7598134974369117e+01 1 1 0
4812 1 2.0569695021812051e+00 1.0227388011165194e+01 4.6900102531019265e+01 0 1 0
1539 1 4.5533746281231924e+00 9.2415796689837926e+00 4.9485565386053835e+01 0 1 0
4755 1 8.8410919973892579e+00 1.1699529959000666e+01 4.6845880412515150e+01 1 -1 0
4614 1 8.3431338440375882e+00 1.9759036790491056e+00 4.5408989349637359e+01 0 1 -1
3640 1 7.9164172307240799e-01 5.9410285738969835e+00 4.5248507722801392e+01 1 1 0
2927 1 8.9946148019150183e+00 9.8460339244100881e-01 4.7893834126281980e+01 -1 1 0
1525 1 3.5027935748459376e+00 2.2437898172075856e+00 4.8634046953361654e+01 1 1 -1
3211 1 9.0368145792175287e+00 6.2173524813958885e+00 5.0704175036430222e+01 1 1 -1
4715 1 2.5856614749283420e+00 7.5770375161877030e+00 5.0320850165684668e+01 1 0 0
4914 1 5.3260861849312828e+00 4.1767663356819229e+00 5.0550537109225189e+01 0 0 0
6455 1 3.3292733878831511e+00 8.0403393236872365e+00 4.6043970156856844e+01 1 -1 0
4804 1 8.3759338163410018e+00 6.3386742705830237e+00 4.5695556673489023e+01 0 1 0
1282 1 1.1778476263864446e+00 1.1261805816255871e+01 4.9650381360797290e+01 0 0 0
2985 1 7.9467019856032006e-01 8.4036905793749195e-01 4.9910263126047717e+01 0 0 -1
3506 1 2.2773214057458713e+00 4.2578169883038894e+00 5.0895541023890082e+01 1 1 -1
1890 1 4.2088539551288546e+00 2.3622650504935550e+00 4.4340089492535036e+01 0 1 -1
5321 1 9.8239483983349327e+00 6.6380366857688218e+00 4.7961527267286591e+01 1 1 -1
4589 1 1.5099517495777093e-02 8.9449057111910690e+00 4.5235131776516148e+01 0 0 0
1617 1 3.8046083900390610e+00 4.0470028419147859e+00 5.3440168782731909e+01 0 1 0
1263 1 3.0817792516536149e+00 1.4443848094517537e+00 5.3790876885722248e+01 1 1 0
191 1 2.9394274154496358e+00 1.0055941375973585e+01 5.5978626095420644e+01 1 0 -1
4552 1 9.0360303947085256e+00 1.1936459882019735e+01 5.5555900080934762e+01 1 0 0
4976 1 7.5661868215269061e+00 3.7095009490453585e+00 5.4184226408858137e+01 0 1 -1
2024 1 1.5338258397736682e+00 9.4937271369338863e+00 5.1898494121915995e+01 1 0 -1
2887 1 4.2692060780678247e+00 7.1570343107712375e+00 5.2960721895168703e+01 0 0 0
2962 1 8.0358639559312923e+00 5.6126380610173001e+00 5.6718992807064048e+01 0 1 0
4777 1 5.8201217793734781e+00 9.5184412080686585e+00 5.2108956640682663e+01 0 1 -1
5171 1 8.0279081410406246e+00 2.2626958900091504e-01 5.2910557623361569e+01 0 1 -1
189 1 3.5480648521173630e-01 2.0575163752558439e+00 5.6420141357107411e+01 1 0 -1
6173 1 3.8063241178905378e+00 1.0989567765630849e+01 5.3537832591622490e+01 0 1 0
3753 1 8.1811589399034048e+00 1.1360020359257895e+01 5.2703050041549432e+01 1 2 0
5273 1 9.4648416350666231e+00 7.5040543376014535e+00 5.5112195019968183e+01 1 0 0
1428 1 3.7565607017805938e-02 9.8001848865613947e+00 5.5833583875491499e+01 0 0 -1
5182 1 3.9440004893229346e+00 5.7586348510671659e+00 5.7390486454663929e+01 1 -1 -1
2892 1 3.6665468214579877e-01 5.7942922541027464e-01 5.4220841648965084e+01 0 0 0
5200 1 6.7663019803945303e+00 8.2079626424638541e-01 5.5019520190358300e+01 1 1 -1
4843 1 5.1858844784163916e+00 3.5884466826038546e+00 5.6091113231606855e+01 0 0 0
6480 1 1.4446386239612130e+00 4.7122806242617523e+00 5.5891970878451922e+01 0 1 0
3241 1 2.9111352684457739e+00 7.5391086086558916e+00 5.5300287376553484e+01 1 1 -1
2968 1 6.6746361314612805e+00 5.6900517474675452e+00 5.2431802037392742e+01 1 1 0
3024 1 3.2628270243916409e+00 8.2845030949324994e-01 5.1112508418779498e+01 -1 0 -1
4659 1 6.0689377855176598e+00 1.4657037936822617e+00 5.1233857668278375e+01 0 0 0
3527 1 8.8063461968985060e+00 8.5170681980028071e+00 5.2581269560007669e+01 0 1 -1
1469 1 2.2023806166591528e-01 4.6485012904607395e+00 5.3100262252401393e+01 0 0 0
5299 1 4.7172637126425556e+00 8.8115304659106570e+00 5.7942285131845388e+01 1 1 -1
3378 1 2.9809162316513742e+00 1.3033100305521897e+01 3.8931344432213604e+00 0 1 1
5373 1 7.2142428376031349e+00 1.2491643296692409e+01 5.3171257099755262e+00 0 1 1
1810 1 3.7274544626194031e+00 1.4654326790424607e+01 6.0107711096125440e+00 2 0 0
101 1 9.2672305716516910e+00 1.9948911956315726e+01 2.9535293329564190e+00 0 1 1
3173 1 6.2097467287403436e+00 1.4991614296132834e+01 5.5104554958183076e+00 0 1 1
5310 1 2.7844946853812318e+00 1.8582847933562348e+01 4.5824653213747837e+00 1 1 1
154 1 3.3739665772760250e+00 2.3652843044906472e+01 6.5137062348279375e+00 0 -1 0
1589 1 5.0322277441425047e+00 1.8140524138734463e+01 2.8821438940826005e+00 -1 1 1
1936 1 7.0837031375791459e-01 2.0564101027255475e+01 4.4794361777213147e+00 1 -1 0
6275 1 6.1134100601735248e+00 1.5820562612275682e+01 2.9641798865560451e+00 0 0 0
6330 1 3.4012179310024950e+00 1.8285226190827728e+01 8.2425722764669551e+00 1 1 1
2168 1 1.6890051729285409e+00 2.2332805389322473e+01 2.4167028535110542e+00 0 1 1
2025 1 9.7905993765787447e-01 2.1608200612436701e+01 7.0218217897077748e+00 0 0 0
407 1 6.3518766841499215e+00 2.2845222239584238e+01 3.4410185251761374e+00 0 0 0
4572 1 9.1013254397546373e+00 2.1766493851612704e+01 7.1596285504821768e+00 1 -1 1
3325 1 3.4860120496265798e+00 1.3484529323184780e+01 8.4743726232064276e+00 2 0 0
5165 1 8.7444453201702910e+00 1.6856220481454436e+01 4.0561624393904427e+00 0 1 0
3414 1 1.8309312805805498e+00 1.6648852334233350e+01 6.3235325661859232e+00 1 0 1
2920 1 3.8587159907087583e+00 2.0627538437983986e+01 6.6307768007043100e+00 0 1 1
1631 1 6.6499714851862635e+00 2.1715554284858523e+01 5.9885271562139204e+00 0 0 1
385 1 7.0214893551503099e+00 1.9190028887123908e+01 4.8808762198835218e+00 0 0 0
5248 1 6.4415679950195797e+00 1.8587608582802204e+01 7.7703208197979192e+00 0 -1 0
357 1 8.9867654793797858e+00 1.5718929522511045e+01 6.8322881571101730e+00 0 0 0
523 1 5.1599490646196255e-01 1.7699492378108687e+01 2.5945517934511599e+00 -1 1 1
240 1 3.8047001044649340e+00 2.3787556477498708e+01 3.7844431222928923e+00 1 1 0
3309 1 9.6465684228361859e+00 1.9262113765929207e+01 8.7415617656506512e+00 1 0 0
1876 1 6.7614320657972946e-02 1.2765204744147011e+01 3.8236170656212751e+00 0 0 0
3436 1 9.8277036930658284e+00 1.3173753736118659e+01 5.5716282195623741e+00 2 -1 0
3177 1 6.8432147859939843e+00 2.2136624495972697e+01 1.2324509961595114e+01 1 0 0
1663 1 5.2073466794683232e-01 1.5081429169230821e+01 1.1529328424426884e+01 2 0 0
5412 1 6.1457923371548064e+00 1.2763694155949059e+01 1.5062256286225569e+01 0 0 1
6224 1 7.0840128303347729e+00 1.4087106505767967e+01 1.0494471739675577e+01 2 1 0
3563 1 7.6788679316435227e+00 1.4249569508146680e+01 1.3152539626687812e+01 1 0 0