
# Create simulation box and atoms

read_data data.ML_graphite_m500atm_240K
  orthogonal box = (0 0 2.16312) to (49.22 49.0196 57.8989)
  5 by 4 by 8 MPI processor grid
  reading atoms ...
  6489 atoms
  reading velocities ...
  6489 velocities
group water type 1
3729 atoms in group water
group graphite type 2
2760 atoms in group graphite

# Define potential

pair_style sw
pair_coeff * * MLC_e.sw mW C


# Fix graphite atoms in place

fix 5 graphite setforce 0.0 0.0 0.0
velocity graphite set 0.0 0.0 0.0


# Equilibration of molecular water

# Add velocity/set timestep

velocity	    water create ${TEMP} ${SEED} rot yes dist gaussian
velocity	    water create 240 ${SEED} rot yes dist gaussian
velocity	    water create 240 8627 rot yes dist gaussian
timestep	    5.0

# Define output

compute			1 water msd
compute			3 water temp
thermo	    	50
thermo_style	custom step temp press vol etotal ke pe c_1[4] c_3

# Neighbor lists

neigh_modify    delay 0 every 1 check yes

# Set fixes

fix             1 water momentum 10 linear 1 1 1 rescale
fix             2 water nve
fix             3 water temp/csvr ${TEMP} ${TEMP} 500.0 ${SEED}
fix             3 water temp/csvr 240 ${TEMP} 500.0 ${SEED}
fix             3 water temp/csvr 240 240 500.0 ${SEED}
fix             3 water temp/csvr 240 240 500.0 8627
fix             4 water press/berendsen z ${PRES} ${PRES} 1000.0 modulus 20000
fix             4 water press/berendsen z -500 ${PRES} 1000.0 modulus 20000
fix             4 water press/berendsen z -500 -500 1000.0 modulus 20000

# Run 0.5 ns equilibration

dump		    1 all atom 2000 ${DIR}/eq.${NAME}-${TEMP}.dump
dump		    1 all atom 2000 run_27/eq.${NAME}-${TEMP}.dump
dump		    1 all atom 2000 run_27/eq.het_freeze_27-${TEMP}.dump
dump		    1 all atom 2000 run_27/eq.het_freeze_27-240.dump

reset_timestep  0

run	            100000
Neighbor list info ...
  update every 1 steps, delay 0 steps, check yes
  max neighbors/atom: 2000, page size: 100000
  master list distance cutoff = 6.67472
  ghost atom cutoff = 6.67472
  binsize = 3.33736, bins = 15 15 17
  1 neighbor lists, perpetual/occasional/extra = 1 0 0
  (1) pair sw, perpetual
      attributes: full, newton on
      pair build: full/bin/atomonly
      stencil: full/bin/3d
      bin: standard
Per MPI rank memory allocation (min/avg/max) = 4.067 | 4.175 | 4.485 Mbytes
Step Temp Press Volume TotEng KinEng PotEng c_1[4] c_3 
       0    137.90382   -585.46729    134476.24   -35583.071    2666.9904   -38250.061            0          240 
      50     137.0249   -504.81821    134531.37   -35647.124    2649.9925   -38297.116   0.51466563    238.47037 
     100    140.04685   -569.72466    134555.71   -35604.803    2708.4354   -38313.238   0.83634095     243.7296 
     150    138.94989   -466.34869    134521.53   -35608.661    2687.2207   -38295.881     1.050088    241.82051 
     200    139.27015   -519.81607    134588.19    -35581.94    2693.4144   -38275.354    1.2619245    242.37788 
     250    140.32841   -558.36855       134537   -35575.387    2713.8806   -38289.267    1.4531242    244.21961 
     300    139.74809   -485.18205    134574.25   -35564.113    2702.6575    -38266.77    1.6147592    243.20966 
     350    138.40804   -499.69491    134627.79   -35620.315    2676.7416   -38297.057    1.7846274    240.87751 
     400    137.40788   -512.74536    134697.74   -35615.103     2657.399   -38272.502    1.9837978    239.13688 
     450    136.78836   -537.43771    134725.82   -35640.246    2645.4178   -38285.664    2.1795487    238.05871 
     500     136.1579   -405.69274    134811.67   -35674.065     2633.225    -38307.29    2.3443429    236.96149 
     550     136.7245   -708.09866    134855.97   -35614.312    2644.1828   -38258.494    2.5214272    237.94757 
     600    138.99409   -453.19842    134896.05   -35601.264    2688.0757    -38289.34    2.6946824    241.89745 
     650    142.22701   -627.75345    134929.36    -35589.74    2750.5987   -38340.338    2.8745161    247.52384 
     700     138.2155   -645.00889    134956.73   -35621.467     2673.018   -38294.485    3.0088938    240.54242 
     750    137.65528   -570.95407    134979.69   -35662.796    2662.1837    -38324.98    3.1354535    239.56745 
     800    139.42194   -802.55754    134959.52   -35683.346    2696.3499   -38379.695    3.2878088    242.64204 
     850    134.95937   -910.44085    134935.72   -35708.654    2610.0462   -38318.701     3.469743    234.87565 
     900    137.61981    -655.1434    134918.04   -35687.952    2661.4977    -38349.45     3.644325    239.50572 
     950    135.01861   -956.44023    134945.42   -35723.803    2611.1917   -38334.995    3.8072083    234.97873 
    1000    139.71622   -583.73945    134916.88   -35728.213    2702.0412   -38430.254    3.9522019    243.15419 
    1050    136.30503   -620.55935    134920.92   -35756.273    2636.0705   -38392.343    4.1007549    237.21755 
    1100    138.96781   -747.62379    134946.28   -35669.561    2687.5674   -38357.128    4.2492911     241.8517 
    1150    138.38185   -817.01706    134954.16   -35668.915    2676.2352    -38345.15    4.4490497    240.83193 
    1200    137.83768   -626.93057       134911   -35685.599    2665.7113   -38351.311     4.595524     239.8849 
    1250    137.26063   -841.20317    134894.22   -35692.004    2654.5514   -38346.556    4.7996275    238.88063 
    1300    138.95826   -514.34612    134870.66   -35640.371    2687.3826   -38327.753     4.960756    241.83508 
    1350    137.99026   -857.64375    134888.98    -35683.65     2668.662   -38352.312    5.1275047    240.15043 
    1400    140.76412    -691.1633     134845.5   -35639.854    2722.3071   -38362.161    5.2433617     244.9779 
    1450    137.14952   -497.31653    134916.28   -35728.225    2652.4025   -38380.627    5.3874178    238.68725 
    1500    137.97322   -567.78083    134989.15   -35698.651    2668.3325   -38366.984    5.5156447    240.12078 
    1550    138.72439    -314.9351    135057.22   -35678.992    2682.8598   -38361.852    5.6946497    241.42807 
    1600    138.12186    -615.3603    135221.28   -35679.759    2671.2071   -38350.966    5.8622595    240.37946 
    1650    139.77893   -583.53403    135294.84   -35659.109     2703.254   -38362.363    6.0497598    243.26333 
    1700      136.853   -827.34012    135279.53   -35695.793     2646.668   -38342.461    6.2016625    238.17121 
    1750    135.26885   -673.68198    135251.41   -35720.473    2616.0314   -38336.504    6.4109866    235.41425 
    1800    139.07667   -645.07836    135266.67   -35674.794    2689.6727   -38364.466    6.5489785    242.04116 
    1850    137.93626   -662.20505    135196.55   -35676.075    2667.6176   -38343.692    6.5949622    240.05644 
    1900    138.37442   -734.57328    135065.15   -35638.302    2676.0915   -38314.393    6.6808484      240.819 
    1950    140.14039   -658.72377    135027.55   -35635.462    2710.2445   -38345.706    6.8794286     243.8924 
    2000    142.41694   -631.30539    135073.06   -35645.492    2754.2717   -38399.763    7.0370306    247.85437 
    2050     142.1906    -646.9866    135093.98   -35614.797    2749.8944   -38364.691    7.2364303    247.46046 
    2100    136.93177   -1002.6916    135057.78   -35636.374    2648.1914   -38284.566    7.4176546     238.3083 
    2150    140.91143    -963.1577    134980.64   -35680.269    2725.1559   -38405.425    7.5120848    245.23426 
    2200    135.12458   -951.32864     134858.4   -35681.543    2613.2412   -38294.784    7.6593014    235.16317 
    2250    136.09337    -833.2018    134855.25   -35707.855     2631.977   -38339.832    7.8777774    236.84918 
    2300    139.00726   -749.68951    134818.84   -35685.553    2688.3303   -38373.884    8.0567121    241.92036 
    2350    138.42003   -629.10085    134788.17   -35656.985    2676.9735   -38333.959    8.2493326    240.89837 
    2400    140.45044   -745.52515    134862.28   -35616.618    2716.2407   -38332.859    8.4108534    244.43199 
    2450    139.97234   -669.01445    134954.37   -35577.805    2706.9945   -38284.799    8.6592158    243.59994 
    2500    138.20578   -590.75321    134988.19   -35634.245      2672.83   -38307.075    8.7529573    240.52551 
    2550    136.09048   -788.04923    134969.17   -35661.152    2631.9212   -38293.073    8.8142413    236.84416 
    2600    137.55185   -734.93661    135025.83   -35730.195    2660.1833   -38390.378    8.9610825    239.38744 
    2650    136.79246   -560.39917    135062.81    -35701.07    2645.4972   -38346.567    9.1688664    238.06585 
    2700    135.49221   -858.38877    134959.54    -35715.53     2620.351   -38335.881    9.4262978    235.80297 
    2750    132.01606   -849.57536    135005.16   -35757.439     2553.124   -38310.563     9.716911    229.75327 
    2800    137.28369   -629.56999    135017.26   -35743.286    2654.9972   -38398.283    9.9514079    238.92075 
    2850    138.39528   -548.36017    134983.43   -35686.752    2676.4949   -38363.247    10.184745     240.8553 
    2900    135.43146   -520.75438    134958.97   -35733.986    2619.1761   -38353.162    10.310043    235.69724 
    2950    136.10743   -704.39485    135006.62     -35710.6     2632.249   -38342.849    10.446652    236.87365 
    3000    137.57181   -608.93266    135000.85   -35745.478    2660.5693   -38406.047    10.571519    239.42218 
    3050    137.21088   -626.88016     135070.7   -35705.041    2653.5892    -38358.63    10.696328    238.79404 
    3100    136.70714   -752.86327    135082.03    -35650.56    2643.8471   -38294.407    10.857122    237.91736 
    3150    136.98658   -793.46072    135004.87   -35637.263    2649.2514   -38286.514    11.044633    238.40369 
    3200    137.73648   -621.83293    134965.56   -35651.671     2663.754   -38315.425    11.064493    239.70876 
    3250    137.47951   -797.86196    134951.45    -35669.55    2658.7844   -38328.335    11.118146    239.26155 
    3300    140.72848   -874.78923     134922.7   -35648.145    2721.6179   -38369.763    11.395589    244.91588 
    3350    138.19667   -577.65433    134880.86    -35606.42    2672.6539   -38279.074    11.680565    240.50965 
    3400    138.93867   -782.46718    134841.84   -35670.783    2687.0039   -38357.786    11.847859      241.801 
    3450    138.31906   -675.14595    134854.44   -35665.342    2675.0208   -38340.363    12.057073    240.72265 
    3500    139.78797   -988.66539    134773.09   -35677.724    2703.4289   -38381.153    12.316451    243.27907 
    3550    137.50774   -613.48127    134782.46   -35677.686    2659.3303   -38337.016    12.493927    239.31068 
    3600    138.38648    -824.6679    134808.17   -35715.819    2676.3247   -38392.144    12.665979    240.83998 
    3650    137.70573   -656.10183    134800.91   -35702.775    2663.1593   -38365.935     12.75789    239.65525 
    3700    136.74816   -630.61708    134842.51   -35703.164    2644.6404   -38347.804     12.82818    237.98875 
    3750    136.89886   -634.57201    134874.99   -35699.037     2647.555   -38346.592    13.101616    238.25103 
    3800    136.18898    -862.7684    134894.08   -35680.717    2633.8262   -38314.544    13.323753    237.01559 
    3850    138.74376   -462.23338    134949.72   -35727.271    2683.2343   -38410.506    13.527463    241.46177 
    3900    139.48089   -452.89347    135051.29   -35693.021    2697.4901   -38390.511     13.82004    242.74465 
    3950    133.82709   -628.93374    135191.49   -35726.498    2588.1485   -38314.647    14.024332    232.90509 
    4000    138.51692   -656.08347    135210.61     -35672.2    2678.8473   -38351.047    14.029635      241.067 
    4050    140.23455   -788.31855    135295.82   -35640.725    2712.0655    -38352.79    14.167307    244.05627 
    4100    137.27577   -648.81117    135283.51   -35598.221    2654.8442   -38253.065    14.292003    238.90698 
    4150    138.08008   -920.26819    135277.32   -35586.478     2670.399   -38256.877    14.460357    240.30674 
    4200    141.61898   -732.50884     135269.8   -35625.692    2738.8396   -38364.532    14.631262    246.46564 
    4250    138.37413   -517.23304    135308.92   -35638.581    2676.0859   -38314.667    14.887187     240.8185 
    4300     138.7043   -430.66978    135367.23   -35633.672    2682.4712   -38316.143    15.047634    241.39311 
    4350    140.41463    -638.9927    135456.09     -35672.2    2715.5482   -38387.749     15.25855    244.36967 
    4400    138.28554   -269.07317     135470.9   -35697.132    2674.3726   -38371.505    15.410807    240.66432 
    4450     139.2263    -660.4523     135562.2   -35663.996    2692.5664   -38356.562    15.533998    242.30156 
    4500    139.78581   -746.36508    135544.18   -35660.591    2703.3871   -38363.978    15.644886    243.27531 
    4550    137.34751   -894.82182    135459.35   -35662.652    2656.2316   -38318.883    15.865544    239.03183 
    4600    137.75341   -816.24299    135442.76   -35663.871    2664.0815   -38327.953    16.157426    239.73823 
    4650    141.00753   -553.72612    135436.58   -35661.349    2727.0145   -38388.363    16.221039    245.40152 
    4700    138.93005    -816.7841    135467.34   -35668.361     2686.837   -38355.198    16.371567    241.78598 
    4750    137.50661   -586.30629    135469.78   -35670.669    2659.3084   -38329.977     16.49098    239.30871 
    4800    140.44187   -763.21812    135516.86   -35629.428     2716.075   -38345.503    16.556745    244.41708 
    4850    138.41693   -783.07594    135529.78   -35681.282    2676.9136   -38358.196    16.650746    240.89299 
    4900    138.79528   -503.77785    135530.03   -35707.332    2684.2307   -38391.563    16.851939    241.55144 
    4950    136.46383   -973.16133    135528.22   -35716.644    2639.1417   -38355.786    17.085494    237.49393 
    5000    136.71883   -1036.3081    135461.04   -35737.678    2644.0732   -38381.751    17.184942    237.93771 
    5050    137.35534   -584.21891    135451.56     -35764.2     2656.383   -38420.583    17.321902    239.04545 
    5100     138.2253   -662.13469    135500.88   -35759.781    2673.2076   -38432.988    17.385802    240.55948 
    5150     136.6876    -845.2909    135486.52   -35829.399    2643.4692   -38472.868    17.614405    237.88336 
    5200    140.23723   -776.42087    135447.77   -35766.805    2712.1172   -38478.922    17.766873    244.06092 
    5250     138.9155   -913.75199    135427.51   -35784.053    2686.5557   -38470.609    17.845297    241.76066 
    5300    137.74254   -926.03065    135409.07    -35804.78    2663.8712   -38468.651    17.959572    239.71931 
    5350    137.54158   -650.43531    135392.02   -35781.082    2659.9847   -38441.066    18.129618    239.36957 
    5400    139.38748    -856.1732    135415.39   -35722.924    2695.6836   -38418.608    18.249585    242.58208 
    5450    138.19645   -629.06885    135363.31    -35708.68    2672.6497    -38381.33    18.493779    240.50928 
    5500    139.56771   -725.28823     135327.2   -35735.725     2699.169   -38434.894    18.626359    242.89573 
    5550    139.52819   -703.02476    135419.99   -35684.897    2698.4048   -38383.302    18.685135    242.82696 
    5600    139.61316    -785.0754    135424.53    -35754.27     2700.048   -38454.318     18.69349    242.97483 
    5650    136.28889   -590.59044    135423.04   -35736.514    2635.7584   -38372.273    18.850289    237.18946 
    5700    139.71733   -801.31821     135391.9   -35765.324    2702.0628   -38467.387    18.941222    243.15613 
    5750    137.92834   -491.62134    135474.06   -35732.289    2667.4646   -38399.754    19.016813    240.04268 
    5800    137.87131   -818.12008    135467.88   -35723.201    2666.3616   -38389.563    19.164635    239.94342 
    5850    138.70138   -834.02499    135455.24    -35692.14    2682.4148   -38374.555    19.176033    241.38803 
    5900    137.24276   -699.38249    135367.35   -35744.341    2654.2058   -38398.547    19.323936    238.84953 
    5950    137.48134   -612.58644    135368.55   -35757.635    2658.8197   -38416.454    19.522516    239.26473 
    6000    136.86679   -1010.4981    135391.31   -35784.698    2646.9346   -38431.633    19.606811     238.1952 
    6050    136.65067   -1005.7753    135372.53    -35769.84    2642.7549   -38412.595    19.654153    237.81908 
    6100    135.03152   -901.98303    135339.26   -35791.605    2611.4415   -38403.047    19.870965    235.00121 
    6150     138.9604   -673.18885    135347.67   -35789.898    2687.4241   -38477.322    20.005741    241.83881 
    6200    137.88424   -763.11513     135299.5   -35766.966    2666.6116   -38433.577    20.097373    239.96591 
    6250      136.783   -624.05818    135283.66   -35767.283    2645.3142   -38412.598    20.146767    238.04938 
    6300     136.9477   -623.96013    135289.04   -35789.564    2648.4994   -38438.064    20.361634    238.33601 
    6350    137.92515    -636.1086    135325.46   -35743.117    2667.4027   -38410.519    20.364807    240.03711 
    6400    138.82962   -644.39685    135343.22   -35686.918    2684.8948   -38371.813    20.465405     241.6112 
    6450    137.53712   -439.73609    135383.12   -35753.982    2659.8984    -38413.88    20.611138     239.3618 
    6500    138.15651   -898.74146     135389.8   -35736.294    2671.8773   -38408.171    20.613214    240.43977 
    6550    138.15975   -749.03264    135360.91   -35725.668    2671.9399   -38397.608    20.669972    240.44541 
    6600      139.149   -651.74428    135405.34   -35745.911    2691.0715   -38436.982    20.846497    242.16704 
    6650    135.20117   -832.09295    135339.24   -35775.558    2614.7224    -38390.28    20.977455    235.29646 
    6700    139.05356    -688.9664    135286.67   -35764.682    2689.2256   -38453.907     21.08816    242.00093 
    6750    136.19308   -725.78449    135362.23   -35757.447    2633.9054   -38391.352     21.21999    237.02272 
    6800     137.6261   -490.30232       135415   -35714.105    2661.6193   -38375.725    21.383027    239.51666 
    6850    136.09896   -797.90205    135478.61   -35741.007    2632.0853   -38373.092    21.605656    236.85893 
    6900    137.33956   -707.91144    135470.65    -35734.95    2656.0778   -38391.028    21.744809    239.01799 
    6950    138.77188   -459.13927    135527.85   -35773.457    2683.7781   -38457.235    21.768923    241.51071 
    7000    139.08006   -681.10903     135608.3   -35743.278    2689.7382   -38433.016    21.834759    242.04705 
    7050    138.80618   -731.12287    135580.93    -35739.78    2684.4415   -38424.221    21.919064    241.57041 
    7100     139.9097   -517.09203     135632.7   -35729.702    2705.7829   -38435.485    22.095698    243.49091 
    7150    138.41588   -637.78199    135691.12   -35751.889    2676.8933   -38428.783    22.384749    240.89116 
    7200    140.05326    -565.3439    135722.52   -35784.143    2708.5595   -38492.702    22.588173    243.74077 
    7250    135.30888   -468.47361    135843.89   -35830.249    2616.8055   -38447.055    22.849725    235.48391 
    7300    136.59459   -599.06796    135905.28   -35839.187    2641.6705   -38480.858    23.056958    237.72149 
    7350    137.94539   -745.79902    135955.29   -35862.136    2667.7943    -38529.93    23.298974    240.07234 
    7400    133.11398   -679.04827    135992.77   -35892.205    2574.3572   -38466.563    23.312307    231.66402 
    7450    135.23375   -672.15465    136047.29   -35911.885    2615.3526   -38527.238    23.380804    235.35316 
    7500    137.91464   -596.70256    136168.27   -35855.611    2667.1996   -38522.811    23.512695    240.01883 
    7550     135.4397   -735.48468    136121.56    -35875.12    2619.3355   -38494.455      23.6656    235.71158 
    7600    136.47829   -757.79819    136106.44   -35887.533    2639.4212   -38526.954    23.854597    237.51908 
    7650    136.17911   -627.20789    136068.22   -35880.811    2633.6353   -38514.447    23.902217    236.99841 
    7700     138.4434   -552.45096    136088.66   -35828.777    2677.4254   -38506.202    23.966242    240.93904 
    7750     136.1907   -992.52317     136108.5   -35857.796    2633.8595   -38491.655    24.061528    237.01858 
    7800    135.60065   -647.26975     136061.6    -35841.64    2622.4482   -38464.088    24.199509    235.99169 
    7850    136.58834   -994.14577    136018.81   -35826.911    2641.5495   -38468.461    24.303806     237.7106 
    7900    136.14018   -721.50225    135921.93   -35833.263    2632.8823   -38466.145    24.468686    236.93065 
    7950    137.95756   -714.12317    135899.28   -35822.253    2668.0296   -38490.283    24.450661    240.09352 
    8000    137.33884    -973.3968    135832.93   -35795.126    2656.0638    -38451.19    24.564318    239.01673 
    8050    137.15595   -977.87043       135784   -35821.416    2652.5269   -38473.943     24.70529    238.69844 
    8100    136.37749   -905.71644    135780.61   -35859.786    2637.4719   -38497.257    24.916965    237.34366 
    8150    137.89944   -927.63716     135714.6   -35832.202    2666.9056   -38499.107    24.961155    239.99237 
    8200     138.4155   -737.10218    135651.91   -35859.204    2676.8859   -38536.089    25.129591    240.89049 
    8250    136.22181   -385.28466    135677.97   -35856.793    2634.4611   -38491.254    25.277369    237.07272 
    8300    137.56496   -698.54386     135629.6   -35840.554    2660.4369   -38500.991    25.494543    239.41026 
    8350    135.62229   -683.01336    135669.62   -35817.405    2622.8667   -38440.272    25.634491    236.02935 
    8400      136.368   -643.89812    135754.78   -35801.009    2637.2883   -38438.297    25.711993    237.32713 
    8450    136.76389   -683.07212    135782.94   -35821.904    2644.9446   -38466.848    25.826992    238.01612 
    8500    139.14229   -727.10573     135867.1   -35790.796    2690.9417   -38481.738    25.970455    242.15536 
    8550    140.42824    -1009.958    135837.05   -35749.036    2715.8114   -38464.847    26.073978    244.39336 
    8600    140.15055   -903.78231    135906.11    -35715.47    2710.4409   -38425.911    26.152679    243.91007 
    8650    140.47704   -546.89905    135882.56   -35700.012    2716.7552   -38416.767    26.397009    244.47829 
    8700    139.72212   -771.09477     135931.8   -35716.112    2702.1553   -38418.267    26.583475    243.16446 
    8750    139.95451   -865.03989    135879.17   -35791.184    2706.6496   -38497.833    26.709616    243.56889 
    8800    137.08393   -931.52955    135966.88   -35827.839     2651.134   -38478.973    27.149104     238.5731 
    8850    136.89162   -1141.4307    135922.61    -35839.79    2647.4148   -38487.205    27.241508    238.23841 
    8900    140.71421   -757.44359    135860.69   -35821.201    2721.3418   -38542.543     27.41019    244.89103 
    8950    134.74161   -807.34652     135815.1   -35840.861    2605.8349   -38446.696    27.448972    234.49667 
    9000      138.187   -578.56832    135859.29   -35786.329    2672.4669   -38458.795    27.762289    240.49282 
    9050    140.42285   -644.61643    135978.17   -35782.436     2715.707   -38498.143    28.084799    244.38397 
    9100    142.79204   -734.26657    136055.19   -35767.477    2761.5261   -38529.003    28.148138    248.50718 
    9150     140.2584   -637.55808    136164.35    -35757.57    2712.5268   -38470.096    28.155488    244.09778 
    9200     140.6771   -584.09101    136232.52   -35801.463    2720.6242   -38522.087      28.3125    244.82645 
    9250    138.36379   -625.65003    136301.13    -35882.99    2675.8859   -38558.876      28.4366     240.8005 
    9300     136.6718   -785.62311    136322.92   -35874.245    2643.1636   -38517.409    28.603216    237.85585 
    9350    138.60366   -765.05138    136250.71   -35858.087    2680.5249   -38538.612    28.680388    241.21796 
    9400    135.24262   -690.46886    136249.07   -35868.765    2615.5241   -38484.289    28.820636     235.3686 
    9450    140.68609   -826.62515    136211.43   -35837.107    2720.7981   -38557.905    28.802335    244.84211 
    9500    138.57437   -728.54258    136180.26   -35827.612    2679.9583   -38507.571    28.765161    241.16698 
    9550    139.46846   -668.50343    136212.89   -35794.986    2697.2497   -38492.235    28.973591    242.72301 
    9600    139.05789   -730.93417    136211.09   -35814.474    2689.3094   -38503.784    29.137636    242.00847 
    9650    138.58338   -761.40999    136254.94   -35805.495    2680.1326   -38485.627    29.331999    241.18266 
    9700    140.55061   -692.01702    136307.99   -35841.953    2718.1779   -38560.131    29.313401    244.60632 
    9750    138.78599   -809.57892    136403.88   -35853.182     2684.051   -38537.233    29.518411    241.53527 
    9800     135.7731   -820.77204    136495.82   -35898.428    2625.7833   -38524.212    29.608597    236.29181 
    9850    137.78757   -822.74725    136480.52   -35890.681    2664.7422   -38555.423    29.700968    239.79769 
    9900     138.0669   -677.08576    136496.71   -35868.114    2670.1443   -38538.258    29.816569    240.28382 
    9950    137.77494   -757.36005     136479.3   -35868.812    2664.4979    -38533.31    29.821386    239.77571 
   10000    138.63459   -861.55804    136510.24   -35902.406     2681.123   -38583.529    29.880943    241.27178 
   10050    135.95681    -718.3753    136451.74   -35938.522    2629.3362   -38567.859    29.938559    236.61153 
   10100     134.7824   -828.06072     136489.1   -35926.388    2606.6237   -38533.011    30.087441    234.56766 
   10150    136.80383   -764.40099    136434.87   -35953.074     2645.717   -38598.791    30.081527    238.08563 
   10200    136.75927   -907.48167    136445.48   -35996.999    2644.8554   -38641.854     30.10752    238.00809 
   10250    136.44785   -767.04051     136413.8    -36048.74    2638.8327   -38687.573    30.119555    237.46612 
   10300     134.0579   -975.17729    136355.49   -36058.384    2592.6122   -38650.996    30.186493    233.30678 
   10350    136.92522    -756.2019    136345.33   -35960.828    2648.0647   -38608.893    30.486609     238.2969 
   10400    137.02157   -918.01678    136350.04   -35992.878     2649.928   -38642.806    30.589032    238.46458 
   10450    135.24761     -774.386    136316.23   -35945.504    2615.6206   -38561.124    30.650743    235.37728 
   10500    138.47992   -833.96359    136234.57   -35930.991    2678.1319   -38609.123    30.891008    241.00261 
   10550    134.82072   -567.63375    136234.72   -35938.066    2607.3646    -38545.43    31.038519    234.63434 
   10600    138.56295   -601.36058     136219.9   -35895.941    2679.7376   -38575.678    31.157401    241.14712 
   10650    136.51434   -697.81029    136254.94   -35923.329    2640.1185   -38563.447    31.323161    237.58183 
   10700    135.22056   -763.67382    136227.22   -35928.643    2615.0975   -38543.741    31.382474    235.33021 
   10750    135.61762   -898.16347    136195.69   -35911.343    2622.7764   -38534.119    31.420475    236.02122 
   10800    135.34363   -811.84853    136137.57    -35936.25    2617.4776   -38553.728    31.549642    235.54439 
   10850    140.19766   -533.69366    136231.88   -35872.947     2711.352   -38584.299    31.601125    243.99206 
   10900    138.24068   -765.75176    136240.32   -35903.831    2673.5051   -38577.336    31.838239    240.58625 
   10950    135.58067   -818.99573    136299.32   -35853.738    2622.0617   -38475.799    31.864337    235.95691 
   11000    136.68523   -504.92131    136335.93   -35866.202    2643.4235   -38509.626    31.955466    237.87924 
   11050    138.56787   -861.82721    136347.44   -35897.847    2679.8327    -38577.68    32.094796    241.15567 
   11100     137.9907   -724.31924    136294.46   -35883.803    2668.6706   -38552.473    32.173806     240.1512 
   11150    139.48252   -898.28251    136265.48    -35837.08    2697.5215   -38534.602    32.284656    242.74747 
   11200     138.0888   -806.56942    136288.85   -35815.884    2670.5678   -38486.451    32.460165    240.32193 
   11250     140.5036   -729.73571     136356.2   -35789.752    2717.2688   -38507.021    32.494011    244.52451 
   11300     137.9592   -763.18074    136388.04   -35788.982    2668.0614   -38457.043    32.565684    240.09638 
   11350    139.41412   -829.95155    136414.11   -35789.563    2696.1987   -38485.762    32.836566    242.62843 
   11400    138.42741   -763.67044    136523.46   -35772.895    2677.1164   -38450.012    33.188404    240.91123 
   11450    139.90079   -850.74617    136643.95   -35783.097    2705.6106   -38488.708    33.435869     243.4754 
   11500    137.99874   -793.79938     136613.5   -35804.697     2668.826   -38473.523    33.683843    240.16519 
   11550    134.59099   -732.35314    136544.42   -35875.333    2602.9219   -38478.255    33.625488    234.23454 
   11600    137.39989   -890.01368    136495.44   -35911.018    2657.2447   -38568.263    33.558478    239.12299 
   11650    138.78243   -607.76893    136468.55   -35864.767    2683.9822    -38548.75    33.566452    241.52908 
   11700    135.92795   -723.32368    136597.55   -35882.447     2628.778   -38511.225    33.907495     236.5613 
   11750    136.33918   -831.27017    136546.91   -35868.712     2636.731   -38505.443     34.00833    237.27699 
   11800    134.70692   -1001.6636    136419.49   -35886.204    2605.1638   -38491.367     34.14653    234.43629 
   11850    134.95459   -789.28175    136395.43   -35884.766    2609.9537   -38494.719    34.209996    234.86733 
   11900    135.64789   -651.42421    136326.89   -35827.395    2623.3617   -38450.757    34.407659     236.0739 
   11950    135.37646   -758.14426    136239.37   -35845.195    2618.1124   -38463.308    34.469021    235.60152 
   12000    137.86026   -767.49455     136081.4   -35800.756    2666.1478   -38466.904    34.590414    239.92418 
   12050    136.40428   -691.79508    136193.96    -35829.89    2637.9901    -38467.88    34.765644    237.39029 
   12100    138.48143   -810.64883     136189.8   -35759.068     2678.161   -38437.229    34.971983    241.00524 
   12150    137.44172   -706.10387    136176.37   -35804.364    2658.0536   -38462.417     35.12184    239.19579 
   12200    138.16152   -739.75306    136165.58   -35787.409     2671.974   -38459.383    35.123058    240.44848 
   12250    138.14174   -993.82207     136135.7   -35791.139    2671.5915   -38462.731    35.339388    240.41405 
   12300    138.06345   -725.88037    136046.73   -35777.662    2670.0775   -38447.739    35.545621    240.27781 
   12350     137.4661   -851.82362    136001.93   -35785.514     2658.525   -38444.039    35.706559    239.23821 
   12400    138.29048   -699.82186    135968.69   -35751.026    2674.4682   -38425.494    35.696724    240.67292 
   12450    138.14025    -1002.419     135895.7   -35745.541    2671.5627   -38417.104    35.902943    240.41146 
   12500    135.05344   -835.70312    135811.66   -35710.716    2611.8654   -38322.581    36.211684    235.03935 
   12550    138.24865   -1078.2494    135825.19   -35708.495    2673.6592   -38382.154    36.383861    240.60012 
   12600    139.75289   -943.82121     135691.7   -35694.252    2702.7505   -38397.002    36.612703    243.21802 
   12650    139.97199   -684.92588    135685.13   -35676.348    2706.9876   -38383.335    36.801143    243.59932 
   12700    136.74222   -850.16373    135708.86   -35712.508    2644.5255   -38357.034    36.928638    237.97841 
   12750    137.59163   -726.50692    135685.59   -35734.996    2660.9528   -38395.949    37.295165    239.45668 
   12800    141.68056   -979.10906    135714.25   -35680.923    2740.0305   -38420.954    37.576464    246.57281 
   12850    139.60436   -889.73219    135758.86   -35669.227    2699.8779   -38369.105    37.793616    242.95952 
   12900    139.17813   -1007.1516    135727.16   -35678.498    2691.6349   -38370.133     37.93068    242.21774 
   12950    140.34327   -743.85682    135645.54   -35692.584    2714.1681   -38406.752    38.109732    244.24548 
   13000    137.96779   -690.96042    135687.27   -35700.737    2668.2274   -38368.964    38.084374    240.11132 
   13050    138.23253    -905.1078    135719.39   -35738.468    2673.3474   -38411.815    38.146731    240.57206 
   13100    136.16911   -752.93706       135824   -35737.814    2633.4418   -38371.256     38.42865      236.981 
   13150    136.44781    -849.1263    135760.13   -35719.682    2638.8319   -38358.514    38.533993    237.46605 
   13200    137.10786   -815.48879    135758.83   -35667.104    2651.5969   -38318.701    38.763602    238.61476 
   13250    140.84157    -901.6167    135668.81   -35673.588    2723.8048   -38397.393    38.765165    245.11268 
   13300    136.36735   -929.95294     135594.2   -35673.987    2637.2758   -38311.263    39.008219    237.32601 
   13350    141.26876   -918.78097    135661.04   -35649.628    2732.0666   -38381.695    39.240413    245.85615 
   13400    140.93625   -769.79245    135667.89    -35650.77    2725.6359   -38376.406    39.599352    245.27746 
   13450    139.21638   -758.74131    135751.58   -35699.907    2692.3745   -38392.281    39.768702     242.2843 
   13500    138.19576    -875.8168    135728.39   -35671.713    2672.6362    -38344.35    40.010091    240.50807 
   13550    140.21277   -1116.2112    135691.36   -35657.365    2711.6442    -38369.01    40.326541    244.01836 
   13600    136.33974   -668.39775    135532.16   -35674.832    2636.7418   -38311.574    40.435236    237.27796 
   13650    139.78796   -670.60741    135572.05   -35673.941    2703.4286    -38377.37    40.657394    243.27905 
   13700    139.42082   -825.22213    135541.89   -35680.455    2696.3283   -38376.783    40.808736     242.6401 
   13750    139.44486   -648.01752    135482.21   -35742.317    2696.7933    -38439.11     40.82339    242.68194 
   13800    136.06771    -699.8046    135508.75   -35723.718    2631.4808   -38355.199    40.828808    236.80453 
   13850    134.55066   -758.64729    135532.61   -35739.323    2602.1418   -38341.465    40.886508    234.16434 
   13900    136.01972   -709.07189    135529.93   -35723.993    2630.5528   -38354.546    40.990337    236.72102 
   13950    136.78255   -931.38897    135524.29   -35694.615    2645.3055   -38339.921    41.225653     238.0486 
   14000    139.10668   -1009.8526    135494.99   -35699.097     2690.253    -38389.35    41.320851    242.09339 
   14050    138.96261   -723.48559    135451.25   -35729.346    2687.4667   -38416.813    41.489559    241.84265 
   14100    136.92957   -624.24164    135451.46   -35733.725    2648.1489   -38381.874    41.720569    238.30447 
   14150    137.77624   -942.50249    135480.64   -35718.008    2664.5229   -38382.531    41.985851    239.77796 
   14200    138.67136   -738.82419    135432.58   -35757.627    2681.8342   -38439.461    41.997587    241.33578 
   14250    138.45819   -769.01481    135434.83   -35724.093    2677.7117   -38401.804    42.198338     240.9648 
   14300     137.8751   -872.97743    135324.18   -35676.879     2666.435   -38343.314     42.33144    239.95002 
   14350    137.76527   -564.84068    135257.27   -35691.591    2664.3107   -38355.902    42.328594    239.75886 
   14400    142.57913   -834.40819    135261.31   -35647.086    2757.4084   -38404.494    42.551059    248.13664 
   14450     139.3026   -610.26157    135238.22   -35645.897     2694.042   -38339.939    42.746759    242.43436 
   14500    135.70261   -420.46517    135328.59   -35764.685    2624.4199   -38389.105    42.853461    236.16913 
   14550    135.83421   -566.66506    135457.94   -35748.898    2626.9652   -38375.863    42.925247    236.39817 
   14600    135.54923   -597.10746    135560.23   -35736.087    2621.4538    -38357.54    43.098011    235.90221 
   14650    138.38124   -818.48916    135535.91   -35711.797    2676.2233    -38388.02    43.206371    240.83086 
   14700    137.38794   -683.35461    135574.23   -35687.518    2657.0134   -38344.531    43.247441    239.10218 
   14750    142.78429    -531.6358    135649.72     -35658.5    2761.3761   -38419.876     43.48114    248.49369 
   14800    139.24446   -729.43139    135718.98   -35673.426    2692.9177   -38366.344    43.898639    242.33318 
   14850    137.88359   -598.04992    135675.94   -35680.811    2666.5991    -38347.41    43.947575    239.96479 
   14900    138.77451   -640.89654    135634.94   -35735.329    2683.8291   -38419.159    44.112629     241.5153 
   14950    136.86042   -704.27754    135537.73   -35727.562    2646.8114   -38374.374    44.289727    238.18412 
   15000    136.61842   -622.09953    135475.97   -35751.172    2642.1313   -38393.303    44.349204    237.76295 
   15050    137.41141   -517.39443    135455.26   -35769.781    2657.4673   -38427.249     44.26951    239.14303 
   15100    138.42626   -577.74976    135543.56   -35756.563     2677.094   -38433.657    44.307455    240.90922 
   15150    138.45135   -537.68643    135619.11   -35774.284    2677.5794   -38451.864    44.467145    240.95289 
   15200    139.31737   -485.05646    135663.67   -35794.098    2694.3276   -38488.426    44.574429    242.46005 
   15250    138.71025   -767.56852    135650.04   -35732.358    2682.5863   -38414.945    44.586146    241.40346 
   15300    140.27471   -722.53342    135695.38   -35683.095    2712.8422   -38395.937     44.65159    244.12617 
   15350    140.65699   -908.11556    135719.64   -35630.957    2720.2353   -38351.192    44.762534    244.79146 
   15400    140.83637   -812.28989    135661.12   -35703.027    2723.7043   -38426.732     44.86459    245.10363 
   15450    137.51173   -902.34954    135626.84   -35722.526    2659.4075   -38381.933    44.816861    239.31763 
   15500    136.80119   -678.07486    135578.18   -35754.241     2645.666   -38399.907    44.850204    238.08104 
   15550    138.88156   -570.03054    135622.68   -35682.183    2685.8993   -38368.082    44.818145     241.7016 
   15600    138.75179   -778.70681    135668.86    -35648.87    2683.3896   -38332.259    45.106665    241.47575 
   15650    140.08772   -709.96535    135666.95   -35664.937    2709.2258   -38374.163     45.41028    243.80073 
   15700    138.96721   -619.89522    135654.59   -35646.396    2687.5557   -38333.951    45.615944    241.85065 
   15750    136.23948   -539.25719    135649.11   -35724.971    2634.8028   -38359.773    45.715411    237.10347 
   15800    136.00503   -420.03171    135659.65   -35702.357    2630.2686   -38332.625    45.838712    236.69545 
   15850    142.66036    -604.1286    135724.77   -35698.223    2758.9793   -38457.202    46.102321      248.278 
   15900    137.77675   -552.90359       135705   -35705.922    2664.5328   -38370.455    46.306672    239.77885 
   15950    137.00009   -560.47305    135714.16   -35730.102    2649.5127   -38379.614    46.272437     238.4272 
   16000    139.98474   -579.24183    135709.33   -35730.226    2707.2343   -38437.461    46.329952    243.62151 
   16050    139.51535   -526.18818    135730.43   -35633.511    2698.1565   -38331.668    46.474556    242.80461 
   16100     138.4695   -776.38972    135659.79   -35685.349    2677.9302   -38363.279     46.61267    240.98447 
   16150    141.11561   -868.42996    135616.56    -35701.22    2729.1047   -38430.324    46.661607    245.58961 
   16200    137.64596    -742.0442    135496.72   -35767.274    2662.0035   -38429.278    46.737814    239.55124 
   16250    135.83821   -634.63789    135537.05   -35758.536    2627.0425   -38385.578    46.977144    236.40513 
   16300    138.75681   -530.95923     135608.6   -35767.863    2683.4867    -38451.35    47.276166    241.48449 
   16350    137.94598   -374.32994    135763.38   -35808.896    2667.8057   -38476.701    47.621893    240.07337 
   16400     135.3666   -459.78372    135791.05   -35858.834    2617.9218   -38476.756    47.635123    235.58437 
   16450    134.95742    -450.7227     135841.1   -35829.549    2610.0084   -38439.557    47.741422    234.87224 
   16500    137.89902   -380.62741    135902.12   -35768.287    2666.8975   -38435.185    47.791556    239.99164 
   16550    137.11898   -743.47087    136002.61   -35737.845    2651.8119   -38389.657    47.960546     238.6341 
   16600     137.0492   -716.54824    136041.18   -35746.722    2650.4625   -38397.184    48.108066    238.51267 
   16650    139.44377   -573.22551    136088.38   -35691.695    2696.7722   -38388.467    48.319419    242.68004 
   16700    141.56205   -564.68025    136124.07   -35712.892    2737.7387   -38450.631    48.450676    246.36657 
   16750    137.30154   -494.62267    136226.95   -35725.743    2655.3424   -38381.085    48.519792    238.95181 
   16800     137.1791   -811.81856    136262.52   -35725.564    2652.9745   -38378.538    48.726727    238.73873 
   16850      138.063   -847.16454       136215   -35737.687    2670.0688   -38407.756     49.00919    240.27703 
   16900    139.25963   -790.05136    136217.61   -35758.732     2693.211   -38451.943    49.057411    242.35957 
   16950    138.50012   -881.30964    136213.67   -35742.071    2678.5225   -38420.593    49.176254    241.03777 
   17000    138.92844   -744.80701    136212.19   -35777.697     2686.806   -38464.503    49.302826    241.78319 
   17050    137.44686   -766.46457    136253.88   -35679.866    2658.1529   -38338.019    49.404246    239.20473 
   17100    139.20854   -598.63045     136222.4   -35682.204     2692.223   -38374.427    49.293639    242.27066 
   17150    139.62407   -717.25983    136228.95   -35711.496    2700.2591   -38411.755    49.468919    242.99382 
   17200    138.84269   -657.01715    136152.52   -35715.551    2685.1475   -38400.698    49.746346    241.63395 
   17250    140.48227   -643.15557    136151.56   -35710.182    2716.8562   -38427.038    49.905779    244.48738 
   17300    137.65946   -935.87183     136081.8   -35742.339    2662.2644   -38404.603    49.992514    239.57472 
   17350    136.39424   -542.11297    136021.64   -35778.485    2637.7958   -38416.281    50.084438    237.37281 
   17400    139.81604    -815.2177    136030.18   -35777.154    2703.9717   -38481.126    50.306352    243.32792 
   17450    139.83744   -698.45577    136043.62   -35726.913    2704.3855   -38431.298     50.34898    243.36515 
   17500    138.58548   -586.33909    136124.83   -35718.573    2680.1733   -38398.747    50.542505    241.18632 
   17550    139.49704   -295.62209    136091.37   -35752.238    2697.8024    -38450.04    50.699272    242.77274 
   17600    138.28174   -597.12133    136133.75   -35743.409    2674.2991   -38417.708    50.817576    240.65771 
   17650    139.94747   -783.62333    136042.05   -35739.049    2706.5134   -38445.562    50.812586    243.55664 
   17700    139.24063    -871.0897    135949.37     -35759.5    2692.8435   -38452.343    51.007836     242.3265 
   17750    138.42526   -747.03417    135814.51   -35757.979    2677.0747   -38435.053    51.010898    240.90748 
   17800    142.04161   -982.88585     135643.5   -35657.783    2747.0132   -38404.796    51.234552    247.20118 
   17850    137.99149   -573.78269    135709.25   -35668.389    2668.6858   -38337.074    51.597636    240.15257 
   17900    137.79012   -711.76275    135714.26   -35699.703    2664.7914   -38364.495    51.848933    239.80212 
   17950    139.81778   -692.96411    135727.26   -35693.819    2704.0054   -38397.824    51.978392    243.33094 
   18000    139.04951    -759.0765    135693.04   -35752.107    2689.1474   -38441.254    52.167556    241.99389 
   18050    138.58328   -773.92546     135622.9   -35672.623    2680.1307   -38352.754    52.590789    241.18248 
   18100    141.36027   -739.79238    135586.83   -35669.794    2733.8363    -38403.63    52.602991     246.0154 
   18150    139.22545   -703.60493    135593.97    -35669.61      2692.55    -38362.16    52.827244    242.30009 
   18200    139.74942   -642.05323    135612.54   -35710.219    2702.6832   -38412.902    53.013925    243.21197 
   18250    141.70579   -508.62603    135687.64   -35680.228    2740.5184   -38420.747    53.184045    246.61672 
   18300    141.70573      -617.18    135816.13   -35648.342    2740.5174   -38388.859    53.367273    246.61663 
   18350    138.49344   -722.78727    135889.58   -35688.332    2678.3932   -38366.725    53.530707    241.02613 
   18400    139.49422   -1047.4672    135929.51   -35708.604    2697.7479   -38406.352    53.674244    242.76784 
   18450    137.30557   -812.40608    135858.26   -35692.976    2655.4205   -38348.396    53.806551    238.95884 
   18500    139.51486   -787.59088    135830.05    -35687.34    2698.1471   -38385.487    53.873855    242.80377 
   18550    140.08825   -956.79234    135711.28   -35757.372    2709.2362   -38466.608    53.956339    243.80166 
   18600    137.09879   -831.07961    135640.64   -35750.609    2651.4214   -38402.031    54.162937    238.59896 
   18650    140.06536   -729.94831    135625.89   -35710.574    2708.7934   -38419.367    54.433121    243.76181 
   18700    137.24812   -865.15838     135537.7   -35752.955    2654.3093   -38407.264    54.608147    238.85885 
   18750    138.21016   -976.90081    135478.42   -35725.654    2672.9147   -38398.569    54.647527    240.53312 
   18800    138.16754   -593.45801    135555.11   -35748.214    2672.0906   -38420.304    54.816929    240.45896 
   18850    139.76324   -335.27504     135745.1    -35706.75    2702.9506   -38409.701    54.863488    243.23603 
   18900    140.82315    -858.3692    135696.73   -35711.909    2723.4486   -38435.357    54.828143    245.08063 
   18950    142.29865   -725.81474    135598.39   -35681.732     2751.984   -38433.716     55.12425     247.6485 
   19000    139.96628   -741.03498    135530.55   -35734.599    2706.8772   -38441.476    55.241254    243.58938 
   19050    138.49404   -671.76502    135547.09   -35739.974    2678.4048   -38418.379    55.223083    241.02718 
   19100    136.92872   -457.61591    135605.49   -35719.074    2648.1324   -38367.206    55.349463    238.30299 
   19150     141.2502    -519.8394    135682.07   -35714.313    2731.7075   -38446.021    55.640499    245.82384 
   19200    140.25437   -634.11244     135807.3   -35750.786    2712.4489   -38463.235     55.67527    244.09077 
   19250    137.85892   -829.22615    135858.63   -35791.616    2666.1219   -38457.738    55.944777    239.92185 
   19300    136.71387   -878.52824    135890.43   -35780.341    2643.9774   -38424.319    55.890348    237.92908 
   19350    138.88164    -694.0132    135790.86    -35751.56    2685.9009   -38437.461    56.195383    241.70174 
   19400    136.23858   -729.86014    135749.83   -35740.623    2634.7854   -38375.408    56.322536     237.1019 
   19450    136.53145   -684.51801       135787   -35726.815    2640.4493   -38367.265    56.512728     237.6116 
   19500    137.50071   -620.32609    135838.36   -35788.267    2659.1944   -38447.461    56.775159    239.29845 
   19550     135.5661   -790.12974    135868.39   -35784.759      2621.78    -38406.54    56.941917    235.93156 
   19600    140.37916   -712.55339    135975.14   -35749.602    2714.8621   -38464.464    57.199243    244.30793 
   19650    139.72922   -788.01997    136034.24   -35763.205    2702.2927   -38465.498    57.254134    243.17682 
   19700    137.69936   -902.52109    136052.37   -35752.737    2663.0361   -38415.773    57.348561    239.64416 
   19750    136.80857   -727.90269    136060.07   -35761.224    2645.8087   -38407.033    57.542859    238.09388 
   19800    137.27778   -803.12412     136114.9   -35785.171    2654.8831   -38440.054    57.599407    238.91048 
   19850    139.70518   -808.26749    136191.49   -35773.937    2701.8276   -38475.764    57.832565    243.13497 
   19900    135.10847   -858.49732    136201.29   -35788.331    2612.9297   -38401.261     58.07698    235.13513 
   19950    136.88953    -612.4849    136105.32   -35816.768    2647.3744   -38464.143    58.294934    238.23478 
   20000     136.5942   -700.19659    136084.56   -35774.257    2641.6629    -38415.92    58.396346    237.72081 
   20050    137.48667   -711.48838    136079.31   -35816.997    2658.9228    -38475.92    58.334072    239.27401 
   20100    139.11243   -566.01021    136101.16   -35782.672    2690.3643   -38473.036    58.796531     242.1034 
   20150    136.37176   -768.10268    136146.93   -35774.368    2637.3611   -38411.729     59.00959    237.33369 
   20200     140.5697   -794.08641     136205.1   -35773.295     2718.547   -38491.842    59.268887    244.63954 
   20250    138.11208   -1027.5242    136177.41   -35797.039    2671.0181   -38468.057    59.211082    240.36245 
   20300    139.45341   -1100.0513    136194.93   -35763.843    2696.9587   -38460.801    59.252007    242.69682 
   20350    138.90494   -777.66807    136078.19   -35775.728    2686.3515   -38462.079    59.300297    241.74229 
   20400    137.26942   -768.29841    136133.91   -35822.202    2654.7213   -38476.923    59.463518    238.89592 
   20450    136.26689   -788.67278    136180.57   -35843.893    2635.3329   -38479.226     59.55862    237.15118 
   20500    137.38695   -653.53772    136225.05   -35817.052    2656.9944   -38474.046    59.735598    239.10047 
   20550    137.87182   -959.81397    136275.45    -35813.67    2666.3715   -38480.042    59.658671    239.94431 
   20600    140.84878   -694.15031    136268.09    -35745.83    2723.9443   -38469.774      59.7254    245.12523 
   20650    138.74861   -935.04086    136280.67   -35746.309    2683.3281   -38429.637     59.72986    241.47022 
   20700    139.90292   -713.60091    136277.85    -35691.66    2705.6518   -38397.312    59.751909    243.47911 
   20750    138.38145   -622.23996    136332.46   -35713.642    2676.2274    -38389.87    59.982275    240.83123 
   20800    142.62247   -759.43518    136387.22   -35705.326    2758.2466   -38463.573    59.987884    248.21207 
   20850    140.99079   -687.78588     136387.2   -35682.897    2726.6907   -38409.588    60.117768    245.37238 
   20900    138.74818   -745.96204    136455.98   -35738.413    2683.3198   -38421.733    60.269996    241.46947 
   20950    137.82911   -635.78973    136360.55   -35778.565    2665.5454   -38444.111    60.429535    239.86997 
   21000    139.02378   -927.73587    136319.16    -35797.57    2688.6497    -38486.22     60.62762    241.94911 
   21050    139.31515   -844.29903    136239.16   -35839.402    2694.2847   -38533.686    60.698663    242.45619 
   21100    137.41891   -719.35812     136255.9   -35833.747    2657.6124    -38491.36    60.745007    239.15608 
   21150     139.4127   -1091.9586    136144.12   -35808.347    2696.1714   -38504.519    60.813407    242.62597 
   21200    138.28331   -646.00208    136105.77    -35825.31    2674.3294   -38499.639    60.954527    240.66044 
   21250    137.32439   -847.37876    136068.93   -35807.148    2655.7845   -38462.933     61.27935    238.99159 
   21300    137.84447   -781.65915    136002.69    -35850.62    2665.8424   -38516.463    61.516698     239.8967 
   21350    135.36234   -557.63513    135992.56    -35886.92    2617.8394   -38504.759    61.864555    235.57695 
   21400    138.64045   -753.99493     136001.1   -35858.046    2681.2363   -38539.282    61.877277    241.28198 
   21450    137.81247   -889.86457    135962.83   -35823.252    2665.2237   -38488.476    62.092897    239.84101 
   21500    138.92968    -836.2522    135905.96   -35802.625    2686.8299   -38489.455     62.35564    241.78534 
   21550    135.33624   -862.10823    135814.83   -35832.812    2617.3347   -38450.147    62.653522    235.53153 
   21600     139.5568   -533.08623    135724.14   -35832.695    2698.9582   -38531.654    62.927146    242.87675 
   21650    137.65681   -898.36643    135691.19   -35830.672    2662.2133   -38492.885    63.004957    239.57011 
   21700    135.61165   -809.93696    135668.01   -35863.274    2622.6609   -38485.935     63.22061    236.01084 
   21750    133.09392   -798.01707    135563.07   -35866.801    2573.9693    -38440.77    63.325296    231.62912 
   21800    135.08711   -644.92241    135462.48   -35891.377    2612.5165   -38503.893    63.240956    235.09795 
   21850    135.64454   -829.11722    135473.67   -35878.015     2623.297   -38501.312      63.3607    236.06807 
   21900    137.36999   -476.96349    135407.49    -35828.94    2656.6664   -38485.607    63.561176    239.07095 
   21950    137.32167   -575.42398    135427.77   -35828.222    2655.7318   -38483.954    63.659153    238.98685 
   22000    135.94547   -462.66593     135497.3   -35861.035    2629.1169   -38490.152    63.934263     236.5918 
   22050    137.13481   -536.43277    135597.63   -35834.174    2652.1181   -38486.292    64.256612    238.66166 
   22100    134.95421   -897.07268    135604.53   -35896.623    2609.9464   -38506.569    64.450107    234.86667 
   22150    136.97373   -509.86773    135620.46    -35855.93    2649.0029   -38504.933    64.545487    238.38132 
   22200    135.17142   -568.15618    135717.54   -35794.847    2614.1472   -38408.995    64.603935    235.24469 
   22250     138.7202   -1015.9931    135705.75   -35784.868    2682.7787   -38467.647    64.791841    241.42077 
   22300    137.93379   -604.95864    135707.03   -35812.259    2667.5699   -38479.829    64.893844    240.05215 
   22350    136.22778   -748.87853    135761.33   -35786.371    2634.5766   -38420.948     65.26517    237.08311 
   22400    137.29557   -766.14822    135838.95   -35840.727    2655.2271   -38495.955    65.368919    238.94143 
   22450    137.35842   -791.20478    135874.37   -35851.144    2656.4426   -38507.586    65.403934    239.05082 
   22500    136.25443   -679.82731    135884.92    -35894.75    2635.0919   -38529.842    65.420337    237.12948 
   22550     135.2566   -915.76052    135858.48   -35904.744    2615.7944   -38520.538    65.544873    235.39292 
   22600    134.05592   -766.95058    135875.38   -35905.512    2592.5739   -38498.086    65.799041    233.30333 
   22650    136.70556   -590.82478    135797.37   -35891.258    2643.8166   -38535.075    65.883779    237.91461 
   22700    137.00354   -649.50161    135804.62   -35857.059    2649.5794   -38506.638    66.003335     238.4332 
   22750    137.56096   -701.24114    135797.56   -35802.281    2660.3595   -38462.641    66.205396     239.4033 
   22800    136.97344    -519.1675    135839.16   -35836.961    2648.9972   -38485.959    66.193331    238.38081 
   22850    140.44166   -623.78784    135960.38   -35768.187    2716.0708   -38484.257    66.305099     244.4167 
   22900    139.36847   -746.92511    135974.47   -35761.633     2695.316   -38456.949    66.526273      242.549 
   22950    136.65646   -842.25842    135988.33    -35787.88     2642.867   -38430.747    66.524567    237.82916 
   23000    140.29296   -622.71927    135892.71   -35782.414     2713.195   -38495.609    66.811043    244.15791 
   23050    135.60419   -827.01989    135883.29    -35789.45    2622.5167   -38411.967    66.874638    235.99785 
   23100    139.33983    -562.1976     135927.3   -35758.088    2694.7621   -38452.851    67.208961    242.49915 
   23150    135.64106   -656.19084    135903.08   -35818.406    2623.2296   -38441.636    67.293027    236.06201 
   23200    138.85328   -703.96801    135957.85   -35769.617    2685.3523    -38454.97    67.620385    241.65238 
   23250    135.99538   -830.43728    135977.11   -35812.996    2630.0821   -38443.079    67.893789    236.67866 
   23300    138.89582   -857.21964    135948.28   -35786.113     2686.175   -38472.288     67.86051    241.72641 
   23350    139.24733   -778.61067    135920.77   -35743.933    2692.9731   -38436.907    67.981256    242.33816 
   23400    141.56921   -575.94537    135838.58   -35726.845    2737.8771   -38464.722    67.950955    246.37903 
   23450    140.36028   -570.91226    135785.82   -35793.348    2714.4971   -38507.845    67.834294    244.27508 
   23500    137.03612    -621.8109    135812.74   -35803.528    2650.2094   -38453.738    67.802581     238.4899 
   23550    134.86842   -792.18751    135845.56   -35864.682    2608.2871   -38472.969    67.903843    234.71735 
   23600    138.49309   -1026.5148    135790.82   -35877.736    2678.3865   -38556.123    67.972696    241.02553 
   23650    138.98189   -850.44153    135755.71   -35875.988    2687.8396   -38563.827    67.867625     241.8762 
   23700    136.26238   -973.00343    135815.24   -35812.077    2635.2457   -38447.323    68.014384    237.14333 
   23750    137.79195   -561.33125     135781.9   -35801.015    2664.8269   -38465.841     68.13255    239.80531 
   23800    138.07086   -942.42616     135688.9   -35812.894    2670.2208   -38483.115    68.371088    240.29071 
   23850     139.9145   -847.73238    135716.52   -35822.559    2705.8758   -38528.434    68.541418    243.49927 
   23900     135.4529   -630.08676    135673.86   -35843.349    2619.5908   -38462.939    68.575416    235.73455 
   23950    136.83894   -738.23597    135695.59    -35788.84    2646.3961   -38435.236    68.652502    238.14674 
   24000    135.99872   -620.32754    135717.08    -35819.51    2630.1466   -38449.657    68.680932    236.68447 
   24050    138.48069   -825.76989    135726.17   -35805.055    2678.1468   -38483.201    68.847794    241.00395 
   24100    136.90412   -959.10033     135638.9   -35805.408    2647.6567   -38453.064    68.985613    238.26018 
   24150    137.38324   -704.82183    135593.72    -35788.94    2656.9225   -38445.862    69.117615      239.094 
   24200    136.77771   -690.56833    135520.05   -35847.761    2645.2119   -38492.973    69.367495    238.04018 
   24250    135.79867   -675.39993     135554.5   -35854.764    2626.2778   -38481.042    69.503675    236.33631 
   24300     137.6515   -843.36987    135539.85    -35823.36    2662.1105   -38485.471    69.720034    239.56087 
   24350    135.14644   -750.07907    135523.22   -35845.071     2613.664   -38458.735    70.131298    235.20121 
   24400    137.22576   -815.26136    135457.74    -35848.78     2653.877   -38502.657    70.213681    238.81994 
   24450    135.80736   -676.85438    135451.08   -35888.298    2626.4459   -38514.744    70.365604    236.35144 
   24500    134.45095   -757.84558    135503.45    -35898.25    2600.2136   -38498.464    70.442303    233.99082 
   24550    136.05297   -772.50309    135483.23   -35885.113    2631.1957   -38516.309    70.411313    236.77888 
   24600    134.56014   -702.55781    135535.04   -35862.941    2602.3252   -38465.266    70.346801    234.18084 
   24650    139.60343   -694.08626    135612.17   -35839.776    2699.8599   -38539.636    70.505439     242.9579 
   24700    136.92223   -824.16739    135508.98    -35817.13    2648.0069   -38465.137    70.790241     238.2917 
   24750    138.60782   -579.99015    135559.83   -35754.667    2680.6054   -38435.272     70.63795     241.2252 
   24800      136.547   -730.22091    135594.24   -35739.703    2640.7501   -38380.453    70.936065    237.63866 
   24850    137.28092   -724.84811    135675.69   -35740.377    2654.9437   -38395.321    71.435396    238.91593 
   24900    136.25509   -941.95846    135655.28   -35705.011    2635.1047   -38340.115    71.307816    237.13064 
   24950    138.67971   -774.95398    135616.02   -35701.251    2681.9957   -38383.247    71.330571    241.35032 
   25000    137.76313   -909.80501    135663.92   -35657.795    2664.2695   -38322.065     71.72998    239.75515 
   25050    140.04241   -891.30647    135610.44   -35704.056    2708.3496   -38412.405    71.965908    243.72188 
   25100    139.82961    -1051.663    135517.99    -35671.07     2704.234   -38375.304    71.901028    243.35152 
   25150    144.44251   -830.26646    135500.92   -35670.243    2793.4452   -38463.688    71.845443    251.37955 
   25200    140.42123   -839.68322    135470.85   -35626.211    2715.6758   -38341.887    71.931146    244.38115 
   25250     137.5284   -1035.0991    135409.94   -35675.275    2659.7299   -38335.005    72.172256    239.34664 
   25300    138.55794   -991.51481    135345.39   -35696.357    2679.6407   -38375.998    72.124888    241.13839 
   25350     140.1168   -780.37551     135281.9   -35677.991    2709.7883   -38387.779    72.188873    243.85134 
   25400    137.40856   -714.92045    135184.82   -35702.883    2657.4121   -38360.295     72.10813    239.13806 
   25450    138.44486   -594.30122    135209.59   -35700.195    2677.4537   -38377.649    72.273152    240.94159 
   25500    137.64573   -640.29639    135258.03   -35698.549    2661.9989   -38360.548    72.337798    239.55083 
   25550    138.41972   -673.85635    135307.39   -35702.335    2676.9676   -38379.302    72.440009    240.89784 
   25600    138.30765   -1078.7696    135278.86   -35680.192    2674.8002   -38354.992    72.570841     240.7028 
   25650    141.36083   -782.64631    135256.51   -35646.027    2733.8472   -38379.874    72.401897    246.01639 
   25700    139.14931   -611.65621    135286.05   -35678.764    2691.0775   -38369.842    72.442489    242.16758 
   25750    138.48797    -614.1676    135281.71   -35673.239    2678.2875   -38351.526    72.624123    241.01662 
   25800    137.10049   -646.41444    135320.28   -35706.558    2651.4543   -38358.012    72.909388    238.60192 
   25850    138.94431   -699.18253    135353.69   -35667.498    2687.1129   -38354.611    72.979983     241.8108 
   25900    139.04038   -728.03889    135330.77   -35666.014    2688.9708   -38354.985    73.194142    241.97799 
   25950     136.5357   -570.54324     135312.1   -35679.731    2640.5315   -38320.263    73.628091    237.61899 
   26000    143.26059   -748.91956    135358.34   -35621.578    2770.5875   -38392.165    73.876387    249.32261 
   26050    139.02224   -764.96651     135444.5   -35657.772    2688.6199   -38346.392    74.037446    241.94643 
   26100    139.67059   -760.93491    135383.97   -35684.157    2701.1587   -38385.315    74.352846    243.07478 
   26150    140.42809   -1035.5856    135351.49    -35720.13    2715.8084   -38435.939    74.444373    244.39309 
   26200    139.54195   -771.76603     135380.4   -35774.724    2698.6709   -38473.395    74.706376    242.85091 
   26250    137.42821   -933.47769    135362.98   -35776.863    2657.7922   -38434.655    74.887679    239.17227 
   26300    138.91952    -882.6326    135223.91   -35740.338    2686.6335   -38426.972    74.870472    241.76766 
   26350    135.17917   -716.19974    135149.46   -35804.296    2614.2969   -38418.593    75.156559    235.25816 
   26400    136.35802   -641.94362    135157.98   -35780.842    2637.0953   -38417.937      75.6465    237.30977 
   26450    138.51276   -975.25569    135093.86   -35789.916    2678.7669   -38468.683    75.749062    241.05976 
   26500    136.68741   -907.15152    135043.96   -35788.002    2643.4656   -38431.467    75.909286    237.88302 
   26550    135.37523   -797.02519     134994.7   -35806.044    2618.0886   -38424.132    75.964929    235.59937 
   26600    140.01618   -673.33976    134971.63   -35772.485    2707.8423   -38480.327      76.2033    243.67623 
   26650    135.88784   -673.36693     134913.8    -35785.94    2628.0023   -38413.942     76.28119     236.4915 
   26700    139.23688   -742.22332    134926.53   -35781.379     2692.771    -38474.15    76.383246    242.31997 
   26750    137.82201   -741.43083    134935.05    -35838.04    2665.4082   -38503.449    76.424595    239.85762 
   26800    134.75253   -946.26258    134906.35   -35873.512    2606.0461   -38479.558    76.595911    234.51568 
   26850    137.15224   -730.28366    134834.85   -35805.949    2652.4552   -38458.404    76.761219    238.69199 
   26900    135.79304    -480.1979    134892.83    -35769.45    2626.1689   -38395.619    77.124915    236.32651 
   26950     138.5098   -782.09232    134920.32    -35777.84    2678.7096   -38456.549     77.23638     241.0546 
   27000    137.11595   -562.72537    134930.31   -35727.995    2651.7534   -38379.749    77.510825    238.62884 
   27050    138.13754   -506.52493    134984.74   -35717.062    2671.5104   -38388.573    77.692834    240.40676 
   27100     138.4442   -726.15012    134994.01   -35677.757     2677.441   -38355.198    77.956716    240.94045 
   27150    134.91822   -769.18484    135015.62   -35688.313    2609.2502   -38297.564    78.254874    234.80402 
   27200    138.42005   -419.65011    135065.83   -35717.723     2676.974   -38394.697    78.283404    240.89841 
   27250    139.41782    -539.5982    135102.91   -35716.491    2696.2703   -38412.762    78.151001    242.63487 
   27300    137.40337    -639.9336    135055.48   -35733.141    2657.3119   -38390.453     78.10849    239.12904 
   27350     137.2399   -374.67867    135039.32   -35680.006    2654.1505   -38334.157    78.134961    238.84455 
   27400    139.56428   -662.07358    135050.71   -35664.369    2699.1028   -38363.472    78.409056    242.88977 
   27450    140.96752   -700.81122    135079.75    -35699.64    2726.2407   -38425.881    78.366324    245.33188 
   27500    139.85718   -468.45616    135110.14   -35769.329    2704.7673   -38474.096    78.491316    243.39951 
   27550    135.19809   -615.02817    135192.59   -35764.581    2614.6629   -38379.244    78.619521     235.2911 
   27600     136.3909   -605.83566    135396.95   -35787.734    2637.7312   -38425.465    79.038326    237.36699 
   27650    138.41859   -802.05962    135525.53   -35771.426    2676.9456   -38448.371    79.241854    240.89587 
   27700    135.36575   -574.85606     135601.2   -35770.538    2617.9054   -38388.444    79.427303    235.58289 
   27750    135.21145   -968.05495    135641.76   -35721.634    2614.9212   -38336.555    79.455934    235.31434 
   27800    137.80625   -503.57493    135660.38    -35713.72    2665.1033   -38378.824    79.680561    239.83019 
   27850    137.47767   -801.25617    135698.06   -35685.704    2658.7488   -38344.452    80.005198    239.25835 
   27900    139.45926   -872.85962    135657.04   -35677.194    2697.0717   -38374.266    80.024341    242.70699 
   27950    138.04164   -694.21055    135700.28   -35706.646    2669.6557   -38376.302    80.109775    240.23985 
   28000    142.18089   -613.01768    135694.64    -35644.17    2749.7067   -38393.877    80.228503    247.44357 
   28050    137.55097   -720.83531    135679.52   -35722.558    2660.1663   -38382.724    80.649504    239.38591 
   28100    137.09829   -572.75695    135718.08   -35683.296    2651.4118   -38334.708    80.691158     238.5981 
   28150    139.47499   -752.49085    135690.05   -35671.816     2697.376   -38369.192    80.899515    242.73437 
   28200    138.80195   -904.10324    135758.12    -35701.88    2684.3596    -38386.24    81.225312    241.56304 
   28250    139.42293   -569.17769    135704.99   -35666.342    2696.3692   -38362.711    81.495766    242.64378 
   28300    139.07491   -809.97002    135646.35   -35659.895    2689.6387   -38349.534    81.693262     242.0381 
   28350    139.96116   -1007.2492    135520.55   -35643.138    2706.7782   -38349.917    81.866695    243.58047 
   28400    138.75408   -732.05697    135432.59   -35634.335    2683.4339   -38317.769    81.949866    241.47974 
   28450    138.33085   -570.10576    135471.54    -35655.22    2675.2488   -38330.469    81.899367    240.74317 
   28500     137.5372   -779.52695    135568.19    -35681.47       2659.9    -38341.37    82.121735    239.36195 
   28550    137.99169   -738.63315    135645.06   -35749.145    2668.6896   -38417.835     82.33141    240.15291 
   28600    139.78665   -703.03546    135671.16     -35761.5    2703.4034   -38464.904    82.625963    243.27677 
   28650    140.09451   -837.86762    135704.83   -35713.857    2709.3572   -38423.215     82.97978    243.81255 
   28700    138.49803   -1002.2892     135719.6    -35738.89     2678.482   -38417.372    82.986057    241.03412 
   28750     137.7677   -859.84541    135716.63    -35704.55    2664.3578   -38368.908    83.127798     239.7631 
   28800     137.3234   -942.15584    135668.03   -35748.089    2655.7652   -38403.854    83.209972    238.98986 
   28850    139.29371   -1088.4225    135656.03   -35721.869    2693.8701   -38415.739    83.295029    242.41888 
   28900    139.36448    -624.9576    135606.27    -35688.16    2695.2387   -38383.399    83.444723    242.54204 
   28950    143.07618   -690.66153    135509.87   -35687.914    2767.0211   -38454.935    83.490877    249.00167 
   29000     140.9825   -730.48505    135514.42   -35699.816    2726.5304   -38426.347    83.487765    245.35795 
   29050    139.29998   -555.62379    135484.41   -35689.503    2693.9913   -38383.494     83.47133    242.42979 
   29100    137.15725   -640.57008    135509.42    -35759.47    2652.5521   -38412.022    83.607284    238.70071 
   29150    137.73784   -706.26817    135498.83   -35751.637    2663.7804   -38415.417     83.72821    239.71114 
   29200    137.55806   -500.77684    135558.46   -35756.179    2660.3034   -38416.482    83.688681    239.39825 
   29250    134.33503   -606.22883    135544.67     -35851.3    2597.9718   -38449.272    83.806077    233.78908 
   29300    136.62472   -540.18225    135558.55     -35804.1    2642.2533   -38446.353    83.656722    237.77393 
   29350    137.78495   -580.66449    135571.61   -35840.317    2664.6915   -38505.009    83.454477    239.79313 
   29400    136.18626   -684.61818    135615.99   -35819.948    2633.7735   -38453.722    83.718145    237.01085 
   29450    134.07744   -670.08149    135695.46   -35886.271    2592.9901   -38479.261    83.946251    233.34078 
   29500    136.14261   -641.76468    135716.91   -35865.104    2632.9294   -38498.033     83.99134    236.93488 
   29550    136.75332   -698.18742    135736.59   -35865.769    2644.7403   -38510.509    83.990861    237.99773 
   29600    137.26518   -875.38935     135744.3   -35875.166    2654.6393   -38529.805    84.238051    238.88854 
   29650    136.59736    -480.2506    135730.95   -35845.266    2641.7241    -38486.99    84.488306    237.72631 
   29700     137.3285   -941.37674    135650.25   -35828.686     2655.864    -38484.55    84.809287    238.99874 
   29750     135.1925   -704.85673    135563.74   -35807.273    2614.5547   -38421.828    84.737252    235.28136 
   29800    135.33945   -698.78784     135600.1     -35826.1    2617.3968   -38443.497    84.596029    235.53712 
   29850    135.50956   -587.69281    135573.81   -35838.046    2620.6866   -38458.733    84.351147    235.83317 
   29900    134.95797   -593.74161    135673.53   -35865.979     2610.019   -38475.998    84.266806     234.8732 
   29950    136.64672   -571.21232     135745.2    -35872.21    2642.6786   -38514.889    84.289672    237.81221 
   30000    133.56085   -654.69268    135688.58   -35881.366    2582.9995   -38464.366    84.218624    232.44174 
   30050    133.56451   -479.67285    135667.52   -35893.107    2583.0702   -38476.177    84.143307    232.44811 
   30100    135.25002   -535.91737    135712.64   -35860.562    2615.6671   -38476.229     84.18116    235.38147 
   30150    136.97893   -614.80816    135689.63   -35832.923    2649.1034   -38482.027    84.223985    238.39037 
   30200    138.54384   -791.24263    135662.74   -35871.362    2679.3679    -38550.73     84.20404    241.11384 
   30250    137.22354   -796.01697     135743.4   -35805.199    2653.8341   -38459.033    84.490629    238.81608 
   30300    138.23164   -560.77728    135778.11   -35829.056    2673.3301   -38502.386    84.591528    240.57051 
   30350    137.46215   -553.65285    135827.21   -35819.573    2658.4487   -38478.022    84.603225    239.23134 
   30400    140.98915   -1077.4346    135828.64   -35811.031     2726.659    -38537.69    84.668724    245.36952 
   30450    137.30388   -764.88484    135763.54   -35791.526    2655.3878   -38446.914    85.022664    238.95589 
   30500    139.35759   -829.78445    135679.69   -35800.052    2695.1056   -38495.158    85.020015    242.53006 
   30550    136.98858   -905.47735     135674.2   -35859.121      2649.29   -38508.411    85.042597    238.40716 
   30600    137.92733   -739.86502    135652.17    -35827.97     2667.445   -38495.415    85.193961    240.04091 
   30650    139.08912    -547.4745    135723.78    -35838.19    2689.9134   -38528.104     85.47873    242.06282 
   30700    137.34967   -694.32946    135762.09   -35871.799    2656.2733   -38528.073    85.898429    239.03558 
   30750    135.26677    -606.5535    135784.11   -35888.066    2615.9911   -38504.057    86.033286    235.41062 
   30800    138.20788   -633.67108    135816.64   -35851.546    2672.8707   -38524.416    86.126905    240.52916 
   30850    137.98353   -621.43518    135818.24   -35854.574    2668.5318   -38523.106    86.409357    240.13872 
   30900    139.57922   -789.63847    135761.11   -35863.034    2699.3916   -38562.426    86.414537    242.91576 
   30950    138.64905    -864.1918    135705.64   -35841.324    2681.4026   -38522.727    86.571786    241.29694 
   31000     139.0257   -685.02406    135715.53   -35781.508    2688.6868   -38470.195     87.08833    241.95244 
   31050    138.51772   -647.63763    135758.35   -35797.287    2678.8629    -38476.15    87.002934     241.0684 
   31100    142.44058   -717.05213    135875.38   -35816.469    2754.7289   -38571.198    87.416484    247.89551 
   31150    137.35965    -749.4001    135977.92    -35793.93    2656.4663   -38450.396    87.361256    239.05295 
   31200    140.09862   -817.65321    135940.75   -35793.946    2709.4366   -38503.383    87.555162     243.8197 
   31250    139.26771   -821.67158    135902.56   -35783.222    2693.3674   -38476.589    87.806118    242.37364 
   31300    137.41478   -432.80821    136012.62   -35851.854    2657.5326   -38509.387    87.783446    239.14891 
   31350    136.07957   -708.68371    135969.75   -35804.289    2631.7102   -38435.999    87.888216    236.82517 
   31400    136.03591   -910.13716    135819.51   -35809.864    2630.8658    -38440.73    87.948494    236.74918 
   31450    139.41437   -717.94121    135824.57   -35758.388    2696.2036   -38454.592    88.236517    242.62887 
   31500    134.96403   -842.18192    135837.99   -35762.082    2610.1363   -38372.218    88.492339    234.88376 
   31550    134.70491   -814.18172    135757.63   -35815.936     2605.125   -38421.061    88.339864    234.43279 
   31600    138.94636   -786.06675    135766.75   -35778.295    2687.1525   -38465.448    88.601783    241.81437 
   31650    138.59838   -635.48827    135683.64   -35764.326    2680.4227   -38444.749    88.692967    241.20877 
   31700    138.66605   -823.64243    135679.34    -35774.97    2681.7315   -38456.701    88.891914    241.32654 
   31750    136.58883   -804.69528    135654.35   -35795.917     2641.559   -38437.476    88.941397    237.71146 
   31800    135.31287   -639.62276    135650.64   -35843.105    2616.8827   -38459.988    89.046413    235.49086 
   31850    134.61951   -763.05669    135660.94   -35896.093    2603.4735   -38499.567    89.331945    234.28417 
   31900     134.1482   -847.76068    135614.77   -35837.419    2594.3585   -38431.777    89.465677    233.46392 
   31950    136.02684   -802.13042    135592.97   -35771.468    2630.6906   -38402.158    89.753182    236.73341 
   32000    139.87664   -862.55127    135608.35   -35759.473    2705.1436   -38464.617    90.061936    243.43338 
   32050    136.09846   -876.64447    135603.12   -35787.011    2632.0756   -38419.087    90.317742    236.85806 
   32100    135.23799   -917.97103    135508.93   -35805.329    2615.4345   -38420.764    90.404913    235.36054 
   32150    137.29837   -909.29114    135409.28   -35733.804    2655.2812   -38389.085    90.684934     238.9463 
   32200    135.19991   -920.33672    135363.49   -35733.499    2614.6981   -38348.197    91.128818    235.29426 
   32250    139.23056   -805.73901    135168.98   -35661.667    2692.6488   -38354.316    91.280366    242.30898 
   32300    139.32717   -797.54528    135112.42   -35616.192    2694.5173   -38310.709    91.588077    242.47712 
   32350    141.18992   -485.12723    135086.02   -35583.061    2730.5417   -38313.603    91.681664    245.71893 
   32400    138.98238   -807.89594    135084.99   -35600.292    2687.8492   -38288.141    91.671314    241.87707 
   32450    140.41375   -704.00353    135095.45   -35584.697    2715.5311   -38300.228    92.016687    244.36814 
   32500    139.20143   -809.32207    135124.48   -35601.824    2692.0855   -38293.909    92.352818    242.25829 
   32550    141.51695   -648.19218    135113.16   -35580.419    2736.8665   -38317.285    92.186165    246.28808 
   32600    140.83859   -734.73899    135165.44   -35523.596    2723.7472   -38247.343    92.197176     245.1075 
   32650    136.55206   -785.85421    135183.77   -35592.915    2640.8479   -38233.762    92.406391    237.64746 
   32700    136.33474   -713.39432    135171.94   -35657.402     2636.645   -38294.047    92.346254    237.26925 
   32750    135.90041   -850.25021    135140.75   -35724.226    2628.2455   -38352.472    92.164602    236.51338 
   32800    137.43497   -746.94892    135215.04   -35744.141     2657.923   -38402.064    92.113568    239.18404 
   32850    137.04313   -768.82975    135267.12   -35744.598     2650.345   -38394.943    92.195326     238.5021 
   32900    137.82388   -774.69683    135294.02   -35709.536    2665.4442    -38374.98    92.383533    239.86087 
   32950    138.55776   -856.94135    135286.88   -35705.268    2679.6372   -38384.905     92.50383    241.13808 
   33000     137.9673   -793.84524    135221.67   -35683.097    2668.2181   -38351.315    92.323443    240.11048 
   33050    137.85478   -850.64564    135163.27   -35669.917    2666.0419   -38335.959    92.464786    239.91465 
   33100    139.98694   -706.63146    135120.48   -35637.836    2707.2768   -38345.113    92.611151    243.62533 
   33150    137.95205   -953.34487    135117.99     -35637.9     2667.923   -38305.823    92.830979    240.08393 
   33200    141.46492    -714.8648     135105.5   -35621.305    2735.8602   -38357.165    93.083648    246.19754 
   33250     137.9554    -644.5267    135186.26   -35650.087    2667.9878   -38318.075    93.003607    240.08975 
   33300    138.25665   -794.46295    135136.92   -35661.887    2673.8139   -38335.701    93.434472    240.61404 
   33350    136.60439    -559.0638    135189.38   -35670.247    2641.8599   -38312.107    93.766978    237.73854 
   33400    138.44758   -864.19966    135247.83   -35674.941    2677.5063   -38352.447    94.022077    240.94632 
   33450    137.53742   -775.43961    135279.12   -35683.587    2659.9044   -38343.492    94.270784    239.36234 
   33500    137.48775    -582.7037     135235.2   -35703.296    2658.9436   -38362.239    94.710234    239.27588 
   33550    137.29213   -1000.4035    135217.88   -35679.619    2655.1605   -38334.779    94.716771    238.93544 
   33600    134.84118   -692.92658    135215.88   -35692.576    2607.7604   -38300.336    94.934519    234.66995 
   33650    133.26428   -390.45247    135237.88   -35761.612    2577.2639   -38338.876    95.156243     231.9256 
   33700    137.67543   -810.44781    135257.04   -35780.666    2662.5734   -38443.239    95.478467    239.60252 
   33750     134.6394   -1028.3673    135223.54   -35844.435    2603.8581   -38448.293    95.365443    234.31879 
   33800    133.83535   -785.92704    135184.38   -35799.883    2588.3081   -38388.192    95.383258    232.91945 
   33850    136.00245    -653.9361    135168.61   -35797.753    2630.2187   -38427.971    95.561952    236.69095 
   33900     135.8889   -891.40944    135231.56   -35773.472    2628.0229   -38401.494    95.758918    236.49335 
   33950     136.7301   -664.44163    135289.06    -35764.33    2644.2912   -38408.621     95.94936    237.95732 
[...]
   92000    136.79758    -472.5986    135168.51   -35734.725    2645.5961   -38380.321    275.26762    238.07475 
   92050    139.76683    -837.3074    135132.76   -35753.867    2703.0201   -38456.887    275.21156    243.24228 
   92100    138.48713   -587.04249     135075.4   -35770.895    2678.2712   -38449.167    275.87628    241.01515 
   92150    137.15297   -541.40954    135102.99   -35776.334    2652.4692   -38428.804    275.87277    238.69325 
   92200    138.24632   -600.57525    135203.94   -35740.986    2673.6142     -38414.6    275.95546    240.59607 
   92250    138.49806   -664.90073    135299.01   -35728.516    2678.4826   -38406.999    276.60819    241.03417 
   92300     138.1889   -673.25686     135208.2   -35695.342    2672.5036   -38367.845    276.50989    240.49613 
   92350    140.91245   -786.15664    135169.35   -35687.613    2725.1757   -38412.789    277.12817    245.23604 
   92400    137.83204   -860.87522    135178.45   -35701.675    2665.6021   -38367.277    277.09919    239.87507 
   92450    135.94097    -755.9796       135060   -35742.217    2629.0298   -38371.247    277.53843    236.58397 
   92500    133.29449   -661.29889    135024.73   -35724.919    2577.8483   -38302.767    277.90704    231.97819 
   92550    135.95936   -762.77696    134993.75   -35713.832    2629.3855   -38343.217    277.92282    236.61597 
   92600    134.93122   -721.89402    134980.48   -35714.555    2609.5017   -38324.057    278.19833    234.82665 
   92650    137.46374   -657.45501    134930.59   -35727.554    2658.4794   -38386.033    278.63182     239.2341 
   92700    137.25279   -746.98277    134914.79   -35793.525    2654.3998   -38447.925     279.2287    238.86698 
   92750    137.11665   -931.91114    134827.99    -35803.46    2651.7668   -38455.227    279.21023    238.63005 
   92800    137.67107   -712.60622    134760.63   -35767.188     2662.489   -38429.677    278.98823    239.59493 
   92850    136.43812   -760.62902    134817.81   -35781.237    2638.6444   -38419.882    279.33753    237.44917 
   92900    136.47716   -580.75315    134846.71   -35776.683    2639.3995   -38416.083    279.35548    237.51712 
   92950    139.92689   -703.79763    134911.03   -35719.494    2706.1154   -38425.609    279.49699    243.52082 
   93000    137.92368   -593.12142     135031.3   -35723.471    2667.3744   -38390.845    279.37086    240.03456 
   93050    139.46685   -631.80581    135057.72   -35634.683    2697.2186   -38331.902    279.83261    242.72021 
   93100    138.80721   -607.71915    135100.51   -35599.479    2684.4615    -38283.94    280.17754    241.57221 
   93150     137.0327   -624.97785    135168.16   -35595.582    2650.1434   -38245.726    280.52264    238.48395 
   93200     142.0632   -763.57003    135086.73   -35642.145    2747.4306   -38389.576    281.09996    247.23874 
   93250    140.02585   -677.92732    135105.02   -35594.736    2708.0293   -38302.765     281.3806    243.69305 
   93300    140.74555   -731.92199    135145.72   -35548.287     2721.948   -38270.235    281.97578    244.94559 
   93350     139.8541   -618.84014    135178.28   -35590.177    2704.7077   -38294.884    282.30855    243.39415 
   93400    140.23904    -740.7766    135197.31    -35619.59    2712.1524   -38331.743    282.39275    244.06409 
   93450    140.81137    -683.1792    135204.65   -35602.908    2723.2209   -38326.129    282.45152    245.06013 
   93500     140.4798   -837.05475    135268.45   -35557.686    2716.8085   -38274.495    282.76684    244.48308 
   93550    140.09396   -530.86588    135319.48   -35622.175    2709.3465   -38331.522    282.80677    243.81159 
   93600    139.22251   -861.07348    135375.44   -35623.328    2692.4931   -38315.821    283.02935    242.29497 
   93650    139.35796   -859.14419    135376.84   -35703.706    2695.1126   -38398.819    283.36599    242.53069 
   93700    136.68063    -713.2778     135374.8   -35734.053    2643.3345   -38377.388    283.08186    237.87123 
   93750    136.36183   -981.36562    135325.48   -35740.136    2637.1689   -38377.305    283.15383     237.3164 
   93800    137.52131   -724.10838    135295.51   -35764.514    2659.5928   -38424.107    283.33117     239.3343 
   93850    139.51652   -818.71091     135309.9   -35767.357    2698.1791   -38465.536    283.38514    242.80664 
   93900    139.78265   -790.63171    135251.67   -35744.707     2703.326   -38448.033    283.25373    243.26981 
   93950    140.17195   -1016.0848    135205.66   -35754.744    2710.8549   -38465.599     283.5924    243.94732 
   94000    135.11131   -950.53246    135098.72   -35742.509    2612.9845   -38355.494    283.26206    235.14007 
   94050    138.05386   -620.81324    135066.71   -35744.188     2669.892    -38414.08    283.02231    240.26112 
   94100    138.98801   -724.68905    135007.38   -35719.022     2687.958    -38406.98     283.1817    241.88686 
   94150    135.32145   -852.34214    134906.94   -35795.533    2617.0486   -38412.582    283.26859    235.50579 
   94200    134.89627   -547.74581    134968.98   -35831.873    2608.8259   -38440.699    283.22753    234.76583 
   94250    136.83571   -596.67612     135000.2   -35800.742    2646.3336   -38447.075    283.11431    238.14112 
   94300    136.76048   -711.43497    135022.93   -35838.366    2644.8787   -38483.245    283.57327    238.01019 
   94350    136.61138    -609.3267    135040.16   -35777.286    2641.9953   -38419.281    284.11539    237.75071 
   94400     138.7144   -934.79217    135040.56   -35766.651    2682.6666   -38449.318    284.22769    241.41069 
   94450    137.40647   -591.00684    135129.77   -35729.194    2657.3719   -38386.566    284.75159    239.13444 
   94500    137.16854   -808.02891    135144.13   -35736.126    2652.7704   -38388.897    284.71926    238.72035 
   94550    135.03772   -738.93689    135145.32   -35839.908    2611.5614   -38451.469    284.75438      235.012 
   94600     135.0154   -752.32419    135217.62   -35795.083    2611.1297   -38406.213    285.37762    234.97315 
   94650    135.20336    -759.3842    135077.68    -35780.73    2614.7647   -38395.495    285.58796    235.30026 
   94700    138.12206   -910.53592    134984.43   -35753.839    2671.2111    -38425.05     285.6478    240.37982 
   94750     138.0329   -518.39897    134987.58    -35766.28    2669.4866   -38435.766    285.81999    240.22463 
   94800    138.11546   -369.16715    135084.84   -35761.128    2671.0834   -38432.211    286.12061    240.36832 
   94850    133.31505   -772.51435    135079.46   -35748.942    2578.2458   -38327.187    286.64286    232.01396 
   94900    134.06368   -964.19764    134990.96    -35790.06     2592.724   -38382.784    286.68892    233.31684 
   94950    134.53026   -854.32744    134907.68   -35790.334    2601.7473   -38392.081    287.11303    234.12884 
   95000    136.82655   -745.32776    134879.43   -35807.351    2646.1565   -38453.508    287.33821    238.12518 
   95050    138.37036   -787.66586    134846.74   -35739.726     2676.013   -38415.739    287.59474    240.81193 
   95100    137.22743   -632.00146    134859.46   -35735.409    2653.9092   -38389.318    288.10682    238.82284 
   95150    135.25829    -450.4886    134895.43   -35753.429    2615.8271   -38369.256    288.37231    235.39587 
   95200    137.39065   -503.43508    135071.92    -35725.31    2657.0659   -38382.376    288.46646    239.10691 
   95250    138.10599   -633.29417    135084.67   -35735.713    2670.9001   -38406.613    288.94113    240.35184 
   95300    137.18476   -643.22532    135206.82   -35709.972     2653.084   -38363.056    289.29871    238.74858 
   95350    136.42828   -679.76694    135315.81   -35714.663    2638.4541   -38353.117    289.63841    237.43205 
   95400    137.23708   -755.52279    135313.68   -35736.958    2654.0959   -38391.053    290.02597    238.83964 
   95450    137.63313   -453.83367    135387.55   -35732.286    2661.7552   -38394.041    290.97153     239.5289 
   95500    138.48571   -534.61002    135427.21   -35722.278    2678.2437   -38400.521     291.1957    241.01268 
   95550    138.45914   -743.03267    135404.73   -35722.657      2677.73   -38400.387    291.27605    240.96645 
   95600    137.61574   -401.06812    135551.52   -35685.609     2661.419   -38347.028    291.42021    239.49864 
   95650    138.20711   -864.16197    135540.73   -35710.859    2672.8557   -38383.715    291.41521    240.52782 
   95700    135.37718   -794.76389    135619.22   -35725.567    2618.1263   -38343.694    291.61405    235.60277 
   95750    135.96199   -828.88882     135587.8   -35709.784    2629.4363   -38339.221    292.13595    236.62055 
   95800    134.42746   -1205.2217    135537.57   -35797.891    2599.7592    -38397.65    292.21881    233.94993 
   95850    136.49165   -814.67092    135432.02   -35742.508    2639.6797   -38382.187    292.37105    237.54234 
   95900    138.52211   -558.78232    135456.87   -35728.617    2678.9477   -38407.565    293.42092    241.07603 
   95950    135.29411   -375.64721    135550.96   -35739.164    2616.5199   -38355.684    293.65632    235.45821 
   96000    136.69927   -740.19041    135631.77   -35753.779     2643.695   -38397.474    294.26121    237.90367 
   96050    139.71402   -982.70854    135607.71   -35805.192    2701.9986   -38507.191    294.44064    243.15036 
   96100    136.81332   -814.69733    135457.21   -35771.201    2645.9006   -38417.102    294.62267    238.10215 
   96150    137.61814   -538.53028    135423.59   -35728.758    2661.4655   -38390.223    294.39593    239.50282 
   96200    139.96756   -594.80489    135413.62   -35765.529    2706.9019    -38472.43    294.61854    243.59161 
   96250    137.75372   -822.37615    135424.32   -35753.266    2664.0874   -38417.353    294.88971    239.73876 
   96300      138.259   -682.23912    135443.32   -35777.964    2673.8594   -38451.823    295.46405    240.61814 
   96350    138.51369   -752.80641    135399.45    -35783.55    2678.7849   -38462.335    295.42885    241.06138 
   96400    139.00617   -1029.8087    135371.59   -35750.608    2688.3093   -38438.917    295.27951    241.91847 
   96450     139.1372   -981.61295    135371.32   -35715.948    2690.8433   -38406.792    295.08179    242.14651 
   96500     138.7728   -569.66883    135444.25   -35727.258    2683.7959   -38411.054     294.8869    241.51232 
   96550    137.02352   -655.80668    135475.14   -35767.811    2649.9658   -38417.776    294.63921    238.46798 
   96600    133.77817   -901.28488    135513.84   -35814.352    2587.2023   -38401.555    294.66121    232.81994 
   96650    138.41275   -813.77713    135550.57   -35777.327    2676.8329    -38454.16    294.46264    240.88572 
   96700    137.07365   -566.57842    135481.55   -35776.305    2650.9352    -38427.24    293.96093    238.55521 
   96750    136.34052   -757.24764    135494.54   -35759.501    2636.7569   -38396.258     294.2023    237.27932 
   96800    139.43029   -668.24401    135428.52   -35741.268    2696.5116   -38437.779    293.88089    242.65658 
   96850    136.25491    -803.9231    135379.83   -35739.338    2635.1013   -38374.439    294.18409    237.13033 
   96900    136.93613   -737.13327    135378.69   -35772.948    2648.2757   -38421.224    294.07102    238.31588 
   96950     137.5227   -922.91275    135320.44   -35759.026    2659.6196   -38418.646    294.14922    239.33672 
   97000     136.8861    -684.6407    135320.58   -35766.286    2647.3082   -38413.594    294.16767    238.22882 
   97050    139.34388    -717.2576    135242.05   -35754.064    2694.8403   -38448.904    294.06599    242.50619 
   97100    139.77256   -621.79991    135290.45   -35771.663    2703.1308   -38474.794    294.14283    243.25224 
   97150    141.50708     -773.758    135326.21   -35798.157    2736.6755   -38534.833    294.54165     246.2709 
   97200    137.25604   -751.26763    135271.04   -35830.178    2654.4627   -38484.641    294.31984    238.87264 
   97250    137.21407   -764.20058    135264.26   -35827.491     2653.651   -38481.142    294.16007     238.7996 
   97300    137.73151   -764.35513    135223.49   -35835.528     2663.658   -38499.186    294.46416    239.70012 
   97350    136.52748   -474.90471    135277.63   -35820.743    2640.3725   -38461.116    294.63195    237.60469 
   97400     134.9615   -584.98425    135393.19   -35788.117    2610.0874   -38398.204    294.58187    234.87935 
   97450    137.80819   -656.15134    135454.65   -35780.094    2665.1408   -38445.235    294.51827    239.83356 
   97500    137.54028   -665.67123    135547.69   -35784.026    2659.9597   -38443.986    294.68587    239.36731 
   97550    137.10101   -744.15426    135479.45    -35792.63    2651.4643   -38444.094    295.06816    238.60282 
   97600    137.11682   -539.30615    135428.47   -35821.019    2651.7701   -38472.789    295.23246    238.63034 
   97650    138.26625   -639.80993    135359.16   -35815.609    2673.9996   -38489.608    295.50358    240.63075 
   97700    135.98325   -509.92003    135364.98   -35815.982    2629.8474    -38445.83    295.42266    236.65754 
   97750    134.90729   -823.97263    135380.49   -35828.245     2609.039   -38437.284    295.18401    234.78501 
   97800    137.37574   -687.74436     135340.5   -35762.664    2656.7775   -38419.441     295.2556    239.08095 
   97850    138.27319   -733.49711    135305.83   -35763.295    2674.1338   -38437.429    295.21586    240.64283 
   97900    138.83607   -564.48647    135293.48   -35742.485    2685.0195   -38427.505    295.14405    241.62242 
   97950    137.03505   -767.19112    135298.78   -35753.869    2650.1887   -38404.058    295.28557    238.48803 
   98000     137.6005   -577.38812    135371.68   -35780.593    2661.1242   -38441.718    294.95165    239.47211 
   98050    134.00104   -666.34677    135453.88   -35797.662    2591.5124   -38389.174     295.5317    233.20781 
   98100    139.19751   -638.37087    135468.99    -35739.65    2692.0097    -38431.66    296.06578    242.25147 
   98150    136.41285   -678.74788    135516.95   -35774.111    2638.1558   -38412.267    296.17367     237.4052 
   98200    138.09595   -750.75279    135558.26   -35768.794    2670.7061     -38439.5    296.29616    240.33437 
   98250    139.36624   -658.31064     135529.2   -35754.395    2695.2727   -38449.668    296.90864     242.5451 
   98300    139.35382    -634.3338    135579.17   -35738.224    2695.0325   -38433.256    297.19623    242.52349 
   98350    139.02738   -583.59891    135496.88   -35735.846    2688.7195   -38424.566    297.81459    241.95538 
   98400    138.48097   -838.33133    135523.87   -35749.973    2678.1521   -38428.125    297.96803    241.00444 
   98450    135.97807   -830.11776    135528.02   -35768.892    2629.7472   -38398.639    297.87076    236.64853 
   98500    137.58467    -675.1447    135463.58   -35767.665    2660.8181   -38428.483    297.72835    239.44456 
   98550    137.38735   -933.08568    135402.56   -35764.304    2657.0021   -38421.306    298.15084    239.10116 
   98600    136.41353   -872.06815    135353.08   -35738.426    2638.1689   -38376.595     298.7013    237.40639 
   98650    137.89797   -794.05164    135345.95    -35710.45    2666.8772   -38377.327    298.81512    239.98981 
   98700    134.92289   -815.22181    135278.52   -35716.734    2609.3407   -38326.074    298.76836    234.81216 
   98750    136.74018   -808.08554     135217.3   -35675.522    2644.4861   -38320.008    298.61331    237.97486 
   98800    137.34378   -713.00732    135179.82   -35650.356    2656.1594   -38306.516    299.03409    239.02533 
   98850    141.15119   -802.37178    135101.37   -35635.079    2729.7928   -38364.871    299.37764    245.65153 
   98900    134.70847    -557.5491    135074.95   -35661.784     2605.194   -38266.978    300.04087      234.439 
   98950    137.45123   -439.62726    135064.84    -35647.02    2658.2375   -38305.258    299.89642    239.21234 
   99000    135.63836   -593.37305    135059.33   -35694.989    2623.1775   -38318.167     300.3504    236.05732 
   99050    138.49168   -624.23193    135035.63   -35669.249    2678.3592   -38347.608    300.96024    241.02307 
   99100    140.25784    -402.0239    135126.97   -35700.595    2712.5159   -38413.111    301.42158     244.0968 
   99150    136.58644   -575.31363    135157.36   -35688.646    2641.5129   -38330.159    301.85975     237.7073 
   99200    137.81739   -656.25591    135132.07   -35671.338    2665.3189   -38336.657    301.64709    239.84959 
   99250    140.49751   -365.15921    135107.78    -35645.58    2717.1509   -38362.731    301.71656     244.5139 
   99300    136.62675   -752.03564    135078.44   -35712.006    2642.2924   -38354.298    302.26977    237.77745 
   99350    137.73174   -727.30924    135062.06   -35742.748    2663.6625    -38406.41    302.34101    239.70053 
   99400    135.39684   -678.92116    135087.42   -35774.311    2618.5067   -38392.818    302.26377      235.637 
   99450    136.27265   -937.92831    135055.09   -35725.253    2635.4444   -38360.697    302.25738    237.16121 
   99500     136.2168   -891.31503     135036.5   -35726.544    2634.3642   -38360.908    302.27189      237.064 
   99550    138.02357   -742.64965    135033.56    -35754.49    2669.3062   -38423.796    302.29211     240.2084 
   99600    137.58505   -504.72364    135056.04   -35725.848    2660.8256   -38386.674    302.65391    239.44523 
   99650    137.95466   -754.68658    135053.79   -35694.776    2667.9735   -38362.749    302.95469    240.08848 
   99700    139.19753    -568.5614    135019.34   -35682.022      2692.01   -38374.032    302.79202    242.25149 
   99750    135.60473   -656.87445    135072.62   -35744.839    2622.5271   -38367.367    303.25336    235.99879 
   99800    137.47644   -584.26022    135112.24   -35746.608     2658.725   -38405.333    303.49531    239.25621 
   99850    138.32256   -732.64856    135203.65   -35681.947    2675.0886   -38357.035    304.27387    240.72876 
   99900    135.98693   -581.86088    135176.78   -35718.408    2629.9187   -38348.327    304.46489    236.66396 
   99950    138.24183   -597.23363    135258.14   -35730.114    2673.5273   -38403.642    304.80984    240.58825 
  100000    140.00121   -631.04331     135338.4   -35712.162    2707.5528   -38419.715    304.91984    243.65018 
Loop time of 124.124 on 160 procs for 100000 steps with 6489 atoms

Performance: 348.040 ns/day, 0.069 hours/ns, 805.648 timesteps/s
98.0% CPU use with 160 MPI tasks x no OpenMP threads

MPI task timing breakdown:
Section |  min time  |  avg time  |  max time  |%varavg| %total
---------------------------------------------------------------
Pair    | 14.561     | 34.168     | 91.494     | 523.4 | 27.53
Neigh   | 0.37129    | 0.77562    | 2.4608     |  78.1 |  0.62
Comm    | 9.2884     | 34.058     | 93.807     | 565.2 | 27.44
Output  | 0.18757    | 0.19052    | 0.31945    |   2.4 |  0.15
Modify  | 8.372      | 53.794     | 96.876     | 574.1 | 43.34
Other   |            | 1.138      |            |       |  0.92

Nlocal:    40.5562 ave 109 max 21 min
Histogram: 100 20 0 6 14 0 0 0 2 18
Nghost:    523.819 ave 886 max 351 min
Histogram: 80 0 2 38 0 0 0 0 18 22
Neighs:    0 ave 0 max 0 min
Histogram: 160 0 0 0 0 0 0 0 0 0
FullNghs:  3253.09 ave 13760 max 805 min
Histogram: 120 0 0 0 20 0 0 0 1 19

Total # of neighbors = 520494
Ave neighs/atom = 80.2117
Neighbor list builds = 5978
Dangerous builds = 0

write_data		${DIR}/data.eq-${NAME}-${TEMP}
write_data		run_27/data.eq-${NAME}-${TEMP}
write_data		run_27/data.eq-het_freeze_27-${TEMP}
write_data		run_27/data.eq-het_freeze_27-240
undump          1

reset_timestep  0

unfix           2
unfix           3
unfix           4


################################################
#######         Run Simulation         #########
################################################

log				${DIR}/log.run_${NAME}
log				run_27/log.run_${NAME}
log				run_27/log.run_het_freeze_27
