LAMMPS data file via write_data, version 29 Oct 2020, timestep = 8000000

6328 atoms
2 atom types

0.0 49.22 xlo xhi
0.0 49.019635930410494 ylo yhi
1.7569825095029437 58.30501749050127 zlo zhi

Masses

1 18.015
2 12.01

Atoms # atomic

3313 1 6.787999263271362 1.3331017303915704 5.136451516780353 4 2 0
1351 1 21.251933802634912 0.20760746746012704 2.379207020607316 0 -3 0
4702 1 10.462115151703888 3.015226023555018 4.861835895249767 3 0 1
4649 1 14.100047255793505 0.7788870639309441 5.112209308776947 -2 1 1
4779 1 24.56684259270636 9.88540964487317 20.446207961011897 -1 -1 1
1978 1 18.15872756435807 2.9922632563025324 4.945195565759002 1 -5 0
1949 1 14.586046920968961 5.3579082608724296 2.261437478026055 1 2 0
6294 1 18.371137591627235 7.380206102120009 2.145223397266823 -3 -1 1
4831 1 8.139587530056055 24.439188333957112 4.766069469496024 1 1 0
137 1 2.9078167083290865 3.8821388212641486 4.971760506303919 3 5 0
2990 1 3.0580238204906394 3.8235161316424087 1.9633897740340056 -1 0 1
3363 1 7.191292504537169 5.778035064304393 4.95367930924351 3 -1 0
1337 1 7.102373607151558 5.6865040370548625 2.123757758235559 -4 0 1
3235 1 14.216335797168213 5.287620779882953 5.028494576635866 -2 -2 0
3301 1 7.713085325568053 19.658215427089292 2.311048135160668 0 3 0
2856 1 21.800817348610078 4.96927852997345 4.591885094819672 -4 7 1
2102 1 13.02094830936388 23.825593526158933 15.70375550850466 -2 6 1
2017 1 3.5063039993480936 8.405139705708292 4.730299538232453 2 -2 0
1725 1 0.3688093089179619 4.224432571703111 8.3838170136829 2 3 0
3191 1 13.603392191136804 12.507069891337908 20.4458899322998 -3 3 0
6077 1 10.63407501623377 7.709423141751403 4.765381711993246 0 1 1
1747 1 14.87672054411857 9.988933840249892 5.091529855689128 3 1 0
4461 1 6.445418415524221 1.0945760568142417 2.4614771623027396 -1 3 1
6252 1 15.78071371340751 7.507019445043191 5.856635696746424 3 3 0
212 1 18.32371961402839 7.566069554894307 4.8814314167275334 -3 -2 0
1474 1 2.390224500074347 10.782628403175778 20.386019948404456 0 -1 0
5134 1 22.033511855100897 9.819430222562428 5.050038689727546 2 1 0
3125 1 22.055385699045495 9.915606883448373 2.3367334343199038 -3 0 1
5156 1 7.8343239361418835 24.301936575788442 19.624170762944665 1 3 0
1809 1 3.503132054123733 12.972481788081515 4.879100361902614 -1 5 0
4547 1 7.288804918010114 10.554844114177058 4.925890453305065 -1 -1 1
2082 1 7.117636261628715 10.046768286699947 1.9722781780524405 0 -1 1
413 1 11.409573382636617 12.485203506878419 4.644665049617696 1 -2 0
1280 1 21.346196812511874 5.0351576379645335 1.9259027958302055 -1 3 1
4940 1 18.34122345972827 12.729311074846096 2.2661380238216045 -1 -1 0
3574 1 18.57166724330447 12.329441653763649 4.887056672086501 0 -2 0
2903 1 4.550318898823445 22.203958778594448 1.962377306352291 0 1 1
21 1 7.620798503489725 14.98343415629521 4.687574777523485 -2 5 0
1372 1 23.923499951271257 4.956540522204887 9.329334435874122 1 -2 1
4743 1 11.380824746293904 16.565599923626777 4.72798182935623 0 5 0
1419 1 15.625620617796601 24.284784670914156 4.671128408363375 5 4 1
2885 1 15.426712844179546 14.759616276342218 4.934894183438386 -1 3 1
6007 1 14.85792604834895 14.850173891884902 2.150919093702509 2 0 0
2967 1 18.962957782389932 17.052532775898634 5.126611576205544 2 -6 1
3327 1 5.2767657059596145 3.853988417036976 20.419947476349662 0 -3 0
4914 1 22.290902273849895 14.37744940209202 5.15713927680418 1 4 0
3278 1 9.837099140038472 15.322466892985409 20.10144714286318 -1 3 0
214 1 12.971902804481946 23.8082753566388 5.653861657610238 -1 0 0
4407 1 17.86457073700555 2.5502491127505578 2.3267861855330336 0 3 1
3514 1 11.059464704646718 17.19301406793871 2.02072721783706 -1 -4 0
3612 1 3.5928839729801667 17.52109840517392 4.626102443046692 5 -4 1
3394 1 7.926557550183762 19.276699220304288 5.307736868091434 4 0 0
1250 1 14.874614145294213 9.9918127766547 2.3366046161686027 4 0 0
3681 1 12.71909528080299 18.876431821757084 5.584526173972479 -3 -1 1
1307 1 18.746779858168665 0.36615937822039624 15.994285140769724 0 -5 1
3405 1 15.310513154213355 19.36457704958144 4.662081298087637 0 -1 1
4587 1 0.36211813065674653 20.081715385189785 4.6428842720195505 2 1 1
2930 1 22.85760712976317 19.593274258743687 4.746244587486844 3 0 1
5061 1 24.50084660313301 5.198327152930335 20.51867723011425 -4 -3 0
4609 1 4.321930404405601 22.07897203118495 4.77633244897006 4 -1 0
22 1 0.31565605120523726 4.06454378431505 13.061383768386696 3 -1 0
42 1 11.817215133404542 21.58736093105677 4.733420945372603 1 2 0
2952 1 15.747080858324026 24.197762603145033 1.8228229982433501 -1 1 1
6321 1 22.570233257404915 18.994073599480007 19.6065952284503 2 3 0
4988 1 1.9654419444478577 6.291509788016342 20.148401781137196 -2 -3 1
75 1 19.138184090289617 21.809000198081968 4.846336995752258 -8 1 0
1738 1 23.136627362854938 24.10453658317504 5.204590769358909 1 -3 0
3066 1 23.078606210293312 23.780806368719883 2.2482006866705566 0 0 1
3001 1 4.2537989275832135 1.524312111654143 5.544383093113517 -4 -1 0
1498 1 4.199833399457467 1.5584841404325678 8.331267104664914 -7 1 1
2893 1 8.150305836169963 3.66829616975194 6.027487819979404 0 -5 1
3433 1 7.8987965940652165 3.5984351892333297 8.69103249527026 2 1 1
4973 1 11.669180543637527 0.9051572497807752 5.914872400065416 5 -3 1
3610 1 11.621688975229013 0.7399641878230275 8.763337524488449 0 6 0
6261 1 12.926555200896846 2.94327590407274 10.13640171589459 -3 -1 1
4717 1 15.637915225898855 2.925706592877951 5.8562687183998685 -3 -3 1
4602 1 15.272250075064134 2.830080373960034 8.776417044473721 1 -2 1
114 1 24.091205903550325 21.639789248938975 8.521443236713516 2 -2 0
2072 1 15.083918300759803 24.04675905095025 19.60963713024549 0 2 1
430 1 22.889191715725634 2.7095191782291113 5.694414491713625 -2 3 0
4437 1 23.032096362709254 2.533906572515007 8.460250151309317 3 3 1
5285 1 5.504660831413492 24.332171972645035 8.600011239337189 -1 2 1
548 1 0.3787994444674499 3.9481622196281485 5.643310272544346 -2 1 0
5177 1 4.516977493782379 5.950037613289096 6.047045713783086 -1 -6 0
3008 1 4.726621309587696 6.467214639980651 8.674028765255795 -5 -1 0
4952 1 11.663748906336037 5.238486489991384 5.736181147741238 1 2 0
5001 1 11.940924729861607 5.097055402998517 8.752424877509762 2 -4 1
2920 1 19.326178455064067 5.251753332862917 5.821448657831917 0 -1 1
3036 1 19.562760961753256 5.228853305388453 8.623745415115692 -4 2 1
5045 1 23.08369728596764 7.248025129283573 5.950664501131252 -2 1 0
125 1 0.8808763421186244 8.582746619798876 5.436412980778158 2 -4 0
2936 1 0.5588770423560908 8.58218283204152 8.2561991749946 1 1 1
4754 1 8.142944370070152 8.219338304250245 5.8534975145649994 0 0 0
5987 1 8.372431703810985 8.258397593433333 8.538693956972825 -2 0 1
1830 1 12.1684995735116 9.965126887893001 5.922437361649931 5 2 0
2079 1 12.403101284059156 10.094684432673937 8.623935337838411 0 4 1
1519 1 15.810250724877326 7.840702285449824 8.733727035206538 -1 -2 1
4867 1 19.339418298544842 9.89885473801913 5.658974660035858 -3 1 0
4642 1 19.74165350467696 10.222999832399532 8.453985889100235 6 2 1
1592 1 0.3131997746875308 20.203639573614872 19.725289333593437 3 0 1
1620 1 23.100903761872242 7.471045860771202 8.705483231111543 -2 0 0
4651 1 1.0245018441161087 13.375348840702252 5.659987056334222 3 -5 1
3562 1 0.808250954754084 13.237843148759564 8.548167212334324 2 3 0
1864 1 4.5481639121409385 10.671403102140195 5.805829299631557 0 4 0
291 1 4.430139824183969 10.981777853092936 8.547784057565488 -3 0 1
2803 1 8.822000270657322 12.62741436720486 5.4331988190430085 0 -1 0
1248 1 8.673530387669613 12.460681552749278 8.076592795886263 0 -3 1
3241 1 16.09858167464773 12.381834417139851 6.101622128864904 0 -3 0
1547 1 16.147413692061992 12.777109450147986 9.08392869037935 -1 2 1
27 1 23.47086241163908 11.871210345718623 5.956688165000032 0 2 1
3067 1 23.52549053568055 11.790109442964855 8.735811330729943 0 0 0
3030 1 4.958475354568135 15.475186461115687 5.616105335596823 1 -1 1
3721 1 4.750255398212637 15.167048529335714 8.605269218647734 0 0 1
4910 1 9.859986910091108 14.978592403873213 9.502276627688282 -1 -3 0
3564 1 9.095594872816394 17.362585236355393 8.621275683172293 0 5 0
4999 1 12.755063697506209 14.463689207998181 5.9305389645248745 4 -4 0
5145 1 12.507751795182969 14.612658584439119 8.666908535420223 -3 -4 0
503 1 13.717352500918613 16.945679016530484 9.56010951528765 2 -7 0
4598 1 16.250637035325123 17.071353547850315 6.076090744988414 -2 0 1
4751 1 16.435918520782444 17.18543359021509 8.786541422576548 -2 -4 0
4465 1 19.68326805722199 14.578633940939925 6.196933278831197 4 1 1
425 1 19.845409167735024 14.435925438979181 9.014497877107914 0 -1 0
1365 1 21.175336296082182 16.84910053672522 9.721485719275064 -5 1 1
60 1 23.34417010070728 16.867313137680544 6.299394334994496 -2 0 1
541 1 23.765325123237528 16.591143226140513 8.887303363731696 0 -2 1
2865 1 1.1222040409253031 17.660281719949786 8.64511682348411 -4 3 1
1422 1 1.0300622172522775 17.670285521300798 5.8907779840255925 -4 -3 0
162 1 5.136875674110819 19.597909250092233 5.646387808335312 0 0 0
4891 1 5.094460902792144 19.78571785898906 8.546735595487824 0 4 1
310 1 8.970129128665642 16.87585172801145 5.933865307815125 2 4 1
57 1 10.26572951863102 19.677871075514954 9.415101249274805 1 6 0
1445 1 12.674919878337132 19.331571485466643 8.319231324153314 1 0 1
6175 1 20.223805030495296 19.440889921772403 5.845369277044884 -2 1 1
2992 1 20.329754113520117 19.26545622458304 8.60739774185143 -3 -2 1
1945 1 1.764427785574388 22.155651477051272 5.650673313922377 2 -2 0
3215 1 1.3806668714262085 22.28904589672205 8.211605105802084 -3 -1 0
1482 1 9.17966297788894 21.738491278361646 5.5917235642487935 1 -2 0
4589 1 9.262911959141467 22.044252680180833 8.292835087689642 1 2 0
4944 1 3.5854092124213834 12.802976367520763 2.082301426473931 3 -3 0
2838 1 14.270491523023034 0.9116278938422153 19.68061384169428 3 3 1
2146 1 16.488400126610575 21.869372415977114 5.374617199982062 -4 4 0
5243 1 16.77521462511426 21.563600048901584 8.152353465924222 0 -3 1
3045 1 20.420282506986517 24.017127661783068 8.656158732470661 -5 2 0
1426 1 20.465765937258123 23.941055568202096 6.1255014838590265 -4 2 1
5257 1 24.16998839957569 21.678446215541392 5.8440526743903805 1 -1 1
4992 1 13.09093953234209 23.8481916720666 8.349287063231422 2 -4 1
1611 1 1.5777421844595263 2.1253434188250764 9.294259257305924 1 -1 0
1811 1 1.7300281833823812 1.8623451970061426 12.049748291979324 -1 -2 0
230 1 8.768690495528215 1.1142681334716686 9.370557007048475 3 7 0
3265 1 8.669163258127872 1.4132996757276821 12.209043877388499 4 2 1
3571 1 13.306138743258762 2.9015158462386497 12.789928253923604 0 1 0
2112 1 16.467682369336824 0.5055188168071055 9.693270647587388 -1 1 0
339 1 15.809268079836663 2.9688816057242553 13.345813728494988 0 2 0
1655 1 16.580146069220227 0.6639150222259613 12.243245451955023 1 3 1
3074 1 20.284222663930134 2.656193924153851 9.401335097009365 -3 0 0
6022 1 20.43552867707746 2.899513665246719 12.125474159968824 2 0 0
4571 1 22.162271772620947 14.41343591125844 2.3864576863927858 -4 1 1
4460 1 21.43858894796582 0.2723472723357348 4.981630793247401 -6 1 1
5031 1 1.8933974378501424 6.265544414431426 9.025030468403857 2 0 0
3122 1 1.4968774300902978 6.464667514801265 11.9271969159993 2 -2 1
43 1 5.2659898318138705 3.905185587059508 9.251617659262301 0 0 0
1328 1 5.065126236765003 3.811306871467223 12.127168424859827 -2 5 1
3065 1 9.435449091596817 5.784991514866694 9.570670980226902 -3 1 1
1441 1 9.303910453317846 5.810011588966724 12.401310325471464 0 1 1
3621 1 12.112258228450743 5.680499692643525 13.42596184220526 -1 2 0
3079 1 16.741164808058823 5.358062095470462 9.36426265193894 -3 -1 0
1719 1 17.046755572378345 5.3973840351033235 12.279946378870553 -1 0 1
244 1 7.483114709640588 24.224295750420072 16.85256598331863 0 -2 1
1730 1 3.393323532007844 8.699951511338211 1.9792189728518739 2 -3 0
2986 1 5.9162421808735175 9.003983462062884 9.34850631024123 -4 -3 1
1594 1 5.6793015479175235 8.177644540454112 12.047831301719162 1 2 1
4833 1 9.852564685011028 10.469743442443143 9.458758389218204 0 7 0
4935 1 10.107961838544966 10.201306092529988 12.273871469411528 -2 1 0
4809 1 8.30085125224817 8.274257591541677 12.849816444978934 2 1 0
4505 1 13.182888675387883 7.4092130354509145 9.141551594375027 1 -4 0
6152 1 13.343114405154289 7.804208224204328 12.048880160001636 0 2 0
4781 1 17.211317229116602 10.116553918769544 9.477210948699906 -1 1 1
298 1 17.13891013923695 9.93022303943551 12.24947380225079 1 -5 0
6101 1 20.599561250446065 7.8048717561779535 9.57959018481684 -1 -1 0
1299 1 20.78960451543272 7.599782707459763 12.383890411853194 2 2 1
3568 1 19.85006438704399 9.963936079842933 13.390912514475412 3 2 1
289 1 19.043907805115282 0.2544317459181322 8.471693475881047 -4 1 1
3034 1 1.9391431830984314 10.689400016410156 9.428703304805033 1 -3 1
3395 1 2.572698453909535 10.874723320838894 12.150878519677693 -3 1 0
5041 1 6.240074059278896 13.210025067416293 9.357647289348018 -1 -4 0
3452 1 6.405970154649791 12.673152179386816 12.041403796762442 -2 3 1
6027 1 8.908073071930087 12.593932820911817 13.118261151103937 0 2 0
1876 1 13.458879992010559 12.312943108181146 9.772719866736598 -3 -2 0
316 1 13.6530913985902 12.325605778029995 12.472830249950514 -1 1 0
1481 1 21.1117498267074 12.09385716087062 9.84778406063662 -1 -2 1
5284 1 21.27564464801326 12.347648317214293 12.476830635091442 -3 0 1
3031 1 23.897843628456016 12.092892196195512 13.664575542987786 -1 2 1
1605 1 2.120719989898764 15.404795899039671 9.50726983280666 1 -1 0
4439 1 2.3974826455291174 15.359891059059102 12.211062032591183 1 -3 1
3535 1 9.857591958178915 14.958631447774735 12.137789162321216 -2 1 0
1347 1 13.508018144340907 16.99464221495052 12.18986299248288 -4 -4 1
4989 1 12.297997919593113 14.686862730217042 13.334113636136996 -3 -4 0
5166 1 17.38455064956342 14.929669774482385 10.151821599945746 0 1 1
3264 1 17.14794062238791 14.788003245566717 12.69014722391936 -2 5 1
4957 1 16.032277051365135 16.928066277604486 13.332586769197572 3 2 1
398 1 19.954365284548683 14.553846619799433 13.433677189017656 1 -1 0
1609 1 21.483954320261667 16.929177843852198 12.656759493194707 1 4 1
1642 1 2.397833015221543 20.068546637330037 9.357300574642707 3 3 1
5108 1 2.5997494970428403 19.997549075701176 12.163039816349906 0 3 0
2883 1 1.0585961896590492 17.713736957423762 13.211028974856015 0 3 0
4979 1 6.331571840153492 17.5384035286433 9.202558531024643 -3 -3 0
4613 1 6.554802835993659 17.197251896118257 11.873776346014788 -4 0 1
4947 1 8.844788361476299 17.160925023060514 13.285805450632525 -2 -1 0
1729 1 9.993615921457538 19.403068054958485 11.966568281046563 2 0 1
4747 1 17.782236542215706 19.46128095836949 9.553051434703097 -1 -2 1
1608 1 17.69629520102969 19.03009116087547 12.493258019993602 -5 0 0
5245 1 10.557029537117142 24.336662269571192 20.193080548309062 1 -4 1
3513 1 1.4154271524622222 22.342111953981625 12.964445850145156 -2 1 0
5224 1 6.720944905846015 21.88557115962408 9.273942575353038 3 4 1
1293 1 6.467937758268037 22.10254579189903 11.993443626451457 3 -2 1
3512 1 19.006616841878255 1.0240622505086958 13.353551625912724 -2 0 0
4704 1 19.497147593038967 21.546335457610525 1.977827972149012 -1 3 1
4729 1 14.148066235167446 21.565226466779347 9.138468289125694 -1 2 1
3160 1 13.814537761603047 21.52454845473985 11.939100547038326 -2 1 0
1484 1 17.83240604288043 23.979803972108982 9.293405858248505 -1 -3 1
6010 1 18.10614248444491 23.68507144386481 12.118192948606719 6 4 1
4853 1 21.319037747087048 21.70351905680873 9.594967043634586 2 0 0
4676 1 21.903629358085855 21.44499482643666 12.335054503104946 3 -1 1
6308 1 4.203680505245005 1.6811639193983923 13.167866206592832 3 1 0
6011 1 3.9844484973308014 1.7121600763133469 15.90428888618201 0 -1 1
4420 1 7.819529263075697 3.454954668110683 15.759779738097615 -2 -2 1
4773 1 10.507225415245033 3.4130899569955973 16.5499692441834 -4 5 1
28 1 11.19923401608146 1.0016302412775513 13.06336628517237 1 6 1
5132 1 11.728465052958946 1.0410528959640561 15.870808144437605 -4 -4 1
140 1 14.170623175439438 0.9032689912814419 16.964407920427682 -1 0 0
135 1 15.394195783821868 3.084181766568313 15.948903410995676 -4 -2 0
1722 1 24.085516747621863 0.5579369129261693 20.44134793597624 1 -1 1
6317 1 14.089055401261925 0.31749254635562235 2.4155878598876885 -3 0 1
249 1 17.85181532076267 2.809309111528125 17.026307338915935 1 -2 0
2971 1 22.929679386299732 2.7097336819360223 12.807232593315353 -2 -2 1
1345 1 23.185659417889017 2.892254786618443 15.829055206924247 0 -3 1
3164 1 10.637150136976068 3.2460247930930097 2.267205733727887 2 3 1
5144 1 0.22637157148351802 4.014908757368138 15.82474829354077 -3 0 0
1904 1 4.183304566164132 6.150757261613944 13.055061119876328 2 3 1
3489 1 4.3601898668219015 6.0929407550083425 15.699192695580608 0 0 0
5136 1 7.544837214384472 3.682385533393316 13.093804245766588 -1 4 1
3150 1 11.924743008710832 5.728591361144948 16.134802686872952 0 3 1
4599 1 14.386859301805943 5.5043552588607545 17.089325530233644 -2 3 1
1703 1 19.584454901869364 5.257034401145275 13.131557660429182 0 -1 0
1241 1 19.3260534994157 4.977286575053507 16.000727833800056 0 -2 0
2137 1 0.7857837481327578 8.901611369237719 13.13855112648885 -1 0 1
6225 1 0.6687432477722888 8.713994718241349 15.801324188220242 -2 -2 0
3111 1 8.137618873076462 7.962749091609535 15.524949197843583 -1 3 1
3107 1 10.602558755549799 8.157962672673152 16.89580434155628 2 1 0
3485 1 12.48674705103614 10.122297462322166 13.18351352006634 -1 4 0
376 1 12.152800805635234 10.007908270160002 15.896371160549569 -3 0 0
4898 1 15.961978692039072 7.636170153660411 13.137978203370533 0 -2 0
1322 1 15.783170445558577 7.552881473387973 15.780228912999396 -2 8 1
5007 1 14.6262077193101 9.842578953421844 16.680113904562464 4 3 0
5140 1 19.669092407025737 9.939037705600237 15.929387974982031 0 6 1
6172 1 18.401979972734512 7.641657957698323 16.745156621900236 5 1 1
4485 1 23.281903229865996 7.0011288937371425 13.346317394362591 -2 0 1
4486 1 23.20727812259592 7.184283200433065 16.153632054220722 3 7 1
3393 1 22.194742708295625 9.600373208526298 17.02438410019872 -2 2 0
1479 1 1.2315171906566362 13.058521028013972 12.915210254390605 -2 5 1
4915 1 0.9055756530671835 13.092357730051846 15.658132387705402 -4 -2 0
1925 1 4.789794669404254 10.70984950958277 15.81579859199387 6 -1 0
1735 1 4.92957664419018 10.669610191473616 13.043872812152191 -1 4 0
1501 1 8.467842552944674 13.001703747407154 15.90128165945966 1 3 0
2827 1 11.156211883689728 12.48002130789593 16.83841306817662 3 -1 0
423 1 16.16652297222588 12.397582309055204 13.379165173447253 -2 4 1
407 1 15.706030417042031 12.343966652994961 15.83048778594927 -4 -1 1
3675 1 23.782083217387914 11.740081062200975 16.629278333685466 -1 0 1
4628 1 5.088132092259583 14.925649718896327 12.751901235021144 8 3 1
3645 1 5.004106972975302 14.988334008361983 15.677427753552784 3 1 1
4848 1 7.390574596257289 15.174648587077385 16.880800226582686 2 1 0
152 1 12.502161408999575 14.678586327577303 16.113036543688697 3 -1 0
4659 1 16.298039948086565 16.944437218598104 16.094544542255903 -1 2 1
426 1 14.977736963245645 14.699336718050025 16.908772278079248 2 -2 0
6300 1 19.979528198059334 14.269263675477854 16.10585193432798 -2 -2 1
5308 1 18.871840399966814 16.84449218753556 17.12477397122445 1 3 1
5185 1 24.07612568858958 16.683482444269725 13.354395671978311 0 -2 1
154 1 23.559791495550147 16.51641500151705 15.807749129413883 -3 4 0
3245 1 1.1372730108413436 17.615019938885673 16.017959555859655 7 -3 0
148 1 5.18921704627833 19.3684458427634 13.01151681625 0 0 0
5194 1 5.0913308540283655 19.669462186196085 15.731449197867411 0 -1 0
3441 1 8.69583258339831 17.32929475575941 16.18036022570743 -1 5 0
3700 1 12.560653449187406 19.382921539645892 13.157696690882172 6 -1 1
2932 1 12.54246926980616 19.278635683769046 15.822855161482124 -3 1 1
5106 1 20.400194391292114 19.20043708746141 13.188184611324322 -5 -6 0
96 1 20.15418760248798 19.020030921386887 15.77489891103713 -1 -1 1
372 1 24.00867237083146 21.59328980431204 15.707343691150662 -2 4 1
277 1 1.9263852148844591 22.279682371318163 15.732898281513323 2 -1 0
3388 1 8.967200655300376 21.776503190990898 12.885368848394142 -3 6 1
1709 1 8.92314447996569 22.127803514527585 15.667844223498085 4 -5 0
3083 1 17.80356156884769 19.05218806004388 20.464003186415685 -2 2 0
5102 1 11.611649167063542 21.722798192034414 16.521609899261108 0 -2 0
459 1 7.449461832788278 19.887079711310307 19.50682192693949 1 -2 0
3589 1 16.295627688594916 21.607763970859573 13.10088952012257 3 -1 0
3717 1 16.687038844274944 21.678861422149772 15.801315834616807 0 -6 1
495 1 20.74834067633635 23.687616791661146 13.185076482914564 3 2 1
3478 1 20.59925617337223 23.682716031283107 16.034471286250394 1 -2 0
1943 1 23.14206133511046 23.624080167171957 16.94433246822563 0 1 0
2859 1 21.455445806499217 0.33262961703124116 19.32021581765394 5 -2 1
549 1 6.354666875583042 1.2899229144571103 16.876533554456223 1 1 1
4708 1 21.485132316323337 0.509985040333625 16.428016965881575 -2 -6 0
6185 1 10.353713687229169 3.553320021437729 19.469686888906132 2 1 1
2005 1 10.578726416731522 24.173369267911916 9.366945559112771 1 2 1
5025 1 24.46881069675039 4.7987106935635095 12.219610623031555 1 -1 0
1804 1 7.730535430248462 19.943206573270146 16.761836963267307 4 0 0
6094 1 15.360347266005762 23.956638087707518 16.816582815492865 3 0 0
1691 1 17.71014132346401 2.9825588244912242 19.700979791966272 -5 1 0
2951 1 8.209705886826141 24.412540936008146 2.0261852121248562 0 -1 1
1930 1 15.440420826301505 19.19682818957659 19.521398863208034 4 -5 1
3234 1 2.9565023773900903 3.8638689908731463 16.89677898409389 -3 -1 0
3529 1 2.8043010277556126 3.858047625998042 19.410664899473524 1 -1 0
3196 1 23.851386637424667 0.4904242781111872 11.887225593985834 1 -2 0
4419 1 6.974250357077205 5.890725011905467 16.58368748946189 8 2 1
3307 1 7.094597199450396 5.788640260966499 19.39866135904202 2 -1 0
307 1 11.606849890532208 21.91343534635079 19.235257700121874 1 -3 0
3390 1 4.218798079574118 22.44984149166159 19.67341124313161 -1 -2 1
6309 1 14.174982291244781 5.562176482211448 19.923832789746996 3 5 1
6314 1 18.828259055705978 0.5816037787328912 5.821134746956103 5 -2 1
1711 1 18.375587987867164 7.511028921177098 19.536188525954234 1 -5 1
544 1 21.87130404928476 5.088452960534073 17.190721004149733 2 -2 1
2882 1 19.245277136960564 21.345233968783138 19.439524313000856 1 -2 1
1743 1 21.73095559092676 5.1747804289888215 20.03965434595516 -3 3 0
1632 1 3.367247767129024 8.474946589919794 16.55013911215419 3 -2 1
4519 1 3.6602574615057852 8.437825741606286 19.260725835786186 1 1 1
6038 1 11.009855989959982 12.629109927769049 2.06291688485379 -3 -2 1
4858 1 10.494067044289546 8.183346467642005 19.68406393610719 3 1 0
2854 1 9.146446576683003 1.4839124408675182 20.524184520655332 -3 -3 1
1644 1 14.622735112007014 10.039806928145087 19.421825713648133 -1 3 0
5112 1 15.24955894399346 19.499476548492964 16.71398172437948 -2 2 0
6041 1 21.943591884536932 9.706047653307918 19.818620776484323 -2 -2 1
91 1 19.450248536553715 21.485860895496987 16.670730970868725 1 -1 0
302 1 3.3587575766769957 12.916627103676879 16.833052034423062 -3 0 0
1982 1 3.336343770903373 13.320565786930898 19.681516499998278 1 4 0
1603 1 3.824199534756742 17.92091966604562 19.239114347611753 -2 6 0
1329 1 7.326264609169649 10.439718509028221 16.606362938700475 -2 2 1
1699 1 7.189895318126133 10.763581588248016 19.248109186010876 1 -2 0
4438 1 5.762593422628421 24.172679648839775 5.812996753981177 -2 1 1
2110 1 10.948991754985096 12.848079184439628 19.473264858259167 -4 -5 1
5984 1 0.5448947008645347 20.119568804274074 16.9203370015996 0 -1 0
4415 1 18.37126557546405 12.145368004561448 17.060680519116293 2 -4 1
5990 1 18.475252822777204 12.078902095457357 19.86046084720149 -1 4 2
6326 1 23.23575696800776 23.58920500367766 19.6892846153733 1 0 1
1504 1 15.358337018087052 19.21887999573368 1.7682745327991893 0 2 0
3409 1 7.228668898283601 15.193882723357902 19.5086688420979 4 -4 0
3003 1 24.516717931072378 21.30323594368442 13.057921915123652 0 0 0
1753 1 11.128048264850067 17.25274217395061 16.66817623136466 -1 -2 0
151 1 4.405169054558794 22.45759754772687 16.801295118400958 -3 2 0
2848 1 11.402766388050377 17.216016834518033 19.384846308897167 2 2 1
4622 1 15.038035175194835 14.66425776682073 19.625871468603318 -3 -2 1
1494 1 19.03484011628535 16.632730461127334 19.803398003405885 -3 0 0
2866 1 22.71005498260357 18.987885568294125 1.852723860456049 1 3 1
6006 1 22.706077632608146 14.139799888576315 17.019836999623195 6 7 1
3332 1 22.731363877747548 14.275988314907071 19.631915437381075 2 -4 0
4985 1 13.148556317262765 23.942548735101106 13.022788779196015 0 1 0
4528 1 3.903581821755745 17.541042647207394 2.0064652060709665 2 -1 1
4735 1 22.90824199937534 19.226300489326007 16.676754777648412 0 -3 1
1567 1 3.6314124885733166 17.596947358196065 16.536839241668673 1 1 0
1409 1 2.374145971259969 15.838204434350805 20.36506068751201 1 0 1
2981 1 6.375267237466343 1.3034640092655612 19.697005932884384 2 0 1
1243 1 11.640496091404035 21.71061740944339 1.9624726883386179 -5 3 1
343 1 10.339550696477334 23.975417275088244 12.209109565237531 0 5 0
4432 1 24.422417775293884 9.590985121535773 9.913556662342938 0 1 1
5293 1 19.04590538322955 17.175632962467116 2.332518794884897 -2 6 0
2076 1 17.815788281022154 23.566126158692263 20.37881857920955 -3 -1 1
386 1 9.505904535219026 10.676196352128057 20.315370445616686 -2 2 0
3005 1 17.169796525086337 9.634411847171524 20.3466358080611 -1 3 1
4769 1 14.121398021303277 21.440954501702993 20.319488404708427 -2 0 1
3379 1 10.151525875840987 19.62985195702136 20.378485282941366 2 4 1
512 1 2.6472995129638592 24.4538984460402 9.303898695894357 -2 -1 0
2835 1 6.262587020574715 8.239801211671924 20.07821114917607 -2 -5 1
6128 1 5.965955513252245 12.781596042680363 20.472554270929802 -4 5 0
69 1 20.419696607849716 2.5979551176762516 20.514245110776457 0 -1 0
4559 1 0.8496193904498641 24.49325647642959 4.693558334170692 3 -5 1
6223 1 5.428436290968509 24.39706726166687 12.748659256331251 -2 0 0
3100 1 6.309053983535409 17.504904637710514 20.477826161100555 -5 3 0
2917 1 13.03297115381956 3.230718452948722 20.455412924109197 2 -1 1
3052 1 21.597693881136205 16.603636676617487 20.605079365338323 -1 0 1
5206 1 13.940203403690685 16.99948666492909 20.552400992882607 0 1 0
1480 1 13.23854419579034 2.9601567075485598 1.7679116202619127 1 -4 1
5072 1 10.977565435733673 8.105438505417135 2.052558151754937 -1 0 1
95 1 7.240990030551116 14.90112959585647 1.796411584898621 1 4 1
4840 1 0.6752361213037038 19.761402122505814 2.0496078553736368 4 -1 1
1449 1 1.4100123683855352 1.7385538445198607 23.716441695350106 2 1 1
4913 1 6.269128387909869 1.2163068986863652 24.26254094192108 -6 2 0
6135 1 8.752184801627227 1.3628581517702274 23.206903445896582 -2 3 1
4555 1 10.574528990751707 3.0813274706345406 24.107662237225533 0 1 0
4701 1 12.416906021379383 23.865759457231487 36.739000941825694 1 -4 0
2056 1 13.130582083593756 3.295887922107514 23.363720593359204 2 -3 1
2905 1 19.111375049537255 0.4963588973403133 24.201129064121265 5 2 1
5153 1 20.551146862239072 2.765871625018438 23.18949153182311 2 0 0
5137 1 1.6667436702664804 1.7504385890547958 20.858502648734788 2 0 0
3697 1 23.261398446406265 2.734142067492197 23.98730276785696 2 3 1
4934 1 16.097708967864573 0.26713266007816483 35.890546093651125 -5 1 0
1601 1 10.73150673835753 24.395435289510008 22.91217886073302 1 -4 1
1256 1 1.8248970749384723 6.460941463951485 22.883125998885333 3 3 0
6305 1 2.908503669485499 4.133524221938464 23.945004821228956 0 -1 1
4553 1 5.661372351438182 3.8925215374128976 23.532449617770045 0 4 0
56 1 7.044471107632767 6.084371451198809 24.123099640687645 3 -3 0
5100 1 9.662880711089404 5.51861411766334 23.611827044203377 1 1 0
5046 1 14.32115577615112 5.566230524582514 24.190595567945476 1 8 1
1715 1 17.023731158661818 6.545219528153558 23.286731771505636 3 0 1
4838 1 19.42028926085043 5.276996957632157 24.119074861963067 -3 -3 0
156 1 8.212295016770469 24.432733842478807 24.002500031325745 -1 -1 0
4899 1 3.2517758096792 8.298399609380509 24.195932230274153 -1 -3 0
3208 1 21.009804807924574 21.06315290893957 35.93010522317368 -4 3 0
4616 1 5.935610704354414 8.349680379722098 23.045587680626873 2 -2 1
1758 1 9.677889012392864 10.494144910072194 23.344413168620008 0 -5 0
2891 1 10.687024833467726 8.085251777443347 23.918861805427493 0 -3 1
4696 1 13.401888451681636 8.01883693882927 23.225917453555425 0 -1 1
1454 1 14.695074957491453 10.287039505990533 24.03134403442919 0 0 1
5197 1 16.919986039460106 9.277437919279468 23.123186581842187 4 2 1
1961 1 19.525316255093447 9.948288833051317 23.836589211250086 2 1 0
4512 1 20.648426543714844 7.4892533189103725 23.406900704005388 4 5 1
239 1 3.0235623884417215 24.43110287173337 36.001736407123616 -5 1 -1
2812 1 24.607782250748528 18.03693616245825 23.172116898257517 -8 -1 0
5105 1 2.1592869930292835 10.580895213790296 23.267194855061746 -1 4 0
322 1 3.270609951050329 13.075442102199162 23.690983661449625 0 -1 1
262 1 6.262862721370589 12.69337309057046 23.24001589198654 2 -2 0
3369 1 7.175183038830297 10.3626818791553 24.244308912923117 -3 -4 0
5277 1 10.967398739054753 12.895561656488013 24.010159325921784 -4 -1 0
4902 1 13.558197862739014 12.643466359755859 23.274537960858574 3 1 1
4830 1 20.795066110274604 12.182808867170092 23.513373675789182 0 5 0
1360 1 23.517830271661047 11.98102894609805 24.26481804512547 0 0 1
5274 1 2.4704343016930426 15.48766759813097 23.114347245448354 1 3 1
2800 1 9.863708220571677 15.047597184309007 22.804167460803438 -1 -1 1
3652 1 7.491517833427073 15.095518610244216 23.85245397337986 0 2 0
4900 1 11.001820857344367 17.284329886759245 24.289970455885715 -4 -4 0
6167 1 13.559821486382862 17.226655383318477 23.559989071222535 1 0 1
77 1 14.70987170548105 14.96157439274767 24.056592709455987 -1 -2 1
1246 1 17.511741969622797 15.618372399070376 23.53152883637458 0 -2 1