LAMMPS data file via write_data, version 29 Oct 2020, timestep = 100000

6328 atoms
2 atom types

0.0 49.22 xlo xhi
0.0 49.019635930410494 ylo yhi
3.2199528047298323 56.842047195272656 zlo zhi

Masses

1 18.015
2 12.01

Atoms # atomic

3244 1 0.13900588851377194 2.2714302380055313 5.367574453261114 0 1 0
3164 1 5.278071561314676 0.48065140974843146 7.935680506379454 2 1 1
3420 1 5.111992183904845 24.494096180936257 17.858152552146304 1 0 0
6143 1 8.587846699196124 1.6483480562015245 5.9900851752071596 1 1 0
4583 1 14.061428292120262 3.6632786633210075 5.85976219630238 -1 0 1
1739 1 8.745191909096933 4.390029095694737 4.586964086811485 1 0 0
4985 1 18.689471344395777 0.9776083935172757 5.199070720895459 1 0 0
38 1 23.336225063676835 24.228552814803002 15.359065293712328 0 -1 0
1476 1 4.3844300046909925 4.189117960675562 4.549042853045678 0 0 1
312 1 0.4416820916993377 14.345365010114248 11.201599129512765 1 0 0
465 1 22.81914048442727 1.0465650770180288 6.58188046956473 0 0 0
1396 1 7.699122867339207 6.2287020853075905 8.67002362356244 1 0 1
428 1 13.824082011999858 8.031188557306773 3.8426230804152164 2 1 1
2798 1 16.269154425853788 3.217241439432013 4.26626823127441 0 1 1
4876 1 18.368124868133506 5.148739794225905 5.287347732665995 0 1 0
2032 1 10.985627612394467 0.6579655976507216 6.540517154412791 0 -1 0
4498 1 0.3652646612406276 10.523464570828807 8.286470728117218 0 0 1
2851 1 3.818303835301245 7.434203607781138 3.868347109211208 0 0 1
1893 1 1.0032711366625835 6.571143652527502 5.88404981303872 0 0 0
1243 1 4.1690648400688 10.220701784773947 4.4889592183624325 0 0 1
326 1 6.709485207286922 7.0419283127031465 3.892548493026107 0 0 1
299 1 8.231226823447027 10.33407695190573 5.928179647448249 0 1 0
1985 1 10.840481491736572 7.7930234123315705 7.446606602331353 0 -1 0
3137 1 18.087907698207562 18.334086687096402 3.493915105264505 0 0 0
6211 1 10.799445990204836 9.2075686105637 4.980975340291546 0 0 0
1574 1 15.820295847059066 10.994717345973562 4.485955533412678 0 -1 1
3185 1 13.46032268274537 11.667054863028872 6.769255636695702 0 -1 1
3230 1 6.1506218369339125 17.513247888594403 3.719209549039472 1 0 0
1722 1 2.3813368438891964 23.57688818504048 14.870994173021597 1 0 1
3489 1 0.3067915439723941 6.212486348511189 10.296350429803942 1 0 0
384 1 9.628191058110628 24.410993850764058 18.087061804948103 -1 -1 0
5085 1 1.404260761892081 13.987357488876883 4.339754330401319 1 1 1
1495 1 23.644433402108376 20.72426105231405 20.68375814029185 0 0 1
5239 1 21.89184008162465 0.7843110846628985 11.144190622876913 0 2 0
17 1 10.392721312222523 12.135667638322595 6.544794555482724 0 0 0
1811 1 14.58091472991129 14.218009728947285 7.541933405627557 1 0 0
1584 1 16.685304457753517 13.919332004000664 4.368974181244482 0 0 0
2999 1 18.835784986677528 12.342764221154372 5.872972595113074 0 1 1
3521 1 22.995984021979496 11.054588492745511 6.573253753638207 0 0 0
3155 1 3.034198854257021 16.400879188208922 3.866548931125169 0 0 1
4754 1 1.5331607780711722 17.053820973408712 7.557361471949897 0 0 0
2913 1 5.138024472840375 14.6483368168314 3.761093505677988 1 -1 1
1719 1 23.746031338189137 3.03877664392773 13.650771521283817 -1 1 1
6285 1 1.58861841019335 16.763317944987953 12.254812772026247 1 -1 1
1312 1 10.356365779001855 14.862548062135675 5.942259667535046 1 -1 1
4625 1 17.498127331226424 15.131576547978812 7.331086480840651 -1 0 1
3143 1 12.81739955338625 23.463457809176667 17.788746455617126 -1 -1 0
4741 1 19.080037642188028 13.328559221956075 8.506299460876058 1 0 0
1457 1 4.2095202355945505 1.5557153191695106 3.9461284429563452 1 0 1
2804 1 2.3753722865649363 18.86352187734118 5.580126792919441 1 -1 1
1297 1 3.0208583864368586 13.171009077871359 11.957387820363834 -1 0 1
1917 1 9.591701020835655 19.108102426520674 7.036174484208461 -1 0 0
3639 1 24.22118081266699 4.990252894663744 19.5681057245974 0 0 1
1540 1 17.951110601125404 20.513064296752876 5.521378284423577 -2 -1 1
75 1 19.218372805142934 16.70446592442599 5.46941458955307 -1 1 0
4460 1 20.26278122743895 14.561173177798413 4.0318402213157984 0 1 1
4417 1 21.96780954739267 17.751721759783262 6.215498201450799 0 0 1
1749 1 1.229233709754397 21.51208756395346 5.9986534005573855 0 1 0
3551 1 4.960134894033073 19.57966895738479 5.515097777716814 0 1 0
3318 1 7.838113871303453 19.760935159100267 9.16568039616216 2 1 0
3179 1 5.135206502866552 23.451623462699196 15.517186147299695 1 0 0
2984 1 13.966668842264644 2.3529738830988416 20.55126635359625 0 1 1
1481 1 12.072523497608659 24.091658538740095 7.444872622526958 0 -1 1
3638 1 18.483183015930052 23.335251601885716 4.743496230294928 1 1 1
4539 1 19.369298368953384 14.187475698703599 20.966459118911704 0 1 1
2817 1 23.15207756087836 24.438016758781824 10.52700953018125 0 0 1
1965 1 16.94032576815927 23.87270598732973 19.170992312517427 0 1 1
1472 1 11.50501551095977 18.873211760380308 20.71952200009081 0 1 0
2828 1 11.751890835426066 21.06968426646967 4.620577446229138 0 -1 1
4778 1 6.758774406845294 2.78327353056685 7.893524132314708 0 1 0
6254 1 7.9612353633809505 3.1822661335285702 11.054418012941074 0 1 1
5982 1 16.579227997370545 0.5159179526570676 3.5803491233442903 1 1 1
5240 1 16.808927902295068 2.6297940073473627 9.204297683509601 0 1 0
6291 1 22.668866611193135 16.02237958835993 3.8167081819289894 0 -1 1
1879 1 24.55508403584103 8.831850492058862 5.820163686986881 -1 1 0
3031 1 9.949490545748825 24.316081293149722 14.718751465819716 1 1 1
3421 1 3.703273004038105 3.482202957304427 8.933271972757444 1 1 0
48 1 10.643428624266967 0.49758589433543415 15.66466355142903 0 0 1
1285 1 2.4845860284503676 3.2893225222830225 6.549151545349164 1 0 1
5104 1 5.550208920890559 5.117250947236038 10.234139064103985 0 1 0
6014 1 10.367715293869123 5.271461506715005 7.414396587101561 0 1 1
76 1 10.462466602579465 4.715740116549278 10.35213834088973 0 1 0
3533 1 14.464815269386527 5.189142860002572 8.057578898628279 0 0 0
1741 1 13.418697650267125 7.673908491179355 6.637846352694213 -1 0 0
4598 1 17.337314560705003 5.223971212645842 7.942690433023074 1 1 1
1577 1 18.30828647166636 7.303162207942006 9.86760232985241 -1 -1 1
218 1 20.21962158868893 7.057480041033522 5.587774041706156 0 0 0
1474 1 14.741205016473057 0.18686823976676692 8.669200897488777 0 1 0
1948 1 21.15332424866698 1.9678676729290823 8.638184460755618 0 1 0
3429 1 21.375089548007892 6.443116862829288 11.9515343236636 0 1 0
6066 1 22.084203853705418 5.3830965642627495 6.373912361631849 -1 1 0
4990 1 2.9926646600107922 9.446515204807318 8.610438415618926 0 0 0
4917 1 2.401101371723055 6.426588090800624 8.476335433586188 0 0 0
267 1 4.862973155812283 10.822978106881228 6.905566698570466 -1 1 1
135 1 6.7185031305350185 8.945804551351285 8.049715179286764 0 -1 0
4690 1 10.938842405944222 9.00004254308163 9.83121099883633 -1 0 1
2906 1 15.01986569085833 9.458809018586194 8.10101547124488 0 0 1
1606 1 19.530585623544248 8.635255502063718 7.601451156089585 0 0 0
4609 1 17.39141803281752 10.172128317522573 6.9598544133961 1 -1 0
4988 1 21.452650434264164 9.132372191244272 10.64886577962248 0 0 1
3260 1 1.7533317428033461 14.368414216957792 6.945320139721922 1 0 1
6212 1 6.73881132423257 11.328948055244553 3.8358362788692473 1 0 1
31 1 5.804636002576214 16.32968096602687 8.152279130792333 0 0 0
5039 1 7.506106940693173 13.264916849152511 10.680749394723481 1 1 0
1304 1 10.619958315851967 11.889397384852483 9.518981856038454 0 0 1
4613 1 13.470589285714551 12.112773682977204 9.936638869881467 0 0 1
1969 1 17.286881410591302 10.958569351456783 11.498517055297617 0 1 0
5101 1 16.641733981209022 12.318180644468926 9.34469378763418 1 1 1
3463 1 20.957880245309543 10.993852362168955 8.556790631406074 0 0 0
6094 1 23.40053230520159 13.63805356745269 7.82579126897311 0 0 0
4804 1 1.079917508013206 17.638155383687646 14.819832480521168 -1 1 1
3182 1 6.6192656062783986 5.284567596023502 6.121356535698103 1 0 0
70 1 0.9700767697304146 18.4073378759508 9.925333707295156 -1 0 1
5178 1 9.274209209876751 15.4480835676729 10.030188979473486 0 0 0
3444 1 8.633205487451482 16.423543591390384 7.658918483952134 0 -1 0
5122 1 12.010961194578181 14.439113295490031 11.64400179624701 1 0 1
1393 1 15.091915122265059 14.577508178713034 10.485502695163097 -1 -1 1
6101 1 14.889191205583646 17.47089494742107 10.305470185749993 0 1 0
353 1 21.63125004946132 14.124029421112276 9.659447169163752 0 0 0
1305 1 10.24177560757529 23.46643082014728 5.6260149302692355 0 0 1
3302 1 8.975906898307711 17.748120685809905 4.605992992493187 1 0 1
5315 1 5.234627733240234 19.36493796690157 8.201801537356378 1 0 0
1775 1 11.964878218990503 14.948493883042346 8.664474772254257 1 0 0
5969 1 13.008675558972875 15.342170800358629 5.170870559886154 0 0 1
5119 1 14.902401552729764 17.275198131236913 7.100052046581968 0 0 0
3583 1 12.205041933895393 20.217400320069995 7.5277061786620605 0 0 1
329 1 17.995246425343552 20.99930168231779 11.23373304503352 -1 -1 1
2867 1 14.780449417381929 19.998853262061143 7.6531973049483675 -1 0 1
2981 1 19.815548677748215 20.456644951239404 7.427640800808722 1 1 1
5007 1 21.53904711918957 17.102562655682583 8.88840912243841 0 -1 0
4892 1 23.56529310332587 18.74735910587305 9.791695761739339 1 0 0
446 1 2.620288209860342 23.441874640685977 7.572443334098181 0 0 1
5092 1 4.339821551382478 22.129242583268375 9.005664732339657 0 0 -1
40 1 24.14415388168373 7.9123033289645 10.284571101301088 -1 0 1
3041 1 18.67691260707511 1.030242733626806 8.171085975578823 0 1 1
1353 1 14.438311015859467 22.96894828864062 6.45185517769456 1 0 1
61 1 22.66192022771421 3.072937601007845 4.5865495817596065 0 0 1
3397 1 24.076159384549797 5.512766535399333 12.102940510630122 0 0 0
4560 1 19.686138393507242 22.36635410241662 9.20512217381928 0 1 1
3485 1 20.58873340561794 19.82491688548872 15.582325863617362 0 1 0
4409 1 22.017312009077884 20.74681839010042 5.742477389167033 1 0 0
6318 1 24.367428938655397 20.578936961089784 7.547422709642892 1 1 1
1516 1 2.177333975542334 2.3906300107151717 11.043332155705498 -1 0 1
6132 1 4.540159918315039 1.2799346366847006 12.492548345522405 0 0 1
296 1 6.856432034497187 2.47523201297654 13.614653530255586 0 0 1
1560 1 8.30273714851654 0.40185738485431904 14.353413936056347 0 0 0
3608 1 12.345626361488868 2.9853626522717236 10.602750634425114 1 1 0
5003 1 24.309072088707936 4.201824378922412 9.711392223247483 -1 1 0
2983 1 16.846272372076026 1.790053217215818 11.800061942692057 1 1 1
1423 1 2.7245870374824226 0.4626855389962295 6.665343061503964 1 1 1
229 1 7.230987221728026 24.477540496464027 19.376052160532282 0 0 0
4494 1 20.9286181153886 2.0577267404539117 13.38353776346181 0 0 1
1422 1 24.181316719341655 6.91818200975849 7.746798512670746 -1 0 0
2028 1 0.7875191459067286 5.508802572344122 13.52580102650978 0 1 0
3482 1 1.6419012441946705 2.988845565012776 13.999491128105294 0 1 0
6281 1 2.648919297906974 7.222405048018298 14.969657803599477 0 1 1
6089 1 6.82549887849882 4.833028964291093 14.781931588877727 0 0 1
414 1 9.63919083894289 6.7202958995612905 12.089544478132268 0 0 0
3593 1 15.079026065500718 6.5240007410911875 12.620243879071937 -1 1 0
6122 1 14.692187692366904 4.403743120980581 10.830258299972382 0 0 1
3417 1 19.291890889382607 4.760807447568191 10.508137328543052 0 1 0
3678 1 14.736363937250145 21.80618512541382 16.799846860320383 1 0 1
5294 1 21.684225980163255 4.731483220709841 8.968653568871114 -1 1 0
364 1 4.114510142785477 8.36849929771777 12.958673261518067 0 0 1
4467 1 6.549287068392423 7.0414059767211015 12.843946739818481 0 1 0
3483 1 3.8118732202811785 10.444397735505735 10.90214321591251 0 1 0
3476 1 12.188355425770848 7.640262637008664 12.491203192772025 1 0 1
1973 1 10.900137953550452 10.156496719406045 13.846598587169298 0 0 1
5168 1 16.040592895727404 8.610386093836881 10.816366989410183 1 1 1
2854 1 19.86360960604479 9.369871654407387 16.087117281994928 1 0 1
1595 1 24.166118167028515 10.747858104981715 14.882267866665064 0 0 0
3510 1 23.7188596698154 10.803880401651893 11.860045109837358 1 0 0
1982 1 1.5687621173981048 11.143605139078272 13.441492822452847 1 1 0
6197 1 6.7078624318620585 23.97890397713759 5.248329850521991 1 0 1
6289 1 4.762721929137515 13.686538339170568 6.3982212378684205 0 0 0
6274 1 8.197125081381479 10.412801741992668 10.27483350164005 1 1 1
11 1 9.736429102705916 12.869962996828074 12.452006485763873 1 1 1
1459 1 5.571406323832121 13.997029623247727 12.615558913971546 1 0 1
4860 1 13.196926166611878 12.01263555051327 12.940233680597492 1 0 0
46 1 15.059675096077877 9.362433877972938 13.802259276373412 1 2 0
4897 1 16.062675951876226 11.783469651085134 13.635284475624054 0 0 1
2081 1 19.8151577457004 10.800795767679258 12.739771798092706 -1 1 0
4686 1 3.2862285201016017 14.818349800743333 14.582015835089338 0 1 0
4600 1 5.394021526316634 16.286102462305916 10.811254520908964 0 1 1
3383 1 12.539710279883785 17.232219362788307 12.514388660144208 1 2 0
3343 1 17.546059314816233 16.76319205067208 9.623307266709451 1 -1 0
3719 1 18.90417270762321 15.100228989803151 11.339880067567183 0 1 0
1856 1 21.622807870909142 12.895399441246099 12.294117011893565 0 -1 1
3428 1 18.335930946059975 21.064621063313833 18.5868020135307 1 -1 0
1427 1 14.32344988126249 20.588128648922186 20.789642364133506 1 -1 1
3158 1 22.498525869907624 14.388725345834404 14.515143667601663 0 -1 1
24 1 8.13551480630486 21.69866396770906 6.273476314161906 0 -1 1
3217 1 3.150349355626483 20.21453098412978 10.93718458082548 0 -1 1
1736 1 5.069803679231188 18.939293328860717 12.529454226698382 0 0 1
496 1 7.896220222127178 17.51591341133142 10.960479444674496 1 1 0
51 1 7.008310752552901 22.946433470752293 8.572692341534 1 0 1
3653 1 12.237604914809397 17.97806256693038 9.447471928760224 0 1 1
3174 1 15.461563876709205 19.142157003556875 12.360027337035877 0 -1 1
2051 1 14.577596710236234 17.799023230140563 14.490057532486807 0 0 1
1826 1 19.291006785963482 18.77762522478226 9.700861063055438 -1 0 1
6327 1 22.524738506424377 20.550486232031407 12.205877519232757 -1 0 0
3253 1 20.331859686712317 19.156071116157403 12.64803313158293 0 -1 1
4984 1 23.443483594081243 13.353098346921719 4.243936104487243 0 -1 1
4764 1 2.083173242602621 24.347086402500818 11.771836703695806 1 0 1
1894 1 1.6502572748978326 21.65776674874542 12.68156776578728 0 1 0
3386 1 4.720524532664756 24.05531592066035 11.024808794392273 0 0 0
3106 1 6.9943854204882046 23.17665414294601 12.184556533891843 0 -1 0
5960 1 11.908638767973422 22.22321861838965 9.447607836112237 -1 1 1
3002 1 12.076149125711238 0.879242583411375 12.603568595217538 0 0 0
1653 1 14.278658619806503 21.745726163893316 12.681679183580794 1 0 0
1666 1 21.274585159689245 22.886216159801762 11.479874411536354 0 0 0
1301 1 18.1474006093563 22.02994916873989 15.92767830152945 0 -1 1
220 1 21.020166286839814 20.10200122231677 18.53588219768303 0 0 0
15 1 1.7824907632940405 2.0125465393829334 17.223056817941107 -1 0 1
4867 1 4.113323497917936 2.8958626332825523 15.884591439716187 1 1 0
4899 1 8.540729831474433 3.1379493875042934 18.334169814737372 0 0 0
3068 1 10.875879831556347 24.091302835201358 12.228117133432129 0 -1 1
3104 1 12.591368058286042 3.4098957378161665 18.20411946805774 0 0 1
5190 1 14.519588016305757 1.830279268767645 16.445239585757395 -1 1 0
1487 1 17.102713294501694 1.4034674093977302 14.967370537888371 -1 0 0
3222 1 6.3909590164956285 21.055838776385706 16.031789134494993 0 0 0
1382 1 21.870895914630513 0.3112957831415927 15.501575642884472 -1 1 1
1530 1 4.009594732011279 5.591514327318005 16.234036716683015 0 0 0
4516 1 8.077941915106141 5.446253774286099 17.12222932443462 1 1 1
148 1 10.582441113816898 7.040739659636666 17.5928168697095 1 1 0
3323 1 11.312758373163792 6.07465605690675 15.050823142300352 0 1 0
1778 1 14.29642679670116 2.72186510091781 13.537562456028898 -1 1 0
1469 1 16.50450237122742 4.971020067970255 14.168616752142928 -1 0 1
3671 1 18.786939152399288 3.809124546377362 13.001203438905254 0 0 0
3080 1 21.565633890679898 4.950584606461901 14.768092720713204 1 1 1
3011 1 0.7777274106673918 8.569531151303746 12.433385282361796 0 1 0
2146 1 24.11670758127112 10.60018326437795 20.38808470279743 0 1 0
1926 1 2.2489922672583758 9.137465710240432 17.200641583827498 0 0 0
6015 1 5.5950314468083375 6.46005618103235 18.289111875885744 0 0 1
6309 1 8.15131596543312 9.30131213901344 12.915321263361628 1 0 1
1561 1 8.825537993509151 9.048298329330924 17.848153971650333 1 1 1
6020 1 13.168079965215853 10.10338919842726 15.757903060658814 0 -1 0
1311 1 10.07149884754886 10.959621080929605 16.417152577983206 0 1 1
6105 1 13.545625015454 4.775603855237027 15.60359846775598 0 1 0
488 1 19.274445187406954 6.599866897899018 14.805826978397162 1 1 0
5106 1 16.751221508278153 4.024778010356187 16.768824313119467 1 0 0
3557 1 22.001817700360625 8.899048917891774 14.20779827428602 -1 0 0
221 1 20.201358914610772 3.311459911064993 20.117442768993293 0 0 0
5120 1 4.442196996774513 10.351917871039893 14.938401453862115 1 0 0
6324 1 4.964434727434476 13.470930856207074 16.351666624299256 1 -1 0
389 1 6.747788820638717 11.559491896241212 14.070206367558383 0 -1 0
3320 1 13.780832544523163 14.71846575597471 14.511720539831783 1 -1 0
6225 1 16.908149509736347 8.216442894661444 15.599393767042912 0 2 0
4945 1 14.276675535405426 12.495457389315353 16.73602180413485 0 0 0
3269 1 17.262792304930848 10.281847225306969 17.87266003443043 0 0 0
1340 1 19.951565275868056 12.06046713333649 15.501411760545118 0 0 1
2802 1 17.32919969558872 12.598856260656314 16.238199836096015 0 -1 1
4413 1 20.601858066592374 9.889561218026504 18.585900077629912 1 -1 1
3065 1 23.40450272631461 12.686145603158538 16.541781659945826 -1 0 1
4735 1 1.2913696442594995 11.91611727223029 16.023607699909093 0 -1 1
6304 1 6.426360453485456 16.047901720788875 17.065557605658803 1 -1 0
1998 1 9.123169195910481 14.757180739500512 14.374784160561001 1 0 0
2881 1 6.974833777855332 16.448945592716118 14.066783460779142 1 0 1
4594 1 16.393591783616937 14.505502532503806 13.184793096064436 0 1 0
3266 1 20.410300117166262 16.34412864749061 13.538835815857972 -1 0 1
4431 1 17.090253027047094 17.93177351753096 20.594489883404265 0 0 1
3418 1 4.0495826988233405 17.592107292244883 14.869464234213943 1 1 0
4731 1 7.07405787515483 20.67545097587949 13.280953538465642 0 0 0
5307 1 4.374854022101128 20.054067214152038 17.12228430180663 1 -1 0
6235 1 8.885392964596244 18.774007504568495 13.530517972340748 0 0 0
3560 1 11.285773312424178 16.052715840783062 15.248005063653466 -1 0 1
5313 1 10.882764977137343 19.61884845702441 11.666781525119209 0 1 0
166 1 16.796264316900192 17.865955499963082 16.065766668687854 1 -1 0
1961 1 10.816302974213537 21.31540273307022 17.46842953996399 0 0 0
5270 1 21.249696854612495 17.29791685663498 17.651650437609874 0 0 1
6192 1 23.504390216304625 16.79509648694389 16.323248915773107 0 -1 1
3353 1 20.656035330629233 22.92759359065215 14.601785317127833 1 0 0
5079 1 2.1326195310862586 20.178053286895807 15.181636617027161 0 -1 -1
180 1 9.004792115415666 22.217164541066406 10.483131498102587 0 0 0
3362 1 23.628194395662266 2.294621539819677 16.506539658027886 -1 1 0
410 1 11.79232932327744 21.592428442913054 13.417923444719783 1 0 0
1997 1 13.006004805721128 19.77620307403462 15.643412057887659 0 0 0
3348 1 17.584548938494173 4.18214687783429 20.615039899018402 1 1 0
91 1 23.20315065273002 20.962852276332082 15.040612113174916 0 -1 0
4797 1 17.681310750660668 19.92119929008511 14.21509794754067 0 -1 0
5962 1 6.112285742289754 1.502766103613935 18.148008963574547 1 1 1
3559 1 4.982833370261505 2.268171156017395 20.621336915649817 1 1 0
3357 1 9.747396727142975 21.228217415531883 20.758821273263365 -1 0 1
2128 1 10.775504797746612 1.4873969097626907 18.16907819694514 0 1 0
4712 1 21.220460996299394 23.595037736379695 5.722584956752852 -1 -1 1
4792 1 18.885354081015116 1.137358197649924 17.09077278637905 0 0 0
5071 1 14.71890002964032 21.19578078460337 4.483390878890044 1 1 0
3480 1 24.208375647148046 5.144953117305798 16.61935643618294 0 1 0
2996 1 2.035678077164884 5.314982644976057 18.413880975920847 2 1 1
3210 1 16.467840797741808 22.120688324695127 9.091095690044941 0 -1 0
3119 1 2.3188627323477595 2.6290022864601688 19.83872116769355 0 1 0
1552 1 20.08454166187282 3.2565813398864005 3.6337679355397543 1 0 1
2988 1 10.91098891528143 4.87501966267446 19.540642082828544 -2 1 1
1910 1 16.88751645048291 2.0517951293004884 19.12678596730246 0 1 1
4911 1 17.3478557965803 10.143758124176053 20.75008934578494 1 1 0
69 1 0.507105166929461 20.56126608735045 17.638140094693586 1 1 0
5194 1 12.927724689601428 11.012594378564286 3.6559990159908207 0 0 0
4639 1 20.565977839150857 3.196843365667409 17.215415631676322 -1 0 1
6151 1 1.8214736553098674 7.895251432424837 19.69379231412316 0 1 1
5976 1 5.8510075507170125 5.1807287323950995 21.080536664881468 1 1 1
1293 1 24.127586688074505 16.056550824991763 6.5185369801328275 0 0 1
1835 1 24.38420914005473 0.3060115313614679 20.69290529907041 -1 -1 1
1554 1 0.9015520559224737 14.850536215484661 16.22585547270243 2 1 1
1786 1 13.040743066751922 8.213720744319986 17.923099748202738 1 0 1
2017 1 15.241829713698264 6.2594271514226705 17.30270532742059 0 0 0
3086 1 18.77412649009979 7.761193195131302 19.275589364232793 0 1 1
424 1 18.883875992484477 5.536807619794157 17.429111317972133 0 0 0
2147 1 22.877290184315896 8.281134173304968 19.827224487358308 0 0 0
4844 1 21.424827851485507 16.040120452305512 20.090828802149552 0 0 0
3132 1 3.609304895096693 11.692114724469228 17.919757996761945 0 0 1
5981 1 5.356956026574409 10.58757007888369 19.78938018890035 -1 1 0
1952 1 8.122992926083532 13.098671485882212 16.197405338625543 0 0 0
4579 1 8.093917514875066 9.592892683064099 20.421376100090292 1 0 0
5067 1 5.913246072181291 8.910410598649294 17.347005826586503 -1 0 0
1888 1 10.47330231546254 11.038169845179505 20.693833010936167 1 0 0
549 1 14.656098986916037 10.896198364423842 19.59395158972282 0 0 1
3435 1 13.06625691943231 1.991342527065385 7.940735698940522 0 0 1
3292 1 15.75261494026231 23.19264335233754 14.585344020090586 0 1 0
4837 1 8.590735507497218 18.772922437200055 18.525583382143463 0 1 0
89 1 21.007207796803876 12.803952781975585 18.325432926314132 0 -1 0
5987 1 2.3822682186095907 12.979919434870023 20.271921721215154 1 -1 1
3686 1 0.9835241784891845 15.106165185017975 19.127154231734725 0 0 1
3375 1 10.994104970248591 14.831856511392434 17.861016412949787 0 0 1
3665 1 8.220145507543034 14.802891671545867 18.89181191701189 0 -1 0
4518 1 15.695300355309723 15.220820395528952 17.07958411171857 1 0 0
137 1 11.712059380689109 12.338972276006631 18.165929604623503 0 0 0
5017 1 18.874077518536986 14.810216902210062 17.692691492447917 0 1 1
4905 1 17.04996620373077 15.496302512849889 19.724631230056353 0 0 1
1641 1 15.820848820798334 6.30296351567609 19.994628972294844 0 0 1
4781 1 24.319345946642095 19.54166022044639 17.84412772629392 0 0 1
4940 1 12.084905749485204 0.1717239689321003 20.772867290774645 0 -1 0
1975 1 22.586022737939007 12.621117663739202 21.049728185338548 -1 0 1
206 1 3.1392622839401767 16.423423888415456 20.686599086707126 0 0 0
1591 1 5.7160200170858175 18.04146187144068 18.78807233759816 -1 0 1
3325 1 7.846438486120042 21.59056304525199 18.171264548264965 1 1 1
4711 1 10.251450481033226 18.536302931432502 16.064612378419284 0 0 0
3584 1 12.96415967292079 18.682498466624626 18.368370758946213 -1 0 1
2044 1 13.630511767453909 15.923944964164335 18.676093171946583 0 1 1
5048 1 23.777883994154767 6.537765769932913 3.797387334026374 0 0 0
3472 1 19.322850028451 16.844443869994546 15.991457509841323 1 0 0
6319 1 16.02042751080814 19.433962486061397 18.400686754558485 0 0 1
3537 1 4.393491240468642 21.970983917337662 18.94815423383334 1 0 0
3108 1 0.7609473749362102 23.379479702409245 17.276257488989845 0 1 1
4760 1 2.7563520985383976 18.89234938630236 19.555396606177645 0 0 0
1558 1 21.98597227174326 23.400830665942234 17.935883125785164 -1 0 0
4921 1 21.053948977394928 11.569730676382859 4.3163696687104665 0 0 0
1764 1 21.232557534244144 22.52919784799721 20.60765888664661 0 0 0
1342 1 18.159715045697123 23.342970825629138 12.87895458780556 -1 0 0
5160 1 3.9128046066197615 21.845561786908558 4.627810205850013 1 -1 0
5286 1 13.973932422963015 23.32929703167713 20.189847311443977 1 1 1
1253 1 14.248965885000354 23.594252078900556 10.687683213563378 1 0 1
3279 1 13.566515825794891 18.234294243662877 4.806537105497757 0 -1 1
2809 1 11.691810413951563 4.362311658713144 4.765490213402688 0 0 1
2974 1 20.015151343856566 18.45301494764461 20.777959246622363 1 1 1
1753 1 12.652138020361345 8.936326288892843 20.633815136126362 0 0 0
3319 1 11.060203915622916 23.745363101621177 20.635280904341972 0 0 0
6050 1 9.52847701666081 0.7690809963163747 11.076028000420976 1 1 1
3658 1 0.7475557864686505 0.4918076182057722 20.96060450930557 1 1 0
1519 1 16.03515031872595 13.111282557355318 21.048342221622228 1 0 1
411 1 21.921957270753676 5.258385213499855 20.940102348160213 0 -1 1
4878 1 16.914719173503382 6.512039787991195 3.322472277205449 0 1 1
6004 1 2.2929429950254367 11.652740018605913 3.3110348505855427 1 0 0
4429 1 0.0474521222331302 1.3100443619054354 23.29341952305155 0 1 1
4853 1 8.47879635891722 6.972597114654334 21.32658155485364 -1 0 0
1989 1 11.373257982284779 24.381308992446794 24.241431171956723 -1 1 0
1316 1 9.148157314926847 1.0429133608939505 36.04101320309347 1 1 0
2858 1 20.41739241511301 0.29099666930722634 38.53521160511126 -1 0 0
3588 1 14.25790538238058 1.6920444323092376 23.59198602633748 0 0 0
1712 1 18.823243773724133 21.512143499300972 36.452486391765845 1 0 -1
6207 1 22.74220778541174 20.04521696980105 23.16333479854424 0 0 0
5083 1 5.232628777784686 23.74461318268773 23.356141730961955 0 0 0
1868 1 18.374845405745646 1.2098782017377645 24.208502554301344 0 0 1
1260 1 6.603209430130716 14.478365644350488 37.9476548753543 0 0 0
4762 1 0.24608412556961667 5.327285012489371 38.66848091176075 1 0 -1
416 1 1.512783177852635 3.1691226119634424 24.380459144063238 1 0 0
6280 1 16.59581790899636 22.98249343204209 35.645566386314385 0 -1 0
5985 1 4.394752947233159 2.3251113012922127 23.633856787621077 0 -1 0
409 1 9.534172659124971 1.0424382721570893 24.344526637196523 -1 1 0
1746 1 8.850228132606974 4.01464872722598 24.249457331391596 0 1 0
236 1 11.228717002797415 5.827836355055784 24.254467182326096 -1 1 0
4454 1 1.0913110521332048 10.05910758118376 35.71900644448128 1 0 0
3000 1 13.85325984339495 4.473300828632731 24.158826628151836 0 1 1
4992 1 16.4483619045203 5.549906985227633 24.52621178449566 -1 0 1
3442 1 17.883452491314316 3.803972818770209 23.29040674334225 -1 1 0
4846 1 22.33356748579267 4.020528028353805 23.49204136505876 0 2 1
6216 1 8.875104499537322 24.133842734370734 22.77777828058886 0 0 0
1801 1 1.1033272557957996 6.074670789665819 24.083439938748324 0 0 0
6142 1 20.45110201047589 23.94748152618506 24.164193042841497 1 -1 1
33 1 4.0159746878785825 6.6914780969956595 24.38295319396509 1 0 1
390 1 7.454467664856532 7.237760555170882 24.042168275640304 0 1 1
4766 1 10.023259124320576 8.178268018084163 24.340545614947125 1 0 1
5275 1 4.2499411180250215 0.018384800773144198 35.93819718576363 1 2 -1
2973 1 13.48419181270283 9.23483122691387 23.247879903287952 1 0 1
6084 1 17.590470913021313 8.175780992639298 24.26210483416849 -1 1 1
5023 1 2.5282973254307093 23.4419187723225 21.495708255839983 1 -1 0
4699 1 20.23642825943949 9.180856983223403 24.198115468251892 0 2 1
4573 1 1.6528935984167838 15.399291199087209 36.24311237392028 0 0 0
1283 1 23.153067536998808 8.657469961863377 24.11128620945198 0 -1 0
176 1 2.002324914573192 10.827435706064994 22.762490634971694 0 0 0
2922 1 12.865038675594567 15.959042353561843 38.485807992809924 1 1 0
4863 1 4.43816950673032 9.798112295333027 22.105582789673985 1 1 1
3606 1 5.858058005103725 9.50164124461141 24.413702329505906 0 0 0
5165 1 10.559774319787488 11.062872964902521 23.57470886425125 1 1 -1
83 1 11.183046356912056 14.025217325895367 23.97170581061873 2 -1 0
3447 1 13.721218044428852 12.242830165419797 23.744986150788648 0 0 0
276 1 15.73385205538137 16.033772430898306 24.461450921488918 -1 0 0
4725 1 24.2726906354325 22.907618202459037 36.16026010602833 0 0 -1
380 1 19.611867828857672 11.956930940073498 24.1004415020461 0 1 0
3505 1 16.495822657623457 13.332519906529551 23.835478245022816 -1 0 0
6251 1 22.15688821102926 13.065424905460553 23.721071411137682 0 0 0
3454 1 20.53962864797674 7.866955212730616 21.405435066988918 1 0 0
2995 1 21.362214726869734 22.770657632107856 35.77366422122813 0 0 0
3637 1 4.986172535747954 13.641975838205507 23.811233567903844 0 0 0
1496 1 6.461377670563124 22.295554151824142 21.372660603827637 1 -1 0
6243 1 24.277700653448186 1.8168082987092724 23.423136611086456 0 0 0
4532 1 24.286027504317687 6.263447560899835 22.964935959020245 0 1 1
183 1 7.784531741472373 11.870726240103586 24.018601320263183 0 2 0
128 1 5.841229453751141 19.473822364448516 21.463185052260673 -1 1 0
3098 1 23.897298612819608 14.54610992431966 35.816668486327515 -1 0 -1
5963 1 13.605081595447748 0.5154099474289201 35.99806509416189 0 0 0
3619 1 24.30190786077263 11.217264342402352 24.44714245039518 0 1 1
1930 1 1.8859040424252544 16.562168845144527 38.88682099657565 0 -1 0
2980 1 18.86457619124201 15.052450300387225 23.452314987233123 1 1 1
4470 1 2.7852418561965773 17.242329147667387 23.362591448222638 0 0 1
5089 1 5.445255143243486 16.753886379641024 24.317095191963453 0 0 0
3128 1 19.967955347449678 11.240125356177101 21.399324777327763 1 0 1
64 1 6.971199380525855 19.087479033957266 23.828681161824633 0 -1 0
4806 1 9.229796253059481 17.333009726237364 24.191660566172644 0 0 0
6202 1 7.857886619091566 14.840475427430064 24.66424085211733 1 1 0
4597 1 16.231397005210777 18.391529581495096 23.259788507452335 -1 1 0
205 1 8.456320010210609 6.706866819210266 37.87028238038954 -1 -1 -1
121 1 18.61462388680463 19.119689466280622 24.299577689045808 1 1 0
169 1 7.436558465550525 12.71695784561685 21.174062178786702 2 1 1