
# Create simulation box and atoms

read_data data.ML_graphite_1atm_240K
Reading data file ...
  orthogonal box = (0.0000000 0.0000000 3.1811545) to (49.220000 49.019636 56.880845)
  2 by 2 by 3 MPI processor grid
  reading atoms ...
  6328 atoms
  reading velocities ...
  6328 velocities
  read_data CPU = 0.020 seconds
group water type 1
3568 atoms in group water
group graphite type 2
2760 atoms in group graphite

# Define potential

pair_style sw
pair_coeff * * MLC_e.sw mW C


# Fix graphite atoms in place

fix 5 graphite setforce 0.0 0.0 0.0
velocity graphite set 0.0 0.0 0.0


# Equilibration of molecular water

# Add velocity/set timestep

velocity	    water create ${TEMP} ${SEED} rot yes dist gaussian
velocity	    water create 240 ${SEED} rot yes dist gaussian
velocity	    water create 240 15095 rot yes dist gaussian
timestep	    5.0

# Define output

compute			1 water msd
compute			3 water temp
thermo	    	50
thermo_style	custom step temp press vol etotal ke pe c_1[4] c_3

# Neighbor lists

neigh_modify    delay 0 every 1 check yes

# Set fixes

fix             1 water momentum 10 linear 1 1 1 rescale
fix             2 water nve
fix             3 water temp/csvr ${TEMP} ${TEMP} 500.0 ${SEED}
fix             3 water temp/csvr 240 ${TEMP} 500.0 ${SEED}
fix             3 water temp/csvr 240 240 500.0 ${SEED}
fix             3 water temp/csvr 240 240 500.0 15095
fix             4 water press/berendsen z ${PRES} ${PRES} 1000.0 modulus 20000
fix             4 water press/berendsen z 1 ${PRES} 1000.0 modulus 20000
fix             4 water press/berendsen z 1 1 1000.0 modulus 20000

# Run 0.5 ns equilibration

dump		    1 all atom 2000 ${DIR}/eq.${NAME}-${TEMP}.dump
dump		    1 all atom 2000 run_0/eq.${NAME}-${TEMP}.dump
dump		    1 all atom 2000 run_0/eq.het_freeze_0-${TEMP}.dump
dump		    1 all atom 2000 run_0/eq.het_freeze_0-240.dump

reset_timestep  0

run	            100000
Neighbor list info ...
  update every 1 steps, delay 0 steps, check yes
  max neighbors/atom: 2000, page size: 100000
  master list distance cutoff = 6.8872056
  ghost atom cutoff = 6.8872056
  binsize = 3.4436028, bins = 15 15 16
  1 neighbor lists, perpetual/occasional/extra = 1 0 0
  (1) pair sw, perpetual
      attributes: full, newton on
      pair build: full/bin/atomonly
      stencil: full/bin/3d
      bin: standard
Per MPI rank memory allocation (min/avg/max) = 4.547 | 4.677 | 4.940 Mbytes
Step Temp Press Volume TotEng KinEng PotEng c_1[4] c_3 
       0    135.30583   -362.60709    129563.74   -33531.039    2551.8119   -36082.851            0          240 
      50    138.03574   -503.63411    129437.56   -33556.366    2603.2967   -36159.663   0.50100549    244.84219 
     100     133.1616   -300.20247    129309.04   -33579.978    2511.3726   -36091.351    0.9134995    236.19665 
     150    134.57054   -140.61086    129212.86   -33592.683    2537.9446   -36130.627    1.2050835    238.69577 
     200     134.6053   -106.67824    129259.44   -33590.931       2538.6   -36129.531    1.4855516    238.75742 
     250    134.75157     -71.0433    129232.41   -33567.644    2541.3587   -36109.003    1.7099603    239.01687 
     300    135.77391   -237.74092    129255.19   -33555.587    2560.6396   -36116.227    1.9234613    240.83026 
     350    139.01603   -675.23253    129225.83   -33470.592    2621.7847   -36092.377    2.1601151      246.581 
     400     135.6687    18.760469    129182.52   -33494.445    2558.6554   -36053.101    2.4500463    240.64364 
     450      137.197   -174.43314    129177.63   -33458.697    2587.4785   -36046.176    2.7277086    243.35448 
     500     138.2084   -244.19566    129122.13   -33487.109    2606.5531   -36093.662    2.9515493    245.14845 
     550    138.34496   -336.27752    129066.87   -33519.308    2609.1286   -36128.437    3.2123684    245.39069 
     600       136.46   -186.52404    129138.17   -33550.244    2573.5791   -36123.823    3.5181524    242.04722 
     650     136.0055   -294.40158    129190.55   -33512.956    2565.0073   -36077.963    3.7909649    241.24104 
     700    137.25095   -137.54781    129222.36   -33514.509    2588.4959   -36103.005      4.01777    243.45017 
     750     135.7382   -382.48292    129210.05   -33541.464    2559.9661    -36101.43    4.2115329    240.76691 
     800    134.98487   -123.42411    129143.55   -33534.656    2545.7587   -36080.415    4.4575169     239.4307 
     850    134.41355   -213.06356    129178.75   -33500.877    2534.9838   -36035.861    4.7418345    238.41731 
     900    137.34177     2.756792     129298.1    -33525.93    2590.2089   -36116.139    5.0008288    243.61127 
     950    136.20755   -133.60831    129409.81   -33535.256    2568.8179   -36104.074    5.2492116    241.59943 
    1000    135.38267    211.08622    129580.94   -33524.568    2553.2611   -36077.829    5.4793664     240.1363 
    1050    138.85745   -97.442955     129618.2   -33519.354     2618.794   -36138.147    5.7805169    246.29972 
    1100    134.00791   -89.369464    129673.25   -33546.524    2527.3337   -36073.857     6.052696     237.6978 
    1150    133.20355    -339.6799     129694.8    -33566.28    2512.1638   -36078.444    6.2496221    236.27107 
    1200    135.50013   -306.05781    129730.18   -33586.094    2555.4763    -36141.57    6.4987392    240.34464 
    1250    136.10661   -231.57077    129673.84   -33578.279    2566.9142   -36145.193    6.7345657    241.42038 
    1300    132.93456   -38.296808    129667.11   -33615.855    2507.0907   -36122.945    6.9632502    235.79394 
    1350    133.26704   -411.10908    129583.42   -33618.498    2513.3612    -36131.86    7.2053373    236.38368 
    1400    131.48414   -272.70944    129478.79   -33684.546    2479.7363   -36164.282    7.3954832    233.22123 
    1450    134.33204   -342.95045    129482.91   -33710.891    2533.4465   -36244.338    7.5364479    238.27272 
    1500    130.67305   -213.47184    129484.26   -33682.893    2464.4396   -36147.333    7.7495361    231.78257 
    1550    135.12351   -237.10265    129472.61   -33644.342    2548.3733   -36192.715    8.0627234     239.6766 
    1600    131.85487   -324.39115    129414.17   -33652.668    2486.7282   -36139.396    8.2746698    233.87883 
    1650    136.36907   -200.28263    129353.36   -33631.032    2571.8641   -36202.896    8.4359384    241.88593 
    1700    135.13981   -350.32446    129356.88   -33616.513    2548.6808   -36165.194     8.705025    239.70552 
    1750    135.22657   -183.25915    129351.46   -33590.552     2550.317   -36140.869    8.9773639     239.8594 
    1800    133.63107   -78.157938    129453.81   -33562.072    2520.2266   -36082.299    9.2104068    237.02938 
    1850    133.64674   -343.45963    129476.66   -33581.481    2520.5221   -36102.003    9.3437555    237.05718 
    1900    133.89708   -207.52003    129436.95   -33549.919    2525.2434   -36075.162    9.5449095    237.50121 
    1950    133.27213   -154.11879    129365.76   -33545.982     2513.457   -36059.439    9.7406268    236.39269 
    2000    137.27468   -443.82393    129371.71   -33520.394    2588.9436   -36109.337    9.8730503    243.49227 
    2050    136.87966   -358.79535    129347.53   -33566.407    2581.4936     -36147.9    10.020948    242.79159 
    2100    131.84828    -468.4214    129270.13   -33566.659    2486.6039   -36053.263    10.149361    233.86714 
    2150    137.05532   -220.32992    129241.26   -33555.393    2584.8065     -36140.2    10.477236    243.10317 
    2200    132.60606   -320.55795    129219.02     -33602.7    2500.8953   -36103.596     10.75926    235.21126 
    2250    135.77448    -391.7109    129156.56   -33579.842    2560.6503   -36140.492    10.975147    240.83126 
    2300    136.42508   -493.62112    129153.41   -33585.411    2572.9204   -36158.332    11.185232    241.98528 
    2350    136.71812   -153.44743    129191.66   -33526.866    2578.4471   -36105.314     11.37122    242.50507 
    2400    137.43766   -267.94828    129241.39     -33536.5    2592.0172   -36128.517    11.538822    243.78134 
    2450    138.39623   -182.23895    129330.16   -33525.629    2610.0954   -36135.724     11.67319    245.48162 
    2500    134.41803   -138.08519    129422.39   -33537.777    2535.0682   -36072.845    11.999428    238.42525 
    2550    133.97695   -377.75942    129523.57   -33529.115    2526.7497   -36055.864    12.308354    237.64289 
    2600    135.10788    -344.7632    129573.76    -33581.85    2548.0786   -36129.929    12.505067    239.64889 
    2650    130.99166   -352.12118    129699.48    -33588.17    2470.4483   -36058.618    12.770308    232.34769 
    2700    135.56005   -36.176891    129749.35   -33605.999    2556.6063   -36162.605    12.941312    240.45092 
    2750    132.87231   -80.681595    129854.76   -33585.796    2505.9166   -36091.713     13.16763    235.68351 
    2800     133.5763   -396.97165    129840.86   -33578.385    2519.1935   -36097.578    13.374416    236.93222 
    2850    133.55039   -366.99994    129812.37   -33595.086    2518.7049   -36113.791    13.717806    236.88626 
    2900    135.05716   -403.04885    129742.94   -33589.231    2547.1221   -36136.353    13.999145    239.55892 
    2950    134.88501   -314.31178    129642.84    -33563.83    2543.8753   -36107.705    14.211216    239.25356 
    3000    135.98681    -164.7937    129635.73   -33532.555    2564.6549    -36097.21    14.460884    241.20789 
    3050    135.10965   -401.23519    129678.36   -33533.055    2548.1119   -36081.167    14.614568    239.65201 
    3100     138.0109   -351.90583    129653.34   -33502.287    2602.8284   -36105.116    14.781397    244.79815 
    3150    135.51621   -327.85768     129541.8   -33507.058    2555.7795   -36062.838    15.102436    240.37316 
    3200    133.63816    -256.4663    129530.92   -33565.357    2520.3603   -36085.717    15.343999    237.04195 
    3250    135.08191   -248.35404    129556.64   -33590.788    2547.5889   -36138.377    15.546785    239.60282 
    3300    136.50196    19.880533    129619.94   -33600.633    2574.3704   -36175.003    15.768174    242.12165 
    3350    136.55983   -351.25284    129607.21   -33610.619    2575.4618   -36186.081    16.101252    242.22429 
    3400    137.16934   -243.88926    129563.15    -33576.33    2586.9569   -36163.287    16.317998    243.30542 
    3450    133.96372   -210.90168    129528.74   -33569.189    2526.5002   -36095.689    16.646828    237.61942 
    3500    135.50775   -430.38561    129504.76   -33535.488      2555.62   -36091.108    16.872863    240.35816 
    3550    134.89025    3.0792331    129492.38   -33529.855    2543.9742   -36073.829    17.017069    239.26286 
    3600    138.49237   -347.77788    129450.39   -33535.362    2611.9086    -36147.27    17.303205    245.65215 
    3650    137.19443   -289.22568     129390.7   -33534.551      2587.43   -36121.981    17.574786    243.34991 
    3700    135.63291   -445.06123     129352.5   -33590.018    2557.9805   -36147.998    17.613541    240.58016 
    3750    137.24913   -226.33824    129275.67   -33557.981    2588.4616   -36146.443    17.786953    243.44694 
    3800    134.62539    88.904469    129340.06   -33573.047     2538.979   -36112.026    18.043465    238.79306 
    3850    134.82916   -186.40465    129411.79   -33537.612     2542.822   -36080.434    18.214658    239.15449 
    3900    135.28413   -400.30366    129344.91   -33573.944    2551.4026   -36125.347     18.24344     239.9615 
    3950    137.44109   -121.32407    129363.33   -33575.834     2592.082   -36167.916    18.477747    243.78744 
    4000    131.08235   -329.34344    129252.64   -33609.436    2472.1588   -36081.595    18.715946    232.50857 
    4050    135.57004   -227.41875    129224.08   -33615.281    2556.7947   -36172.075    18.897349    240.46864 
    4100    135.23856   -406.52676    129234.07   -33590.182    2550.5432   -36140.725    19.050691    239.88068 
    4150    134.85078    -142.3861    129258.38   -33587.117    2543.2297   -36130.347    19.252633    239.19284 
    4200    133.58879   -159.85176    129264.27   -33613.073    2519.4292   -36132.502    19.543434    236.95438 
    4250    135.06848   -273.36229     129226.9   -33595.121    2547.3354   -36142.457    19.763867    239.57899 
    4300    136.54756   -119.70092    129244.72   -33573.433    2575.2303   -36148.664    19.839992    242.20252 
    4350    134.57275   -164.92003    129233.24   -33620.125    2537.9863   -36158.111    20.088757     238.6997 
    4400    134.95148   -287.97228    129175.69   -33598.818     2545.129   -36143.947    20.169755    239.37147 
    4450    134.99262   -285.46506    129166.63   -33630.992    2545.9048   -36176.897    20.350456    239.44444 
    4500    134.28821   -175.51895    129113.41   -33647.464    2532.6199   -36180.084    20.508464    238.19498 
    4550    132.96737    -386.7995    129058.54   -33655.429    2507.7095   -36163.138    20.782004    235.85214 
    4600     134.8606     -104.034    129023.68   -33623.279    2543.4149   -36166.694    20.908913    239.21026 
    4650    136.16954   -502.03738    129032.11   -33618.957    2568.1011   -36187.058    21.003152    241.53201 
    4700    133.84422   -308.57735    128976.01   -33617.652    2524.2465   -36141.898    21.164239    237.40746 
    4750    132.45447    -122.7233    128888.33   -33595.633    2498.0363   -36093.669    21.229458    234.94237 
    4800    137.07666    23.215785    128948.69   -33584.797    2585.2089   -36170.006    21.447209    243.14102 
    4850    134.68135   -224.17535    129024.15   -33579.526    2540.0344   -36119.561    21.730917    238.89232 
    4900    133.18698   -288.58663    129051.78   -33593.985    2511.8511   -36105.836    21.829512    236.24166 
    4950    134.03633   -378.33862    128957.57   -33579.656    2527.8696   -36107.525     21.97928    237.74821 
    5000    137.94343   -238.17582    128920.88   -33584.528    2601.5559   -36186.084    22.151029    244.67847 
    5050    136.51866   -257.31849    128843.38   -33555.892    2574.6853   -36130.578    22.344623    242.15126 
    5100    134.92689    -487.9531    128889.13   -33605.802    2544.6653   -36150.468    22.645066    239.32786 
    5150    135.77912   -190.87103    128914.63   -33575.841    2560.7379   -36136.579    22.689185     240.8395 
    5200     138.2119   -137.71048    128903.62   -33551.429     2606.619   -36158.048    22.901349    245.15466 
    5250    135.26698   -278.77613    128843.34   -33542.896    2551.0791   -36093.975    23.332375    239.93108 
    5300    136.70095   -215.06306    128898.74    -33535.26    2578.1232   -36113.383    23.575588     242.4746 
    5350    134.58495   -357.00883    128909.11   -33540.633    2538.2163   -36078.849    23.831792    238.72133 
    5400     135.6521   -180.97677    128983.69       -33557    2558.3424   -36115.343    24.126154     240.6142 
    5450    137.35995   -6.0688178    129059.69    -33555.87    2590.5518   -36146.422     24.37157    243.64352 
    5500    135.89514   -275.48775     129123.1   -33602.104    2562.9259    -36165.03    24.523425    241.04529 
    5550     136.2884    50.725022     129171.5   -33592.912    2570.3426   -36163.255     24.79376    241.74283 
    5600    134.29795   -123.22658    129205.09   -33582.107    2532.8037   -36114.911    25.093852    238.21226 
    5650    135.42314    66.248228    129234.96   -33561.045    2554.0243   -36115.069    25.312067    240.20808 
    5700    135.03709   -62.052067    129361.64   -33545.164    2546.7434   -36091.908    25.655343    239.52331 
    5750    134.31614    -168.3906    129420.33   -33599.329    2533.1467   -36132.476    25.829554    238.24453 
    5800    135.18011   -280.23057    129380.47   -33562.991    2549.4407   -36112.432    25.750041    239.77699 
    5850     136.5362   -218.56477    129435.39    -33598.04    2575.0162   -36173.056    25.769203    242.18238 
    5900     134.1954   -348.86525    129382.18   -33660.896    2530.8696   -36191.765    26.029414    238.03036 
    5950    135.57456   -72.989684    129343.03   -33631.446    2556.8799   -36188.326    26.388701    240.47666 
    6000    135.77107   -72.871902    129408.54   -33648.108    2560.5861   -36208.694    26.397501    240.82522 
    6050    131.62806   -32.766043    129471.93   -33675.351    2482.4507   -36157.802    26.676063    233.47652 
    6100    134.82143   -369.04946    129508.89   -33628.496    2542.6763   -36171.172    26.960923    239.14079 
    6150    133.30426   -276.95247    129552.16   -33681.107     2514.063    -36195.17    27.104508    236.44969 
    6200    133.78668   -38.697331     129564.6   -33659.515    2523.1613   -36182.677    27.433586    237.30539 
    6250    132.74681   -379.20027    129565.87   -33597.233    2503.5498   -36100.783    27.665823    235.46091 
    6300    134.04046    167.03727    129547.22   -33599.756    2527.9475   -36127.703    27.815098    237.75554 
    6350    135.84074    -90.36808    129619.66   -33589.444    2561.9001   -36151.344    27.873043    240.94881 
    6400    134.67728    -431.1898    129594.37   -33574.028    2539.9576   -36113.985    27.882884    238.88509 
    6450    131.62504   -271.92902    129516.82   -33598.838    2482.3936   -36081.231    28.046981    233.47116 
    6500    135.97685    120.35097     129496.1    -33543.39     2564.467   -36107.857    28.400175    241.19022 
    6550    136.59087   -21.818689    129549.69   -33549.936    2576.0472   -36125.983     28.46388    242.27935 
    6600    133.81929   -99.236534    129624.42   -33604.524    2523.7764     -36128.3    28.607277    237.36324 
    6650    137.77419   -218.67025    129642.43   -33574.528    2598.3641   -36172.892    28.774032    244.37827 
    6700    134.49587   -140.50075    129700.07   -33601.082    2536.5364   -36137.619    28.998025    238.56333 
    6750    135.54722   0.90568393     129715.1   -33579.542    2556.3643   -36135.906    29.237796    240.42816 
    6800    137.20639   -65.449662    129705.09    -33579.74    2587.6555   -36167.395    29.426753    243.37112 
    6850    136.87729    122.78338    129753.07   -33558.101    2581.4489    -36139.55    29.692458    242.78739 
    6900     136.9157    53.254503    129761.08   -33539.018    2582.1732   -36121.191    29.880612    242.85551 
    6950    133.71266    53.345372    129731.03   -33572.276    2521.7653   -36094.041    30.310957    237.17409 
    7000    134.35685   -114.93726    129777.14   -33559.671    2533.9145   -36093.585    30.544664    238.31673 
    7050    135.05985   -46.327625    129836.42   -33587.395    2547.1728   -36134.567    30.722323    239.56369 
    7100    137.71174   -68.641348    129850.18    -33519.22    2597.1863   -36116.406    30.942711     244.2675 
    7150     136.9575   -230.22513    129797.07   -33531.321    2582.9617   -36114.282     31.11793    242.92967 
    7200    137.69803   -467.36023     129659.5   -33523.427    2596.9278   -36120.354    31.328977    244.24319 
    7250    135.92789   -102.35964    129688.18    -33536.85    2563.5437   -36100.394    31.572035    241.10339 
    7300     136.9406   -9.4735531    129567.79   -33578.935     2582.643   -36161.578    31.626775    242.89969 
    7350    136.69193    -228.0207    129520.51   -33579.074    2577.9532   -36157.027    31.787368    242.45861 
    7400     133.4499    -265.4875    129429.67   -33568.964    2516.8097   -36085.774    32.053863    236.70802 
    7450    134.63779    -278.6279    129403.25   -33579.085    2539.2129   -36118.298     32.29767    238.81506 
    7500    131.97692   -318.59325    129324.22   -33592.928      2489.03   -36081.958     32.48559    234.09531 
    7550     135.5829    -193.4603    129202.57   -33596.063    2557.0372     -36153.1    32.785315    240.49145 
    7600    136.98702   -84.722317    129212.06   -33593.527    2583.5184   -36177.045    33.043593    242.98202 
    7650    136.05289   -12.448291    129199.36    -33584.51    2565.9012   -36150.411    33.484274    241.32511 
    7700    135.98056   -139.85288    129234.43   -33556.514    2564.5369   -36121.051    33.768915     241.1968 
    7750    134.10529   -248.51802    129218.61   -33571.656    2529.1702   -36100.826     34.06935    237.87053 
    7800    134.55624   -265.38288    129224.18   -33563.427    2537.6749   -36101.102    34.307321     238.6704 
    7850    134.27276   -245.38143    129157.81   -33598.828    2532.3286   -36131.157     34.46123    238.16759 
    7900    135.46564   -77.198063    129161.92   -33602.491    2554.8257   -36157.317    34.588577    240.28345 
    7950    135.51386   -179.63483    129259.59   -33583.771    2555.7351   -36139.506    34.659965    240.36898 
    8000     135.3129   -175.82306    129330.63   -33578.807    2551.9451   -36130.753    34.792742    240.01253 
    8050     136.1384   -73.332807    129472.79   -33543.216    2567.5137   -36110.729     35.13571    241.47677 
    8100     135.3568   -335.28024    129452.33   -33570.216     2552.773   -36122.989    35.460874     240.0904 
    8150    135.88019   -263.38891    129425.83   -33529.881    2562.6439   -36092.525    35.910769    241.01876 
    8200    135.90759   -248.52024    129371.64   -33555.069    2563.1608    -36118.23    36.175241    241.06738 
    8250    135.34948     -167.886    129270.62   -33595.154    2552.6351   -36147.789     36.31575    240.07742 
    8300    137.31968   -56.933302    129271.72   -33565.862    2589.7922   -36155.654    36.621476    243.57208 
    8350    136.11853   -18.154633    129262.23   -33558.974    2567.1391   -36126.113    36.774039    241.44154 
    8400    133.45143   -93.633946    129257.64    -33558.18    2516.8387   -36075.018    36.995963    236.71074 
    8450    135.06208   -159.63549    129317.52   -33562.806    2547.2148   -36110.021    37.148404    239.56764 
    8500    137.44433   -286.85634    129254.83   -33542.735     2592.143   -36134.878    37.355864    243.79318 
    8550    135.86113   -232.63382    129262.84   -33545.218    2562.2846   -36107.503    37.695397    240.98497 
    8600    134.98874   -206.28901    129190.79   -33546.342    2545.8317   -36092.174    38.096894    239.43756 
    8650    136.76967    -204.2945    129084.56   -33498.894    2579.4192   -36078.313    38.404427    242.59649 
    8700    138.31267   -109.67351    129131.65   -33501.938    2608.5197   -36110.458    38.482759    245.33341 
    8750    137.05197   -229.41912     129067.7   -33493.218    2584.7432   -36077.961    38.777256    243.09722 
    8800    137.10359   -311.19412    129124.86   -33483.814    2585.7168   -36069.531    39.207671    243.18879 
    8850    137.79088    94.110545    129140.63   -33430.837    2598.6788   -36029.516     39.47073    244.40787 
    8900    137.08168   -27.846398    129144.58   -33486.213    2585.3036   -36071.517    39.721483    243.14993 
    8950    135.78712   -306.81755    129105.08   -33494.926    2560.8888   -36055.815    40.029258    240.85369 
    9000    133.95968   -107.45903    129038.01   -33512.747     2526.424   -36039.171    40.220166    237.61225 
    9050    134.99354   -267.09147    128900.49   -33543.898    2545.9221    -36089.82     40.39062    239.44606 
    9100    133.64418    -76.23039    128905.95   -33541.265    2520.4737   -36061.738    40.652755    237.05262 
    9150    136.02203    -95.71737    128903.33   -33535.527     2565.319   -36100.846    40.790156    241.27036 
    9200    133.62316   -102.68111    128902.04   -33600.259    2520.0774   -36120.336    41.160252    237.01534 
    9250    133.82542     57.05987    128985.91   -33619.839     2523.892   -36143.731    41.530922    237.37411 
    9300    133.03256   -5.5161593    129005.69   -33583.852    2508.9389   -36092.791     41.82343    235.96776 
    9350    135.43067   -288.71957    129091.19   -33547.923    2554.1663   -36102.089    42.004502    240.22144 
    9400    132.13112   -185.76472    129076.11   -33564.517    2491.9381   -36056.455    42.367722    234.36883 
    9450    133.07829   -360.54068    129078.21   -33553.098    2509.8014     -36062.9    42.543501    236.04888 
    9500    136.01047   -271.87635    129029.06    -33543.24     2565.101   -36108.341    42.705902    241.24985 
    9550    133.94684   -17.669492    129035.91    -33533.38    2526.1818   -36059.562    43.095174    237.58947 
    9600    135.89675   -97.496178    129027.89   -33512.447    2562.9562   -36075.403    43.404716    241.04814 
    9650    139.41002      62.3863    129033.38   -33467.606    2629.2151   -36096.822    43.625627    247.27984 
    9700    137.98188   -166.43733    129097.36   -33502.595    2602.2811   -36104.876    43.966983    244.74667 
    9750    136.59444   -108.63321    129139.51   -33531.238    2576.1145   -36107.353    44.288355    242.28568 
    9800      133.491   -198.92938    129203.91   -33559.001    2517.5849   -36076.586    44.349212    236.78093 
    9850    134.56908   -134.41224    129163.94   -33562.321     2537.917   -36100.238    44.382788    238.69317 
    9900    134.53882   -328.03355    129086.75   -33599.771    2537.3463   -36137.117    44.475482     238.6395 
    9950    135.18044   -50.229699    129098.53   -33588.184     2549.447   -36137.631    44.761465    239.77758 
   10000    133.83546   -399.11908    129106.82   -33623.015    2524.0812   -36147.096     44.96645    237.39191 
   10050    136.15005   -36.679452    129088.99   -33613.508    2567.7335   -36181.242    45.343285    241.49744 
   10100    136.73483   -172.20628    128993.38   -33588.347    2578.7622   -36167.109    45.618176     242.5347 
   10150    136.40324   -287.77082    129003.43   -33572.382    2572.5085    -36144.89    45.923064    241.94654 
   10200    133.03467   -107.67252     129046.9   -33647.512    2508.9786   -36156.491    46.034006     235.9715 
   10250    131.20385   -195.54206     129153.1   -33688.751    2474.4502   -36163.201    46.351225    232.72407 
   10300    133.35532    -100.8765    129104.83   -33707.699    2515.0259   -36222.725    46.519585    236.54025 
   10350    134.33977   -325.86051    129108.85   -33659.465    2533.5923   -36193.057    46.580019    238.28644 
   10400    132.29033   -62.403079     129111.1   -33678.024    2494.9408   -36172.965    46.703242    234.65123 
   10450    132.47168   -21.542573    129110.52   -33666.086    2498.3609   -36164.447    46.834006    234.97289 
   10500    135.41278   -338.25638    129184.56   -33651.553    2553.8289   -36205.382    46.913869     240.1897 
   10550    134.29291    -160.1367    129143.29   -33628.372    2532.7085   -36161.081    46.914979    238.20331 
   10600    135.98311    -1.192491    129190.12   -33567.377     2564.585   -36131.962    46.879046    241.20132 
   10650    134.40048   -118.57808    129187.61   -33601.379    2534.7373   -36136.116    47.091707    238.39412 
   10700    135.68977   -191.45811    129088.19   -33604.823    2559.0527   -36163.876     47.47043    240.68101 
   10750    132.99063    56.269291    129058.43   -33652.045    2508.1481   -36160.193    47.565296    235.89338 
   10800    133.09788   -16.031894    129135.83   -33629.326    2510.1709   -36139.496    47.754498    236.08363 
   10850    134.51458   -27.645106    129227.67   -33601.393    2536.8893   -36138.283    48.094233    238.59652 
   10900    135.48149   -184.30813     129232.9   -33566.098    2555.1248   -36121.223    48.344902    240.31158 
   10950    135.54556     4.210777    129234.05   -33552.222    2556.3331   -36108.555    48.386284    240.42523 
   11000    134.05132   -256.96601    129237.81   -33544.164    2528.1523   -36072.316    48.340825    237.77479 
   11050    133.86994   -281.63569       129220   -33542.739    2524.7315   -36067.471    48.489049    237.45307 
   11100    132.85457   -320.75674    129135.56   -33554.615    2505.5821   -36060.197    48.616367    235.65206 
   11150    134.84084   -515.89146    129085.98    -33542.06    2543.0423   -36085.102    48.665334    239.17522 
   11200    137.27677   -207.36519    128957.65   -33570.713     2588.983   -36159.696    48.759101    243.49598 
   11250    134.00883   -327.71363    128918.72   -33576.361    2527.3509   -36103.711    48.919311    237.69943 
   11300    133.64423   -387.20969    128895.08   -33573.761    2520.4747   -36094.235    49.244647    237.05272 
   11350    134.61544   -279.38178    128758.64   -33553.935    2538.7914   -36092.727    49.549552    238.77541 
   11400    134.71242   -287.62214    128714.71   -33538.127    2540.6203   -36078.747    49.780719    238.94742 
   11450    132.27744   -276.56318    128607.96   -33613.961    2494.6977   -36108.659    49.888763    234.62837 
   11500    131.70946   -208.61873    128560.03   -33618.495    2483.9857   -36102.481    49.937195    233.62089 
   11550    135.29982   -170.35071    128522.43   -33547.678    2551.6984   -36099.377     50.30602    239.98933 
   11600    135.14074   -401.43012    128501.44   -33543.013    2548.6982   -36091.711     50.69002    239.70716 
   11650    133.95806   -64.640813    128408.81   -33551.473    2526.3934   -36077.866    50.918196    237.60937 
   11700    135.10984   -146.76958    128359.17   -33553.625    2548.1156    -36101.74     51.24656    239.65236 
   11750    134.95805    209.09337    128388.12    -33489.34    2545.2529   -36034.593    51.597921    239.38312 
   11800    135.36831   -130.34344    128498.94   -33546.193    2552.9901   -36099.183    51.969595    240.11081 
   11850    135.66251   -425.17277    128473.72   -33540.457    2558.5387   -36098.995    52.292899    240.63266 
   11900    133.39551   -132.78759    128527.13   -33568.003     2515.784   -36083.787    52.617266    236.61155 
   11950    132.18325   -23.608362     128649.2   -33601.127    2492.9213   -36094.048    52.939854    234.46129 
   12000    134.44535   -49.667451    128588.11   -33625.355    2535.5836   -36160.938    53.266327    238.47372 
   12050    134.33681   -72.013803    128655.24   -33583.698    2533.5365   -36117.235    53.416576    238.28118 
   12100    136.58171    83.721342    128719.75   -33555.717    2575.8745   -36131.591    53.492415    242.26311 
   12150    134.12979   -168.19972    128847.64   -33545.347    2529.6321   -36074.979    53.486507    237.91398 
   12200    134.02791    -229.1201    128826.09   -33567.902    2527.7107   -36095.612    53.533778    237.73326 
   12250    136.23132   -279.91095    128840.94   -33558.341    2569.2663   -36127.607    53.662445     241.6416 
   12300    133.72114   -162.40495    128877.02   -33613.286    2521.9253   -36135.212    53.841885    237.18914 
   12350    137.89571   -156.23094    128930.08    -33564.93    2600.6558   -36165.586    54.086134    244.59381 
   12400    135.21639   -288.40435    128905.78   -33535.711    2550.1251   -36085.836    54.255138    239.84136 
   12450    135.15136    -393.7671    128863.89   -33559.203    2548.8986   -36108.102    54.539933      239.726 
   12500    137.06844   -112.93186       128845   -33563.511     2585.054   -36148.565    54.869496    243.12645 
   12550    135.69071    132.89838    128929.41   -33544.852    2559.0706   -36103.922    55.062469    240.68269 
   12600    133.41034   -298.48152    129004.33   -33550.545    2516.0637   -36066.608    55.521692    236.63786 
   12650    134.20206    -512.8947    129060.07   -33541.844    2530.9952   -36072.839    55.902962    238.04218 
   12700    133.95543   -302.71376     129051.4   -33606.225    2526.3439   -36132.569    56.133947    237.60472 
   12750    133.17707   -275.31618    129030.24   -33608.318    2511.6642   -36119.983    56.318933    236.22408 
   12800    132.15553   -378.36007    129039.72   -33589.379    2492.3984   -36081.778    56.580824    234.41212 
   12850    133.64308    11.832245    129107.75   -33574.929     2520.453   -36095.382    56.805095    237.05067 
   12900    136.66718   -106.09952     129176.5    -33580.21    2577.4864   -36157.696    57.126052    242.41471 
   12950    135.24483   -207.15994    129198.32   -33567.648    2550.6614    -36118.31    57.406518    239.89179 
   13000    133.37935   -309.76533    129102.13   -33536.276    2515.4792   -36051.755    57.591305    236.58288 
   13050    135.18909   -166.17301    129094.99   -33524.757    2549.6101   -36074.368    57.843361    239.79293 
   13100    137.73205   -195.50682    129083.27   -33559.038    2597.5694   -36156.607    58.048281    244.30354 
   13150    135.06771    49.182029    129095.42   -33608.613     2547.321   -36155.934    58.207799    239.57763 
   13200    136.60479     1.405519    129186.88   -33531.604    2576.3097   -36107.914    58.621658    242.30404 
   13250    136.60987     -15.3373    129203.93   -33571.776    2576.4054   -36148.181    58.646481    242.31305 
   13300    134.50926    -163.7461    129293.56   -33578.912    2536.7889   -36115.701    58.791241    238.58708 
   13350      136.059     11.15115     129267.8   -33594.032    2566.0162   -36160.048    58.988199    241.33593 
   13400    133.50853   -244.76979    129220.43   -33647.427    2517.9155   -36165.343     59.43018    236.81202 
   13450    134.25928   -177.33803    129198.92   -33654.952    2532.0743   -36187.026    59.566625    238.14366 
   13500    133.20055   -310.90152    129187.11    -33632.34    2512.1071   -36144.447    59.777041    236.26573 
   13550    137.13098   -91.962599    129182.47    -33578.04    2586.2334   -36164.273    60.104861    243.23737 
   13600    134.27179   -265.20065    129184.77   -33538.392    2532.3102   -36070.702    60.316048    238.16585 
   13650    138.17718   -384.05445    129109.34   -33548.975    2605.9644    -36154.94    60.552369    245.09309 
   13700    135.37495   -40.021016    129080.01   -33526.108    2553.1154   -36079.224    60.710248     240.1226 
   13750    135.71384   -414.03388    129111.65   -33489.799    2559.5068   -36049.306    60.969112    240.72372 
   13800    133.67076   -365.31165    129110.76   -33539.896    2520.9751   -36060.871    60.976403    237.09978 
   13850    135.00659   -22.369414    129080.48   -33592.035    2546.1683   -36138.203    61.161914    239.46922 
   13900    136.30251    55.672563    129094.22   -33548.168    2570.6088   -36118.776    61.511252    241.76787 
   13950    135.54865    86.030726    129267.03   -33575.439    2556.3914    -36131.83    61.719306     240.4307 
   14000     133.5284      205.465     129323.4   -33573.328    2518.2903   -36091.618    61.847394    236.84727 
   14050    133.66975   -146.87932    129398.73    -33576.69    2520.9559   -36097.646    62.153125    237.09798 
   14100    136.42761   -56.226462    129444.37    -33594.82    2572.9682   -36167.788    62.367666    241.98977 
   14150    136.37441   -186.02513    129520.79   -33550.713    2571.9648   -36122.678    62.458972     241.8954 
   14200    138.93723   -202.89986    129498.56   -33508.518    2620.2985   -36128.817    62.723634    246.44122 
   14250    137.29537   -95.121199    129523.35   -33562.231    2589.3338   -36151.565    63.264678    243.52897 
   14300    134.93098    -312.0123    129478.72   -33590.548    2544.7423    -36135.29    63.572407     239.3351 
   14350     134.8269   -255.01566    129389.97   -33632.452    2542.7794   -36175.231     63.65344    239.15049 
   14400    133.68057   -281.28274    129286.89    -33603.06    2521.1602    -36124.22    63.811647    237.11718 
   14450    138.21041   -167.03617    129283.52   -33586.352     2606.591   -36192.943     63.89945    245.15203 
   14500    136.84782    55.686705    129308.61   -33586.741    2580.8931   -36167.634    64.216679    242.73511 
   14550    133.63893    -105.2623    129314.03   -33581.084    2520.3748   -36101.459    64.299107    237.04332 
   14600    133.76687   -498.79495    129163.32   -33611.547    2522.7876   -36134.335    64.367233    237.27024 
   14650    134.70606   -220.62915    129038.49   -33588.602    2540.5005   -36129.103    64.412247    238.93615 
   14700    138.54046   -99.789324    129175.74   -33545.661    2612.8156   -36158.477    64.634478    245.73745 
   14750    134.80236   -6.7728002    129285.31   -33549.036    2542.3166   -36091.352    64.967735    239.10697 
   14800    137.27375   -306.49236    129392.46   -33615.463    2588.9259   -36204.388    65.025103    243.49061 
   14850    133.81522    57.766211    129438.34   -33648.934    2523.6995   -36172.634    65.222922    237.35601 
   14900    135.66906   -310.98748    129514.12   -33625.392    2558.6622   -36184.054    65.438501    240.64428 
   14950    134.45733   -68.723274    129544.36   -33647.779    2535.8094   -36183.588    65.715965    238.49496 
   15000      137.851    258.14817    129604.48   -33621.777    2599.8127   -36221.589     65.82808    244.51452 
   15050    134.90154    39.266121    129715.92   -33630.597     2544.187   -36174.784    66.097727    239.28287 
   15100    133.77859   -72.211832     129690.4    -33659.63    2523.0087   -36182.638    66.368796    237.29104 
   15150    133.64214   -349.81697    129652.07   -33649.997    2520.4353   -36170.432    66.294014    237.04901 
   15200    135.93881   -133.11686    129634.76   -33688.055    2563.7496   -36251.805    66.520046    241.12276 
   15250    132.64857   -321.26263    129588.35   -33713.948     2501.697   -36215.645    66.664155    235.28666 
   15300    132.01431   -246.10354    129611.17   -33724.249    2489.7351   -36213.984    67.021417    234.16163 
   15350    132.26029   -169.06059    129621.06    -33681.79    2494.3742   -36176.165    67.305597    234.59794 
   15400    132.99377   -614.44176    129543.57   -33677.361    2508.2073   -36185.568    67.843202    235.89895 
   15450    133.93841   -155.52906    129639.02   -33687.554    2526.0228   -36213.577    68.149165    237.57452 
   15500    134.29305   -305.98527    129625.68    -33691.56    2532.7112   -36224.272    68.195618    238.20357 
   15550    133.83652    -397.6262    129567.72   -33690.593    2524.1012   -36214.694     68.53257    237.39379 
   15600    132.98215   -443.37591     129566.6   -33720.786    2507.9882   -36228.774     68.86393    235.87835 
   15650    134.27643   -264.63944    129540.12     -33669.8    2532.3977   -36202.197     69.04817    238.17408 
   15700    133.01785   -221.23907    129532.35    -33709.88    2508.6615   -36218.541    69.147776    235.94168 
   15750     135.8397   -249.33058    129422.79   -33668.088    2561.8803   -36229.968    69.088195    240.94694 
   15800    135.84129    78.953871    129419.84   -33694.765    2561.9103   -36256.676    69.013496    240.94977 
   15850    132.70402   -356.46405    129364.06   -33697.083    2502.7427   -36199.825    69.089078    235.38501 
   15900    134.14609   -133.01278    129251.75   -33686.188    2529.9396   -36216.127    69.421972    237.94289 
   15950    134.65653   -332.86634    129164.99    -33646.64    2539.5662   -36186.206    69.434328    238.84829 
   16000    135.77062   -322.85372    129166.38   -33637.797    2560.5776   -36198.375    69.523482    240.82442 
   16050    136.63051   -77.500469    129142.98   -33629.758    2576.7947   -36206.552    69.381051    242.34966 
   16100    134.74672   -40.288963    129200.82   -33624.206    2541.2672   -36165.473    69.647975    239.00826 
   16150     134.1965   -553.53108    129151.97   -33637.212    2530.8903   -36168.102    69.760845    238.03231 
   16200    132.54464   -209.62467    129125.71   -33638.473    2499.7368    -36138.21    69.912338     235.1023 
   16250    135.68837   -268.55767    129142.36   -33674.438    2559.0263   -36233.464    69.896953    240.67853 
   16300    132.40056   -185.68392    129141.61   -33669.918    2497.0197   -36166.937    70.156224    234.84675 
   16350    136.03116    -95.54966    129127.94   -33577.346    2565.4913   -36142.838    70.414881    241.28656 
   16400    133.08473   -455.82327    129040.33   -33608.877    2509.9228     -36118.8    70.544797     236.0603 
   16450    135.23978   -216.24704    129070.87   -33614.315    2550.5661   -36164.881    70.652372    239.88284 
   16500     136.4933   -448.64684     129076.9   -33594.915    2574.2071   -36169.122    70.693654    242.10629 
   16550    132.64308    49.181043    129104.56   -33626.931    2501.5934   -36128.524    70.904201    235.27691 
   16600    133.44414   -326.94447    129073.55   -33620.838    2516.7012    -36137.54    71.165897    236.69781 
   16650    135.15873   -25.919146    129115.67   -33592.232    2549.0376   -36141.269    71.032026    239.73907 
   16700    136.80839    -190.7753    129193.41   -33594.492    2580.1495   -36174.641    71.146957    242.66518 
   16750    138.43013   -222.60497    129199.39   -33534.626    2610.7349   -36145.361    71.352227    245.54176 
   16800    137.40174   -251.98174    129114.01   -33530.309    2591.3399   -36121.649    71.456598    243.71764 
   16850    139.52283    18.631935     129108.1   -33513.251    2631.3427   -36144.593    71.920606    247.47994 
   16900    139.62093    165.08039    129164.51   -33482.844    2633.1928   -36116.037    72.277934    247.65395 
   16950    137.80606   -476.21995    129155.73   -33537.024    2598.9652   -36135.989    72.548965    244.43481 
   17000    133.49703   -409.02102    129206.84    -33617.44    2517.6985   -36135.139    72.747109    236.79161 
   17050    132.90112   -97.304141    129260.97   -33660.412      2506.46   -36166.872    73.140449    235.73462 
   17100    134.60506   -220.32208    129355.18   -33616.774    2538.5956   -36155.369    73.379027      238.757 
   17150    135.58373   -227.39533     129338.3   -33584.196     2557.053   -36141.249    73.616127    240.49293 
   17200    134.83209   -211.44941    129240.31   -33542.202    2542.8772   -36085.079    73.824775    239.15969 
   17250    140.59293   -309.21787    129219.21   -33480.538    2651.5244   -36132.062    74.088499    249.37804 
   17300    140.83071   -150.20791     129350.2   -33546.261    2656.0089    -36202.27    74.304983    249.79981 
   17350    134.42869   -118.51311    129433.48   -33553.624    2535.2693   -36088.893    74.363523    238.44415 
   17400    133.25183   -107.02753    129539.59   -33543.027    2513.0743   -36056.101    74.528671     236.3567 
   17450    134.68732   -89.586235    129477.44   -33510.688     2540.147   -36050.835    74.789092    238.90291 
   17500    134.30751   -307.72835    129536.47   -33506.585     2532.984   -36039.569    75.075472    238.22922 
   17550     132.3252   -406.25542    129526.89   -33547.357    2495.5983   -36042.955    75.073528    234.71307 
   17600    136.61773   -200.11858    129527.04   -33507.436    2576.5537   -36083.989     74.98809    242.32699 
   17650    136.56377    -311.2609    129482.86   -33469.723    2575.5361   -36045.259    75.426817    242.23128 
   17700    135.73081    -496.7087    129385.33   -33447.058    2559.8268   -36006.885    75.878728    240.75381 
   17750    140.09885   -126.12537    129387.58   -33469.709    2642.2062   -36111.915    76.206164    248.50166 
   17800    134.26396   -613.85491    129337.97   -33516.641    2532.1626   -36048.804    76.530308    238.15197 
   17850    135.92448   -351.46672    129241.88   -33535.501    2563.4792    -36098.98    76.730882    241.09733 
   17900    134.71568   -181.06505    129163.68   -33535.674    2540.6819   -36076.356    76.758851    238.95321 
   17950     133.6019    92.976363    129212.73   -33569.661    2519.6765   -36089.337    77.019943    236.97764 
   18000    133.42219   -459.61061    129165.11   -33581.872    2516.2872   -36098.159    77.267301    236.65887 
   18050    136.08311   -71.067514    129095.21   -33582.749     2566.471    -36149.22    77.777016     241.3787 
   18100    132.48924    1.3693908    129180.36   -33659.344    2498.6921   -36158.036    77.987264    235.00404 
   18150    134.93812   -496.07006    129314.52   -33625.173     2544.877    -36170.05    78.484692    239.34777 
   18200     134.9555   -143.98173    129277.93   -33630.766    2545.2047    -36175.97    78.881632    239.37859 
   18250    135.04006   -167.93584    129367.77   -33584.956    2546.7995   -36131.756    79.191827    239.52858 
   18300    134.20961   -110.10635    129355.09   -33576.329    2531.1376   -36107.467    79.523012    238.05557 
   18350    133.30663   -334.87986    129336.61   -33652.667    2514.1077   -36166.775    79.940498    236.45389 
   18400    134.06017   -198.11205     129333.1   -33631.706    2528.3192   -36160.025    79.953746    237.79049 
   18450    133.21317   -195.43826    129315.44   -33634.653    2512.3451   -36146.998    79.972395    236.28811 
   18500    136.73493   -193.09114    129330.15   -33641.682    2578.7641   -36220.446    80.179263    242.53488 
   18550    136.30936   -524.22676    129241.88   -33581.138     2570.738   -36151.876    80.313796    241.78002 
   18600    135.98648   -266.15143    129175.65   -33582.355    2564.6485   -36147.003    80.280676     241.2073 
   18650    136.86283    -257.4919    129248.82   -33525.025    2581.1761   -36106.201    80.456029    242.76173 
   18700    133.87016   -218.81389    129203.78   -33544.294    2524.7357    -36069.03    81.019956    237.45346 
   18750    139.20099   -161.51675    129166.66   -33538.345    2625.2729   -36163.618    81.236437    246.90907 
   18800    135.20522   -246.87599    129135.79   -33537.082    2549.9144   -36086.996    81.360536    239.82155 
   18850    133.09334   -173.05266    129088.06   -33604.184    2510.0853   -36114.269    81.703694    236.07558 
   18900    138.17446   -254.70037    129123.07   -33520.367     2605.913    -36126.28    81.996019    245.08826 
   18950    137.09131   -101.82802    129195.49    -33533.03    2585.4853   -36118.515    81.929827    243.16702 
   19000    136.50843   -168.90389    129299.31   -33561.652    2574.4925   -36136.145    82.232265    242.13313 
   19050    133.87094   -432.35683    129229.62   -33578.714    2524.7504   -36103.464    82.255708    237.45484 
   19100    137.08696   -334.12424    129141.21    -33586.74    2585.4032   -36172.143    82.522424    243.15929 
   19150    136.79041   -360.16825    129111.41   -33585.895    2579.8104   -36165.706    82.781746    242.63329 
   19200    133.72374   -175.19477    129020.13   -33649.756    2521.9743    -36171.73    83.000386    237.19375 
   19250    133.79696    224.80771    129016.54   -33605.461    2523.3552   -36128.817    82.927907    237.32363 
   19300    135.53084   -396.19841    129017.25   -33631.146    2556.0553   -36187.201    83.231757     240.3991 
   19350    134.11673    33.189265     128984.7   -33624.597    2529.3859   -36153.983    83.568512    237.89082 
   19400    137.12381    70.929913     129020.9   -33590.632    2586.0982    -36176.73    83.803244    243.22466 
   19450    134.98228    -8.923571       129012    -33582.53    2545.7097    -36128.24    83.848231    239.42609 
   19500    133.18393   -464.78439    129046.56   -33611.927    2511.7937   -36123.721    84.306009    236.23626 
   19550    136.80102   -298.75671    129003.06    -33600.84    2580.0105    -36180.85    84.631949     242.6521 
   19600    134.95698   -12.492523    128933.54   -33550.113    2545.2326   -36095.346    84.655021    239.38121 
   19650    135.00655   -216.54652    128978.16    -33565.93    2546.1675   -36112.098    84.926889    239.46914 
   19700    134.20873   -64.148686     129026.2   -33589.414    2531.1209   -36120.535    85.189536      238.054 
   19750    134.63786   -226.87393    129058.76   -33623.482    2539.2142   -36162.696    85.476675    238.81518 
   19800    133.29972   -185.16484    129185.09   -33651.293    2513.9775    -36165.27    86.036932    236.44165 
   19850    130.68003   -35.595121    129229.71   -33685.421    2464.5711   -36149.992    86.441364    231.79493 
   19900    133.03586   -342.81485    129246.56   -33662.027    2509.0011   -36171.028    86.750809    235.97362 
   19950     132.4282   -74.065552    129230.46   -33655.526     2497.541   -36153.067    86.794596    234.89578 
   20000    131.95627   -237.29595    129272.75   -33663.913    2488.6404   -36152.553    87.156739    234.05868 
   20050    135.04833   -2.1905103    129373.68   -33653.177    2546.9555   -36200.133    87.199774    239.54326 
   20100    132.79981   -256.96951     129424.6   -33620.328    2504.5493   -36124.877    87.362287    235.55492 
   20150    134.90475   -258.90219    129384.64    -33581.27    2544.2476   -36125.518    87.853934    239.28857 
   20200    134.52034    -246.9874    129379.68   -33572.459    2536.9978   -36109.457    87.915095    238.60672 
   20250      136.629   -72.574455    129384.05    -33536.89    2576.7662   -36113.656    88.382656    242.34698 
   20300    133.59893    -57.42866    129377.47   -33566.479    2519.6205   -36086.099    88.730143    236.97237 
   20350    135.38355   -227.55417    129398.78   -33530.195    2553.2776   -36083.472    88.916794    240.13786 
   20400    135.98515   -437.61232    129281.38   -33511.038    2564.6235   -36075.661    89.344794    241.20495 
   20450    135.80957   -0.3430363    129207.37   -33494.066    2561.3122   -36055.378    89.672406    240.89351 
   20500    137.61366    -616.3495    129233.05    -33488.59    2595.3366   -36083.926    89.905433    244.09353 
   20550     135.2766   -298.36811     129167.1   -33505.724    2551.2606   -36056.985    90.244751    239.94815 
   20600    135.62826   -277.89438    129052.01   -33533.589    2557.8927   -36091.482    90.644939    240.57191 
   20650    135.67427    68.098632    129113.65    -33546.84    2558.7604   -36105.601     90.96317    240.65351 
   20700    134.50088   -140.95835    129151.91   -33559.543    2536.6308   -36096.174    91.270497     238.5722 
   20750    137.40769   -45.309122    129197.99   -33527.798     2591.452    -36119.25    91.516146    243.72819 
   20800    135.98987   -364.14037    129240.72    -33558.66    2564.7125   -36123.372      91.6921    241.21331 
   20850    132.27026   -280.31973    129261.98   -33645.153    2494.5622   -36139.715    92.036341    234.61562 
   20900    133.65372    301.68016    129363.79   -33604.532    2520.6538   -36125.186    92.286139    237.06956 
   20950    134.47728   -53.212004    129426.67   -33609.351    2536.1858   -36145.537    92.662419    238.53035 
   21000    134.28575    56.101498    129456.57   -33680.243    2532.5736   -36212.817    93.478061    238.19063 
   21050    135.31643   -30.261562    129463.37   -33680.792    2552.0117   -36232.804    93.807063     240.0188 
   21100    131.12439   -152.58128    129401.49    -33734.17    2472.9516   -36207.122    94.034796    232.58313 
   21150    134.79645   -90.910414    129461.17   -33695.588    2542.2051   -36237.794    94.653504    239.09647 
   21200    135.86061    -410.4607    129523.44    -33684.49    2562.2747   -36246.765    95.037434    240.98404 
   21250    133.38913   -227.60256     129527.1   -33670.837    2515.6637   -36186.501    95.314927    236.60024 
   21300    137.18179   -187.40123    129531.26   -33627.946    2587.1916   -36215.138    95.258848    243.32749 
   21350    134.98527   -245.30015    129647.84   -33636.492    2545.7662   -36182.258     95.38584     239.4314 
   21400     135.1618    -19.77316    129600.47   -33657.366    2549.0954   -36206.461    95.650527    239.74452 
   21450    133.97588   -463.42127    129550.95    -33655.69    2526.7296   -36182.419    95.815714    237.64099 
   21500    134.91178   -76.835403    129423.54   -33684.721    2544.3801   -36229.101    95.819845    239.30104 
   21550    136.15603   -334.57139    129356.73   -33629.141    2567.8463   -36196.987    96.077681    241.50805 
   21600    135.55103   -189.84402    129344.67   -33617.932    2556.4361   -36174.368    96.508681    240.43492 
   21650    135.88938   -48.517027    129398.51   -33571.618    2562.8174   -36134.435    96.775404    241.03508 
   21700    135.69629   -289.80923    129420.41   -33573.052    2559.1758   -36132.228    96.825252    240.69259 
   21750    137.30901   -61.823649    129464.85   -33587.142    2589.5909   -36176.733     97.19096    243.55315 
   21800    134.27776   -169.83621    129438.07   -33604.001    2532.4229   -36136.424    97.584921    238.17645 
   21850     132.2978     73.33374    129353.73   -33673.551    2495.0816   -36168.633    97.488564    234.66447 
   21900    133.65564   -25.253627    129422.76   -33722.976    2520.6899   -36243.666     97.70025    237.07295 
   21950    133.34485   -299.11916    129421.27   -33674.407    2514.8285   -36189.235    97.833059    236.52168 
   22000    134.29173   -112.84435    129355.01   -33678.319    2532.6862   -36211.005     98.05047    238.20122 
   22050    132.66131   -97.945076    129430.48   -33671.152    2501.9373    -36173.09    98.164465    235.30925 
   22100    134.76241   -87.083647    129493.38   -33669.142    2541.5632   -36210.705    98.330034     239.0361 
   22150    135.42405   -130.00556     129450.3   -33653.805    2554.0415   -36207.847    98.445916     240.2097 
   22200    134.97847   -308.31204    129484.34   -33647.463     2545.638   -36193.101    98.698378    239.41934 
   22250    134.94857   -63.876734    129421.26   -33634.348     2545.074   -36179.422        98.79     239.3663 
   22300    133.11025   -372.20293    129458.38   -33637.646     2510.404    -36148.05    99.188517    236.10556 
   22350    136.22785   -363.29589    129413.81   -33674.453    2569.2007   -36243.654    99.739035    241.63543 
   22400    133.47122   -272.08058    129377.04   -33691.508    2517.2118    -36208.72    99.944372    236.74584 
   22450    135.35806   -541.83155    129319.05   -33668.643    2552.7969    -36221.44    100.29756    240.09265 
   22500    133.82148   -126.84781    129259.47   -33666.064    2523.8176   -36189.882      100.635    237.36712 
   22550    134.77011    156.09525    129313.26   -33679.726    2541.7084   -36221.434    100.87889    239.04976 
   22600    133.15795   -244.09922    129366.75   -33619.091    2511.3038   -36130.395    101.25618    236.19018 
   22650    135.51019   -477.86789    129375.17   -33590.676     2555.666   -36146.342    101.40634    240.36249 
   22700    138.68252   -246.39219    129381.88   -33560.922    2615.4948   -36176.417    101.75142    245.98943 
   22750    134.79968   -234.15495    129445.65   -33564.588     2542.266   -36106.854    101.91802    239.10221 
   22800    134.51291   -107.47134    129495.52   -33591.211    2536.8577   -36128.069    102.10138    238.59355 
   22850    135.52199   -8.3709127     129428.3    -33627.22    2555.8885   -36183.108    102.41459    240.38341 
   22900    135.35319   -143.87088     129440.8    -33624.81     2552.705   -36177.515    102.74326      240.084 
   22950    136.20949    -408.9713    129328.39   -33639.553    2568.8546   -36208.407    103.28358    241.60288 
   23000    133.70133    -257.2733    129335.22   -33662.443    2521.5516   -36183.995    103.49025      237.154 
   23050    133.86482     34.43441    129440.03   -33622.546     2524.635   -36147.181    103.78003    237.44399 
   23100    135.45982   -155.72109    129415.56   -33605.174    2554.7161    -36159.89    104.28292    240.27314 
   23150    137.80128   -234.70911    129480.03   -33630.182     2598.875   -36229.057    104.64035    244.42632 
   23200    137.06111   -157.22657     129519.5   -33614.131    2584.9157   -36199.047    105.00069    243.11345 
   23250    136.41951   -189.63069    129574.89   -33578.915    2572.8153   -36151.731    105.56068    241.97539 
   23300    135.76307   -132.52831    129585.86   -33607.855    2560.4351    -36168.29    105.89067    240.81102 
   23350    134.37552   -109.57501    129583.14   -33636.669    2534.2666   -36170.935    106.36069    238.34985 
   23400    134.59466    -75.03951     129673.1   -33572.058    2538.3995   -36110.457    106.46757    238.73855 
   23450    136.62468   -381.96381    129648.97   -33585.827    2576.6847   -36162.511    106.93604    242.33931 
   23500    136.27559   -299.40294    129634.04   -33602.276    2570.1011   -36172.377    107.11919    241.72011 
   23550    136.89509   -168.08895    129640.76   -33547.846    2581.7846   -36129.631    107.45721    242.81896 
   23600    137.81665   -78.377096    129626.13   -33594.621    2599.1648   -36193.786    107.76669    244.45359 
   23650    135.33267   -108.45738    129751.16    -33622.51    2552.3181   -36174.828    107.74986    240.04761 
   23700    134.84819   -245.37736    129768.35   -33670.174    2543.1809   -36213.355    108.15082    239.18825 
   23750    133.34693   -31.211669    129739.39   -33694.445    2514.8678   -36209.313    108.54438    236.52538 
   23800    135.38739   -190.62528    129807.28   -33651.727    2553.3501   -36205.077    108.88488    240.14467 
   23850     133.0825   -423.08485    129932.57   -33656.428    2509.8807   -36166.309    108.85518    236.05634 
   23900    137.06325   -388.17176     129779.4    -33648.96     2584.956   -36233.916    109.25068    243.11723 
   23950    134.05132   -179.41895    129721.11   -33657.915    2528.1522   -36186.067    109.38682    237.77479 
   24000    134.53233   -49.869587     129764.5   -33635.296     2537.224    -36172.52     109.6229      238.628 
   24050    136.53291   -212.26561    129791.48   -33588.378     2574.954   -36163.332    109.93889    242.17653 
   24100    139.55932   -472.58043    129837.34   -33545.498    2632.0308   -36177.529     110.3767    247.54466 
   24150    138.69075   -359.30736    129745.31   -33560.986      2615.65   -36176.636    110.60863    246.00403 
   24200     137.9835   -308.97396    129776.41   -33566.656    2602.3115   -36168.968    110.68505    244.74953 
   24250    138.61667   -322.17082    129743.49   -33534.851    2614.2529   -36149.104    111.10854    245.87263 
   24300    138.18458   -269.56389    129779.42    -33490.59    2606.1039   -36096.694    111.48693    245.10621 
   24350    140.97103    -387.2508    129814.01    -33501.36    2658.6552   -36160.015    111.66773    250.04871 
   24400    138.36425   -192.14691    129734.33   -33545.715    2609.4924   -36155.208    111.93802     245.4249 
   24450    136.85673   -240.13075    129828.93   -33575.183    2581.0612   -36156.244     112.2218    242.75092 
   24500    133.64398   -489.04417     129803.7    -33593.91    2520.4701    -36114.38    112.41181    237.05228 
   24550    135.62163   -177.99119    129813.11   -33645.109    2557.7676   -36202.877    112.84884    240.56014 
   24600    133.49797   -395.23059    129868.69    -33673.19    2517.7164   -36190.906    113.15155    236.79329 
   24650    136.83336    17.735521    129887.45   -33627.347    2580.6204   -36207.968    113.71803    242.70947 
   24700    132.91807  0.053238564    129999.25   -33608.644    2506.7797   -36115.423    113.98968    235.76469 
   24750    134.94851    -145.6517    130066.27   -33616.624    2545.0729   -36161.696    113.77136    239.36619 
   24800    136.75604   -175.97882    130128.02   -33565.015    2579.1621   -36144.177    113.99599    242.57231 
   24850    137.41057   -282.11127    130019.85   -33580.615    2591.5064   -36172.121    113.94874     243.7333 
   24900    138.69875   -40.641042    129985.88   -33587.317    2615.8009   -36203.118    113.98447    246.01822 
   24950    137.84316   -253.88148    129969.77   -33584.435    2599.6648     -36184.1     114.3257    244.50061 
   25000    136.19678    -82.33086    129981.47   -33567.986    2568.6149   -36136.601    114.58195    241.58033 
   25050    138.13375   -237.44039    129902.47   -33549.558    2605.1453   -36154.703    114.65401    245.01605 
   25100    134.82136   -11.006764    129878.25   -33575.607    2542.6749   -36118.281     114.8893    239.14066 
   25150    137.48445   -200.58836    129944.21   -33550.247    2592.8996   -36143.147    115.32273    243.86434 
   25200    137.23996   -168.99879    129980.49   -33520.117    2588.2888   -36108.406    115.76177    243.43068 
   25250    137.16621   -190.39209    129973.13   -33532.671    2586.8977   -36119.569    115.94504    243.29985 
   25300    138.61866   -271.05795    129975.44   -33576.671    2614.2905   -36190.961    116.15676    245.87617 
   25350    139.23153   -321.26596    129943.91   -33580.264    2625.8489   -36206.113    116.67692    246.96325 
   25400    137.43718    48.689312     129981.1   -33575.415    2592.0081   -36167.423    116.77944    243.78049 
   25450    137.91202   -176.06563    130044.62   -33628.713    2600.9634   -36229.676    117.01971    244.62274 
   25500      134.353   -55.647259    130014.34   -33658.178    2533.8418    -36192.02    117.63574     238.3099 
   25550    134.15784   -354.10619    130012.71   -33679.245    2530.1612   -36209.407    118.18034    237.96374 
   25600    134.52225    22.540868    130006.43   -33690.878    2537.0339   -36227.911    118.27374    238.61012 
   25650    135.18929    -191.7541    130137.78   -33713.984     2549.614   -36263.598    118.76398    239.79329 
   25700     133.5093   -319.26623    130086.46   -33711.643    2517.9301   -36229.573    118.79382    236.81339 
   25750    135.39648   -81.581053    130029.36   -33678.248    2553.5214   -36231.769    119.09829    240.16078 
   25800    134.65238     39.30659    130044.42   -33659.503     2539.488   -36198.991    119.42938    238.84093 
   25850     133.4398   -492.29619    130074.52   -33721.238    2516.6193   -36237.857    119.79126    236.69011 
   25900     133.3157   -45.484966    130020.67   -33646.467    2514.2788   -36160.745    120.02083    236.46998 
   25950    134.76962   -223.95904    130021.48   -33699.622    2541.6992   -36241.321    120.20683     239.0489 
   26000    133.52514   -364.21618     129992.4   -33715.557    2518.2287   -36233.786     120.2884    236.84148 
   26050    135.23548    -215.7158    129944.42    -33688.15    2550.4851   -36238.635    120.70342    239.87522 
   26100    132.20166   -0.3778789    129943.92   -33717.905    2493.2686   -36211.174    121.07387    234.49395 
   26150    132.53086    13.222876    129906.84    -33748.94     2499.477   -36248.417    121.33268    235.07786 
   26200    135.25982   -236.90165    129855.46   -33714.799    2550.9441   -36265.743    121.26281    239.91839 
   26250    136.03581   -170.65414    129843.96   -33732.883    2565.5789   -36298.461    121.57783     241.2948 
   26300    135.24541   -345.53941    129845.69   -33700.784    2550.6724   -36251.456    121.78277    239.89283 
   26350    133.30241   -277.58293    129799.78    -33692.65    2514.0281   -36206.678    122.11779    236.44641 
   26400    136.78102   -367.45821    129776.09   -33685.524    2579.6333   -36265.157    122.44087    242.61663 
   26450    135.16144    -197.5703    129737.89   -33697.711    2549.0886     -36246.8    122.69522    239.74388 
   26500    132.63263   -124.91997     129870.6   -33750.287    2501.3965   -36251.683    123.16663    235.25839 
   26550    134.89928   -338.01459     129845.8    -33701.33    2544.1445   -36245.474    123.29625    239.27888 
   26600    134.92554   -218.61679    129786.91   -33690.294    2544.6397   -36234.934    123.97155    239.32545 
   26650    133.81512   -64.771193       129751   -33710.918    2523.6976   -36234.615    124.24149    237.35583 
   26700     136.8563   -377.20595    129751.45   -33675.407     2581.053    -36256.46     124.4037    242.75015 
   26750    134.75403    89.652008    129732.69   -33672.801     2541.405   -36214.206    124.50511    239.02123 
   26800    131.61817   -183.51986    129715.82   -33690.737     2482.264   -36173.001    124.86973    233.45897 
   26850    137.90632   -207.49132    129709.37   -33682.659     2600.856   -36283.515    124.82484    244.61264 
   26900    133.17146   -293.90784    129735.34   -33661.339    2511.5586   -36172.898    124.74069    236.21414 
   26950    132.81527   -242.46589    129721.95   -33635.178    2504.8408   -36140.018    124.84403    235.58234 
   27000    136.59274   -444.65309    129747.17    -33611.07    2576.0824   -36187.153     124.9858    242.28266 
   27050    134.16272   -350.95452    129727.33   -33613.447    2530.2533   -36143.701     125.2241     237.9724 
   27100    135.09744   -146.64598    129831.66   -33677.248    2547.8817    -36225.13     125.2752    239.63037 
   27150    132.14993   -244.00788     129806.4   -33686.706    2492.2928   -36178.999    125.46843    234.40218 
   27200    135.85252   -456.33492    129689.25   -33677.126    2562.1222   -36239.248    125.53269    240.96969 
   27250    136.41912   -193.03413    129680.62   -33621.264     2572.808   -36194.072    125.80172     241.9747 
   27300    135.33732   -108.88649    129723.53   -33590.881    2552.4058   -36143.287    126.06721    240.05586 
   27350    137.43693   -261.49215    129725.39   -33596.122    2592.0034   -36188.125    126.18749    243.78005 
   27400    135.19169   -142.31157    129783.19   -33631.091    2549.6592    -36180.75    126.40585    239.79754 
   27450     135.1696   -281.32341    129725.46   -33648.343    2549.2426   -36197.585    126.70201    239.75836 
   27500    134.43551   -238.60316    129789.34   -33694.028     2535.398   -36229.426    126.76516    238.45627 
   27550    133.11838   -328.57028    129814.93   -33668.358    2510.5574   -36178.916    126.90689    236.11999 
   27600    137.24779   -252.13467    129833.81   -33642.491    2588.4364   -36230.927    127.03634    243.44457 
   27650    136.78191   -339.67768    129899.33    -33599.18    2579.6502    -36178.83    127.16639    242.61822 
   27700    135.35558   -168.83964    129959.76   -33606.525    2552.7501   -36159.275    127.41261    240.08824 
   27750    137.17455    -166.0494    130008.82   -33602.791    2587.0551   -36189.846    127.60635    243.31465 
   27800    133.60364   -125.34461    130057.49   -33589.798    2519.7093   -36109.507    127.80798    236.98072 
   27850    136.73531   -315.24143    130145.17   -33613.101    2578.7712   -36191.872    127.64472    242.53555 
   27900    141.56196   -271.55525    130039.17   -33587.314    2669.7999   -36257.114    127.82091    251.09687 
   27950    135.73543   -104.76415    129987.13   -33609.395     2559.914   -36169.309    127.99182    240.76201 
   28000    137.23329   -408.09845    129932.86   -33617.531    2588.1628   -36205.694     128.0769    243.41884 
   28050    136.79642   -329.92716    129816.67   -33605.665    2579.9238   -36185.589    128.14425    242.64395 
   28100    133.60501   -13.517058    129855.11   -33629.398    2519.7352   -36149.134    128.39117    236.98316 
   28150    138.09922    -128.8235    129997.07   -33593.642     2604.494   -36198.136       128.51     244.9548 
   28200    137.22029   -229.18106    129958.29    -33595.28    2587.9178   -36183.198    128.58929    243.39579 
   28250    135.38357   -106.46244    129933.49   -33555.917    2553.2779   -36109.195    128.75077    240.13788 
   28300    136.99074     -443.354     129927.8   -33587.613    2583.5886   -36171.201    128.79698    242.98862 
   28350    134.74079   -464.11995    129816.83   -33617.235    2541.1554   -36158.391    128.72217    238.99775 
   28400    134.34519   -473.77101     129815.6   -33621.091    2533.6946   -36154.786    128.65783    238.29606 
   28450    132.25414   -226.98523    129834.26   -33626.209    2494.2582   -36120.468    128.98648    234.58703 
   28500    136.89841     -330.306    129804.75   -33608.686    2581.8472   -36190.533    128.76851    242.82485 
   28550    134.78128   -445.84851    129750.09   -33570.137     2541.919   -36112.056    128.84581    239.06956 
   28600    134.55651   -320.83368    129746.14   -33545.818      2537.68   -36083.498    128.73488    238.67089 
   28650    136.40241   -414.32822    129702.62   -33556.128    2572.4929   -36128.621    128.88883    241.94507 
   28700    136.40545   -445.82983     129646.2   -33532.093    2572.5502   -36104.643    129.09476    241.95045 
   28750     136.0396   -167.10576    129606.98   -33512.049    2565.6504   -36077.699    129.60798    241.30153 
   28800    137.67999   -139.94551    129566.34   -33492.791    2596.5876   -36089.379     129.8183    244.21119 
   28850    135.77207   -93.640936    129503.07   -33504.294     2560.605   -36064.899    129.97495      240.827 
   28900    138.22695   -342.52833     129520.4     -33474.9    2606.9029   -36081.803    130.20537    245.18136 
   28950    138.22283   -354.77851    129469.31   -33453.041    2606.8253   -36059.866    130.18765    245.17405 
   29000    139.29193   -19.075218    129518.06   -33393.287     2626.988   -36020.275    130.51656    247.07038 
   29050    136.20647   -152.52005    129541.13    -33480.64    2568.7975   -36049.438    130.59792    241.59751 
   29100    134.88399   -46.769865    129601.54   -33503.449    2543.8562   -36047.305    130.91157    239.25176 
   29150    138.97342   -286.82478    129564.68   -33443.952     2620.981   -36064.933    131.02314    246.50542 
   29200    136.54929   -96.030785    129525.98    -33433.44    2575.2629   -36008.703     131.0007    242.20559 
   29250      135.529   -281.55076     129513.8   -33475.458    2556.0207   -36031.478    131.26734    240.39584 
   29300    132.30016    34.959606    129463.35   -33545.551    2495.1262   -36040.677    131.64819    234.66867 
   29350    134.06734   -100.67959    129497.34   -33530.916    2528.4545   -36059.371    131.88071    237.80322 
   29400    132.43867   -198.74571       129480   -33515.313    2497.7385   -36013.051    132.14426    234.91435 
   29450    135.74682   -533.01219    129400.07   -33548.825    2560.1286   -36108.954     132.3497     240.7822 
   29500    136.21082    -659.3887    129268.53   -33530.148    2568.8796   -36099.027    132.47815    241.60524 
   29550     134.2456   -149.58578    129222.28   -33578.589    2531.8163   -36110.405    132.63504     238.1194 
   29600    133.89219   -364.77182    129060.75   -33589.172    2525.1512   -36114.323    132.76378    237.49254 
   29650    133.26696   -337.53708    128973.29   -33593.244    2513.3597   -36106.604    132.88745    236.38354 
   29700    135.28826   -362.17107    128842.68   -33610.464    2551.4804   -36161.945    133.23251    239.96883 
   29750    133.44899   -343.74849     128803.6   -33657.446    2516.7927   -36174.238     133.4853    236.70642 
   29800    133.72833   -444.64832    128749.77   -33620.958    2522.0609   -36143.018      133.416    237.20189 
   29850    135.12203   -223.07396    128719.87   -33599.679    2548.3455   -36148.024    133.56415    239.67398 
   29900    136.31551   -31.325171    128740.56   -33525.565    2570.8539   -36096.419    133.98326    241.79092 
   29950    134.20421    -14.89581    128802.46   -33543.665    2531.0358   -36074.701    134.40063    238.04599 
   30000    136.15413   -299.70041    128801.98   -33515.674    2567.8104   -36083.485    134.37864    241.50468 
   30050    133.83636   -386.22049    128689.58   -33546.933    2524.0983   -36071.031    134.49009    237.39351 
   30100    133.58811   -86.839646    128633.96   -33535.182    2519.4163   -36054.598    134.67288    236.95317 
   30150    134.56284   -132.22445    128638.54   -33541.304    2537.7993   -36079.103     134.7619     238.6821 
   30200    139.27812    -27.52776    128687.44    -33453.46    2626.7276   -36080.188    134.93725    247.04589 
   30250    137.40379   -258.02854    128667.47   -33416.048    2591.3786   -36007.426    135.48849    243.72128 
   30300    136.97117   -272.11116    128628.79   -33417.321    2583.2194    -36000.54    135.94542     242.9539 
   30350     134.6855     -92.9236    128583.99   -33485.907    2540.1127    -36026.02    136.26351    238.89968 
   30400    135.47089   -329.03625    128589.28    -33473.36    2554.9248   -36028.285    136.60372    240.29277 
   30450    134.55671    48.832582    128594.21   -33450.924    2537.6838   -35988.608    136.99904    238.67125 
   30500    135.55237   -182.49414    128678.83   -33464.988    2556.4614   -36021.449    137.45799    240.43729 
   30550    139.86622   -113.71818    128769.28   -33474.179    2637.8189   -36111.998    137.81819    248.08903 
   30600    134.70111    8.0950711    128774.11   -33486.276    2540.4071   -36026.683    137.90839    238.92737 
   30650    134.38391    25.338783    128835.92   -33498.858    2534.4249   -36033.283    138.18874    238.36474 
   30700    135.13284   -71.636194    128832.28   -33482.233    2548.5493   -36030.782    138.15418    239.69315 
   30750    135.45326    178.07593    128921.71   -33499.352    2554.5924   -36053.945    138.34786    240.26151 
   30800     136.1516    -281.8734     129002.4   -33456.042    2567.7628   -36023.805    138.75883     241.5002 
   30850    135.13826   -407.75497    128987.25   -33462.193    2548.6515   -36010.845    138.89404    239.70277 
   30900    133.80014    -267.0252    128953.57    -33462.41    2523.4152   -35985.825    139.01374    237.32927 
   30950    137.73072    26.076956    128948.24   -33473.547    2597.5442   -36071.091    139.03142    244.30116 
   31000    136.06233   -207.39793    129025.72   -33513.994    2566.0792   -36080.073     139.4826    241.34185 
   31050    137.02116   -489.65062    128991.16   -33492.976    2584.1622   -36077.138    139.71939    243.04257 
   31100    134.83903    -289.5982    128903.87    -33523.68    2543.0082   -36066.688    139.89276    239.17201 
   31150    134.76153    -785.8336     128867.1   -33520.517    2541.5465   -36062.063    140.45871    239.03453 
   31200    133.62346   -198.93755    128864.83    -33522.72    2520.0831   -36042.803    140.63939    237.01588 
   31250    137.26847   -433.72595    128885.07   -33481.701    2588.8264   -36070.527    140.96649    243.48125 
   31300    135.49572   -116.31457    128813.59   -33517.245    2555.3931   -36072.638    141.35459    240.33682 
   31350    134.58874   -178.89452    128858.74   -33549.122    2538.2879    -36087.41    141.48994    238.72806 
   31400    137.70927      39.9297    128771.85   -33542.667    2597.1397   -36139.806    141.81692    244.26312 
   31450    133.41416   -171.27606    128786.22   -33586.425    2516.1357   -36102.561     141.9567    236.64463 
   31500     134.3796   -168.56195    128803.31   -33566.445    2534.3435   -36100.789     142.0016    238.35708 
   31550    133.92769   -247.01604    128722.24   -33558.552    2525.8206   -36084.373    142.40989     237.5555 
   31600    134.06697   -223.00437    128813.38   -33539.923    2528.4475   -36068.371    143.04205    237.80257 
   31650    133.07607   -212.50242     128820.5   -33572.995    2509.7596   -36082.755    143.22224    236.04495 
   31700    132.27575   -263.21634    128787.62   -33581.087    2494.6658   -36075.753    143.52645    234.62536 
   31750    133.22872   -153.40132    128757.62   -33583.869    2512.6384   -36096.507     143.6433     236.3157 
   31800    134.99115   -164.18687    128797.02   -33552.657    2545.8771   -36098.534    143.92703    239.44183 
   31850     136.1126   -145.47451    128810.77   -33514.254    2567.0272   -36081.281    144.33553    241.43101 
   31900    135.77594    -368.4078    128730.95   -33502.907    2560.6779   -36063.585    144.72954    240.83386 
   31950    136.58436   -561.33642    128603.85   -33556.294    2575.9243   -36132.218    144.88489     242.2678 
   32000    137.91998   -165.15324    128543.69   -33560.171    2601.1135   -36161.285    144.97624    244.63686 
   32050    131.46547   -31.808486    128499.58   -33603.714    2479.3842   -36083.098    144.76978    233.18811 
   32100    134.39188   -132.41893    128551.59   -33592.403    2534.5751   -36126.978     145.0485    238.37887 
   32150     135.3108   -77.454951    128541.76   -33571.489    2551.9055   -36123.395    145.10526     240.0088 
   32200    134.50759     -169.494    128587.32   -33561.058    2536.7574   -36097.815    145.29835    238.58411 
   32250    135.86748   -146.38536    128564.03   -33538.037    2562.4043   -36100.441    145.29952    240.99623 
   32300    133.38764    47.876578    128573.73   -33578.015    2515.6355   -36093.651    145.75785    236.59758 
   32350    134.92567    67.448107    128646.96   -33571.787    2544.6423   -36116.429    145.98587    239.32569 
   32400    134.71124   -234.39443    128727.09   -33545.506    2540.5982   -36086.104    146.30552    238.94534 
   32450     134.9911   -295.85672    128716.51   -33533.883    2545.8762   -36079.759    146.59933    239.44174 
   32500    136.04041   -22.978626    128712.15   -33536.163    2565.6657   -36101.829    146.73318    241.30297 
   32550    135.24873   -314.41497    128788.16   -33552.833     2550.735   -36103.568    147.11286    239.89872 
   32600    137.93874   -7.0307606    128731.91   -33537.459    2601.4675   -36138.927    147.06558    244.67015 
   32650    138.01585   -9.5370838    128719.46   -33543.076    2602.9216   -36145.997    147.05516    244.80691 
   32700    133.77312   -198.19855    128738.88   -33600.482    2522.9055   -36123.388    146.97758    237.28133 
   32750    136.32292   -107.91645    128782.43    -33657.33    2570.9937   -36228.324    146.79461    241.80407 
   32800    135.37434   -308.13732    128737.68    -33628.15    2553.1039   -36181.253    146.94534    240.12152 
   32850    135.15857    -334.3952    128721.41   -33600.155    2549.0345    -36149.19    147.19331    239.73879 
   32900    135.89668   -174.94076    128732.63    -33595.48    2562.9551   -36158.435    147.47494    241.04803 
   32950    137.23301   -124.05526    128737.71   -33574.825    2588.1576   -36162.983    147.65166    243.41834 
   33000    135.56718   -23.738439    128840.75   -33595.455    2556.7407   -36152.196    147.85626    240.46356 
   33050    136.26336    31.867861    128977.46   -33580.795    2569.8704   -36150.666    147.97437    241.69842 
   33100    137.43019   -6.6849292    129038.41   -33491.871    2591.8764   -36083.748    148.24886     243.7681 
   33150    135.86609    123.79597    129086.01    -33483.47    2562.3781   -36045.849    148.43077    240.99376 
   33200    138.78727   -182.01531    129177.23   -33531.779    2617.4703    -36149.25    148.60675    246.17523 
   33250    137.49541   -124.42688    129100.39    -33507.78    2593.1065   -36100.887    148.69465    243.88379 
   33300    135.01936    84.524839    129127.26   -33550.711    2546.4091    -36097.12    148.63655    239.49186 
   33350    134.15682   -58.316582    129173.06   -33519.938     2530.142    -36050.08    148.53785    237.96193 
   33400    139.90449   -74.501997    129190.91   -33533.161    2638.5406   -36171.702     148.7775     248.1569 
   33450    134.23524   -115.22729    129233.09   -33572.534    2531.6209   -36104.155    148.92568    238.10102 
   33500    132.87399    13.299227    129199.82   -33579.836    2505.9483   -36085.784    149.10011    235.68649 
   33550    136.04087   -321.96489    129149.86   -33576.026    2565.6743     -36141.7    149.35757    241.30378 
   33600    136.70672   -379.41364    129156.69   -33548.829    2578.2321   -36127.061    149.35647    242.48484 
   33650    134.61989    -390.7823     129138.2   -33572.721    2538.8754   -36111.596    149.72384    238.78331 
   33700    137.38727   -4.6727941    129120.03    -33620.49    2591.0669   -36211.557    149.90055    243.69197 
   33750     134.4281   -417.70453    129076.81   -33628.103    2535.2583   -36163.362    149.84733    238.44312 
   33800    134.62104   -47.089235    129093.49   -33629.869    2538.8971   -36168.766    150.14942    238.78535 
   33850    134.75943   -181.82982    129105.01   -33564.157    2541.5069   -36105.664    150.72611    239.03081 
   33900    136.57164   -192.67248    129153.15   -33570.956    2575.6846    -36146.64     150.8668    242.24525 
   33950    137.60433   -415.00319    129102.24   -33538.993    2595.1606   -36134.154    151.17456    244.07699 
[...]
   92050    131.67311    10.444931    129095.37    -33620.55    2483.3002   -36103.851    394.04022    233.55642 
   92100    134.32289   -460.74852    129087.07   -33568.445     2533.274   -36101.719    394.57126     238.2565 
   92150    135.71129   0.41397757    129135.87   -33598.489    2559.4587   -36157.948     394.8914    240.71919 
   92200    135.54179   -339.67452    129137.74   -33550.751    2556.2619   -36107.012    395.71953    240.41853 
   92250    136.03708   -217.25404    129063.97   -33558.589    2565.6029   -36124.192    395.96897    241.29706 
   92300    133.79827   -272.38585    129076.03   -33565.536    2523.3799   -36088.916    396.18619    237.32595 
   92350    136.54797   -173.19108    129010.09   -33600.367     2575.238   -36175.605    396.20341    242.20325 
   92400    134.88493   -191.76851     129048.6   -33545.507    2543.8738   -36089.381    396.79086    239.25342 
   92450    133.13208   -279.89475    129004.53   -33539.065    2510.8158   -36049.881    397.25273    236.14429 
   92500    136.38145   -321.01518    129057.74   -33520.923    2572.0976   -36093.021    397.65059    241.90789 
   92550    138.14627   -356.88405    129010.47   -33533.322    2605.3813   -36138.703    398.15284    245.03825 
   92600    133.86332   -437.61638    128973.57   -33563.348    2524.6067   -36087.954    398.61945    237.44133 
   92650    133.12697   -408.09955    129002.72   -33571.663    2510.7195   -36082.383    399.07853    236.13523 
   92700    134.30336   -356.34863     129039.5   -33598.218    2532.9056   -36131.123    399.55541    238.22185 
   92750    134.88033   -334.13183    129059.07   -33576.524    2543.7871   -36120.311    399.06339    239.24526 
   92800    134.91981   -355.24654    128962.25   -33597.658    2544.5316   -36142.189    399.10649    239.31529 
   92850    137.13296   -197.19498    128929.25   -33618.139    2586.2708    -36204.41     399.4455    243.24089 
   92900    135.59718    87.385534    128991.76   -33609.561    2557.3066   -36166.867    399.94872    240.51679 
   92950    136.93817   -266.82166    129100.81   -33583.933    2582.5971    -36166.53     399.9371    242.89538 
   93000    135.79709   -263.39415    129035.68   -33589.126    2561.0769   -36150.203    399.72941    240.87138 
   93050    138.65352   -85.309837    129106.71   -33528.608    2614.9479   -36143.556    399.86683      245.938 
   93100    137.72961   -48.267145    129191.18   -33532.449    2597.5234   -36129.972    400.23365    244.29921 
   93150    134.25825   -104.65017    129195.31   -33578.819    2532.0549   -36110.874    400.77422    238.14184 
   93200    135.97987   -76.887896    129230.19   -33552.605    2564.5239   -36117.129    401.14321    241.19557 
   93250    135.33138   -155.49356    129241.53   -33581.741    2552.2937   -36134.035    401.58475    240.04532 
   93300     136.9476   -16.517713    129302.48   -33562.169    2582.7749   -36144.944     401.5949     242.9121 
   93350    136.88944    -183.5892    129344.57   -33543.486    2581.6781   -36125.164    401.83287    242.80895 
   93400    135.82931   -210.26767    129343.84   -33565.072    2561.6844   -36126.756    402.00754    240.92852 
   93450    138.51475   -117.62838    129316.55   -33564.136    2612.3307   -36176.467    402.53571    245.69185 
   93500    135.35632   -153.47253    129419.54   -33626.498    2552.7641   -36179.262    403.16948    240.08956 
   93550    134.27902    20.205745    129479.14   -33695.513    2532.4465   -36227.959    403.42863    238.17867 
   93600    134.84736   -9.7796643    129652.92   -33663.932    2543.1653   -36207.097    403.44007    239.18679 
   93650    137.08329   -127.49813    129805.04   -33680.414     2585.334   -36265.748    403.57624    243.15278 
   93700    134.29057   -250.88492    129806.73    -33705.96    2532.6644   -36238.624    403.95102    238.19917 
   93750    134.70065   -29.949887    129824.07   -33702.295    2540.3984   -36242.693    404.54338    238.92655 
   93800    134.40979    -62.75095    129898.81    -33716.61    2534.9129   -36251.523    405.19386    238.41064 
   93850    134.15129   -267.94581    129911.28   -33719.325    2530.0376   -36249.363    405.50517    237.95211 
   93900    133.78225   -153.60704    129988.86   -33710.131    2523.0777   -36233.209    405.49144    237.29753 
   93950    134.23388   -176.75032     129999.1   -33722.149    2531.5954   -36253.744    405.67097    238.09862 
   94000    133.67723   -20.709921    129973.92   -33762.054    2521.0971   -36283.151    406.28736    237.11125 
   94050    131.67973   -70.627617    129966.04   -33720.027    2483.4252   -36203.452    406.91561    233.56817 
   94100    135.85098    84.838109    129989.66    -33735.58    2562.0932   -36297.674    407.38306    240.96697 
   94150    132.68726   -282.60032    129976.28   -33709.727    2502.4267   -36212.154    406.94868    235.35528 
   94200    134.64862   -114.17131    129931.69   -33664.077    2539.4172   -36203.494    407.14152    238.83427 
   94250    134.73641    83.266308    129919.35   -33709.779    2541.0729   -36250.852    407.24379    238.98999 
   94300    137.26665   -327.70368    129998.42   -33751.666     2588.792   -36340.458    407.17209    243.47801 
   94350    134.09598   -344.81234    129979.44   -33714.674    2528.9946   -36243.668    407.53995    237.85402 
   94400     137.1112   -335.89414     130048.4   -33627.328    2585.8603   -36213.188    408.13659    243.20228 
   94450    134.08489   -216.52644    130002.69   -33626.301    2528.7854   -36155.087    408.27048    237.83435 
   94500    137.08594    49.447863    130082.67   -33619.325     2585.384   -36204.709     408.9189    243.15749 
   94550    134.42379   -205.57036    130097.86   -33610.485    2535.1769   -36145.661    409.32561    238.43547 
   94600     137.6037   -395.17577     129946.1   -33565.522    2595.1486   -36160.671    409.37722    244.07586 
   94650    133.23995   -72.937247    129931.88   -33625.528    2512.8502   -36138.378    409.25331    236.33563 
   94700    135.58264    -394.3389    129856.86   -33612.993    2557.0324   -36170.026    409.81115      240.491 
   94750    133.62787   -285.79775    129771.41   -33645.076    2520.1662   -36165.243    410.01836     237.0237 
   94800    135.31423   -137.84203     129739.5    -33629.63    2551.9703   -36181.601    410.00031     240.0149 
   94850    135.48638   -104.76332    129834.15    -33639.16     2555.217   -36194.376    410.27061    240.32025 
   94900    134.92657   -208.62637    129786.58    -33658.63    2544.6591   -36203.289    410.50052    239.32727 
   94950    135.38856    52.570614    129835.97   -33629.963     2553.372   -36183.335    411.03977    240.14673 
   95000    134.96889   -45.538431    129846.34   -33658.837    2545.4572   -36204.294     411.1289    239.40234 
   95050    135.63484   -117.18081    129897.56   -33644.349    2558.0169   -36202.366    411.49629    240.58358 
   95100    134.17439   -327.25601     129876.4   -33670.223    2530.4733   -36200.697    411.54609    237.99309 
   95150    132.94506   -157.68164    129835.32   -33663.282    2507.2886   -36170.571    411.02327    235.81255 
   95200     133.4623   -357.67759    129786.57   -33639.761    2517.0436   -36156.804    411.52067    236.73002 
   95250    135.81778   -259.46746       129695    -33642.56     2561.467   -36204.027    411.70906    240.90808 
   95300    135.71796   -314.63672    129639.41   -33678.532    2559.5844   -36238.117    411.42338    240.73101 
   95350    134.09431    -205.1978    129487.14   -33693.596    2528.9631   -36222.559    411.60453    237.85105 
   95400    132.57156    102.50775    129526.24   -33669.929    2500.2447   -36170.174    411.94863    235.15007 
   95450    135.79225   -169.23844    129547.85   -33664.952    2560.9856   -36225.938    412.09527    240.86279 
   95500    134.60359   -145.88558    129476.39   -33657.976    2538.5678   -36196.544    412.60017    238.75438 
   95550    137.60792   -44.892773    129578.08   -33612.882    2595.2283    -36208.11    412.29236    244.08336 
   95600    136.05905    10.836087    129637.24   -33625.951    2566.0172   -36191.968    412.57086    241.33602 
   95650    135.97287   -70.772969    129620.23   -33631.338     2564.392    -36195.73    411.82194    241.18317 
   95700    135.18428   -182.83969    129638.45   -33668.321    2549.5195    -36217.84    412.00924     239.7844 
   95750    134.27579    102.16669    129670.83   -33664.991    2532.3858   -36197.377    411.65558    238.17296 
   95800    133.72911   -232.83056    129658.31   -33673.467    2522.0755   -36195.542    411.91647    237.20327 
   95850    132.83555    48.442992    129699.03   -33633.632    2505.2234   -36138.856    412.02988    235.61831 
   95900    137.97229   -62.578342       129802   -33609.602    2602.1001   -36211.702     412.5319    244.72965 
   95950     134.2487   -46.298945    129779.16   -33643.069    2531.8748   -36174.944    413.00238     238.1249 
   96000    133.71766   -365.68382    129879.47    -33660.89    2521.8596    -36182.75    413.36307    237.18297 
   96050    139.39509   -188.01554    129812.75   -33575.969    2628.9336   -36204.903    413.28571    247.25336 
   96100    137.12389    -256.4071    129804.83    -33578.91    2586.0996    -36165.01    414.17322    243.22479 
   96150     136.5174   -47.952285     129821.8   -33575.122    2574.6615   -36149.784    414.86721    242.14902 
   96200     141.0078   -319.33309    129880.97   -33566.268    2659.3485   -36225.617    415.28131    250.11391 
   96250    137.54096   -65.906246    129844.26   -33582.036    2593.9655   -36176.002    415.87513    243.96459 
   96300    138.53402   -205.16245    129918.42   -33586.844    2612.6941   -36199.538    416.25542    245.72602 
   96350    135.55641   -17.174354    129923.66   -33598.269    2556.5377   -36154.807    416.23002    240.44447 
   96400     134.5232   -255.08899    129972.99   -33615.385    2537.0517   -36152.436    416.77509    238.61179 
   96450    135.59968   -84.796522    129950.15   -33569.887    2557.3537    -36127.24    416.79015    240.52121 
   96500    139.30679   -91.488163    129987.31   -33565.905    2627.2683   -36193.173     416.3718    247.09674 
   96550    136.70453   -348.46721    129953.29   -33581.751    2578.1906   -36159.941    416.44637    242.48095 
   96600    138.27033   -358.15533    129906.85   -33600.558     2607.721   -36208.279    416.90378     245.2583 
   96650    136.69751   -76.429976    129978.43    -33584.76    2578.0584   -36162.818    416.72531    242.46851 
   96700    133.33379   -374.18677     129933.8   -33592.884    2514.6199   -36107.504    416.89712    236.50207 
   96750    135.44144   -306.48402    129912.86   -33597.904    2554.3693   -36152.273    416.93062    240.24053 
   96800    137.92021   -203.06831    129947.53   -33608.427    2601.1179   -36209.545    416.95478    244.63727 
   96850    132.71976   -282.13295    129903.93    -33640.92    2503.0396   -36143.959    416.95058    235.41293 
   96900    135.25663   -10.321247    129952.33   -33656.649    2550.8839   -36207.533    417.21934    239.91272 
   96950     135.2549   -195.93878    130020.82   -33640.278    2550.8513   -36191.129    417.83088    239.90966 
   97000    134.94224   -161.56262    129981.81   -33617.361    2544.9547   -36162.316    417.61186    239.35507 
   97050    137.37599   -429.32641    130053.86   -33598.825    2590.8541   -36189.679    417.98309    243.67195 
   97100    135.39756   -200.05681    129941.25   -33618.351    2553.5418   -36171.893    417.78092     240.1627 
   97150    134.20192   -126.64667    129905.55   -33624.591    2530.9925   -36155.584    417.93981    238.04192 
   97200    131.01299   -109.20918    129887.86   -33599.726    2470.8507   -36070.577    417.85346    232.38554 
   97250    137.93751   -134.46419    129871.05   -33599.122    2601.4442   -36200.566    417.68401    244.66796 
   97300    138.22264   -320.75259    129838.77   -33562.332    2606.8217   -36169.154    417.88862    245.17372 
   97350    134.63076   -295.56806    129792.24   -33614.946    2539.0802   -36154.026    417.91802    238.80258 
   97400    137.79342    142.35662    129770.15   -33584.065    2598.7267   -36182.792    418.21604    244.41238 
   97450    135.47844   -193.91668    129854.32    -33582.38    2555.0671   -36137.447    417.87402    240.30616 
   97500    133.33872   -204.15759    129855.44   -33637.899    2514.7129   -36152.612    418.02624    236.51081 
   97550    136.00431   -149.10512    129866.85   -33627.267    2564.9848   -36192.252    417.40991    241.23892 
   97600    134.45192   -184.17339    129855.34   -33651.667    2535.7074   -36187.375    417.31281    238.48536 
   97650    135.07211   -301.65886    129735.59   -33606.884     2547.404   -36154.288    417.86818    239.58544 
   97700    134.67487   -294.40751    129769.62   -33631.002    2539.9122   -36170.914    417.95527    238.88082 
   97750    136.57228   -429.93178    129804.79   -33598.949    2575.6966   -36174.646     417.7165    242.24638 
   97800    132.97211   -98.541516    129831.69   -33611.341    2507.7988    -36119.14    417.25953    235.86054 
   97850    137.92558    30.293028    129805.01   -33599.951    2601.2192    -36201.17    417.21106     244.6468 
   97900    136.06636   -115.45823    129850.63   -33614.305     2566.155    -36180.46    417.50121    241.34899 
   97950    134.69071   -199.83525    129844.05   -33649.651     2540.211   -36189.862    417.78112    238.90893 
   98000    137.54026   -268.44037    129803.88   -33673.751    2593.9522   -36267.703    418.25073    243.96334 
   98050    135.74353    -344.5248    129828.95   -33681.076    2560.0666   -36241.143     418.3954    240.77637 
   98100    135.63363    -299.9793    129761.43   -33676.806     2557.994     -36234.8    418.76474    240.58143 
   98150    133.49464   -290.70172    129778.07   -33724.803    2517.6535   -36242.456    419.34113    236.78738 
   98200    131.73226   -250.55134    129810.94    -33706.12    2484.4158   -36190.536    419.33215    233.66135 
   98250    133.41158   -405.96043    129750.55   -33695.658    2516.0871   -36211.745     419.4682    236.64006 
   98300    138.38823   -193.17539     129727.1   -33631.373    2609.9445   -36241.317     419.4591    245.46742 
   98350    137.11796   -197.73117    129678.55   -33647.578    2585.9878   -36233.566    419.52804    243.21427 
   98400    136.21439   -276.44253    129753.75   -33665.816    2568.9469   -36234.763    420.20972    241.61157 
   98450    136.14211   -154.15788    129773.23   -33661.895    2567.5837   -36229.478    420.62641    241.48335 
   98500    137.78438   -358.51966    129780.72   -33620.873    2598.5563   -36219.429    421.51301    244.39635 
   98550    136.19055   -446.24203    129751.34   -33620.356    2568.4972   -36188.853    421.85004    241.56927 
   98600     135.3044   -74.906019    129641.07   -33625.093    2551.7848   -36176.878      422.687    239.99746 
   98650    136.48959    70.220172    129666.94   -33585.684     2574.137   -36159.821    423.32714     242.0997 
   98700    137.23726   -301.66222    129664.34   -33609.541    2588.2378   -36197.779    423.90675    243.42589 
   98750    135.78445   -300.25469    129728.12   -33628.737    2560.8383   -36189.575    424.07014    240.84895 
   98800    133.70136   -154.22126     129763.7   -33662.034    2521.5522   -36183.586    424.47404    237.15406 
   98850    137.86913   -96.405922    129824.49   -33662.718    2600.1547   -36262.873    424.64477    244.54668 
   98900    131.08905   -79.503792    129708.07   -33715.855     2472.285    -36188.14     424.6163    232.52044 
   98950     135.6296   -129.93388    129741.09   -33671.166     2557.918   -36229.084    424.46801    240.57428 
   99000    133.76537    -418.1996    129748.78   -33661.522    2522.7594   -36184.282    424.92377    237.26759 
   99050    131.86087   -41.402584    129763.73   -33697.688    2486.8413    -36184.53     425.4935    233.88947 
   99100    134.91536   -371.04125    129717.61   -33672.797    2544.4477   -36217.245     425.8697     239.3074 
   99150    135.04408   -48.158638    129740.08   -33706.149    2546.8753   -36253.024    426.13788    239.53572 
   99200     133.5646   -381.39818    129741.04   -33693.052     2518.973   -36212.025    426.68752    236.91148 
   99250    133.76488   -475.39837    129695.16   -33677.919    2522.7501   -36200.669    426.61872    237.26672 
   99300    134.50016   -531.87004    129620.02   -33598.885    2536.6172   -36135.502    426.82177    238.57093 
   99350    136.91572    17.477821    129526.34    -33566.58    2582.1737   -36148.754    427.40298    242.85555 
   99400    137.81364   -166.66644     129549.3   -33571.407    2599.1081   -36170.515    428.09911    244.44824 
   99450    132.49885    -286.0987    129596.62   -33612.765    2498.8734   -36111.638    428.61666    235.02109 
   99500    135.10457   -225.65249    129626.86   -33597.179    2548.0162   -36145.195    428.76484    239.64301 
   99550    137.50924    82.983932     129695.1   -33603.672    2593.3672    -36197.04    429.05809    243.90832 
   99600    134.00687   -325.48238    129685.44   -33657.843    2527.3139   -36185.157    429.55836    237.69595 
   99650    134.18381   -186.77046    129548.75   -33665.674     2530.651   -36196.325    429.36837    238.00981 
   99700    134.94959   -390.99507    129437.27   -33664.518    2545.0933   -36209.612    429.65314    239.36811 
   99750    136.61383   -360.49488    129339.18   -33627.481    2576.4801   -36203.961    429.88438    242.32007 
   99800    131.92609   -25.227519     129251.3   -33641.066    2488.0713   -36129.137    430.29437    234.00514 
   99850    137.71852   -75.250586     129331.6   -33635.693    2597.3141   -36233.007    430.84298    244.27953 
   99900    131.90883   -524.42972    129358.68   -33645.622    2487.7459   -36133.368    431.21886    233.97454 
   99950    134.45226   -229.93626    129415.61   -33676.154    2535.7139   -36211.868    431.44497    238.48597 
  100000    138.74497   -334.29759    129376.52   -33644.558    2616.6726    -36261.23    431.95057     246.1002 
Loop time of 340.002 on 12 procs for 100000 steps with 6328 atoms

Performance: 127.058 ns/day, 0.189 hours/ns, 294.116 timesteps/s
98.1% CPU use with 12 MPI tasks x no OpenMP threads

MPI task timing breakdown:
Section |  min time  |  avg time  |  max time  |%varavg| %total
---------------------------------------------------------------
Pair    | 68.519     | 134.39     | 264.49     | 770.9 | 39.53
Neigh   | 5.0048     | 9.014      | 16.952     | 177.9 |  2.65
Comm    | 48.004     | 185.12     | 254.41     | 691.4 | 54.45
Output  | 0.12588    | 0.13365    | 0.16938    |   3.0 |  0.04
Modify  | 8.0707     | 8.9839     | 9.5441     |  19.4 |  2.64
Other   |            | 2.364      |            |       |  0.70

Nlocal:        527.333 ave         892 max         353 min
Histogram: 8 0 0 0 0 0 0 0 1 3
Nghost:        1714.17 ave        1941 max        1602 min
Histogram: 8 0 0 0 0 0 0 0 2 2
Neighs:        0.00000 ave           0 max           0 min
Histogram: 12 0 0 0 0 0 0 0 0 0
FullNghs:      45584.7 ave      108696 max       15621 min
Histogram: 8 0 0 0 0 0 0 0 0 4

Total # of neighbors = 547016
Ave neighs/atom = 86.443742
Neighbor list builds = 5997
Dangerous builds = 0

write_data		${DIR}/data.eq-${NAME}-${TEMP}
write_data		run_0/data.eq-${NAME}-${TEMP}
write_data		run_0/data.eq-het_freeze_0-${TEMP}
write_data		run_0/data.eq-het_freeze_0-240
System init for write_data ...
undump          1

reset_timestep  0

unfix           2
unfix           3
unfix           4


################################################
#######         Run Simulation         #########
################################################

log				${DIR}/log.run_${NAME}
log				run_0/log.run_${NAME}
log				run_0/log.run_het_freeze_0
