LAMMPS data file via write_data, version 16 Mar 2018, timestep = 100000

6489 atoms
2 atom types

0.0000000000000000e+00 4.9219999999999999e+01 xlo xhi
0.0000000000000000e+00 4.9019635930410494e+01 ylo yhi
2.0700965475871378e+00 5.7991903452412657e+01 zlo zhi

Masses

1 18.015
2 12.01

Atoms # atomic

456 1 2.3754516956736791e+00 2.4814340858265198e+00 6.8213239455187997e+00 0 1 1
3321 1 7.4595230479570085e-01 3.7071331996477701e+00 4.9620060859970714e+00 0 0 0
2070 1 9.0295943060140491e+00 1.0148428733904559e+01 5.2584348528673654e+00 0 1 0
1503 1 2.5035358476847125e+00 3.4666105889734560e+00 2.7730306509170646e+00 0 1 1
3564 1 4.9094752939829345e+00 3.5482431274124617e+00 7.1028823373300378e+00 1 0 0
2206 1 3.3539563184910830e+00 6.1238574889370581e+00 2.7911144550697768e+00 0 1 1
4719 1 6.6260672139680246e+00 2.1900222234160336e+00 3.6841931843423685e+00 1 1 0
58 1 1.6117928977706444e+00 7.7984310228449054e+00 4.0739673612846605e+00 0 0 0
3161 1 1.2848054381031832e-01 6.2717427714441261e+00 6.0700376723760510e+00 0 1 0
4664 1 5.6756459288982484e+00 6.6620063169896451e+00 4.0115017750246009e+00 0 0 1
3718 1 2.1732128599392015e+00 3.3391398614677477e+00 1.1285650207983453e+01 1 0 0
5178 1 6.4239507222255030e+00 4.5682224447487521e+00 5.2650722661042977e+00 1 1 0
3290 1 7.2139282362867716e+00 9.0102243088974774e+00 3.5446015752657614e+00 0 0 0
133 1 2.5366893356667761e+00 9.8854664087909061e+00 5.9668148013984794e+00 0 0 1
3730 1 3.8890880417284768e+00 1.2335956455299375e+01 4.7139131212577414e+00 0 0 0
2024 1 4.5911184475358757e+00 7.9769554256356798e+00 6.0463698582114436e+00 1 0 0
1826 1 4.6556624939523417e+00 1.3320067030722869e+01 8.8700842169489178e+00 1 1 0
1341 1 6.1448094097766059e+00 9.8574335421717674e+00 6.7308855595213348e+00 0 1 1
225 1 5.5238069304505055e+00 1.1373558730582102e+01 2.6613533545246186e+00 1 0 0
3437 1 8.7864251361112391e+00 1.4918207471016611e+01 7.5351309936525137e+00 1 -1 0
5029 1 9.6085834613641534e+00 7.9510558206471851e+00 6.8869268580875191e+00 1 1 1
5249 1 8.9019741848209044e+00 5.3158947151750366e+00 6.4030238538692421e+00 1 -1 0
5015 1 6.5932416601055568e+00 1.3640237956483658e+01 2.4264126402294472e+00 1 0 1
4577 1 2.8214798765156002e+00 3.8864730772168921e-01 1.1201932864510892e+01 -1 0 1
3109 1 7.2640252738658369e+00 1.5087424101137753e+01 5.1010572562659302e+00 1 0 1
14 1 4.8615347573982302e+00 1.4291328610460722e+01 6.1329566870577246e+00 0 -1 0
3450 1 1.1578635566029607e+00 1.3225544728333166e+01 3.6971218755186048e+00 1 0 0
2996 1 7.7628063545551540e-01 3.3472372656910756e+00 8.9807534191155458e+00 1 0 1
3231 1 6.3487419892927877e+00 1.8489463327871249e+00 8.6964051577194006e+00 -1 1 1
3375 1 4.1830525091837991e+00 1.3529296545693728e+00 2.9975215373340913e+00 1 -1 0
4529 1 8.3351615689928877e+00 3.8826947410509804e+00 8.8500861223415583e+00 1 0 1
5341 1 7.1575986952715587e+00 1.4258272370105351e+01 9.6422138018301062e+00 0 0 0
1265 1 1.2798007042044892e+00 6.1643147556698894e+00 8.6031488527987445e+00 0 0 1
4622 1 4.1488870839810588e+00 6.0358333436012055e+00 7.8311944873900501e+00 0 0 0
3162 1 6.2401810335652366e+00 5.3582342781979575e+00 9.9740399211714141e+00 1 0 0
3195 1 2.4571327804922203e+00 1.4389743339990444e+01 1.0121408918835883e+01 0 0 0
1567 1 4.6342573139172050e+00 7.9855520691509323e+00 9.9376089144059492e+00 0 0 1
5243 1 8.4592087991693946e-02 1.0473458235786051e+01 7.9806479252887099e+00 1 1 0
3506 1 4.0931488047061961e+00 1.0565534978066491e+01 8.7451486320020599e+00 1 1 0
1269 1 1.3641219547661529e+00 1.1739595764432222e+01 9.7968789945508323e+00 2 1 1
3115 1 8.0782592293080988e+00 1.1639153124551708e+01 1.0366146615128660e+01 0 0 1
2955 1 7.7542265520312776e+00 9.0315403369519540e+00 8.8672108278442696e+00 0 0 1
3130 1 9.6564707075890048e+00 2.4945262726717554e+00 5.9978376539637210e+00 1 1 1
3467 1 8.0081500260499041e+00 7.2611872759279210e+00 1.0932333714780803e+01 1 0 0
3177 1 9.4903300454984230e+00 1.3686645865820770e+01 3.4766280956395996e+00 1 0 0
1753 1 2.2906005391539317e+00 1.5726023374664987e+01 3.2991867672040716e+00 -1 -1 0
4630 1 5.9361121739050668e+00 2.1504176961568869e-01 1.0998842312123674e+01 0 -1 1
1928 1 4.9748117122875009e+00 3.2070798148975865e+00 1.1147005205325769e+01 0 1 0
4579 1 9.4149226860882909e+00 1.6877447005104579e-01 2.1117928363838381e+00 1 0 1
4795 1 1.6893367867971927e+00 4.8086283309684169e-01 1.5799609741399028e+01 0 1 1
1573 1 8.5322145090951498e+00 1.3285797055624457e-01 1.2426406788552619e+01 0 1 0
3570 1 7.6803847883369292e+00 1.4830528808918093e+01 1.2635173499439766e+01 1 0 0
5051 1 6.1302628056792985e+00 3.1269568036878455e+00 1.4007632947354708e+01 1 1 0
5391 1 5.7541452580061119e+00 1.1275513602866742e+00 2.0682242189112401e+01 0 1 0
3411 1 4.2519113031545502e-01 7.7374781908467432e+00 1.9920211826882849e+01 0 0 0
5151 1 6.7383960611638809e+00 4.8869302063518344e-01 1.5091679483069388e+01 0 0 0
1994 1 5.7817925044562990e-01 6.3413182076060650e+00 1.4009047374987690e+01 0 1 0
2909 1 3.1869392685165168e+00 5.4908973198361473e+00 1.3164561117186517e+01 1 0 1
5165 1 4.6027050120505004e+00 8.0348726180122423e+00 1.4276236977675888e+01 0 1 0
5136 1 7.1176344230620359e+00 6.4926347373862008e+00 1.4912435103740419e+01 1 0 0
1845 1 8.5308918516414622e-01 3.3019602964373664e+00 1.3869342564023755e+01 1 1 0
3414 1 3.1333592036921215e-01 1.1807404293572562e+01 1.5155330754955555e+01 1 0 1
2092 1 1.8558644061933491e+00 1.0550591290646297e+01 1.2360686821062989e+01 1 0 0
2964 1 4.5817387631068849e+00 9.9367329002318634e+00 1.2328394671291397e+01 0 1 1
5142 1 7.0079385944615815e+00 1.1306262789984565e+01 1.2813923245644997e+01 1 0 0
3445 1 7.1475965473733805e+00 1.5243404544238299e+01 1.8292200203313278e+01 2 -1 0
2874 1 1.0023273128697419e+00 1.4571904328796890e+01 1.4604876825125062e+01 0 1 0
2862 1 3.1210392458988241e+00 1.5056146617877985e+01 1.2949625359516554e+01 1 0 0
2953 1 2.9641203983849387e+00 1.5076049824470310e+01 1.6527295543069997e+01 0 0 0
240 1 4.8054497415671129e+00 1.3005985721045407e+01 1.6310243279846556e+01 1 1 0
3602 1 5.3038531980079195e+00 1.3545245623607974e+01 1.3623521714712185e+01 1 0 0
1889 1 7.0672682466882240e+00 1.2247883732793039e+01 1.7829969717580074e+01 1 1 0
3075 1 8.2294626490250788e+00 3.6083155589787088e+00 1.9586601002114016e+01 0 0 1
534 1 1.4179295482977967e+00 5.3383634188485560e+00 1.8055294436278320e+01 1 0 0
3200 1 8.6283582391385814e+00 3.8648670249038020e+00 1.4774658856809282e+01 1 1 1
319 1 8.2165015353794804e+00 5.9412439492566249e-01 1.9526130296033180e+01 0 1 1
4956 1 8.6743713658748991e+00 1.0482644268477090e+01 1.5902559074342680e+01 1 0 1
5167 1 2.4648135693533986e+00 3.1082782275411498e+00 1.6229833221610040e+01 1 -1 0
342 1 1.0277608894607686e+00 7.5873806349157960e+00 1.6473483455262752e+01 0 -1 1
4992 1 8.5543697031997805e+00 1.9140159688708833e+00 1.6806276055139698e+01 0 0 1
5306 1 3.3983482012770461e+00 5.7675766639815214e+00 2.0051362857158299e+01 1 -1 1
33 1 8.9907671258747541e+00 1.3314363485010478e+01 1.4659027706722334e+01 0 1 0
1697 1 4.9274480002035101e+00 5.0919455306943506e+00 1.5675744186049155e+01 -1 2 1
80 1 4.3907796849529070e+00 2.8165208548301859e+00 1.8347986102943985e+01 1 1 0
1979 1 2.4044228766543596e+00 1.1630187396020428e+01 1.6749281213282210e+01 2 0 0
1961 1 3.1737578319176771e+00 9.2364380595679449e+00 1.6199936911879078e+01 0 0 1
286 1 5.8727129882484723e+00 5.3810448890759757e+00 1.8469003333054022e+01 0 0 0
422 1 7.7477047095417735e+00 8.2392613918389159e+00 1.7194654542230900e+01 0 0 0
1767 1 5.1803672469860826e+00 8.4538333257455562e+00 1.8244584671362212e+01 0 0 1
5361 1 9.3610659779572247e-01 1.4750243664294436e+01 1.8785014930812157e+01 0 0 0
373 1 2.5688541298366201e+00 1.2078268090546556e+01 1.9829175265970957e+01 1 1 1
1998 1 5.2233232037059141e+00 1.1038801277270922e+01 1.9465892473933241e+01 1 0 0
418 1 8.1167071777708220e+00 8.6035729192830921e+00 1.3393418427376947e+01 2 0 0
5190 1 7.4093390218717614e-01 6.2721966745584756e-01 1.3206673732093037e+01 1 1 1
5059 1 4.4149936184320744e+00 3.2113121834204172e-01 1.6667993376120393e+01 1 0 1
3426 1 9.2808624863602454e+00 7.0022981634282671e+00 1.8699509582293455e+01 1 1 0
5114 1 2.6157558129449981e-01 8.5263841182644668e+00 1.1996649911460024e+01 1 1 0
6344 1 9.8278125529229445e+00 1.4270867524542011e+01 1.7437551274558167e+01 0 -1 0
2126 1 1.6262928711820257e+00 1.7254649166848539e+00 2.3953592409617336e+01 1 1 1
3058 1 9.4063722511694294e+00 7.7770967445757559e+00 2.3988671005898667e+01 1 0 0
3657 1 6.1530068487115690e+00 4.7725568019637512e+00 2.2222610511584396e+01 1 1 0
693 2 4.9220000000000006e+00 1.5629449137232333e+01 2.6881704740761876e+01 0 0 0
2080 1 1.2559731314229339e+00 1.5500890355844983e+00 2.1429348520338859e+01 0 0 0
3330 1 6.1704761942275068e+00 1.1050981414366026e+00 2.3315901107998073e+01 1 1 1
1754 1 7.5758633969132960e+00 3.3144986053256265e+00 2.4105760666742082e+01 0 1 0
6416 1 7.5677140131774721e+00 1.5153944496844780e+01 2.1226236662849345e+01 1 1 0
785 2 8.6135000000000002e+00 1.4919019630994494e+01 2.6881704740761876e+01 0 0 0
4953 1 3.9002801884795919e+00 6.2528528501977592e+00 2.4053701833599185e+01 1 0 0
6458 1 2.1374651453021940e+00 8.5299000429597740e+00 2.4251908248833026e+01 1 0 1
3010 1 1.4731347324034556e+00 4.4979176870879796e+00 2.4181188278824653e+01 0 1 1
2868 1 8.3426304613956970e-01 5.5001346284623587e+00 2.1748843646850005e+01 1 1 1
3446 1 5.4757683832165052e+00 9.0945049656159522e+00 2.1568031207598693e+01 1 0 1
5380 1 2.9849154760106797e+00 8.1717889363270064e+00 2.1585377384594761e+01 1 1 0
1286 1 6.6467998951606342e+00 7.2858801091141228e+00 2.4409834271229890e+01 0 0 1
5070 1 1.2324683510847043e+00 1.0540468752107587e+01 2.1508337967427110e+01 1 0 0
5262 1 1.4629856783855866e+00 1.1582251436367164e+01 2.4088170628963141e+01 0 -1 1
3458 1 3.9301081511617451e+00 1.2650074023019835e+01 2.4401551821615762e+01 0 0 0
695 2 4.9220000000000006e+00 1.2787731112280996e+01 2.6881704740761876e+01 0 0 0
697 2 6.1524999999999990e+00 1.3498160618518829e+01 2.6881704740761876e+01 0 0 0
1572 1 7.3213601990405159e+00 1.2261318301348583e+01 2.1216405448713946e+01 1 1 1
1559 1 5.2577388612109912e+00 9.9517605427176044e+00 2.4122424453411533e+01 0 1 1
3249 1 7.3223095999175225e+00 1.1947445974875560e+01 2.4072465596789712e+01 1 0 0
5008 1 3.9298290697948097e+00 3.3634236331530060e-01 2.4470870496612438e+01 0 0 0
5298 1 9.5640232428606549e+00 1.0498419930379066e+01 2.4475670256943282e+01 0 0 0
5077 1 2.8055950562931478e+00 1.5599790420314573e+01 2.4268884710307056e+01 1 -1 1
3441 1 7.4258499185875406e+00 7.1092979287864697e+00 2.1174282444740044e+01 1 0 0
333 1 7.4616200716239787e+00 1.4924556184347070e+01 2.4345764686143823e+01 1 -1 0
5038 1 9.4886860205687640e+00 3.7622156475730830e+00 2.2263309394804505e+01 -1 0 1
572 2 0.0000000000000000e+00 2.8417180249513345e+00 2.6881704740761876e+01 0 0 0
574 2 0.0000000000000000e+00 0.0000000000000000e+00 2.6881704740761876e+01 0 0 0
576 2 1.2305000000000001e+00 7.1042950623783474e-01 2.6881704740761876e+01 0 0 0
583 2 1.2305000000000001e+00 2.1312885187134998e+00 2.6881704740761876e+01 0 0 0
585 2 2.4610000000000003e+00 2.8417180249513345e+00 2.6881704740761876e+01 0 0 0
587 2 2.4610000000000003e+00 0.0000000000000000e+00 2.6881704740761876e+01 0 0 0
589 2 3.6915000000000004e+00 7.1042950623783474e-01 2.6881704740761876e+01 0 0 0
604 2 3.6914999999999996e+00 2.1312885187134998e+00 2.6881704740761876e+01 0 0 0
606 2 4.9220000000000006e+00 2.8417180249513332e+00 2.6881704740761876e+01 0 0 0
608 2 4.9220000000000006e+00 0.0000000000000000e+00 2.6881704740761876e+01 0 0 0
610 2 6.1524999999999999e+00 7.1042950623783407e-01 2.6881704740761876e+01 0 0 0
633 2 6.1524999999999999e+00 2.1312885187134989e+00 2.6881704740761876e+01 0 0 0
635 2 7.3829999999999991e+00 2.8417180249513345e+00 2.6881704740761876e+01 0 0 0
637 2 7.3829999999999991e+00 0.0000000000000000e+00 2.6881704740761876e+01 0 0 0
639 2 8.6134999999999984e+00 7.1042950623783407e-01 2.6881704740761876e+01 0 0 0
670 2 8.6134999999999984e+00 2.1312885187135002e+00 2.6881704740761876e+01 0 0 0
579 2 0.0000000000000000e+00 4.2625770374269996e+00 2.6881704740761876e+01 0 0 0
581 2 1.2305000000000001e+00 4.9730065436648339e+00 2.6881704740761876e+01 0 0 0
596 2 1.2305000000000001e+00 6.3938655561404980e+00 2.6881704740761876e+01 0 0 0
600 2 2.4610000000000003e+00 4.2625770374269996e+00 2.6881704740761876e+01 0 0 0
602 2 3.6914999999999996e+00 4.9730065436648339e+00 2.6881704740761876e+01 0 0 0
625 2 3.6914999999999996e+00 6.3938655561404980e+00 2.6881704740761876e+01 0 0 0
577 2 0.0000000000000000e+00 7.1042950623783341e+00 2.6881704740761876e+01 0 0 0
598 2 2.4610000000000003e+00 7.1042950623783341e+00 2.6881704740761876e+01 0 0 0
629 2 4.9220000000000006e+00 4.2625770374269978e+00 2.6881704740761876e+01 0 0 0
631 2 6.1524999999999999e+00 4.9730065436648339e+00 2.6881704740761876e+01 0 0 0
662 2 6.1524999999999999e+00 6.3938655561404980e+00 2.6881704740761876e+01 0 0 0
666 2 7.3829999999999991e+00 4.2625770374269996e+00 2.6881704740761876e+01 0 0 0
668 2 8.6135000000000002e+00 4.9730065436648339e+00 2.6881704740761876e+01 0 0 0
707 2 8.6135000000000002e+00 6.3938655561404980e+00 2.6881704740761876e+01 0 0 0
627 2 4.9220000000000006e+00 7.1042950623783341e+00 2.6881704740761876e+01 0 0 0
664 2 7.3830000000000009e+00 7.1042950623783341e+00 2.6881704740761876e+01 0 0 0
592 2 0.0000000000000000e+00 8.5251540748539991e+00 2.6881704740761876e+01 0 0 0
594 2 1.2305000000000001e+00 9.2355835810918343e+00 2.6881704740761876e+01 0 0 0
621 2 2.4610000000000003e+00 8.5251540748539991e+00 2.6881704740761876e+01 0 0 0
623 2 3.6915000000000004e+00 9.2355835810918343e+00 2.6881704740761876e+01 0 0 0
590 2 0.0000000000000000e+00 1.1366872099805333e+01 2.6881704740761876e+01 0 0 0
617 2 1.2305000000000001e+00 1.0656442593567498e+01 2.6881704740761876e+01 0 0 0
619 2 2.4610000000000003e+00 1.1366872099805333e+01 2.6881704740761876e+01 0 0 0
654 2 3.6914999999999996e+00 1.0656442593567499e+01 2.6881704740761876e+01 0 0 0
658 2 4.9220000000000006e+00 8.5251540748539991e+00 2.6881704740761876e+01 0 0 0
660 2 6.1524999999999999e+00 9.2355835810918343e+00 2.6881704740761876e+01 0 0 0
703 2 7.3830000000000009e+00 8.5251540748539991e+00 2.6881704740761876e+01 0 0 0
705 2 8.6134999999999984e+00 9.2355835810918343e+00 2.6881704740761876e+01 0 0 0
656 2 4.9220000000000006e+00 1.1366872099805333e+01 2.6881704740761876e+01 0 0 0
699 2 6.1524999999999999e+00 1.0656442593567499e+01 2.6881704740761876e+01 0 0 0
701 2 7.3829999999999991e+00 1.1366872099805333e+01 2.6881704740761876e+01 0 0 0
746 2 8.6134999999999984e+00 1.0656442593567498e+01 2.6881704740761876e+01 0 0 0
650 2 2.4610000000000003e+00 1.2787731112280996e+01 2.6881704740761876e+01 0 0 0
652 2 3.6915000000000004e+00 1.3498160618518829e+01 2.6881704740761876e+01 0 0 0
611 2 0.0000000000000000e+00 1.5629449137232333e+01 2.6881704740761876e+01 0 0 0
648 2 2.4610000000000003e+00 1.5629449137232328e+01 2.6881704740761876e+01 0 0 0
646 2 1.2305000000000001e+00 1.4919019630994494e+01 2.6881704740761876e+01 0 0 0
691 2 3.6915000000000004e+00 1.4919019630994494e+01 2.6881704740761876e+01 0 0 0
613 2 0.0000000000000000e+00 1.2787731112280996e+01 2.6881704740761876e+01 0 0 0
615 2 1.2305000000000001e+00 1.3498160618518829e+01 2.6881704740761876e+01 0 0 0
738 2 6.1524999999999990e+00 1.4919019630994494e+01 2.6881704740761876e+01 0 0 0
744 2 8.6135000000000002e+00 1.3498160618518835e+01 2.6881704740761876e+01 0 0 0
740 2 7.3829999999999991e+00 1.5629449137232333e+01 2.6881704740761876e+01 0 0 0
742 2 7.3829999999999991e+00 1.2787731112280996e+01 2.6881704740761876e+01 0 0 0
3036 1 3.0914628815388806e-01 1.5049876994079584e+01 2.4119505639342268e+01 1 -1 0
3541 1 4.2829983689422244e+00 1.3522875381626879e+01 2.1688044773116165e+01 0 0 1
431 1 9.7729046081386439e+00 9.3033497141071042e-01 2.1947269716968616e+01 2 1 0
4936 1 3.6304341450159199e+00 3.2461390125757870e+00 2.1402373824253520e+01 1 1 0
573 2 0.0000000000000000e+00 1.4208590124756650e+00 3.0031000000000205e+01 0 0 0
575 2 0.0000000000000000e+00 0.0000000000000000e+00 3.0031000000000205e+01 0 0 0
584 2 1.2305000000000001e+00 2.1312885187134998e+00 3.0031000000000205e+01 0 0 0
586 2 2.4610000000000003e+00 1.4208590124756650e+00 3.0031000000000205e+01 0 0 0
588 2 2.4610000000000003e+00 0.0000000000000000e+00 3.0031000000000205e+01 0 0 0
605 2 3.6914999999999996e+00 2.1312885187134998e+00 3.0031000000000205e+01 0 0 0
582 2 1.2305000000000001e+00 3.5521475311891644e+00 3.0031000000000205e+01 0 0 0
603 2 3.6914999999999996e+00 3.5521475311891644e+00 3.0031000000000205e+01 0 0 0
901 2 0.0000000000000000e+00 2.8417180249513345e+00 3.3180295259238534e+01 0 0 0
902 2 0.0000000000000000e+00 0.0000000000000000e+00 3.3180295259238534e+01 0 0 0
903 2 1.2305000000000001e+00 7.1042950623783474e-01 3.3180295259238534e+01 0 0 0
907 2 1.2305000000000001e+00 2.1312885187134998e+00 3.3180295259238534e+01 0 0 0
908 2 2.4610000000000003e+00 2.8417180249513345e+00 3.3180295259238534e+01 0 0 0
909 2 2.4610000000000003e+00 0.0000000000000000e+00 3.3180295259238534e+01 0 0 0
910 2 3.6915000000000004e+00 7.1042950623783474e-01 3.3180295259238534e+01 0 0 0
918 2 3.6914999999999996e+00 2.1312885187134998e+00 3.3180295259238534e+01 0 0 0
607 2 4.9220000000000006e+00 1.4208590124756650e+00 3.0031000000000205e+01 0 0 0
609 2 4.9220000000000006e+00 0.0000000000000000e+00 3.0031000000000205e+01 0 0 0
634 2 6.1524999999999999e+00 2.1312885187134989e+00 3.0031000000000205e+01 0 0 0
636 2 7.3829999999999991e+00 1.4208590124756659e+00 3.0031000000000205e+01 0 0 0
638 2 7.3829999999999991e+00 0.0000000000000000e+00 3.0031000000000205e+01 0 0 0
671 2 8.6134999999999984e+00 2.1312885187135002e+00 3.0031000000000205e+01 0 0 0
632 2 6.1524999999999999e+00 3.5521475311891644e+00 3.0031000000000205e+01 0 0 0
669 2 8.6134999999999984e+00 3.5521475311891657e+00 3.0031000000000205e+01 0 0 0
919 2 4.9220000000000006e+00 2.8417180249513332e+00 3.3180295259238534e+01 0 0 0
920 2 4.9220000000000006e+00 0.0000000000000000e+00 3.3180295259238534e+01 0 0 0
921 2 6.1524999999999999e+00 7.1042950623783407e-01 3.3180295259238534e+01 0 0 0
933 2 6.1524999999999999e+00 2.1312885187134989e+00 3.3180295259238534e+01 0 0 0
934 2 7.3829999999999991e+00 2.8417180249513345e+00 3.3180295259238534e+01 0 0 0
935 2 7.3829999999999991e+00 0.0000000000000000e+00 3.3180295259238534e+01 0 0 0
936 2 8.6134999999999984e+00 7.1042950623783407e-01 3.3180295259238534e+01 0 0 0
952 2 8.6134999999999984e+00 2.1312885187135002e+00 3.3180295259238534e+01 0 0 0
578 2 0.0000000000000000e+00 5.6834360499026637e+00 3.0031000000000205e+01 0 0 0
580 2 0.0000000000000000e+00 4.2625770374269996e+00 3.0031000000000205e+01 0 0 0
597 2 1.2305000000000001e+00 6.3938655561404980e+00 3.0031000000000205e+01 0 0 0
599 2 2.4610000000000003e+00 5.6834360499026637e+00 3.0031000000000205e+01 0 0 0
601 2 2.4610000000000003e+00 4.2625770374269996e+00 3.0031000000000205e+01 0 0 0
626 2 3.6914999999999996e+00 6.3938655561404980e+00 3.0031000000000205e+01 0 0 0
595 2 1.2305000000000001e+00 7.8147245686161639e+00 3.0031000000000205e+01 0 0 0
624 2 3.6914999999999996e+00 7.8147245686161639e+00 3.0031000000000205e+01 0 0 0
905 2 0.0000000000000000e+00 4.2625770374269996e+00 3.3180295259238534e+01 0 0 0
906 2 1.2305000000000001e+00 4.9730065436648339e+00 3.3180295259238534e+01 0 0 0
914 2 1.2305000000000001e+00 6.3938655561404980e+00 3.3180295259238534e+01 0 0 0
916 2 2.4610000000000003e+00 4.2625770374269996e+00 3.3180295259238534e+01 0 0 0
917 2 3.6914999999999996e+00 4.9730065436648339e+00 3.3180295259238534e+01 0 0 0
929 2 3.6914999999999996e+00 6.3938655561404980e+00 3.3180295259238534e+01 0 0 0
904 2 0.0000000000000000e+00 7.1042950623783341e+00 3.3180295259238534e+01 0 0 0
915 2 2.4610000000000003e+00 7.1042950623783341e+00 3.3180295259238534e+01 0 0 0
628 2 4.9220000000000006e+00 5.6834360499026637e+00 3.0031000000000205e+01 0 0 0
630 2 4.9220000000000006e+00 4.2625770374269978e+00 3.0031000000000205e+01 0 0 0
663 2 6.1524999999999999e+00 6.3938655561404980e+00 3.0031000000000205e+01 0 0 0
665 2 7.3829999999999991e+00 5.6834360499026637e+00 3.0031000000000205e+01 0 0 0
667 2 7.3829999999999991e+00 4.2625770374269996e+00 3.0031000000000205e+01 0 0 0
708 2 8.6135000000000002e+00 6.3938655561404980e+00 3.0031000000000205e+01 0 0 0
661 2 6.1524999999999999e+00 7.8147245686161639e+00 3.0031000000000205e+01 0 0 0
706 2 8.6135000000000002e+00 7.8147245686161639e+00 3.0031000000000205e+01 0 0 0
931 2 4.9220000000000006e+00 4.2625770374269978e+00 3.3180295259238534e+01 0 0 0
932 2 6.1524999999999999e+00 4.9730065436648339e+00 3.3180295259238534e+01 0 0 0
948 2 6.1524999999999999e+00 6.3938655561404980e+00 3.3180295259238534e+01 0 0 0
950 2 7.3829999999999991e+00 4.2625770374269996e+00 3.3180295259238534e+01 0 0 0
951 2 8.6135000000000002e+00 4.9730065436648339e+00 3.3180295259238534e+01 0 0 0
971 2 8.6135000000000002e+00 6.3938655561404980e+00 3.3180295259238534e+01 0 0 0
930 2 4.9220000000000006e+00 7.1042950623783341e+00 3.3180295259238534e+01 0 0 0
949 2 7.3830000000000009e+00 7.1042950623783341e+00 3.3180295259238534e+01 0 0 0
591 2 0.0000000000000000e+00 9.9460130873296642e+00 3.0031000000000205e+01 0 0 0
593 2 0.0000000000000000e+00 8.5251540748539991e+00 3.0031000000000205e+01 0 0 0
620 2 2.4610000000000003e+00 9.9460130873296642e+00 3.0031000000000205e+01 0 0 0
622 2 2.4610000000000003e+00 8.5251540748539991e+00 3.0031000000000205e+01 0 0 0
616 2 1.2305000000000001e+00 1.2077301606043163e+01 3.0031000000000205e+01 0 0 0
618 2 1.2305000000000001e+00 1.0656442593567498e+01 3.0031000000000205e+01 0 0 0
653 2 3.6914999999999996e+00 1.2077301606043163e+01 3.0031000000000205e+01 0 0 0
655 2 3.6914999999999996e+00 1.0656442593567499e+01 3.0031000000000205e+01 0 0 0
912 2 0.0000000000000000e+00 8.5251540748539991e+00 3.3180295259238534e+01 0 0 0
913 2 1.2305000000000001e+00 9.2355835810918343e+00 3.3180295259238534e+01 0 0 0
927 2 2.4610000000000003e+00 8.5251540748539991e+00 3.3180295259238534e+01 0 0 0
928 2 3.6915000000000004e+00 9.2355835810918343e+00 3.3180295259238534e+01 0 0 0
911 2 0.0000000000000000e+00 1.1366872099805333e+01 3.3180295259238534e+01 0 0 0
925 2 1.2305000000000001e+00 1.0656442593567498e+01 3.3180295259238534e+01 0 0 0
926 2 2.4610000000000003e+00 1.1366872099805333e+01 3.3180295259238534e+01 0 0 0
944 2 3.6914999999999996e+00 1.0656442593567499e+01 3.3180295259238534e+01 0 0 0
657 2 4.9220000000000006e+00 9.9460130873296642e+00 3.0031000000000205e+01 0 0 0
659 2 4.9220000000000006e+00 8.5251540748539991e+00 3.0031000000000205e+01 0 0 0
702 2 7.3830000000000009e+00 9.9460130873296642e+00 3.0031000000000205e+01 0 0 0
704 2 7.3830000000000009e+00 8.5251540748539991e+00 3.0031000000000205e+01 0 0 0
698 2 6.1524999999999999e+00 1.2077301606043163e+01 3.0031000000000205e+01 0 0 0
700 2 6.1524999999999999e+00 1.0656442593567499e+01 3.0031000000000205e+01 0 0 0
745 2 8.6135000000000002e+00 1.2077301606043163e+01 3.0031000000000205e+01 0 0 0
747 2 8.6134999999999984e+00 1.0656442593567498e+01 3.0031000000000205e+01 0 0 0
946 2 4.9220000000000006e+00 8.5251540748539991e+00 3.3180295259238534e+01 0 0 0
947 2 6.1524999999999999e+00 9.2355835810918343e+00 3.3180295259238534e+01 0 0 0
969 2 7.3830000000000009e+00 8.5251540748539991e+00 3.3180295259238534e+01 0 0 0
970 2 8.6134999999999984e+00 9.2355835810918343e+00 3.3180295259238534e+01 0 0 0
945 2 4.9220000000000006e+00 1.1366872099805333e+01 3.3180295259238534e+01 0 0 0
967 2 6.1524999999999999e+00 1.0656442593567499e+01 3.3180295259238534e+01 0 0 0
968 2 7.3829999999999991e+00 1.1366872099805333e+01 3.3180295259238534e+01 0 0 0
991 2 8.6134999999999984e+00 1.0656442593567498e+01 3.3180295259238534e+01 0 0 0
614 2 0.0000000000000000e+00 1.2787731112280996e+01 3.0031000000000205e+01 0 0 0
651 2 2.4610000000000003e+00 1.2787731112280996e+01 3.0031000000000205e+01 0 0 0
612 2 0.0000000000000000e+00 1.4208590124756663e+01 3.0031000000000205e+01 0 0 0
647 2 1.2305000000000001e+00 1.4919019630994494e+01 3.0031000000000205e+01 0 0 0
649 2 2.4610000000000003e+00 1.4208590124756663e+01 3.0031000000000205e+01 0 0 0
692 2 3.6915000000000004e+00 1.4919019630994494e+01 3.0031000000000205e+01 0 0 0
923 2 0.0000000000000000e+00 1.2787731112280996e+01 3.3180295259238534e+01 0 0 0
924 2 1.2305000000000001e+00 1.3498160618518829e+01 3.3180295259238534e+01 0 0 0
942 2 2.4610000000000003e+00 1.2787731112280996e+01 3.3180295259238534e+01 0 0 0
943 2 3.6915000000000004e+00 1.3498160618518829e+01 3.3180295259238534e+01 0 0 0
922 2 0.0000000000000000e+00 1.5629449137232333e+01 3.3180295259238534e+01 0 0 0
940 2 1.2305000000000001e+00 1.4919019630994494e+01 3.3180295259238534e+01 0 0 0
941 2 2.4610000000000003e+00 1.5629449137232328e+01 3.3180295259238534e+01 0 0 0
963 2 3.6915000000000004e+00 1.4919019630994494e+01 3.3180295259238534e+01 0 0 0
696 2 4.9220000000000006e+00 1.2787731112280996e+01 3.0031000000000205e+01 0 0 0
743 2 7.3829999999999991e+00 1.2787731112280996e+01 3.0031000000000205e+01 0 0 0
694 2 4.9220000000000006e+00 1.4208590124756663e+01 3.0031000000000205e+01 0 0 0
739 2 6.1524999999999990e+00 1.4919019630994494e+01 3.0031000000000205e+01 0 0 0
741 2 7.3830000000000009e+00 1.4208590124756663e+01 3.0031000000000205e+01 0 0 0
786 2 8.6135000000000002e+00 1.4919019630994494e+01 3.0031000000000205e+01 0 0 0
965 2 4.9220000000000006e+00 1.2787731112280996e+01 3.3180295259238534e+01 0 0 0
966 2 6.1524999999999990e+00 1.3498160618518829e+01 3.3180295259238534e+01 0 0 0
989 2 7.3829999999999991e+00 1.2787731112280996e+01 3.3180295259238534e+01 0 0 0
990 2 8.6135000000000002e+00 1.3498160618518835e+01 3.3180295259238534e+01 0 0 0
964 2 4.9220000000000006e+00 1.5629449137232333e+01 3.3180295259238534e+01 0 0 0
987 2 6.1524999999999990e+00 1.4919019630994494e+01 3.3180295259238534e+01 0 0 0
988 2 7.3829999999999991e+00 1.5629449137232333e+01 3.3180295259238534e+01 0 0 0
1011 2 8.6135000000000002e+00 1.4919019630994494e+01 3.3180295259238534e+01 0 0 0
1894 1 1.0350239079552737e+00 1.7606305806376015e+00 3.6299674450606176e+01 1 0 -1
1724 1 4.2230759131321562e+00 5.8164309030332326e+00 3.6137393381380932e+01 1 0 -1
529 1 3.6854876186651366e+00 2.1670345450398281e+00 3.8525074795754719e+01 0 0 0
5276 1 3.6998912526267462e+00 1.1448615827083417e+01 3.9269735801618850e+01 1 0 -1
1411 1 6.8239231541575585e+00 1.6441139478441615e+00 3.5623735453363452e+01 0 1 0
6174 1 4.0513260567534468e+00 2.6904073128608483e+00 3.5565710154169722e+01 0 1 0
4611 1 1.3151118144803156e+00 6.2618364524275671e+00 3.6566306641756327e+01 0 1 0
1318 1 4.8787204359747420e+00 4.6786387472809237e+00 3.8494413825476215e+01 0 0 0
6221 1 7.4389591149172478e+00 1.5303737277398049e+01 3.5690561508705713e+01 1 0 0
3166 1 6.0403604303568663e+00 8.0042300235462491e+00 3.5807349510465684e+01 1 0 0
5445 1 1.0870940988341986e+00 2.6889842331528619e+00 3.8757325197087070e+01 1 0 -1
487 1 8.6350821415305212e+00 3.7852451455873788e+00 3.6406889400370289e+01 0 1 0
3080 1 8.5197964356846860e+00 6.4299000552034160e+00 3.5398949838685041e+01 1 1 0
4658 1 9.4444706707044268e-01 9.0727476436378147e+00 3.5869151229632891e+01 -1 0 0
2968 1 2.7604046811903467e+00 1.1262439277825310e+01 3.6528859540294505e+01 1 1 0
3678 1 7.6780293728153088e+00 1.1634557657242958e+01 3.8158941344207776e+01 1 1 0
4791 1 5.1776995609586374e+00 1.0634800754188529e+01 3.5516181129103089e+01 0 0 0
3068 1 7.8984541571533669e+00 1.5835309911912237e+01 3.8529792297340578e+01 0 0 0
2204 1 4.9467880519998628e+00 1.5881835172255169e+01 3.6092951873546866e+01 0 0 0
3236 1 2.7433728578104919e+00 1.4015770316018781e+01 3.5755803936299202e+01 1 1 0
6455 1 1.1653325852675807e-01 1.5138726338700096e+01 3.5659228211112762e+01 1 -1 0
5401 1 9.8128199284691462e+00 7.5093904767987429e-01 3.5638250096561322e+01 0 1 0
93 1 5.7592236828364616e+00 9.5419111021580001e+00 3.8542758224345320e+01 0 1 -1
2193 1 7.4244114034982962e+00 1.2437748116940346e+01 3.5676421126459260e+01 0 0 0
32 1 4.4360701680522858e+00 1.5695447494052974e+01 3.8828315521589914e+01 1 -1 0
6439 1 7.5156896589078803e+00 4.4633537928532734e+00 3.8908833598211530e+01 1 1 -1
6303 1 1.6434860965227620e+00 1.4723818663543895e+01 3.8673257996191026e+01 0 1 -1
1969 1 9.1362467725079473e+00 9.2536741687438155e+00 3.8473805677387716e+01 0 0 0
5369 1 3.3378571294937900e+00 1.1632421240684223e+00 4.2267117769878723e+01 0 0 0
3512 1 7.4069840129926439e+00 1.5361523020501693e+01 4.8182644002910422e+01 1 0 -1
1615 1 9.7574883310432847e-01 2.4094171035161369e+00 4.1603647318231467e+01 0 0 -1
6262 1 6.6791626977062304e+00 3.4431182664007869e+00 4.3069597138759036e+01 -1 1 -1
2115 1 7.9270794586940498e+00 5.3981113633954294e+00 4.4468876271169421e+01 0 1 0
3326 1 7.5339128590418065e+00 2.3338493791826607e+00 4.0804368348115460e+01 1 0 -1
128 1 7.4262957343233857e+00 1.5042127884018187e+01 4.4063917390098425e+01 0 0 -1
6384 1 3.7894583079949991e+00 5.8335301776506343e+00 4.0703241423317166e+01 1 1 0
184 1 9.6881358170459386e-01 6.1035030433578861e+00 4.0991577434371436e+01 0 0 0
1261 1 3.9356041353644944e+00 4.0502957593868611e+00 4.2871243961259935e+01 0 0 0
2977 1 1.4327635951225634e-01 1.1611639013673139e+01 4.6866969559064231e+01 0 0 0
151 1 8.0060918349969015e+00 7.4543995461509986e+00 4.2369728404433701e+01 1 1 -1
3083 1 1.4920214107361705e+00 1.2065336333693364e+00 4.7981283677175739e+01 1 1 0
4852 1 5.3325518926459798e+00 8.1384035402618231e+00 4.1468498765251638e+01 1 0 -1
527 1 1.7405362439545609e+00 9.6561748660961761e+00 4.8193163099801879e+01 0 0 0
4739 1 3.3456566220191872e+00 1.0553071733392139e+01 4.3990650220635558e+01 1 1 -1
8 1 2.9309853285040233e+00 9.8391576046797482e+00 4.1501779075457108e+01 1 0 0
2932 1 1.3727776097295916e+00 1.2411614308024010e+01 4.4437354375153873e+01 0 0 0
294 1 7.7716053992261731e+00 1.3538666744048021e+01 4.0119254061980627e+01 1 1 -1
6202 1 4.7685510991404589e+00 1.3530470481103876e+01 4.0630273777016583e+01 0 1 0