LAMMPS data file via write_data, version 16 Mar 2018, timestep = 6000000

6489 atoms
2 atom types

0.0000000000000000e+00 4.9219999999999999e+01 xlo xhi
0.0000000000000000e+00 4.9019635930410494e+01 ylo yhi
7.5055654105205249e-01 5.9311443458943927e+01 zlo zhi

Masses

1 18.015
2 12.01

Atoms # atomic

6207 1 1.6864068530257028e+00 1.3670790003013600e+00 2.4892877048611108e+00 -1 3 1
3110 1 3.3021632979351763e+00 3.2292846247171072e+00 1.6987942089088486e+00 0 0 1
1435 1 1.5934913141361311e+00 1.3829189007901357e+00 5.3983342895028903e+00 3 -1 1
3583 1 5.7297779726492646e+00 2.2692747376011155e+00 2.8795338215845474e+00 3 2 0
3436 1 6.0881619461321801e+00 2.2097006300608784e+00 5.7801079632190469e+00 2 0 0
429 1 2.8197251813655844e+00 5.7808937622903889e+00 2.5347344824265745e+00 2 2 0
3014 1 4.8563238421948371e+00 7.4808953799068414e+00 1.6905314815027173e+00 0 -1 1
223 1 6.4929344016318868e-01 6.8851324761953663e+00 1.5376442999484994e+00 2 0 0
6 1 7.5156753661791242e+00 3.9476323905788733e+00 1.7202505690435155e+00 1 2 0
3685 1 7.1414005989243199e+00 6.5176607055245066e+00 2.7328315639441207e+00 -1 1 0
4802 1 6.8868749699490284e+00 6.8893591789851465e+00 5.6123348624161151e+00 2 0 0
5270 1 2.0437542541753326e+00 1.1275209541347266e+01 1.8145512213496169e+00 0 0 1
2923 1 4.2556318789154819e+00 1.0151849571680614e+01 2.7267456529731575e+00 0 0 0
5059 1 4.2960069096744338e+00 1.0412032957361307e+01 5.4252218112150450e+00 -1 1 1
6370 1 9.2851072643991337e+00 8.2126154083789160e+00 2.0373951796756904e+00 1 2 1
139 1 8.4041849365785541e+00 1.0824895576482289e+01 2.9361457505844917e+00 -1 0 1
3456 1 8.3924902387610381e+00 1.0983187700958210e+01 5.8299669575814859e+00 0 2 1
2027 1 6.1641264924768455e+00 1.1970682833268590e+01 1.9071254816033438e+00 0 0 0
3002 1 1.4095060040041754e+00 1.3939005908941375e+01 2.5980872973400517e+00 1 2 1
1332 1 3.3286908929044521e+00 1.5640120399356929e+01 1.8784959172999822e+00 0 3 1
5073 1 5.5975627804755694e+00 1.4347410163715590e+01 3.0973604294064438e+00 2 -1 0
2932 1 5.6179892615087841e+00 1.4621056131993532e+01 5.7124802606042309e+00 0 2 1
4873 1 7.9757847328998679e+00 1.3624722277829182e+01 6.6963410967540371e+00 1 1 1
1663 1 4.0284768981869705e+00 8.1284563895708106e-01 8.7440044798274172e+00 2 -1 0
2884 1 3.9318564424800124e+00 4.0693073265078272e-01 6.1691109210093877e+00 0 3 1
1844 1 7.5787857314217577e+00 1.6186710230429593e+01 1.9998974849593769e+00 1 1 0
4841 1 8.4320794705045170e+00 1.3244440286959089e+00 6.6661031189406872e+00 1 2 1
6289 1 8.0471978791495058e+00 1.0715132908324378e+00 9.3997414859620907e+00 2 2 1
3469 1 7.5681056563805864e+00 3.8504364601237850e+00 1.0057282848389155e+01 3 -1 1
1283 1 2.8511053199660297e+00 5.8282216919518826e+00 5.4792210468843789e+00 -1 0 0
5023 1 7.1780492057813561e-01 4.1285072211520655e+00 9.1683554636484850e+00 1 2 1
1868 1 1.0645840597695255e+00 4.0191187115171418e+00 6.4251553090923244e+00 0 1 1
1726 1 1.2885074129715901e+00 1.4089860281574571e+01 5.2925557847742217e+00 -2 2 1
3415 1 8.9643316568441556e+00 8.2125735970585581e+00 1.0119955115910320e+01 2 4 0
3430 1 5.3130588789379036e+00 4.6958839521830598e+00 6.5299263601088962e+00 1 -1 1
4525 1 5.1370505795299595e+00 4.6979913291386639e+00 9.1364264718890276e+00 0 3 1
1960 1 4.4968528813250170e+00 7.4637439524404359e+00 1.0090388700424011e+01 1 -1 0
6188 1 3.1011267806217333e+00 3.2126575748689952e+00 1.0228730039308905e+01 0 -1 1
3556 1 8.1880281935931354e+00 1.3615560467322616e+01 9.5669507295940814e+00 -2 -1 0
1397 1 2.0621000427598082e+00 8.5908438473860880e+00 9.0225907690107370e+00 0 2 1
6137 1 1.8187508531505627e+00 1.1259484957638097e+01 1.0125401426658632e+01 1 1 1
3036 1 2.3327908714833234e+00 8.6010728505025789e+00 6.2778519026716006e+00 2 0 0
4814 1 6.1249532583289996e+00 1.2013373410410949e+01 9.8531089657806064e+00 1 -1 0
3684 1 6.4420021162292853e+00 9.2090710306527299e+00 9.3812318005621602e+00 1 0 1
6148 1 6.5183534614934464e+00 9.2258128854114823e+00 6.6315838919744872e+00 2 -2 1
3388 1 3.2307007936682215e+00 1.5337696247734451e+01 9.9987811290226869e+00 2 -1 0
59 1 3.5681116667980084e+00 1.2840494319321005e+01 6.4081135884841931e+00 1 1 0
3204 1 3.6857501989308399e+00 1.2812923033227591e+01 9.0344719921092658e+00 1 -3 0
230 1 2.6560706588476901e-01 6.6279100404840197e+00 1.0000838475035678e+01 -1 -1 1
3586 1 9.4344343544595635e+00 5.4840445079598972e+00 9.3538561053131559e+00 0 -1 0
3720 1 9.3428684170005525e+00 5.9924033396203313e+00 6.5995625139117458e+00 1 1 1
1526 1 9.7213351788554316e+00 3.0345782608538046e+00 3.0479526740992400e+00 2 1 1
5122 1 2.7740043344717174e-02 9.4530158920857588e+00 2.4406658055840471e+00 -1 2 0
5151 1 6.4119483202010796e-01 1.6267694299465770e+01 9.1633928568935055e+00 0 0 0
1556 1 3.2557116905423014e+00 2.9700222990358323e+00 1.2895769328951289e+01 -1 -1 1
1483 1 3.5849510108115448e+00 5.7023588962443927e-01 1.3888352359019413e+01 0 0 1
4954 1 7.9463552686860330e+00 1.3073574608274052e+00 1.3891561329228244e+01 -1 -1 1
5238 1 7.3877490674913746e+00 4.0799765478173313e+00 1.2776121631222383e+01 1 -1 0
4894 1 8.3668262957995709e-01 3.9616644867192483e+00 1.3782679881834657e+01 3 -1 1
1455 1 4.6273895610964502e+00 7.4713836085885195e+00 1.3046248367315505e+01 2 -1 1
1926 1 6.3435717164789829e-01 6.5944004214557825e+00 1.2786368686032599e+01 1 -1 1
1854 1 5.0855793649649126e+00 4.6536963968305445e+00 1.3737279784620055e+01 1 1 1
3288 1 1.0629963067678536e-02 9.4789331135362715e+00 1.7580999443150066e+01 3 -1 1
3396 1 2.3660019263598397e+00 8.5858589050568543e+00 1.3853746924110395e+01 1 0 0
127 1 1.7258742710951724e+00 1.1019525911199501e+01 1.2880190537262500e+01 0 -1 0
225 1 8.8188745030266258e+00 8.4595645595064823e+00 1.2829191096374627e+01 0 0 0
1432 1 6.3023657013399905e+00 9.3968733126964210e+00 1.3955552409798212e+01 1 -1 1
3138 1 6.2793194351111827e+00 1.1803947948572638e+01 1.2670263810276712e+01 1 0 1
1605 1 3.8971246156468728e+00 1.2916319109618582e+01 1.3456236912001152e+01 0 -1 1
4749 1 3.3882858154593678e+00 1.5474806624267210e+01 1.2764347679521673e+01 -2 1 0
6293 1 8.0464576174248883e+00 1.3795650245128432e+01 1.3437337750432782e+01 -1 0 0
1401 1 3.7091998993791671e+00 1.2634624705960764e+01 1.6423359345591305e+01 0 3 1
3754 1 3.7137374522483877e+00 5.0113816910308928e-01 1.6704731170626864e+01 -1 1 1
1328 1 1.2566597081549107e+00 1.4565924545385540e+00 1.7669212839267523e+01 0 0 1
4756 1 6.5233808834567037e+00 8.9910949202744614e+00 1.6591305702018609e+01 0 0 1
2035 1 8.0539258578104196e+00 1.2946965051352755e+00 1.6692421435772609e+01 -1 1 0
5146 1 5.6763476100703212e+00 2.1050133503596631e+00 1.7522931003846896e+01 1 1 0
3154 1 9.7313415705314377e+00 3.2153801968465432e+00 1.7431082426978531e+01 -1 2 1
1671 1 5.4217568778961569e+00 1.4559889246688453e+01 1.7545634147629197e+01 -1 0 0
1633 1 8.9873265888043707e-01 3.9699023659029433e+00 1.6504767927920895e+01 0 1 1
4734 1 2.6668124902543986e+00 5.7745866580458145e+00 1.7540151793867338e+01 -1 -1 0
6268 1 8.1084572479934813e+00 1.1094070399161758e+01 1.7076939758899172e+01 2 1 1
4 1 9.3139659102883492e+00 5.9766354304939986e+00 1.3829317373661761e+01 0 0 0
380 1 5.1948299886818194e+00 4.5468816649603010e+00 1.6478888485997267e+01 2 0 1
5178 1 6.6640953195684958e+00 6.5218307756704235e+00 1.7692992843863152e+01 2 1 0
567 1 8.0436116112633922e+00 1.3537415262408485e+01 1.6308304559795342e+01 0 -2 1
2119 1 1.5419850842063694e+00 1.3934501764061629e+01 1.7167476351402417e+01 0 0 0
6486 1 2.1076076010300753e+00 8.3072589970699262e+00 1.6523745807517692e+01 2 0 0
2161 1 4.0198219332215190e+00 1.0078487142006308e+01 1.7538287820025843e+01 -1 -1 1
32 1 8.6771434858311824e+00 1.1092421978657642e+01 2.0014371101476964e+01 -1 -1 1
3234 1 9.0471968171613035e+00 5.5461096657435744e+00 1.6501801306345133e+01 2 -1 0
5312 1 5.4674623950013448e+00 1.4609003921595887e+01 2.0135148405501184e+01 -1 -1 0
1352 1 9.7509932450246311e+00 3.1727643024406844e+00 2.0025547593869600e+01 -1 0 1
4510 1 1.3282340747000174e+00 1.3749619031737002e+01 1.9970201582370642e+01 -1 2 1
4901 1 3.3801169849948183e+00 9.4900872133937619e-01 2.4136154300291022e+01 0 0 1
4508 1 2.3299783150663647e+00 3.5535033742757105e+00 2.4338081659448648e+01 -2 0 1
1782 1 3.7081110373500703e+00 3.9351474937959124e-01 2.1289370744827231e+01 -2 -2 0
6272 1 1.0215309869145726e+00 4.0273461528399697e+00 2.1382674097313451e+01 1 1 1
123 1 8.3057231106850313e+00 1.2202731744793562e+00 2.3693685016574694e+01 -2 -1 1
4656 1 7.9926861475018303e+00 1.3438453588570556e+00 2.0954961465482587e+01 -1 1 1
6280 1 4.3767114283050068e+00 7.4734442021648437e+00 2.4190075229589421e+01 -2 -2 1
2033 1 4.7838958416300041e+00 4.8869367865802982e+00 2.4048825027645787e+01 0 1 1
4607 1 9.0793707108203869e-01 1.1570765249694574e+01 2.4467821870963416e+01 -1 1 1
1532 1 9.2766593815539995e+00 5.7061748030804296e+00 2.3594488025291401e+01 -1 0 1
6400 1 5.0086169266598395e+00 4.7173711009216674e+00 2.1442044021475073e+01 0 0 0
159 1 7.5235653908883444e+00 3.9051773414041988e+00 2.4408825333234866e+01 1 1 0
2015 1 1.5462096421266636e+00 8.9091808440302422e+00 2.3925090204457426e+01 1 -1 0
6479 1 2.1039041878040354e+00 8.6080969784770787e+00 2.1262397010343410e+01 0 -3 0
5160 1 9.2322699486827151e+00 5.5787844445335670e+00 2.0982776809000811e+01 2 -2 0
5441 1 6.3706574976582138e+00 9.4727523199336616e+00 2.4175744025797435e+01 2 -3 1
529 1 6.7056123953537741e+00 9.4091501787888401e+00 2.1345520996397486e+01 -2 0 1
3090 1 8.9698279763408095e+00 8.3554260088551224e+00 2.4463946453233934e+01 2 3 0
6225 1 5.6449067278326401e+00 1.2188619609932209e+01 2.4619873336112416e+01 0 0 0
5330 1 3.2671065904198073e+00 1.3306324532896427e+01 2.3472419517884944e+01 3 2 1
3209 1 3.5940107507302690e+00 1.2874135729155377e+01 2.0910254853423915e+01 1 -2 1
5195 1 8.7797274474154274e-01 1.6232907782236381e+01 2.1748356132696511e+01 1 -3 0
6324 1 7.9507981930771860e+00 1.3643313770082154e+01 2.0988850011942741e+01 0 -2 0
221 1 7.6737773890746377e+00 1.3707125513042559e+01 2.3792021998399495e+01 1 1 0
785 2 8.6135000000000002e+00 1.4919019630994494e+01 2.6733082179471062e+01 0 0 0
744 2 8.6135000000000002e+00 1.3498160618518835e+01 2.6733082179471062e+01 0 0 0
572 2 0.0000000000000000e+00 2.8417180249513345e+00 2.6733082179471062e+01 0 0 0
574 2 0.0000000000000000e+00 0.0000000000000000e+00 2.6733082179471062e+01 0 0 0
576 2 1.2305000000000001e+00 7.1042950623783474e-01 2.6733082179471062e+01 0 0 0
583 2 1.2305000000000001e+00 2.1312885187134998e+00 2.6733082179471062e+01 0 0 0
585 2 2.4610000000000003e+00 2.8417180249513345e+00 2.6733082179471062e+01 0 0 0
587 2 2.4610000000000003e+00 0.0000000000000000e+00 2.6733082179471062e+01 0 0 0
589 2 3.6915000000000004e+00 7.1042950623783474e-01 2.6733082179471062e+01 0 0 0
604 2 3.6914999999999996e+00 2.1312885187134998e+00 2.6733082179471062e+01 0 0 0
606 2 4.9220000000000006e+00 2.8417180249513332e+00 2.6733082179471062e+01 0 0 0
608 2 4.9220000000000006e+00 0.0000000000000000e+00 2.6733082179471062e+01 0 0 0
610 2 6.1524999999999999e+00 7.1042950623783407e-01 2.6733082179471062e+01 0 0 0
633 2 6.1524999999999999e+00 2.1312885187134989e+00 2.6733082179471062e+01 0 0 0
635 2 7.3829999999999991e+00 2.8417180249513345e+00 2.6733082179471062e+01 0 0 0
637 2 7.3829999999999991e+00 0.0000000000000000e+00 2.6733082179471062e+01 0 0 0
639 2 8.6134999999999984e+00 7.1042950623783407e-01 2.6733082179471062e+01 0 0 0
670 2 8.6134999999999984e+00 2.1312885187135002e+00 2.6733082179471062e+01 0 0 0
579 2 0.0000000000000000e+00 4.2625770374269996e+00 2.6733082179471062e+01 0 0 0
581 2 1.2305000000000001e+00 4.9730065436648339e+00 2.6733082179471062e+01 0 0 0
596 2 1.2305000000000001e+00 6.3938655561404980e+00 2.6733082179471062e+01 0 0 0
600 2 2.4610000000000003e+00 4.2625770374269996e+00 2.6733082179471062e+01 0 0 0
602 2 3.6914999999999996e+00 4.9730065436648339e+00 2.6733082179471062e+01 0 0 0
625 2 3.6914999999999996e+00 6.3938655561404980e+00 2.6733082179471062e+01 0 0 0
577 2 0.0000000000000000e+00 7.1042950623783341e+00 2.6733082179471062e+01 0 0 0
598 2 2.4610000000000003e+00 7.1042950623783341e+00 2.6733082179471062e+01 0 0 0
629 2 4.9220000000000006e+00 4.2625770374269978e+00 2.6733082179471062e+01 0 0 0
631 2 6.1524999999999999e+00 4.9730065436648339e+00 2.6733082179471062e+01 0 0 0
662 2 6.1524999999999999e+00 6.3938655561404980e+00 2.6733082179471062e+01 0 0 0
666 2 7.3829999999999991e+00 4.2625770374269996e+00 2.6733082179471062e+01 0 0 0
668 2 8.6135000000000002e+00 4.9730065436648339e+00 2.6733082179471062e+01 0 0 0
707 2 8.6135000000000002e+00 6.3938655561404980e+00 2.6733082179471062e+01 0 0 0
627 2 4.9220000000000006e+00 7.1042950623783341e+00 2.6733082179471062e+01 0 0 0
664 2 7.3830000000000009e+00 7.1042950623783341e+00 2.6733082179471062e+01 0 0 0
592 2 0.0000000000000000e+00 8.5251540748539991e+00 2.6733082179471062e+01 0 0 0
594 2 1.2305000000000001e+00 9.2355835810918343e+00 2.6733082179471062e+01 0 0 0
621 2 2.4610000000000003e+00 8.5251540748539991e+00 2.6733082179471062e+01 0 0 0
623 2 3.6915000000000004e+00 9.2355835810918343e+00 2.6733082179471062e+01 0 0 0
590 2 0.0000000000000000e+00 1.1366872099805333e+01 2.6733082179471062e+01 0 0 0
617 2 1.2305000000000001e+00 1.0656442593567498e+01 2.6733082179471062e+01 0 0 0
619 2 2.4610000000000003e+00 1.1366872099805333e+01 2.6733082179471062e+01 0 0 0
654 2 3.6914999999999996e+00 1.0656442593567499e+01 2.6733082179471062e+01 0 0 0
658 2 4.9220000000000006e+00 8.5251540748539991e+00 2.6733082179471062e+01 0 0 0
660 2 6.1524999999999999e+00 9.2355835810918343e+00 2.6733082179471062e+01 0 0 0
703 2 7.3830000000000009e+00 8.5251540748539991e+00 2.6733082179471062e+01 0 0 0
705 2 8.6134999999999984e+00 9.2355835810918343e+00 2.6733082179471062e+01 0 0 0
656 2 4.9220000000000006e+00 1.1366872099805333e+01 2.6733082179471062e+01 0 0 0
699 2 6.1524999999999999e+00 1.0656442593567499e+01 2.6733082179471062e+01 0 0 0
701 2 7.3829999999999991e+00 1.1366872099805333e+01 2.6733082179471062e+01 0 0 0
746 2 8.6134999999999984e+00 1.0656442593567498e+01 2.6733082179471062e+01 0 0 0
615 2 1.2305000000000001e+00 1.3498160618518829e+01 2.6733082179471062e+01 0 0 0
652 2 3.6915000000000004e+00 1.3498160618518829e+01 2.6733082179471062e+01 0 0 0
648 2 2.4610000000000003e+00 1.5629449137232328e+01 2.6733082179471062e+01 0 0 0
650 2 2.4610000000000003e+00 1.2787731112280996e+01 2.6733082179471062e+01 0 0 0
691 2 3.6915000000000004e+00 1.4919019630994494e+01 2.6733082179471062e+01 0 0 0
611 2 0.0000000000000000e+00 1.5629449137232333e+01 2.6733082179471062e+01 0 0 0
646 2 1.2305000000000001e+00 1.4919019630994494e+01 2.6733082179471062e+01 0 0 0
613 2 0.0000000000000000e+00 1.2787731112280996e+01 2.6733082179471062e+01 0 0 0
697 2 6.1524999999999990e+00 1.3498160618518829e+01 2.6733082179471062e+01 0 0 0
693 2 4.9220000000000006e+00 1.5629449137232333e+01 2.6733082179471062e+01 0 0 0
740 2 7.3829999999999991e+00 1.5629449137232333e+01 2.6733082179471062e+01 0 0 0
695 2 4.9220000000000006e+00 1.2787731112280996e+01 2.6733082179471062e+01 0 0 0
738 2 6.1524999999999990e+00 1.4919019630994494e+01 2.6733082179471062e+01 0 0 0
742 2 7.3829999999999991e+00 1.2787731112280996e+01 2.6733082179471062e+01 0 0 0
350 1 2.6498182471597969e+00 1.5769121090667605e+01 2.4308635396157708e+01 1 1 0
519 1 5.4186303451038675e+00 2.3023568110871175e+00 2.0307675350765958e+01 0 -1 1
4511 1 6.8145843183638313e+00 6.4777040490966300e+00 2.0478667386065574e+01 -1 -2 1
6350 1 4.2461611122718486e+00 1.0106549922664282e+01 2.0413342109915128e+01 0 0 1
3162 1 2.6569676106907645e+00 5.9366254303004053e+00 2.0533020546470347e+01 1 1 0
1677 1 1.3389353303849485e+00 1.4502147317764615e+00 2.0288187147243899e+01 1 -2 1
573 2 0.0000000000000000e+00 1.4208590124756650e+00 3.0030999999998389e+01 0 0 0
575 2 0.0000000000000000e+00 0.0000000000000000e+00 3.0030999999998389e+01 0 0 0
584 2 1.2305000000000001e+00 2.1312885187134998e+00 3.0030999999998389e+01 0 0 0
586 2 2.4610000000000003e+00 1.4208590124756650e+00 3.0030999999998389e+01 0 0 0
588 2 2.4610000000000003e+00 0.0000000000000000e+00 3.0030999999998389e+01 0 0 0
605 2 3.6914999999999996e+00 2.1312885187134998e+00 3.0030999999998389e+01 0 0 0
582 2 1.2305000000000001e+00 3.5521475311891644e+00 3.0030999999998389e+01 0 0 0
603 2 3.6914999999999996e+00 3.5521475311891644e+00 3.0030999999998389e+01 0 0 0
901 2 0.0000000000000000e+00 2.8417180249513345e+00 3.3328917820503648e+01 0 0 0
902 2 0.0000000000000000e+00 0.0000000000000000e+00 3.3328917820503648e+01 0 0 0
903 2 1.2305000000000001e+00 7.1042950623783474e-01 3.3328917820503648e+01 0 0 0
907 2 1.2305000000000001e+00 2.1312885187134998e+00 3.3328917820503648e+01 0 0 0
908 2 2.4610000000000003e+00 2.8417180249513345e+00 3.3328917820503648e+01 0 0 0
909 2 2.4610000000000003e+00 0.0000000000000000e+00 3.3328917820503648e+01 0 0 0
910 2 3.6915000000000004e+00 7.1042950623783474e-01 3.3328917820503648e+01 0 0 0
918 2 3.6914999999999996e+00 2.1312885187134998e+00 3.3328917820503648e+01 0 0 0
607 2 4.9220000000000006e+00 1.4208590124756650e+00 3.0030999999998389e+01 0 0 0
609 2 4.9220000000000006e+00 0.0000000000000000e+00 3.0030999999998389e+01 0 0 0
634 2 6.1524999999999999e+00 2.1312885187134989e+00 3.0030999999998389e+01 0 0 0
636 2 7.3829999999999991e+00 1.4208590124756659e+00 3.0030999999998389e+01 0 0 0
638 2 7.3829999999999991e+00 0.0000000000000000e+00 3.0030999999998389e+01 0 0 0
671 2 8.6134999999999984e+00 2.1312885187135002e+00 3.0030999999998389e+01 0 0 0
632 2 6.1524999999999999e+00 3.5521475311891644e+00 3.0030999999998389e+01 0 0 0
669 2 8.6134999999999984e+00 3.5521475311891657e+00 3.0030999999998389e+01 0 0 0
919 2 4.9220000000000006e+00 2.8417180249513332e+00 3.3328917820503648e+01 0 0 0
920 2 4.9220000000000006e+00 0.0000000000000000e+00 3.3328917820503648e+01 0 0 0
921 2 6.1524999999999999e+00 7.1042950623783407e-01 3.3328917820503648e+01 0 0 0
933 2 6.1524999999999999e+00 2.1312885187134989e+00 3.3328917820503648e+01 0 0 0
934 2 7.3829999999999991e+00 2.8417180249513345e+00 3.3328917820503648e+01 0 0 0
935 2 7.3829999999999991e+00 0.0000000000000000e+00 3.3328917820503648e+01 0 0 0
936 2 8.6134999999999984e+00 7.1042950623783407e-01 3.3328917820503648e+01 0 0 0
952 2 8.6134999999999984e+00 2.1312885187135002e+00 3.3328917820503648e+01 0 0 0
578 2 0.0000000000000000e+00 5.6834360499026637e+00 3.0030999999998389e+01 0 0 0
580 2 0.0000000000000000e+00 4.2625770374269996e+00 3.0030999999998389e+01 0 0 0
597 2 1.2305000000000001e+00 6.3938655561404980e+00 3.0030999999998389e+01 0 0 0
599 2 2.4610000000000003e+00 5.6834360499026637e+00 3.0030999999998389e+01 0 0 0
601 2 2.4610000000000003e+00 4.2625770374269996e+00 3.0030999999998389e+01 0 0 0
626 2 3.6914999999999996e+00 6.3938655561404980e+00 3.0030999999998389e+01 0 0 0
595 2 1.2305000000000001e+00 7.8147245686161639e+00 3.0030999999998389e+01 0 0 0
624 2 3.6914999999999996e+00 7.8147245686161639e+00 3.0030999999998389e+01 0 0 0
905 2 0.0000000000000000e+00 4.2625770374269996e+00 3.3328917820503648e+01 0 0 0
906 2 1.2305000000000001e+00 4.9730065436648339e+00 3.3328917820503648e+01 0 0 0
914 2 1.2305000000000001e+00 6.3938655561404980e+00 3.3328917820503648e+01 0 0 0
916 2 2.4610000000000003e+00 4.2625770374269996e+00 3.3328917820503648e+01 0 0 0
917 2 3.6914999999999996e+00 4.9730065436648339e+00 3.3328917820503648e+01 0 0 0
929 2 3.6914999999999996e+00 6.3938655561404980e+00 3.3328917820503648e+01 0 0 0
904 2 0.0000000000000000e+00 7.1042950623783341e+00 3.3328917820503648e+01 0 0 0
915 2 2.4610000000000003e+00 7.1042950623783341e+00 3.3328917820503648e+01 0 0 0
628 2 4.9220000000000006e+00 5.6834360499026637e+00 3.0030999999998389e+01 0 0 0
630 2 4.9220000000000006e+00 4.2625770374269978e+00 3.0030999999998389e+01 0 0 0
663 2 6.1524999999999999e+00 6.3938655561404980e+00 3.0030999999998389e+01 0 0 0
665 2 7.3829999999999991e+00 5.6834360499026637e+00 3.0030999999998389e+01 0 0 0
667 2 7.3829999999999991e+00 4.2625770374269996e+00 3.0030999999998389e+01 0 0 0
708 2 8.6135000000000002e+00 6.3938655561404980e+00 3.0030999999998389e+01 0 0 0
661 2 6.1524999999999999e+00 7.8147245686161639e+00 3.0030999999998389e+01 0 0 0
706 2 8.6135000000000002e+00 7.8147245686161639e+00 3.0030999999998389e+01 0 0 0
931 2 4.9220000000000006e+00 4.2625770374269978e+00 3.3328917820503648e+01 0 0 0
932 2 6.1524999999999999e+00 4.9730065436648339e+00 3.3328917820503648e+01 0 0 0
948 2 6.1524999999999999e+00 6.3938655561404980e+00 3.3328917820503648e+01 0 0 0
950 2 7.3829999999999991e+00 4.2625770374269996e+00 3.3328917820503648e+01 0 0 0
951 2 8.6135000000000002e+00 4.9730065436648339e+00 3.3328917820503648e+01 0 0 0
971 2 8.6135000000000002e+00 6.3938655561404980e+00 3.3328917820503648e+01 0 0 0
930 2 4.9220000000000006e+00 7.1042950623783341e+00 3.3328917820503648e+01 0 0 0
949 2 7.3830000000000009e+00 7.1042950623783341e+00 3.3328917820503648e+01 0 0 0
591 2 0.0000000000000000e+00 9.9460130873296642e+00 3.0030999999998389e+01 0 0 0
593 2 0.0000000000000000e+00 8.5251540748539991e+00 3.0030999999998389e+01 0 0 0
620 2 2.4610000000000003e+00 9.9460130873296642e+00 3.0030999999998389e+01 0 0 0
622 2 2.4610000000000003e+00 8.5251540748539991e+00 3.0030999999998389e+01 0 0 0
616 2 1.2305000000000001e+00 1.2077301606043163e+01 3.0030999999998389e+01 0 0 0
618 2 1.2305000000000001e+00 1.0656442593567498e+01 3.0030999999998389e+01 0 0 0
653 2 3.6914999999999996e+00 1.2077301606043163e+01 3.0030999999998389e+01 0 0 0
655 2 3.6914999999999996e+00 1.0656442593567499e+01 3.0030999999998389e+01 0 0 0
912 2 0.0000000000000000e+00 8.5251540748539991e+00 3.3328917820503648e+01 0 0 0
913 2 1.2305000000000001e+00 9.2355835810918343e+00 3.3328917820503648e+01 0 0 0
927 2 2.4610000000000003e+00 8.5251540748539991e+00 3.3328917820503648e+01 0 0 0
928 2 3.6915000000000004e+00 9.2355835810918343e+00 3.3328917820503648e+01 0 0 0
911 2 0.0000000000000000e+00 1.1366872099805333e+01 3.3328917820503648e+01 0 0 0
925 2 1.2305000000000001e+00 1.0656442593567498e+01 3.3328917820503648e+01 0 0 0
926 2 2.4610000000000003e+00 1.1366872099805333e+01 3.3328917820503648e+01 0 0 0
944 2 3.6914999999999996e+00 1.0656442593567499e+01 3.3328917820503648e+01 0 0 0
657 2 4.9220000000000006e+00 9.9460130873296642e+00 3.0030999999998389e+01 0 0 0
659 2 4.9220000000000006e+00 8.5251540748539991e+00 3.0030999999998389e+01 0 0 0
702 2 7.3830000000000009e+00 9.9460130873296642e+00 3.0030999999998389e+01 0 0 0
704 2 7.3830000000000009e+00 8.5251540748539991e+00 3.0030999999998389e+01 0 0 0
698 2 6.1524999999999999e+00 1.2077301606043163e+01 3.0030999999998389e+01 0 0 0
700 2 6.1524999999999999e+00 1.0656442593567499e+01 3.0030999999998389e+01 0 0 0
745 2 8.6135000000000002e+00 1.2077301606043163e+01 3.0030999999998389e+01 0 0 0
747 2 8.6134999999999984e+00 1.0656442593567498e+01 3.0030999999998389e+01 0 0 0
946 2 4.9220000000000006e+00 8.5251540748539991e+00 3.3328917820503648e+01 0 0 0
947 2 6.1524999999999999e+00 9.2355835810918343e+00 3.3328917820503648e+01 0 0 0
969 2 7.3830000000000009e+00 8.5251540748539991e+00 3.3328917820503648e+01 0 0 0
970 2 8.6134999999999984e+00 9.2355835810918343e+00 3.3328917820503648e+01 0 0 0
945 2 4.9220000000000006e+00 1.1366872099805333e+01 3.3328917820503648e+01 0 0 0
967 2 6.1524999999999999e+00 1.0656442593567499e+01 3.3328917820503648e+01 0 0 0
968 2 7.3829999999999991e+00 1.1366872099805333e+01 3.3328917820503648e+01 0 0 0
991 2 8.6134999999999984e+00 1.0656442593567498e+01 3.3328917820503648e+01 0 0 0
614 2 0.0000000000000000e+00 1.2787731112280996e+01 3.0030999999998389e+01 0 0 0
651 2 2.4610000000000003e+00 1.2787731112280996e+01 3.0030999999998389e+01 0 0 0
612 2 0.0000000000000000e+00 1.4208590124756663e+01 3.0030999999998389e+01 0 0 0
647 2 1.2305000000000001e+00 1.4919019630994494e+01 3.0030999999998389e+01 0 0 0
649 2 2.4610000000000003e+00 1.4208590124756663e+01 3.0030999999998389e+01 0 0 0
692 2 3.6915000000000004e+00 1.4919019630994494e+01 3.0030999999998389e+01 0 0 0
923 2 0.0000000000000000e+00 1.2787731112280996e+01 3.3328917820503648e+01 0 0 0
924 2 1.2305000000000001e+00 1.3498160618518829e+01 3.3328917820503648e+01 0 0 0
942 2 2.4610000000000003e+00 1.2787731112280996e+01 3.3328917820503648e+01 0 0 0
943 2 3.6915000000000004e+00 1.3498160618518829e+01 3.3328917820503648e+01 0 0 0
922 2 0.0000000000000000e+00 1.5629449137232333e+01 3.3328917820503648e+01 0 0 0
940 2 1.2305000000000001e+00 1.4919019630994494e+01 3.3328917820503648e+01 0 0 0
941 2 2.4610000000000003e+00 1.5629449137232328e+01 3.3328917820503648e+01 0 0 0
963 2 3.6915000000000004e+00 1.4919019630994494e+01 3.3328917820503648e+01 0 0 0
696 2 4.9220000000000006e+00 1.2787731112280996e+01 3.0030999999998389e+01 0 0 0
743 2 7.3829999999999991e+00 1.2787731112280996e+01 3.0030999999998389e+01 0 0 0
694 2 4.9220000000000006e+00 1.4208590124756663e+01 3.0030999999998389e+01 0 0 0
739 2 6.1524999999999990e+00 1.4919019630994494e+01 3.0030999999998389e+01 0 0 0
741 2 7.3830000000000009e+00 1.4208590124756663e+01 3.0030999999998389e+01 0 0 0
786 2 8.6135000000000002e+00 1.4919019630994494e+01 3.0030999999998389e+01 0 0 0
965 2 4.9220000000000006e+00 1.2787731112280996e+01 3.3328917820503648e+01 0 0 0
966 2 6.1524999999999990e+00 1.3498160618518829e+01 3.3328917820503648e+01 0 0 0
989 2 7.3829999999999991e+00 1.2787731112280996e+01 3.3328917820503648e+01 0 0 0
990 2 8.6135000000000002e+00 1.3498160618518835e+01 3.3328917820503648e+01 0 0 0
964 2 4.9220000000000006e+00 1.5629449137232333e+01 3.3328917820503648e+01 0 0 0
987 2 6.1524999999999990e+00 1.4919019630994494e+01 3.3328917820503648e+01 0 0 0
988 2 7.3829999999999991e+00 1.5629449137232333e+01 3.3328917820503648e+01 0 0 0
1011 2 8.6135000000000002e+00 1.4919019630994494e+01 3.3328917820503648e+01 0 0 0
2921 1 1.1872398816330509e+00 1.7457274816278783e+00 3.6033420315899718e+01 -2 0 0
4563 1 1.2277486577568575e+00 1.4705041506579011e+00 3.8736229608564400e+01 1 0 0
2922 1 3.3725687579733741e+00 3.6435573683173161e+00 3.5830607364804038e+01 0 1 0
6345 1 9.5248876222812981e+00 8.5536014518388992e+00 3.6289749261935910e+01 1 -1 0
3570 1 6.0084888431143080e+00 2.5153692254074747e+00 3.5838635225072153e+01 2 -2 -1
6241 1 5.6888853572989264e+00 2.5725984278863443e+00 3.8621467317540578e+01 0 -1 0
1590 1 2.8534458680780239e+00 5.9773735747849468e+00 3.8504690692044321e+01 0 0 -1
1647 1 3.4697364527149821e+00 6.6428225143793460e+00 3.5985801741733553e+01 0 -1 0
338 1 7.8920156099501888e+00 4.4409888945253604e+00 3.9268874837884951e+01 0 -1 -1
312 1 1.2894418160175050e+00 1.3806360882803741e+01 3.6050095279780535e+01 0 2 0
112 1 7.6476949893038793e+00 4.6426445325383332e+00 3.5818539192530622e+01 3 3 0
3306 1 6.8543495715616931e+00 7.1904426749427541e+00 3.6267127744667633e+01 0 -1 -1
6489 1 7.0316328402777346e+00 7.1237510557475696e+00 3.9072314173070922e+01 0 -2 0
108 1 3.0804317512189305e+00 3.3469624591909026e+00 3.9228395835788533e+01 2 2 -1
4984 1 6.6545818784967259e-01 6.8319477220415195e+00 3.5972831673472996e+01 -3 -1 -1
4807 1 4.6877050105686049e+00 9.5258114536818059e+00 3.6345716646171837e+01 0 0 -1
1296 1 4.3393618115606483e+00 1.0132655420761319e+01 3.9087986744648418e+01 -1 -1 -1
4580 1 2.3493549979885477e+00 1.1006793139391082e+01 3.6161742273069365e+01 -1 0 0
2070 1 1.7852827219074643e+00 1.1250553912124118e+01 3.9397082079920125e+01 -1 2 -1
4575 1 5.6953715336449156e+00 1.4712081969214209e+01 3.5908938028800634e+01 0 3 0
2973 1 5.8583135304547698e+00 1.4798241461941885e+01 3.8706330322717704e+01 0 3 0
6195 1 1.3647443277433615e+00 1.4061717118106817e+01 3.8873943643740432e+01 0 0 0
4897 1 9.2542725009134053e+00 1.1144057167511638e+01 3.5818835162649421e+01 1 -1 0
3329 1 6.4273111667118643e+00 1.1928371278628234e+01 3.6074742580868104e+01 1 3 0
377 1 8.7738374125601410e+00 1.1403922600996216e+01 3.8545411529960361e+01 4 3 -1
1267 1 3.3879380629264566e+00 1.5854907671955651e+01 3.9572992654392891e+01 1 -2 0
60 1 3.2633864948587719e+00 1.5814923102113827e+01 3.5686633288425668e+01 2 0 -1
297 1 2.4038729078909668e-01 7.1280827134387374e+00 3.9285020463130124e+01 1 1 -1
1441 1 2.3800608677338277e-02 9.6530910605702189e+00 3.8601277696631982e+01 0 -1 0
3658 1 6.3142561610265728e+00 1.2314730953692123e+01 3.9192262842777680e+01 1 0 -1
1360 1 7.9878583992912516e-03 9.6159786240054270e+00 3.5666863951349711e+01 -1 0 -1
5217 1 9.2896883268246935e+00 8.7784439069282527e+00 3.9678349379134346e+01 1 -1 -1
5447 1 3.2784765921070824e+00 3.3591478742256333e+00 4.1972038269762706e+01 -1 -1 0
3218 1 3.7380425851506263e+00 7.2040143358829856e-01 4.2867016994963066e+01 1 1 0
1860 1 8.0252836297385528e+00 1.4598057446995720e+00 4.2500507834486527e+01 1 -1 -1
1770 1 7.8377473884251030e+00 1.3475879962184077e+01 4.5493633338090703e+01 -1 1 -1
233 1 9.9022146831524449e-01 4.1023402673497715e+00 4.3123442020985991e+01 -1 0 0
3689 1 7.5454289816460776e+00 1.6294470250016953e+01 4.2161629997488475e+01 0 0 -1
3670 1 7.8780134196842608e+00 4.1041387677098191e+00 4.1909625107667893e+01 -1 -1 -1
6387 1 4.8610087755014089e+00 7.5243433260225405e+00 4.2706165701766182e+01 1 -1 0
5161 1 5.4532260197915292e+00 4.8837368448387579e+00 4.3191159495804129e+01 2 0 0
4946 1 9.4172665396509583e+00 5.6957377732407251e+00 4.5845232982068310e+01 -1 2 -1
1655 1 2.2461641029138404e+00 8.4973801345522890e+00 4.3048525436856508e+01 1 1 0
495 1 1.8728815963807537e+00 1.1295803556692622e+01 4.2220684220988275e+01 1 -2 -1
5115 1 9.2872426917123896e+00 8.4335461354379451e+00 4.2571546568685179e+01 3 1 -1
174 1 6.6393187406704293e+00 9.5518290941178972e+00 4.3127088411192290e+01 0 -1 -1
2947 1 5.9020804310529700e+00 1.2123584841229293e+01 4.1923652772034615e+01 -2 1 -1
1973 1 3.5391846676138785e+00 1.3161980327050340e+01 4.3123918544746090e+01 1 1 -1
2974 1 3.3008826744297721e+00 1.5838129151012726e+01 4.2349163979507424e+01 -1 1 -1
3646 1 7.9150770433573614e+00 1.3745889909347149e+01 4.2778075034760448e+01 1 0 -1
2934 1 1.3504808649910540e+00 1.5239148279099068e+00 4.6593062046341245e+01 -1 1 0