LAMMPS data file via write_data, version 29 Oct 2020, timestep = 0

6846 atoms
2 atom types

0.0 49.22 xlo xhi
0.0 49.019635930410494 ylo yhi
-0.8158637979948011 60.87786379799435 zlo zhi

Masses

1 18.015
2 12.01

Atoms # atomic

1 1 4.080019659254137 24.232517089975545 15.742983877695309 0 0 0
2 1 4.770359596378842 4.300903184166048 0.6147307925042131 1 1 1
3 1 7.6256641160575676 2.166237597259006 1.6005571635562652 0 1 1
4 1 10.209463226081166 3.671584124047643 0.8631169862940979 0 0 0
5 1 13.48013156140462 1.5059684651418892 2.606826617974953 0 0 0
6 1 18.305320419107634 1.93314096363462 1.4916061187567586 0 0 0
7 1 24.347434790636672 20.00199539958089 4.412286644501342 0 0 0
8 1 22.847726663517665 3.132116347453317 2.2357841372188823 0 1 1
9 1 16.340395593057153 23.76606513386873 -0.540538572122685 0 0 0
10 1 1.531450133867701 5.894300890586274 1.3106833475989426 1 0 1
11 1 0.29277954646138926 21.30399651702195 15.255456119512765 1 0 0
12 1 11.260488157914125 6.140889511734504 0.9483235506781051 0 0 0
13 1 13.434217500014983 6.671572021439538 2.827596096129899 0 0 1
14 1 24.38912085759746 5.02970442012515 1.4780733071736711 0 0 0
15 1 14.535924009166814 3.9596480701510575 1.9895195370156715 1 0 1
16 1 16.45414528833163 3.2817528520063353 0.3236626924539825 0 1 0
17 1 20.434061111313 4.039199432759013 1.4472382065305394 0 0 1
18 1 0.14068597927511256 16.995711679232347 11.493824407438739 0 0 0
19 1 7.102709129643911 8.02561568089728 2.134939828829471 0 1 1
20 1 8.074754416303424 24.198997573213298 3.0399973786066474 0 0 0
21 1 8.344426123180046 10.606311699250066 2.286762975512844 0 0 0
22 1 11.046537582429215 11.709136783241476 -0.11513812467362061 1 0 1
23 1 14.094039015627063 9.984058996701984 1.0587372622750149 0 0 1
24 1 19.81792910087365 6.694122940818241 2.464732879556636 0 0 0
25 1 19.66454085746251 10.929686452555792 2.615758361692479 0 1 1
26 1 0.37199005053461914 12.226205142512779 13.071554129096961 0 0 0
27 1 19.642829906537113 8.84808622885992 0.7179804774889189 0 0 0
28 1 23.69713776104764 17.699905346428157 5.717190781693917 0 0 1
29 1 5.662276431761243 14.027838933522645 2.299838321714593 0 0 1
30 1 3.37167337888838 13.37995332343298 0.892649699858745 0 0 0
31 1 8.259261486470363 13.373599059489377 1.9768908368245905 1 0 1
32 1 12.71794764277288 12.767214023473846 1.8549487888286302 0 0 0
33 1 15.912381050045068 13.017931205667658 2.3272274124193792 0 0 0
34 1 4.196707135638844 21.650258685992632 16.157720737596005 1 0 0
35 1 22.49328938563638 13.788443887436227 1.663750159085403 0 0 1
36 1 24.255586819658483 12.141591849304932 16.352068222981135 0 0 0
37 1 24.364016894092398 11.477889187536356 1.834227699334797 0 1 1
38 1 1.9301111110379536 15.500720288474936 2.02528792206297 0 0 1
39 1 24.565541742682047 23.523243232758606 11.734049227186167 0 0 0
40 1 3.8034596489479506 17.618362944494546 1.7586864679583272 0 0 0
41 1 23.751807518702126 22.587053833420672 16.59507526616563 0 0 0
42 1 12.024311951993054 15.087513904100316 0.7195217195559911 0 0 1
43 1 14.278011864812823 16.715512047804843 0.9486849345893045 0 0 0
44 1 17.497379652340133 17.0789505017369 2.6319615510803493 0 0 0
45 1 19.489261215315867 15.86179742568462 0.7724314056732444 0 0 0
46 1 22.028094395280956 16.92458304233834 1.6230035474518338 0 0 1
47 1 24.375576302719733 16.541015850063857 0.17240780729109484 0 0 0
48 1 4.7642193960772845 18.57661870727403 -0.4588687379827008 0 0 0
49 1 24.097061115735542 12.053115459363596 8.573289791999661 0 0 1
50 1 14.475317085624999 19.318385144082146 1.2589984011125828 0 0 0
51 1 16.879679738571923 19.90336225106733 1.9679079567991984 0 0 1
52 1 23.915909922775462 7.2234140983341115 12.856055860934262 0 0 0
53 1 21.453003360208495 22.666293749369416 2.5688507649966965 0 0 1
54 1 23.015737898710082 20.280137812746162 0.1082729159310476 0 0 1
55 1 4.656180550336622 23.806136801883316 2.965950354929468 0 0 1
56 1 7.486709196870135 22.92779904620396 13.394685417980654 0 0 0
57 1 2.047725350162782 22.739501076942037 2.949986234239444 0 0 1
58 1 1.525462519521865 0.20876020611203344 15.579743114100786 1 0 0
59 1 6.632637124803677 21.56453335005242 2.2320000826576396 0 0 0
60 1 5.990128019299772 2.129008306527293 -0.6345090561723565 1 0 1
61 1 1.3794478175534857 23.66923116206376 0.2545781718675053 1 0 1
62 1 5.917382115660597 21.193220797935542 -0.2530492355212325 0 1 0
63 1 22.14647608504891 8.681790889269845 -0.360235812714209 0 0 1
64 1 17.744495153087144 9.701844031193673 19.401187221372822 0 0 0
65 1 3.2331084480766097 1.9738430349354386 3.4536572044018614 0 1 1
66 1 1.600420903269623 1.1655938815013178 1.3200014949478147 1 0 0
67 1 4.582367740353214 4.225320906179268 3.214504190739114 0 1 0
68 1 15.209990024495088 7.533697089416171 -0.4701897968510355 0 0 1
69 1 7.5360862600984415 4.1233538033844255 3.779079157870079 0 0 0
70 1 1.7421739886883103 23.98811018029864 11.35720961428241 1 0 0
71 1 10.964384896710575 2.4925979978055772 3.32157630610231 0 0 1
72 1 22.882495427725537 13.715869057038311 12.1758182981708 0 0 0
73 1 18.054612801435646 2.958496466446895 5.153885349513708 0 0 0
74 1 19.172074634921252 0.9715839493213974 4.062977374982901 0 1 0
75 1 8.384582421909485 12.570603189077246 18.92100718765848 0 0 0
76 1 23.077862612967106 2.148862754484408 4.84168042053373 0 0 0
77 1 2.605829820381267 6.631689077448312 3.6902483519531497 0 0 0
78 1 5.449320737686369 7.003702525623239 4.048279571823959 0 0 0
79 1 9.39300022138533 6.499676024572815 3.30481674872492 0 0 0
80 1 11.889486085793317 4.7789505123849105 4.759231357862766 0 0 1
81 1 16.113297946984233 4.576477234794217 4.167055955393157 0 0 0
82 1 21.77623925335719 6.845717080665031 4.710889600153489 0 0 0
83 1 20.48022621049811 4.56536527737983 5.915372624475302 0 0 0
84 1 0.6458528826633771 16.828024891795273 4.155710339498298 0 0 1
85 1 9.975992551091986 1.1231876383522479 6.113523819929599 1 0 0
86 1 2.0067143941543675 9.48759934253016 3.5484094451245767 0 0 0
87 1 3.7673411613662027 10.520813906953277 1.9531335298387247 1 0 0
88 1 10.174164877552554 10.497850720169238 4.665708204294991 0 0 0
89 1 10.018271423133562 7.833576235845418 5.447088655493357 1 0 0
90 1 14.698145506207462 7.983847287438468 6.091455444458593 1 0 1
91 1 15.572394855479493 8.43202981735693 3.298271659398572 0 0 0
92 1 17.47594610226284 6.7499998171230535 3.712375356846871 0 0 1
93 1 21.190203769616808 9.214671207962773 6.302123227651664 0 1 0
94 1 23.964378542214426 9.670636121318323 3.3960922611015523 0 0 1
95 1 0.4997640531232928 13.264835486531467 3.620508621176943 1 0 0
96 1 5.656468532428898 11.323786875032862 3.547159679495719 0 0 0
97 1 9.736195682345555 14.870876864385277 3.8218119225959413 0 0 1
98 1 11.803248099679745 12.885305841173745 4.7352559131840835 0 1 0
99 1 17.18640048972625 11.241722042190311 3.748390298601409 0 0 0
100 1 16.629265766879357 11.769480527201948 6.34216658551964 0 0 0
101 1 21.80422297494814 11.278051718493614 4.318383391824269 0 0 1
102 1 22.56416441141773 13.921471356002138 5.226382798184992 0 0 0
103 1 2.06079838393405 14.873823783956679 6.15816064188734 0 0 0
104 1 16.588925429523066 0.06525661698673701 19.52839158758854 0 1 0
105 1 4.402055472586162 15.564203918924653 4.544489801551293 0 0 1
106 1 11.518789786613796 16.913243400171886 2.9911464087169626 0 0 1
107 1 7.111921568163871 16.79480360248037 3.0184544686830797 0 0 0
108 1 15.55984126479017 15.574234945228735 2.922585714719113 0 0 1
109 1 14.409450723368797 15.40067119710114 5.221101865437225 0 0 0
110 1 21.491178112839652 16.381355308448168 4.273479325129478 0 1 0
111 1 18.903520262146444 17.171635028037922 4.691201900985517 0 0 1
112 1 0.40492136208638485 9.331152761340814 7.01188087226713 1 0 0
113 1 1.7645776057379707 19.84295132820279 2.1278711731179194 0 0 0
114 1 2.6600864770182326 18.338538592271473 5.3054523251428085 0 0 1
115 1 5.629445182620451 19.35095069092212 3.755018378043868 1 0 0
116 1 3.533655825328704 21.065123880530646 5.0704275284119795 0 0 0
117 1 9.375655633878893 18.348722847085813 1.68763814479937 0 0 0
118 1 9.369375929583684 20.81807495488125 2.9284568805053777 1 0 1
119 1 12.537164775213474 20.22650164135679 3.0988867688849053 0 0 0
120 1 13.444786754578672 19.999165213676772 5.681973907710576 0 0 0
121 1 16.355131869918416 21.242498996884297 4.4415834619071 1 0 1
122 1 22.31512011841623 19.835060922961087 2.897516623387363 0 0 1
123 1 20.12632309027917 19.643187848247404 4.629507327311319 0 0 1
124 1 7.481262668668909 14.74855613548677 -0.6942661372375837 0 0 0
125 1 4.602617421348878 18.951323838875027 19.7298944013662 1 0 0
126 1 10.674643499714161 2.0135178025740066 18.99250855280151 1 0 0
127 1 4.950222969592097 21.645795896536907 7.470462312075275 1 0 0
128 1 0.04758911661123557 3.757778961705014 5.880141027903128 1 0 1
129 1 12.305822838530522 23.07857255461814 2.6017393927831702 0 0 0
130 1 14.690692254837384 23.037167404030104 3.593987146218912 0 0 1
131 1 18.98103844585056 21.928432341146262 6.382768593740903 0 0 0
132 1 0.21801383904177948 3.3871057553276547 16.272696848070407 1 0 0
133 1 0.957207611129959 12.92078577210975 16.925851770475962 1 0 0
134 1 2.313572005809005 2.246929660184806 6.109770078999163 0 1 1
135 1 7.646146801192252 2.749764164660895 6.204903074016332 0 0 0
136 1 4.313755241628358 2.822733325197061 7.774043110706296 0 1 0
137 1 8.438087745569666 4.343618097831114 8.266166206709581 0 0 0
138 1 11.71344222007507 1.6143509628791597 7.911919796172908 0 0 0
139 1 14.625451621248697 0.8461725858304971 7.349661914653941 1 0 1
140 1 18.414317007241486 1.1234761746467896 9.673391514884921 0 0 0
141 1 17.178320711718733 2.2662288116931566 7.62159759547311 0 0 0
142 1 20.644967692547006 0.36972263492433977 8.038085214305692 0 0 0
143 1 22.006787006131873 2.822803099315339 7.152694975667561 0 1 0
144 1 5.993942212335325 7.463705447028398 6.822499010006177 0 0 0
145 1 4.985312042173893 5.1995368480216975 8.24565690596529 1 0 0
146 1 8.4392742194157 7.401898496677666 7.364010143335584 1 0 0
147 1 11.000855386666728 4.353847737505671 7.689083283362397 0 0 0
148 1 14.44346605256143 5.29360634956871 6.1529310846428436 0 0 0
149 1 15.938794842598515 4.538492787100631 8.504564909517423 1 1 0
150 1 19.644485246786886 5.919642156201474 7.8994372850733985 0 0 0
151 1 22.335392911460694 22.161471469360393 18.689948481767853 0 0 0
152 1 4.799690200546384 9.569753944666912 7.913211043556817 0 1 1
153 1 8.101931818899232 9.820609327523028 8.74532320651469 0 0 0
154 1 8.112022657651568 11.214543741464205 6.351447822347312 0 0 0
155 1 12.433720144614826 8.999941964332113 7.061584614190801 0 1 0
156 1 16.783194902758243 9.11518245252934 7.206889561856849 0 0 0
157 1 18.640670193428768 7.622974466539391 5.916264804838746 0 0 0
158 1 20.89019902472691 10.913138582226079 8.472454338240047 0 0 1
159 1 23.64390463193306 8.003437217161306 7.53129586936369 0 0 0
160 1 22.032701331599718 6.096894925442318 9.23328712079224 0 0 0
161 1 1.6688873254294425 11.17566590906893 5.401813762858011 0 0 0
162 1 5.9854940844658175 12.79427615630697 5.930495059980404 0 0 1
163 1 3.83850272055012 11.918474262449442 6.840859796882686 1 0 0
164 1 9.604157300875718 13.365764960710134 6.852949861942144 1 0 0
165 1 12.122204412394051 11.853140922835658 7.977450880275491 0 0 0
166 1 15.024428646505157 13.949834255771066 9.575891404923683 0 0 0
167 1 14.349418663087452 13.183015831287353 7.046208261386336 0 0 0
168 1 17.41926245743199 13.287312951536977 10.28717614454638 0 0 0
169 1 18.155050907942925 13.954469796540327 7.275986439095673 0 0 0
170 1 21.171029873340395 13.411703637415462 7.680280329716281 0 0 0
171 1 2.2823910662796263 16.164655276681504 8.348350439285843 0 0 0
172 1 15.46750973194408 7.971131406593986 19.476386012958912 0 0 0
173 1 4.566440776844139 18.269778596160414 7.685197726382535 0 0 0
174 1 5.590126504799978 15.816222558624618 8.285548604420642 0 0 0
175 1 6.919527985048713 15.549758739759294 6.091017929729595 0 0 0
176 1 10.38312791799455 16.38275967419806 6.864600512472287 1 0 0
177 1 12.846234620922557 17.236326610218125 5.665480803852552 0 0 0
178 1 14.382724017767547 16.907781100608766 8.362420973550197 0 0 1
179 1 16.896855061150095 16.23023682889269 6.763297268499372 0 0 1
180 1 17.646489110883437 17.67358722492034 9.101358713119023 0 0 0
181 1 21.596399824518617 19.256052546421703 7.105097020874405 0 1 1
182 1 21.751242340556097 17.370934943992967 9.557620061876287 0 0 0
183 1 21.573413464337214 0.7312335908944579 12.477912719716887 0 0 0
184 1 6.896266728472746 19.428163186206977 6.118858007391233 1 0 0
185 1 9.442565365052664 21.742936675890906 5.483520179214069 0 0 1
186 1 8.531354070193403 18.188625887850947 8.088490039184396 0 0 0
187 1 11.686508024013989 21.515567944733004 7.069146227679449 0 0 0
188 1 15.89222270155122 19.702573831132934 6.749155406130504 0 0 1
189 1 19.10255949274033 19.912989657377896 8.24208559961233 0 0 0
190 1 24.08054234080664 5.212657387592797 5.50925223727785 0 0 0
191 1 10.539802640523414 24.3814572653627 16.56694238255856 0 0 0
192 1 0.8319481016975884 22.018540480692657 6.644166334273472 0 0 0
193 1 1.2846633700203884 19.17138236623939 7.914103296452955 0 0 0
194 1 3.7818465720324475 19.38909761899932 10.347842534116323 1 0 1
195 1 7.625118078266609 22.587692075792045 7.362272918076599 0 0 0
196 1 12.067102575971505 24.162845750151416 6.553119407823346 0 0 0
197 1 14.005595284180993 22.35623291616423 8.864534156207844 0 0 0
198 1 16.471921606093424 23.1724337339663 7.312941572836273 0 0 0
199 1 2.3260714867234213 3.879307236928874 17.940933980938276 1 1 0
200 1 24.52968097750687 22.637384223459772 0.17599478331921403 0 0 0
201 1 2.888409228013816 2.5224340166765082 10.29637240561619 1 0 0
202 1 24.180670465189962 17.298787099437455 8.587209639364037 0 0 0
203 1 9.032792826269075 2.492396477208684 10.367523035353974 1 0 0
204 1 13.498302621958157 1.7515079107911466 11.031654214992244 0 1 0
205 1 19.341809378415167 2.533944391029417 11.884595708469293 0 0 0
206 1 16.95228196280013 13.494907092866477 -0.5955585214161343 0 0 0
207 1 12.986782646411571 14.958850361831024 19.649731340710076 0 0 0
208 1 0.9965961139505323 9.836349821125118 9.962106946332526 1 0 1
209 1 20.10678597035133 23.774377444127396 4.304691396166386 0 0 1
210 1 2.2573717921955274 5.990745156042473 7.9732967353006305 1 1 1
211 1 6.278339844575204 5.707216968529841 10.591539327729523 0 0 0
212 1 8.703847704728942 6.835191379658684 11.703277123069546 0 1 0
213 1 10.535871090970602 4.7554795609188965 11.609541696414102 0 0 0
214 1 12.213097505375769 5.648104404597568 9.853174278567884 1 1 0
215 1 14.365620349342285 4.43541568563443 10.78895713786157 1 0 0
216 1 17.607508902224712 6.251561280603617 9.58813343412349 0 0 0
217 1 18.25826437098357 5.382245892114251 12.33420623515933 0 0 0
218 1 23.403636161173143 21.307865806762425 7.07498226225534 0 0 0
219 1 23.341130864909875 3.508655109312117 9.499982408188608 0 0 0
220 1 3.0574677571261755 8.106085009043925 9.536383635511028 1 0 0
221 1 4.904778940988455 8.01109761195353 11.554350588804096 1 0 0
222 1 6.360999181217752 10.076095409059317 10.912172514004705 0 0 0
223 1 10.151080072763444 9.409387781361099 10.616999138775482 0 0 1
224 1 12.459291349622596 8.215663591589136 9.762787956320585 0 0 1
225 1 14.695658469760403 9.286072780359305 11.294812747704775 0 0 0
226 1 16.91026886342932 8.864318806990058 9.566743124835817 0 0 0
227 1 18.659278379298517 7.9443542306001165 13.498809397011197 0 0 0
228 1 18.290038083668225 21.39878827108091 0.05568696107349924 0 0 1
229 1 19.72381509272626 9.868823118072124 12.031463335305714 0 0 0
230 1 0.6335774738677892 6.5286218464417445 5.73332133081448 0 0 1
231 1 23.787754686587544 24.055175898700963 2.757535885434464 0 0 1
232 1 4.145263476535271 13.284311348619187 9.27121887387185 0 0 0
233 1 5.811327346536947 12.766721747335216 11.339618312029264 0 0 0
234 1 10.875720477762046 11.915940856067717 12.040587465087231 0 0 0
235 1 13.504515883022037 11.74864749552854 11.17625729009762 0 0 1
236 1 17.913160332706234 13.738301859989015 13.497186127478216 0 0 0
237 1 18.586863504438927 11.05285722441631 9.676240672838201 0 0 0
238 1 3.841072131402551 24.508693564374195 8.161362795277388 1 0 1
239 1 22.629843872139496 9.383186760008755 10.103765311220933 0 0 0
240 1 20.56791012620723 12.102284326231477 13.23221400345886 0 0 0
241 1 1.6016234160425886 12.82038762527676 10.452480050138018 0 0 0
242 1 2.761209606793683 15.49599284458132 11.678801587347392 0 0 0
243 1 7.790953509688289 16.429534055988107 10.413241909509404 0 0 0
244 1 11.454841631659878 16.71982561750044 9.392299591366713 0 0 0
245 1 10.695113175557957 13.979595851651549 9.724435655272744 0 0 0
246 1 15.058060586546233 15.818897965869809 11.777426734448017 0 1 0
247 1 17.92266410113433 16.03395492494815 11.267099680382813 0 0 0
248 1 18.876753515760264 17.515865351600098 13.18764296809487 0 0 0
249 1 21.827378361420855 14.833819481631506 10.002243069179153 0 0 0
250 1 0.9695323992767048 19.320190246055457 10.570497643966075 1 0 1
251 1 18.011908311919317 4.703693744030593 19.686493948356613 0 0 1
252 1 5.0553616652470685 17.29556792399726 11.736248644547281 0 0 0
253 1 10.428797802550545 19.866152839975083 8.944641189912826 0 0 1
254 1 11.430384027986761 20.061943277992672 11.733004701947705 1 0 0
255 1 13.4427589812659 18.2310273257215 11.524058614412471 0 0 0
256 1 15.284353230027865 19.70189728304565 9.776679400012359 0 0 0
257 1 17.010053091759264 20.58475960686075 11.70109061707496 0 0 0
258 1 19.4956186131354 20.42543630996659 10.872400924678965 0 0 0
259 1 23.559654970560278 18.404891118795657 13.839752727247243 0 0 0
260 1 21.42899590209081 18.734071122396422 11.845025842118456 0 0 0
261 1 19.915932323382854 12.881313525245387 0.2665540479647419 0 0 1
262 1 1.7864189478507742 21.193888733175683 13.01415708371643 0 0 1
263 1 5.254192416028672 21.6207667528881 10.102238435650628 0 0 0
264 1 8.323000899811996 21.647454150706693 10.062088513506398 0 0 0
265 1 6.6448814503356335 20.45899036200298 12.743858551554425 0 0 0
266 1 14.362803480526985 23.510147050440416 11.172813613153924 0 0 0
267 1 16.79084108614427 23.097266546638895 12.231135977496638 0 0 0
268 1 8.978056049897472 10.101287812756297 -0.473387783417072 1 1 1
269 1 20.41191933681656 22.885681946362617 10.656995708184379 0 0 0
270 1 22.083947119173175 23.550090701664494 12.46590507342591 0 0 1
271 1 3.602333663944675 3.2333058307980775 12.995998658861389 0 0 0
272 1 3.6650352671878 1.8448791415483865 15.339436212675508 1 0 0
273 1 9.591070221956436 23.71666665962249 11.5137093569279 0 0 0
274 1 7.736761736532515 2.005255388272429 12.471973284759198 0 1 0
275 1 9.500499333384372 2.015101157560904 14.576958316631368 0 0 0
276 1 12.799464374371404 1.5015141081849586 13.687642012244263 0 1 0
277 1 8.88663277065565 21.355582768843806 -0.07769202964472022 1 0 0
278 1 18.08239697685881 1.3339647072722178 14.067477372869632 0 1 0
279 1 24.343574183141484 0.6866856039681696 13.778680352908669 0 1 0
280 1 1.7540502203517163 5.41159331838364 14.113534590771552 1 0 0
281 1 6.172314703071571 4.316755430451362 12.74731529997529 0 0 0
282 1 6.0335649900832005 5.87735700218206 15.013590306092087 0 0 0
283 1 3.94688839330751 7.31301413846832 14.103114449972356 1 0 0
284 1 10.38698351349846 4.681215060488614 14.636415997724939 0 0 0
285 1 13.404801274237373 3.9366860357571523 15.188751614102625 0 0 0
286 1 15.582782772790551 4.9633146990402555 13.129536164137283 0 0 0
287 1 17.62104903104599 5.568033192964931 15.787067329401818 0 0 0
288 1 18.750582932177537 3.0868279460081345 15.859082529464988 0 0 0
289 1 21.50467201042226 4.241151064007388 12.719139598177884 0 1 0
290 1 3.815724047166739 9.796633150648342 15.881838745770882 1 0 0
291 1 6.380386023339978 10.636038928959684 15.719412783687147 0 0 0
292 1 8.381308998310779 6.810291883675498 14.468656841256514 1 0 0
293 1 7.938088488005337 9.6835231448751 13.360466991773853 0 0 1
294 1 10.696726300580693 8.011057960382535 15.249885256139034 0 1 0
295 1 13.494235740261242 6.832744186356296 15.384190768213927 1 1 0
296 1 15.057678192755796 8.049310373573867 13.403683191079487 0 1 0
297 1 16.64968232275715 9.999985362360258 14.765840859521377 1 0 1
298 1 20.357366691910094 8.396809809245788 15.564090944252797 0 0 0
299 1 21.233389304194816 6.894956935719826 11.649664168158523 0 0 0
300 1 2.3084580286295004 12.004978844920295 14.850247538907038 0 0 0
301 1 23.287077105989827 7.29303162083178 1.8903036579806716 0 0 0
302 1 4.3851000146283665 13.301114942931768 13.782091244593563 1 0 0
303 1 10.284497208436107 10.717134721927556 14.45173497722383 1 0 0
304 1 10.913756063797889 11.917214311665434 16.830417852476078 0 0 1
305 1 13.822576228800209 13.523054861609936 13.36083200044016 0 0 0
306 1 15.892403764278463 12.419888486785863 14.425740647482964 0 0 0
307 1 19.115137300787026 14.604545514391418 15.825955558257501 0 0 0
308 1 21.862737272683777 11.211053007264644 15.547734014130757 0 0 0
309 1 2.846920929325751 15.719647569214995 14.330003823766114 0 0 0
310 1 8.245478787736083 14.100951376917573 11.312176877774398 0 0 0
311 1 9.053065879756426 14.09383828949092 13.960149265170964 0 0 0
312 1 8.701376914084914 16.702181813789014 14.24296615329415 0 0 0
313 1 11.677382196591125 14.103585976267262 15.096129804655165 0 0 0
314 1 13.166832321774729 16.312505169230434 15.52963085730962 0 0 0
315 1 16.238050366359435 16.221948000204993 14.593216115366912 0 0 0
316 1 23.381020349994373 15.406422005453065 14.419367541105355 0 0 0
317 1 21.046768054946288 16.296968542326177 15.609137813229506 0 0 0
318 1 4.485163372342307 17.84692997233879 14.919430405248917 0 0 0
319 1 4.2046450043672365 20.293299621061966 13.878371960437498 0 0 0
320 1 8.624079609136613 18.664351054660187 12.19452988543565 0 0 0
321 1 9.985410381345883 20.176165375167372 14.603809421823483 0 0 0
322 1 12.054966486789727 22.783354311340837 12.769435334009438 0 0 0
323 1 13.882250682027015 18.82554095782731 14.185061271201477 0 0 0
324 1 16.947594742592873 20.871346762811665 15.961425449904276 0 0 0
325 1 16.63837236295398 19.324715021039648 14.020903724586155 0 0 0
326 1 21.195944882518187 19.02295934898909 15.40425850807949 0 0 0
327 1 22.133550960423285 21.39720725214819 14.268939830598818 0 0 0
328 1 0.9891612246271246 4.637930472074909 10.03573155036844 1 0 0
329 1 1.5659126808401305 21.121326315661346 17.63376867791952 1 0 0
330 1 8.871905964853708 22.40164626915054 15.623917613116362 1 0 0
331 1 5.134095644668661 0.026008695418134664 4.191596845567094 1 0 0
332 1 12.73352630630832 22.976803878913042 15.547324860506897 0 0 0
333 1 12.576021806824217 20.6493780649782 16.40757311410286 0 0 0
334 1 15.691817841261551 22.704443495591757 19.725463883985004 0 0 0
335 1 16.95861779763724 23.37662681624884 15.145804687137026 0 0 0
336 1 10.75248922130272 6.431929992524812 19.388344934620527 0 0 0
337 1 7.437191339583443 2.3173150516997145 16.648736033854732 1 0 0
338 1 20.623037477389914 1.6312547178194736 19.547441722955565 0 0 0
339 1 0.9727509596658843 15.482411631802217 16.319764833939576 1 0 0
340 1 4.956955181774506 2.942057614902743 17.8439019360374 0 0 0
341 1 23.814879055590794 12.236230769736581 18.96293570502636 0 0 0
342 1 14.52935241564528 3.3018702297882023 17.603039736011482 1 1 0
343 1 15.983862641572838 0.9296337284811204 16.69492526918646 0 0 0
344 1 18.333889199639035 2.391904325076822 18.40757336713393 0 0 0
345 1 21.082951748032894 22.973822453683148 7.849401012874418 0 0 1
346 1 23.10022160383421 2.615825614458962 17.542386602676753 0 0 0
347 1 22.964377523183657 1.2860362933744955 0.5195621418477392 0 0 0
348 1 5.88929704477568 5.704398094978051 17.833719842878097 1 0 0
349 1 9.703944766143444 4.047853990717517 17.597301221576746 0 0 0
350 1 10.50753698640836 0.19796360119629977 10.070686340503748 1 1 0
351 1 15.966830172923384 5.438648632459583 17.859123974381756 0 0 1
352 1 20.799073463309572 6.0944824487708775 17.06614726634922 0 0 0
353 1 23.88767727392291 5.723548035434548 17.02359100288539 0 0 0
354 1 23.27567183761955 8.292126136751467 15.000921551810167 0 1 0
355 1 21.43004424448616 3.6370305458925447 15.623776731234546 0 1 0
356 1 1.8280859923884911 8.563211881030448 17.403789991848672 1 1 0
357 1 7.73065537847519 9.929073955548747 18.02385780537159 0 0 0
358 1 10.24767493231545 8.861131868123694 17.87606910015483 0 0 0
359 1 14.563070972661796 8.985679810645049 16.88879460826417 1 0 0
360 1 24.11605865510476 10.879122627279818 -0.7863739094007155 0 0 0
361 1 18.811249110997647 10.068509317062828 17.078410454942436 0 1 0
362 1 2.808025539550483 6.448476278117983 19.004386887454775 0 0 0
363 1 0.7299236723635111 10.93575022065975 18.888397742041224 1 0 0
364 1 6.559512485424421 13.142146552609722 15.215406842553527 0 0 0
365 1 8.044007277113899 5.0671918838852354 19.677398511995385 1 0 0
366 1 10.397924524518888 14.759322031390072 18.203790597014482 0 1 0
367 1 10.456191320319702 0.34067241906065127 16.706863574276635 0 1 0
368 1 15.275562599552119 12.881200062089402 17.41130256578334 0 0 0
369 1 20.164795989693868 12.473122469723359 17.293140935241652 0 0 0
370 1 13.01604033418546 10.986512223096138 18.19083275710925 0 0 0
371 1 21.38324644797545 13.167084069941849 19.70589122701082 0 0 0
372 1 12.18247936065171 23.71929127942122 0.1963945461235852 0 0 1
373 1 9.149715307320031 22.823501991766282 19.10276307544486 1 0 0
374 1 3.0355683431062106 14.813495023441412 18.494646169186666 0 0 0
375 1 5.617434617560349 15.094645499301546 17.215860581214404 1 0 0
376 1 9.414020865792072 17.324674762900152 18.318442905321582 0 0 0
377 1 17.60694327689936 15.04061302110452 17.90533456938545 0 0 1
378 1 14.828959286319023 16.08167245282226 17.75089540012871 0 0 1
379 1 17.9218485130335 17.883830873892155 19.088738247726873 0 0 0
380 1 21.812218863315362 15.537836694907273 18.211849880182537 0 0 0
381 1 2.8283858061718523 18.495328848364682 17.162130365099408 0 0 0
382 1 6.659661433523211 17.05961989725252 16.079659314644672 0 0 0
383 1 6.9440664675955786 18.67389442998484 17.895659084553863 0 0 0
384 1 10.718670144335212 17.85515798598979 15.909055886287423 0 0 0
385 1 11.42086208683236 20.932897705479427 18.95125198491266 0 0 0
386 1 15.155549360535803 18.473380433908204 19.298854682928997 0 0 0
387 1 14.95855250113589 20.8299300582768 17.834640354638665 0 0 0
388 1 19.038723328483808 20.180263691392554 17.949596230819708 0 0 0
389 1 6.014220973143326 6.874452430651778 0.02635945536306028 0 1 1
390 1 21.960261361783374 19.47371992663562 18.139474409379066 0 0 0
391 1 19.90622987796658 23.967352561186072 0.19876441267860367 0 0 0
392 1 6.64201824063195 21.580077001493443 17.171160294146087 0 0 0
393 1 19.996331716927834 24.167443088351888 18.27718666823273 0 0 0
394 1 2.0958779054593664 23.337596029673065 19.31414989360774 1 0 0
395 1 4.402800810136204 23.989474998566834 11.06604144257034 1 0 1
396 1 17.2286404549295 5.825459748470867 -0.12313967626262734 0 0 0
397 1 9.545781851669139 24.491627149447577 8.350395406747493 0 0 0
398 1 5.896728278789824 0.356369103765191 6.874977858283184 1 0 0
399 1 1.4165986524016323 20.937766445116065 -0.6938022608974321 0 0 0
400 1 23.945443075882125 3.291838981919858 12.58054267232588 0 0 0
401 1 10.59292268809741 24.43672978611505 4.168487598517416 0 0 0
402 1 0.5418319592818157 24.014736577546866 8.602278108935769 1 0 0
403 1 9.299139468892696 23.892404291801974 -0.6634277671223787 0 0 0
404 1 4.310801336414459 9.046945444505212 -0.41713203751735417 0 0 0
405 1 0.7523457079660849 0.1695211079622942 6.704014193325068 0 0 0
406 1 20.340452854617396 1.4501285924291878 -0.44294681885021303 1 1 0
407 1 5.426952503152231 8.41029957344743 18.55531438922732 0 0 0
408 1 6.494174029094813 14.28120096126925 19.645759230640227 1 0 0
409 1 5.724855755341157 22.157311860984635 19.483162461287524 1 0 1
410 1 0.19374519334606058 13.437297082081468 -0.7532834178678272 0 0 1
411 1 5.432082397522686 1.6973413224180718 20.21723001189516 1 0 0
412 1 3.7833073268805686 2.9114451181984524 21.94778515903905 1 0 0
413 1 20.42149009377658 6.143258993389779 19.764216857503257 0 0 0
414 1 0.9059767467778718 7.998798895039933 22.919631704626077 0 0 0
415 1 9.389262244807762 0.8857541327744037 21.227647128664813 0 0 0
416 1 14.268735373201237 0.3103204788427496 20.872703838599705 0 0 0
417 1 24.0924739880932 6.197743496155425 19.889150686055366 0 1 0
418 1 18.7061219488812 22.133555734654962 19.992276853276632 0 0 0
419 1 12.976140010920039 2.779190719698267 20.092466457185886 0 1 0
420 1 23.572248810649505 1.3339630420349902 22.51029517639407 0 0 0
421 1 2.280523171185975 5.980563079103499 21.59963052774311 0 0 0
422 1 7.670777066897273 2.7436718483631206 20.63654683742188 1 0 0
423 1 23.775021671460053 11.471929532207078 39.550865268951306 0 0 0
424 1 9.06503799549009 6.607103855841661 22.124963941315517 0 1 0
425 1 11.046541580268135 4.481938887387648 23.261447229651832 0 0 0
426 1 7.84295379471206 23.322505444562786 23.8119030638478 1 0 0
427 1 23.924250369905923 1.148345167329859 38.66522518048604 0 0 0
428 1 20.84032466618414 0.7664073994568891 22.147022216509633 0 1 0
429 1 0.31310158009409184 18.927596986795574 23.669292152152764 1 0 0
430 1 0.5535360826003151 13.037937333845251 40.28596472016878 0 0 0
431 1 24.22583592052588 5.358388514948009 24.07393921240299 0 0 0
432 1 14.36468677337751 23.97645244593731 37.65446781858969 0 0 0
433 1 3.044662329827708 9.790127819335105 22.626018282192927 1 0 0
434 1 3.0258365475956186 20.14773723465826 39.81013676537825 0 0 0
435 1 5.205335206030906 9.295995440382116 21.229987581865483 0 0 0
436 1 10.782957887497144 9.21721605368792 21.609752126940904 1 0 0
437 1 15.696913367907113 6.528165519388024 21.717374808579734 0 0 0
438 1 13.39783891733189 9.549712480346175 20.833659881789846 0 0 0
439 1 16.776735957425576 11.526273190450786 22.84586251631632 0 0 0
440 1 24.258644640104784 6.638434268445605 36.7291944532104 0 0 0
441 1 19.13976254601376 8.116389274267169 21.456871813804682 0 0 0
442 1 19.428993850814276 10.964213391112873 22.90537476519933 0 0 0