
# Create simulation box of size 49.22 x 49.019 x 60.06 Angstrom
#
region 	     all block 0 ${XDIM} 0 ${YDIM} 0 ${ZDIM} units box
region 	     all block 0 49.22 0 ${YDIM} 0 ${ZDIM} units box
region 	     all block 0 49.22 0 49.019635930410494 0 ${ZDIM} units box
region 	     all block 0 49.22 0 49.019635930410494 0 60.062 units box
create_box          1 all
Created orthogonal box = (0.0000000 0.0000000 0.0000000) to (49.220000 49.019636 60.062000)
  2 by 2 by 3 MPI processor grid

# fill box with 4096 randomly distributed atoms
# plus ~800 atoms that eill eventually be removed to insert the substrate
#
create_atoms        1 random 4896 63782 all
Created 4896 atoms
  create_atoms CPU = 0.001 seconds
mass                1 18.015

# Define potential
#
pair_style          sw
pair_coeff          * * mW.sw mW
Reading sw potential file mW.sw with DATE: 2019-02-27

# Run minimization
#
minimize            1.0e-8 1.0e-8 10000 1000
WARNING: Using 'neigh_modify every 1 delay 0 check yes' setting during minimization (../min.cpp:187)
Neighbor list info ...
  update every 1 steps, delay 0 steps, check yes
  max neighbors/atom: 2000, page size: 100000
  master list distance cutoff = 6.3065
  ghost atom cutoff = 6.3065
  binsize = 3.15325, bins = 16 16 20
  1 neighbor lists, perpetual/occasional/extra = 1 0 0
  (1) pair sw, perpetual
      attributes: full, newton on
      pair build: full/bin/atomonly
      stencil: full/bin/3d
      bin: standard
Per MPI rank memory allocation (min/avg/max) = 4.222 | 4.226 | 4.229 Mbytes
Step Temp E_pair E_mol TotEng Press 
       0            0    4347277.3            0    4347277.3    2883142.5 
     708            0   -55382.494            0   -55382.494   -211.06598 
Loop time of 1.83173 on 12 procs for 708 steps with 4896 atoms

98.8% CPU use with 12 MPI tasks x no OpenMP threads

Minimization stats:
  Stopping criterion = max force evaluations
  Energy initial, next-to-last, final = 
      4347277.33431654  -55381.8412043818  -55382.4942086128
  Force two-norm initial, final = 72579639.0 4.5756174
  Force max component initial, final = 41918807.0 0.8258698
  Final line search alpha, max atom move = 0.060602002 0.050049363
  Iterations, force evaluations = 708 1001

MPI task timing breakdown:
Section |  min time  |  avg time  |  max time  |%varavg| %total
---------------------------------------------------------------
Pair    | 1.2836     | 1.4394     | 1.6055     |   8.1 | 78.58
Neigh   | 0.02865    | 0.030384   | 0.032323   |   0.6 |  1.66
Comm    | 0.15907    | 0.32413    | 0.48055    |  17.1 | 17.70
Output  | 0          | 0          | 0          |   0.0 |  0.00
Modify  | 0          | 0          | 0          |   0.0 |  0.00
Other   |            | 0.03782    |            |       |  2.06

Nlocal:        408.000 ave         416 max         398 min
Histogram: 2 0 1 2 1 1 0 1 0 4
Nghost:        1115.75 ave        1138 max        1092 min
Histogram: 1 1 0 2 0 4 2 0 0 2
Neighs:        0.00000 ave           0 max           0 min
Histogram: 12 0 0 0 0 0 0 0 0 0
FullNghs:      13577.7 ave       14123 max       12951 min
Histogram: 2 0 2 0 1 2 0 1 2 2

Total # of neighbors = 162932
Ave neighs/atom = 33.278595
Neighbor list builds = 38
Dangerous builds = 0

# Add velocity/set timestep
#
velocity            all create ${TEMP} 120598 rot yes dist gaussian
velocity            all create 220 120598 rot yes dist gaussian
timestep            5.0

# Define output
#
compute	            1 all msd
thermo	            100
thermo_style        custom step temp press vol etotal ke pe c_1[4] density

# Neighbor lists
#
neigh_modify        delay 0 every 1 check yes

# Set fixes
#
fix                 1 all momentum 10 linear 1 1 1 rescale
fix                 2 all nve
fix                 3 all temp/csvr ${TEMP} ${TEMP} 500.0 928347
fix                 3 all temp/csvr 220 ${TEMP} 500.0 928347
fix                 3 all temp/csvr 220 220 500.0 928347
fix                 4 all press/berendsen z ${PRES} ${PRES} 1000.0 modulus 20000
fix                 4 all press/berendsen z -500 ${PRES} 1000.0 modulus 20000
fix                 4 all press/berendsen z -500 -500 1000.0 modulus 20000

# Run 0.5 ns equilibration
#
dump                1 all custom 1000 eq.${NAME}.dump id type x y z vx vy vz
dump                1 all custom 1000 eq.liquid_mW_500.dump id type x y z vx vy vz
run                 100000
Per MPI rank memory allocation (min/avg/max) = 3.473 | 3.476 | 3.479 Mbytes
Step Temp Press Volume TotEng KinEng PotEng c_1[4] Density 
     708          220    801.51799    144914.38    -52172.46    3210.0343   -55382.494 1.443174e-34     1.010679 
     800    146.35578    355.98607    146142.92    -50934.55    2135.4867   -53070.036   0.31689614    1.0021828 
     900    174.80926    21.808104    146778.86   -50124.469    2550.6533   -52675.122   0.60066612   0.99784076 
    1000    189.28542   -114.35283    147176.61   -49589.392    2761.8759   -52351.268   0.91387194   0.99514401 
    1100     200.7203   -192.86774    147511.34   -49264.901     2928.723   -52193.624     1.249451   0.99288584 
    1200    204.33393   -94.550096    147789.13   -49025.988    2981.4496   -52007.438    1.5972011   0.99101957 
    1300    209.79804   -342.60395     147871.1    -48784.62    3061.1769   -51845.797    2.0252058   0.99047024 
    1400    215.13223   -543.73751    148066.97   -48706.775    3139.0084   -51845.784    2.4338878   0.98915997 
    1500    217.99824   -374.67509    148063.55    -48606.86    3180.8265   -51787.687    2.8235755   0.98918283 
    1600    217.06507   -451.91766    148091.07   -48581.796    3167.2107   -51749.007     3.222805   0.98899901 
    1700    218.42923   -371.15264    148115.14   -48637.671    3187.1151   -51824.786    3.6099212   0.98883828 
    1800    216.89805   -297.52662    148176.35   -48561.335    3164.7736   -51726.109    4.0175926   0.98842985 
    1900    218.90423   -342.61233    148247.52   -48546.118    3194.0458   -51740.164    4.4001775   0.98795533 
    2000    223.31198   -561.03088    148414.71   -48515.924    3258.3597   -51774.284    4.8017108   0.98684236 
    2100    219.81301   -345.52656    148420.67    -48551.73     3207.306   -51759.036    5.1594597   0.98680273 
    2200    217.12439   -341.52427    148432.44   -48617.116    3168.0762   -51785.192    5.4474705   0.98672451 
    2300     218.1653   -395.52961    148433.88   -48586.982    3183.2641   -51770.246    5.8937684    0.9867149 
    2400     220.9961   -319.81214    148527.97   -48601.697    3224.5685   -51826.265    6.3251857   0.98608989 
    2500    220.38085   -572.71409    148636.74   -48591.158    3215.5914    -51806.75    6.6635405   0.98536823 
    2600    222.02754   -558.60061    148661.97   -48531.411    3239.6184    -51771.03      7.15342   0.98520103 
    2700    221.66306   -616.10273    148539.67   -48526.873    3234.3001   -51761.173    7.4810165   0.98601219 
    2800    219.55725   -350.52122    148500.87   -48629.002    3203.5741   -51832.576    7.8369533   0.98626983 
    2900    222.65645    -567.1499     148526.3   -48582.424    3248.7948   -51831.218    8.1627965   0.98610093 
    3000    221.52278    -450.5045    148633.61   -48564.667    3232.2533    -51796.92    8.3696781   0.98538897 
    3100    223.01013   -452.89344    148708.41   -48578.828    3253.9554   -51832.784    8.6948915   0.98489333 
    3200    222.23833   -402.87556    148773.07   -48616.066     3242.694   -51858.761    9.0509704   0.98446533 
    3300    222.18729    -343.1105    148879.97   -48617.333    3241.9492   -51859.283    9.3475903   0.98375844 
    3400     220.1452   -529.15995    148761.17   -48636.836     3212.153   -51848.989    9.6429326   0.98454404 
    3500    222.73042   -563.47526    148868.57   -48559.237    3249.8741   -51809.111    10.136805   0.98383373 
    3600    220.97037   -330.47357    149000.95   -48584.136    3224.1931   -51808.329    10.605164   0.98295965 
    3700    221.09856   -540.35944    148912.08   -48636.593    3226.0634   -51862.656      10.9685   0.98354627 
    3800    217.97063   -551.50367    148888.86   -48593.461    3180.4237   -51773.885      11.2429   0.98369966 
    3900    218.47445   -385.11981    148951.07   -48684.478    3187.7749   -51872.253    11.554923   0.98328886 
    4000    220.76197   -507.77257    148903.45   -48777.384    3221.1523   -51998.537    11.692418   0.98360331 
    4100    221.69359   -418.47051     148941.7   -48693.077    3234.7457   -51927.823    12.035127    0.9833507 
    4200    218.76751   -480.18912    148915.92   -48696.476     3192.051   -51888.527    12.487151   0.98352096 
    4300    220.75841   -572.28748    148958.65   -48690.421    3221.1003   -51911.521    12.772995   0.98323879 
    4400    221.37135   -421.49883    148948.93   -48646.257    3230.0438     -51876.3    13.103753   0.98330299 
    4500    220.20269    -548.8392    149009.65   -48646.828    3212.9917    -51859.82    13.560513   0.98290227 
    4600    219.34169   -631.79379    148901.84   -48654.867    3200.4288   -51855.296    13.651273   0.98361396 
    4700    224.43557    -381.4443    148935.74   -48683.483     3274.754   -51958.237    13.974096   0.98339004 
    4800    220.73173   -399.06885    148959.17   -48674.963    3220.7111   -51895.674     14.52226   0.98323537 
    4900    219.54078   -615.30089    148954.71   -48668.725    3203.3339   -51872.059    14.885712   0.98326477 
    5000    218.20874   -507.47488     148875.2   -48751.392     3183.898    -51935.29    15.142163   0.98378997 
    5100    216.45377   -557.62436    148980.93   -48681.336     3158.291   -51839.627    15.483663   0.98309173 
    5200    217.15561   -544.82899    149057.52   -48720.097    3168.5316   -51888.628    15.774739   0.98258663 
    5300    219.71953   -550.99044    149220.07   -48769.667     3205.942   -51975.609    16.127802   0.98151624 
    5400    220.63377   -604.83707    149211.16   -48698.219    3219.2818   -51917.501    16.467848   0.98157489 
    5500    224.19764   -536.28721    149064.09   -48671.949    3271.2823   -51943.232    16.625786   0.98254331 
    5600    222.09285   -521.10061    149058.67   -48616.826    3240.5712   -51857.397    16.861353   0.98257902 
    5700    219.61918    -543.6473    149091.65    -48699.22    3204.4777   -51903.698    17.052085   0.98236171 
    5800    219.76626    -508.2453    149061.44   -48651.637    3206.6238   -51858.261    17.499821    0.9825608 
    5900    217.06504   -535.20279    149119.05    -48679.11    3167.2102    -51846.32    17.892818   0.98218114 
    6000    222.49006   -578.36531    148966.17   -48758.223     3246.367    -52004.59    18.155993   0.98318914 
    6100    216.60179   -451.25865    148872.93    -48742.12    3160.4509   -51902.571     18.49905   0.98380496 
    6200    218.60893   -448.12132    148841.61   -48732.489    3189.7371   -51922.226    18.945078   0.98401198 
    6300    221.36972   -220.04643    148890.73   -48753.315    3230.0201   -51983.335      19.3274   0.98368733 
    6400    218.60047   -526.31952    148949.14   -48743.112    3189.6137   -51932.726    19.492793   0.98330157 
    6500      219.318   -603.69214    148966.29   -48720.819    3200.0832   -51920.903    19.918402   0.98318836 
    6600    220.97057   -496.61637    148913.55   -48772.214     3224.196    -51996.41    20.092142    0.9835366 
    6700    221.67893   -542.38329    148796.56   -48779.272    3234.5317   -52013.803    20.353961    0.9843099 
    6800    218.86784   -491.10104    148755.26   -48824.473     3193.515   -52017.988    20.671123   0.98458316 
    6900    214.79194   -680.13513     148741.2   -48817.704    3134.0432   -51951.748    20.976321   0.98467621 
    7000     224.0534   -441.69548    148726.49   -48738.496    3269.1778   -52007.674    21.306765   0.98477361 
    7100    217.90171    -486.1834    148831.21   -48797.358     3179.418   -51976.776    21.730648   0.98408073 
    7200    216.86701   -610.70873    148907.44   -48803.722    3164.3206   -51968.042    22.090109   0.98357695 
    7300    220.78619   -382.15904    148895.72   -48815.382    3221.5057   -52036.888    22.264326   0.98365437 
    7400    214.43531   -692.60167    148876.39   -48852.196    3128.8396   -51981.035    22.397446   0.98378207 
    7500    216.87383   -446.94667    148851.71   -48828.099    3164.4202   -51992.519    22.763019   0.98394516 
    7600    222.69998    -576.8288    148916.05   -48779.276    3249.4299   -52028.706    22.885883   0.98352006 
    7700    222.39648    -646.5684    148951.16    -48775.59    3245.0016   -52020.592    23.192486   0.98328823 
    7800     221.5042   -559.95555    148929.36   -48795.596    3231.9823   -52027.579    23.308202   0.98343218 
    7900    217.60115   -431.48608    148912.42   -48890.707    3175.0325   -52065.739    23.740239   0.98354405 
    8000    211.89704   -617.48049    148864.28   -48927.996    3091.8036   -52019.799     24.11054   0.98386211 
    8100    218.60715    -470.1127    148866.99   -48840.417    3189.7112   -52030.128     24.44034   0.98384419 
    8200    219.90518   -546.55938    148971.31   -48800.562    3208.6508   -52009.213    24.747236   0.98315527 
    8300    226.79771   -339.75166    148903.75   -48736.606    3309.2202   -52045.826    25.019408    0.9836013 
    8400    221.88195   -499.71581    149014.96   -48837.953    3237.4939   -52075.446    25.369397   0.98286725 
    8500    218.49533   -609.45572    148875.88   -48913.892    3188.0796   -52101.971    25.588238   0.98378547 
    8600     218.5262   -428.48538    148827.45   -48848.028    3188.5301   -52036.559    25.742228    0.9841056 
    8700    220.71857   -491.17261    148866.04   -48754.049     3220.519   -51974.568    25.991427   0.98385048 
    8800    222.68069   -437.98204    148866.76   -48717.321    3249.1485    -51966.47    26.447389    0.9838457 
    8900    222.32342   -365.87428    148866.34    -48756.56    3243.9355   -52000.496    26.724059   0.98384847 
    9000    221.04197   -538.61564    148924.76   -48709.513    3225.2378   -51934.751    27.149187   0.98346257 
    9100    221.82402   -314.69388     148961.8   -48653.459    3236.6487   -51890.108    27.388047     0.983218 
    9200    217.41946     -344.876    148987.64   -48713.589    3172.3815    -51885.97    27.674573   0.98304748 
    9300    220.32037   -431.82793    148939.75   -48724.276    3214.7089   -51938.985    28.154094   0.98336354 
    9400    218.22495    -340.5626    148980.15   -48714.494    3184.1345   -51898.629    28.652307   0.98309692 
    9500    219.69834   -574.94673    148912.07   -48748.884    3205.6328   -51954.517    28.917581   0.98354633 
    9600    215.11037   -479.43151    148778.56   -48798.986    3138.6895   -51937.676    29.238312     0.984429 
    9700    217.12452   -420.29785    148692.84   -48697.986     3168.078   -51866.064    29.406947   0.98499645 
    9800     219.7473   -413.56823    148819.51   -48753.099    3206.3472   -51959.447     29.71617   0.98415809 
    9900    218.65601   -661.23956    148815.55   -48667.198    3190.4241   -51857.622    30.055699   0.98418428 
   10000    216.60988   -436.41755    148728.86   -48774.792    3160.5689   -51935.361    30.403377   0.98475792 
   10100    215.63123   -702.67031    148759.84   -48720.667    3146.2894   -51866.956    30.599392   0.98455283 
   10200    220.46957   -456.57233    148681.15   -48743.036    3216.8859   -51959.922    30.917171   0.98507396 
   10300    222.60569   -253.63194    148647.41   -48728.485    3248.0541   -51976.539    31.204602   0.98529752 
   10400    219.90624   -640.64016    148553.32   -48677.242    3208.6663   -51885.908    31.414062   0.98592157 
   10500    222.47461   -284.23448    148562.25   -48644.355    3246.1415   -51890.497    31.664476   0.98586234 
   10600    225.74485      -444.96    148582.22   -48672.978    3293.8579   -51966.836    32.013707    0.9857298 
   10700    220.59493   -421.93646    148664.32   -48721.862     3218.715   -51940.577    32.463196   0.98518545 
   10800    218.64599   -331.63159    148674.64   -48700.696    3190.2779   -51890.974    32.706509   0.98511705 
   10900    220.00003   -463.78477    148736.09   -48647.694    3210.0347   -51857.729    33.128307   0.98471008 
   11000    220.41582   -479.57638    148611.54   -48654.517    3216.1015   -51870.618    33.418759   0.98553533 
   11100    225.25072   -348.76895    148634.47   -48650.337     3286.648   -51936.985    33.745623   0.98538332 
   11200    224.67457   -517.57172    148699.89   -48696.123    3278.2412   -51974.364    34.011702   0.98494975 
   11300    220.99942   -570.33944    148677.88   -48701.679     3224.617   -51926.296    34.310266   0.98509559 
   11400    221.94108   -483.14352    148634.93   -48725.782    3238.3567   -51964.139    34.559784   0.98538023 
   11500    219.04345   -529.70304    148658.37   -48831.378    3196.0773   -52027.455    34.929879   0.98522486 
   11600     219.5072   -536.58338    148739.92    -48847.62    3202.8438   -52050.463    35.348127    0.9846847 
   11700    215.60604   -671.03052    148683.95   -48876.872    3145.9217   -52022.794    35.720029   0.98505538 
   11800    219.60713   -451.85295    148697.84   -48798.473     3204.302   -52002.775    36.169809   0.98496335 
   11900    217.50242    -527.4018    148755.74   -48883.838     3173.592    -52057.43    36.642377   0.98457997 
   12000    219.91257   -464.00269    148806.23   -48830.419    3208.7586   -52039.178    36.956072   0.98424594 
   12100    219.38187   -459.20436    148850.59   -48787.643    3201.0151   -51988.658    37.354068   0.98395256 
   12200    225.21957   -594.08906    148925.76   -48754.971    3286.1935   -52041.164    37.589981   0.98345595 
   12300    222.37538   -564.63882    149049.69   -48737.688    3244.6936   -51982.382     37.86403   0.98263824 
   12400    224.11182   -405.87223    149056.27   -48657.796    3270.0302   -51927.826    38.007146   0.98259488 
   12500    220.22406   -639.10728    149008.08   -48717.379    3213.3036   -51930.683     38.51779   0.98291264 
   12600    217.70157   -661.73599    148941.07   -48753.374    3176.4978   -51929.872    38.684142   0.98335483 
   12700    218.29919   -409.17357    148871.17   -48700.238    3185.2178   -51885.456    38.985761   0.98381654 
   12800    220.82271   -524.61849    148788.79    -48768.88    3222.0386   -51990.919    39.370882   0.98436131 
   12900    217.59808   -499.37973    148668.13   -48755.752    3174.9878    -51930.74     39.85427   0.98516017 
   13000    220.50489   -639.38182    148694.56   -48811.009    3217.4012    -52028.41    40.321797   0.98498507 
   13100    218.24718   -734.39258    148663.24   -48753.904    3184.4589   -51938.363    40.683535   0.98519261 
   13200    220.43982   -549.07193    148632.88   -48690.939    3216.4518    -51907.39    41.040447   0.98539384 
   13300    221.17107   -462.63916    148647.94   -48650.791    3227.1214   -51877.912    41.364577     0.985294 
   13400    222.40293     -511.405    148696.04   -48660.678    3245.0957   -51905.774     41.83663    0.9849753 
   13500    217.99446   -533.91506    148753.14   -48665.373    3180.7714   -51846.145    42.202649   0.98459722 
   13600    217.23696   -440.06991    148894.05   -48698.881    3169.7187   -51868.599    42.257246   0.98366536 
   13700    219.58923   -461.18937    149013.45   -48705.148    3204.0407   -51909.189    42.707341   0.98287723 
   13800    214.43826   -458.54578    148925.21   -48720.676    3128.8826   -51849.558    42.948973   0.98345958 
   13900    215.84941   -469.63027     148919.2   -48741.196    3149.4728   -51890.668    43.107481   0.98349927 
   14000    213.53297    -484.3485    148820.79   -48788.693    3115.6736   -51904.367    43.582026    0.9841496 
   14100    211.59079   -642.08185    148681.96   -48831.136     3087.335   -51918.471    43.843767   0.98506858 
   14200    218.89427   -503.81573    148548.29   -48748.723    3193.9006   -51942.623    44.299301   0.98595498 
   14300    217.62568   -529.79497     148452.3   -48733.506    3175.3905   -51908.896    44.762524   0.98659251 
   14400    218.79755   -511.94235    148391.73   -48739.698    3192.4893   -51932.187    44.961657    0.9869952 
   14500    221.60787   -430.45019    148354.95    -48709.55    3233.4948   -51943.045    45.288085    0.9872399 
   14600    219.89969   -308.27916    148442.19   -48689.678    3208.5707   -51898.248    46.040213   0.98665971 
   14700    226.22485   -379.95046    148585.15   -48629.328    3300.8615   -51930.189    46.425829    0.9857104 
   14800    219.44052    -525.4271     148651.1   -48710.453     3201.871   -51912.324    46.542242   0.98527308 
   14900    219.25554   -475.05527    148803.61   -48702.807    3199.1718   -51901.978    46.846487   0.98426322 
   15000    217.01042   -469.99837       148856   -48730.009    3166.4131   -51896.422    47.167039   0.98391684 
   15100    219.96511   -589.56246     148737.7    -48774.23    3209.5252   -51983.755     47.67401   0.98469942 
   15200    219.60237   -487.99531    148701.98   -48801.195    3204.2325   -52005.428    48.002314   0.98493595 
   15300    218.79609   -467.94197    148718.87   -48778.637    3192.4679   -51971.105    48.281197   0.98482406 
   15400    222.28641   -369.04871    148773.51   -48742.857    3243.3955   -51986.253    48.738747   0.98446237 
   15500    220.56297   -398.16747    148971.87   -48717.727    3218.2487   -51935.975    48.893093   0.98315152 
   15600    219.60367   -398.48868       148857   -48721.765    3204.2515   -51926.017    49.005756   0.98391021 
   15700    217.38127   -661.17896    148764.21   -48758.392    3171.8243   -51930.217    48.920429   0.98452394 
   15800    218.07819   -558.28956    148728.64   -48763.142    3181.9931   -51945.135    49.236974   0.98475941 
   15900    221.46938   -531.28969    148655.86   -48736.499    3231.4742   -51967.974    49.692786   0.98524152 
   16000    218.27496   -498.33882    148716.19   -48789.849    3184.8642   -51974.713     49.96275   0.98484183 
   16100    220.73594   -373.34688    148632.29   -48816.134    3220.7725   -52036.907    50.416238   0.98539772 
   16200    219.79542   -538.45782    148775.66   -48767.521    3207.0493    -51974.57    50.830788   0.98444815 
   16300    223.36247   -510.01008    148744.46   -48663.306    3259.0964   -51922.402    51.297637   0.98465465 
   16400    222.76934   -408.81214    148722.28   -48656.397     3250.442   -51906.839    51.716397   0.98480149 
   16500    221.23637   -459.12573    148780.27   -48664.982    3228.0744   -51893.056    52.066651   0.98441766 
   16600    223.08471   -386.44495    148748.82     -48654.5    3255.0435   -51909.544    52.462444   0.98462578 
   16700    220.47547   -467.36024    148755.68   -48685.981    3216.9719   -51902.953    52.791936   0.98458035 
   16800    218.60545   -500.80607    148734.33   -48761.039    3189.6864   -51950.726    52.954766   0.98472169 
   16900    221.71914    -472.9381    148728.98   -48738.871    3235.1184   -51973.989    53.008801   0.98475712 
   17000    222.10225   -455.36658    148559.41   -48747.154    3240.7084   -51987.862    53.118044   0.98588115 
   17100    221.42245   -576.10283    148550.13   -48740.718    3230.7893   -51971.507    53.448396   0.98594273 
   17200    220.38247   -627.57295    148603.39   -48669.478     3215.615   -51885.093    53.709949   0.98558942 
   17300    218.99888   -519.27368    148617.79   -48630.739     3195.427   -51826.166    54.033036   0.98549391 
   17400    218.22269   -513.32081    148770.05   -48647.598    3184.1015     -51831.7    54.439634    0.9844853 
   17500    221.32844   -446.49683    148748.69   -48650.545    3229.4177   -51879.963    54.788877   0.98462663 
   17600    222.69668   -383.93551    148718.48   -48684.371    3249.3818   -51933.753    55.085099   0.98482664 
   17700    219.23784   -637.74907    148651.56   -48738.677    3198.9136    -51937.59    55.377413   0.98526998 
   17800    221.67803   -282.92151    148609.54   -48723.534    3234.5185   -51958.053    55.841241   0.98554857 
   17900    218.20249   -461.39834       148643   -48792.938    3183.8067   -51976.745    56.342948   0.98532676 
   18000    216.81892   -484.60298    148520.45   -48859.353    3163.6191   -52022.972    56.711285   0.98613976 
   18100    219.56467   -458.62425    148541.71   -48878.049    3203.6825   -52081.731    57.006366   0.98599862 
   18200    224.26645   -523.42195    148660.43    -48824.52    3272.2863   -52096.807    57.295799    0.9852112 
   18300     216.3473   -617.32125    148600.21   -48829.743    3156.7376    -51986.48    57.722071    0.9856105 
   18400    217.54389   -454.67861    148492.74   -48886.615    3174.1971   -52060.812    57.968921   0.98632378 
   18500    216.38487   -470.20286    148582.95   -48860.797    3157.2858   -52018.083    58.030612   0.98572498 
   18600    219.99672   -540.43028    148497.17   -48785.987    3209.9866   -51995.974     58.40665   0.98629436 
   18700    223.53602   -629.02124       148408   -48710.849    3261.6287   -51972.477    58.740582   0.98688699 
   18800    223.47602   -297.63909    148420.84   -48738.094    3260.7532   -51998.847    59.291886   0.98680158 
   18900    218.02495     -256.918    148513.03   -48784.363    3181.2162   -51965.579    59.535782   0.98618908 
   19000    219.28324   -486.94353    148688.18   -48761.027    3199.5761   -51960.603    59.693598   0.98502737 
   19100    218.59224   -489.68251    148682.58   -48848.209    3189.4936   -52037.702    60.237353   0.98506447 
   19200    224.88337   -401.78459    148687.02   -48821.627    3281.2879   -52102.915    60.385195   0.98503504 
   19300    221.91871   -360.68192    148769.87   -48763.971    3238.0304   -52002.002    60.989298   0.98448647 
   19400    219.67915    -550.5409    148727.31   -48792.477    3205.3528    -51997.83    61.249102   0.98476819 
   19500    222.47297   -295.12594    148797.04   -48816.336    3246.1176   -52062.454    61.506492   0.98430671 
   19600    224.72464   -452.09961    148844.01   -48766.606    3278.9718   -52045.578    61.704601   0.98399607 
   19700    218.60214   -635.25495    148795.64   -48759.973     3189.638   -51949.611    62.078308   0.98431597 
   19800     226.1589   -434.53533    148781.92    -48714.67    3299.8992   -52014.569    62.673056   0.98440671 
   19900    219.58317   -635.56024    148711.96   -48746.717    3203.9524   -51950.669    63.073876   0.98486983 
   20000    223.18828    -610.5209    148614.04   -48591.349    3256.5547   -51847.904    63.408245   0.98551876 
   20100    220.51343   -676.15226     148668.1   -48625.066    3217.5258   -51842.592    63.637443   0.98516037 
   20200    223.35427   -656.56866    148652.31   -48619.515    3258.9767   -51878.492    63.585953   0.98526501 
   20300    224.36108   -601.66887     148657.6    -48607.53    3273.6672   -51881.197    64.022552   0.98522995 
   20400     222.9484    -556.8685    148717.75   -48641.653    3253.0547   -51894.708    64.630786   0.98483149 
   20500    220.41827   -411.04379    148580.03    -48607.83    3216.1373   -51823.967    65.232189   0.98574437 
   20600    217.12159   -474.48021    148529.69   -48649.945    3168.0353   -51817.981    65.757236   0.98607841 
   20700    220.88051   -468.10525    148463.92     -48657.9    3222.8819   -51880.781    65.696596   0.98651527 
   20800    218.30015   -193.32468    148538.98   -48683.481    3185.2317   -51868.713    66.118504   0.98601676 
   20900    219.21681   -414.69965    148643.48    -48675.53    3198.6067   -51874.137     66.46165   0.98532355 
   21000    217.83552   -547.16396    148600.73   -48646.013    3178.4523   -51824.465    66.672658     0.985607 
   21100    220.97558   -346.30701    148594.21   -48677.148    3224.2691   -51901.418    67.079752   0.98565028 
   21200    217.07265   -359.22953    148845.29   -48729.789    3167.3212   -51897.111    67.311006   0.98398763 
   21300    218.21535   -551.53646    148858.66   -48738.587    3183.9944   -51922.581    67.535169   0.98389926 
   21400    217.08642   -427.48429    148919.58   -48687.889    3167.5222   -51855.411    67.885045   0.98349673 
   21500    219.74576    -658.4317    148910.04   -48616.736    3206.3248   -51823.061     68.09255   0.98355979 
   21600    218.19873   -707.16601    148870.58   -48659.737    3183.7519   -51843.489     68.39132    0.9838205 
   21700    219.70949   -524.53082    148749.99   -48684.884    3205.7955   -51890.679    68.702643   0.98461805 
   21800    221.78272   -551.14207    148850.84   -48598.361    3236.0461   -51834.408    69.038148   0.98395096 
   21900    222.27257   -397.02236    148770.37   -48578.975    3243.1935   -51822.169    69.627556   0.98448316 
   22000    224.37281   -501.99258    148826.73   -48564.339    3273.8383   -51838.177     70.13704   0.98411032 
   22100    221.72381   -423.87245    148784.67   -48599.352    3235.1866   -51834.539    70.683071   0.98438857 
   22200    221.87428   -394.16034    148819.09   -48549.996    3237.3821   -51787.378    70.951658   0.98416087 
   22300    225.91474   -569.55239    148713.31   -48533.352    3296.3367   -51829.689    71.326782   0.98486087 
   22400     223.6821   -589.95423    148785.36   -48621.276    3263.7601   -51885.036    71.621617   0.98438399 
   22500    221.77207   -394.55394     148756.6   -48662.582    3235.8907   -51898.472    72.004809   0.98457431 
   22600    215.63919    -553.4157    148574.11   -48641.366    3146.4054   -51787.772    72.333023    0.9857836 
   22700     218.2436   -481.71168    148543.03   -48695.818    3184.4066   -51880.224    72.214618   0.98598988 
   22800    217.78097   -505.88322    148446.96   -48753.283    3177.6563   -51930.939    72.393262     0.986628 
   22900    217.12845   -444.15432    148521.09   -48829.607    3168.1354   -51997.742    72.391525   0.98613551 
   23000    218.84507   -484.60027    148528.02   -48786.631    3193.1827   -51979.813    72.688209   0.98608952 
   23100    221.20665   -562.94106    148565.93   -48740.121    3227.6406   -51967.761    72.855569   0.98583788 
   23200    223.04561   -334.67197    148770.41   -48726.095    3254.4731   -51980.568    73.027481    0.9844829 
   23300    220.51023   -468.62809    148721.61   -48777.432    3217.4791   -51994.911    73.417047   0.98480594 
   23400    219.21825    -468.7469    148706.34   -48834.982    3198.6278   -52033.609    73.559612   0.98490705 
   23500    220.01811    -400.6786    148706.78   -48771.908    3210.2985   -51982.207     73.95924   0.98490414 
   23600    221.15623    -508.8274    148709.33   -48803.683    3226.9049   -52030.588    74.373984   0.98488725 
   23700    223.33538   -498.45162    148507.27   -48859.519    3258.7012    -52118.22    74.426494   0.98622731 
   23800    219.05471   -413.19473    148578.58   -48807.003    3196.2416   -52003.244    74.637491   0.98575397 
   23900    220.68474   -365.24312    148580.86   -48766.463    3220.0254   -51986.488    75.254934   0.98573887 
   24000    218.83025   -357.01573    148571.23   -48787.353    3192.9664    -51980.32    75.771697    0.9858027 
   24100    222.64104   -448.62381     148605.4    -48803.53    3248.5699     -52052.1     76.20507   0.98557607 
   24200    224.03529   -590.19592    148639.86   -48748.431    3268.9135   -52017.345    76.383131   0.98534759 
   24300     221.2652   -540.42117    148649.52   -48740.125     3228.495    -51968.62    76.535741   0.98528351 
   24400    220.92821   -384.15252    148670.73   -48759.904    3223.5779   -51983.482    76.815335   0.98514296 
   24500    223.95368   -392.17042    148775.26   -48741.315    3267.7228   -52009.038    76.899067    0.9844508 
   24600    219.47881   -612.77746    148805.97   -48811.261    3202.4296    -52013.69    76.976485   0.98424762 
   24700    220.55562   -638.38438    148839.41   -48784.748    3218.1414   -52002.889    77.274691   0.98402653 
   24800    222.65194   -631.50168    148671.15   -48738.048    3248.7289   -51986.777    77.593916   0.98514018 
   24900    219.54125   -566.80677    148678.07   -48801.548    3203.3406   -52004.889    77.941104   0.98509435 
   25000     219.2079   -361.33702    148752.53   -48847.196    3198.4767   -52045.673    78.200775    0.9846012 
   25100     217.2861   -554.44223    148797.43   -48897.074    3170.4357    -52067.51    78.552904   0.98430411 
   25200    224.05837   -396.41955    148750.88   -48835.836    3269.2503   -52105.087    78.853072   0.98461216 
   25300    218.60045   -479.96284    148719.62   -48891.052    3189.6134   -52080.666    78.977589   0.98481912 
   25400    217.65593    -555.1646    148787.38   -48897.481    3175.8319   -52073.313    79.517073   0.98437059 
   25500    221.72446   -427.16958    148797.51   -48868.327    3235.1961   -52103.524    80.062002   0.98430361 
   25600    217.22927   -332.58312    148900.07   -48929.615    3169.6064   -52099.222    80.326936   0.98362561 
   25700    219.39582   -366.49403    149027.84   -48894.004    3201.2188   -52095.223     80.76095   0.98278228 
   25800    221.39477   -476.91193     149014.9    -48943.01    3230.3855   -52173.396    80.725785   0.98286764 
   25900    215.48665   -552.24032    148982.15   -49057.741    3144.1798   -52201.921    81.141463   0.98308371 
   26000    218.89058   -528.20073    148946.47   -48959.473    3193.8467    -52153.32    81.235888   0.98331917 
   26100    213.64945   -417.00976    148880.56   -48957.799     3117.373   -52075.172     81.40122   0.98375453 
   26200    221.38249   -442.62811    148837.79   -48891.013    3230.2064    -52121.22     81.54837   0.98403718 
   26300    220.70608   -586.81788    148923.61   -48787.951    3220.3369   -52008.288    81.952058   0.98347013 
   26400    216.99433   -419.20188    148920.62   -48850.484    3166.1784   -52016.663    82.676744   0.98348987 
   26500    221.46847   -527.60185    148979.62   -48731.595    3231.4608   -51963.056     83.05921    0.9831004 
   26600    222.58713   -489.62389    148948.85   -48732.511    3247.7833   -51980.294     83.20121   0.98330349 
   26700    221.85857   -767.73597    148997.05   -48755.072    3237.1528   -51992.225    83.063124   0.98298538 
   26800    221.61455   -564.87921    148942.79   -48745.482    3233.5923   -51979.074     83.29617    0.9833435 
   26900    215.56625   -531.93239    148790.49    -48826.53    3145.3412   -51971.871    83.752939   0.98435005 
   27000    220.29999   -463.95401    148934.95   -48779.791    3214.4115   -51994.202    84.098991   0.98339529 
   27100    221.92264   -512.70657    148950.22   -48788.749    3238.0877   -52026.836    84.567785   0.98329447 
   27200    218.86078   -454.45748    148972.46   -48724.205    3193.4119   -51917.617    84.891011   0.98314762 
   27300    218.71037   -485.37001    148936.27    -48720.85    3191.2172   -51912.067    85.007003   0.98338652 
   27400    221.49509   -592.01704     149051.5    -48662.04    3231.8493   -51893.889    85.342269    0.9826263 
   27500     221.6045   -383.95633    149071.26    -48683.48    3233.4457   -51916.926    86.001375   0.98249603 
   27600    221.99147    -528.5295    149030.64   -48666.612    3239.0921   -51905.704    86.341657   0.98276382 
   27700    217.99179   -540.11791    149087.32   -48667.585    3180.7324   -51848.318    86.560151   0.98239019 
   27800    220.02537   -582.37998    149085.96   -48651.775    3210.4045    -51862.18    86.717386   0.98239918 
   27900    220.53125   -554.05847    148956.44   -48704.889    3217.7859   -51922.675    86.959303    0.9832534 
   28000    222.03121   -464.09734    148999.46   -48578.861    3239.6719   -51818.533     87.17473   0.98296949 
   28100    223.42691   -331.35572     149022.4   -48659.768    3260.0365   -51919.804    87.650065   0.98281815 
   28200    220.18361    -408.6815    149085.36   -48725.154    3212.7134   -51937.867    87.854614   0.98240312 
   28300    220.81526   -585.53003    149297.76   -48838.644    3221.9298   -52060.574     88.15518   0.98100552 
   28400    217.88933   -529.19123    149261.48   -48764.128    3179.2375   -51943.365    88.532689   0.98124393 
   28500    219.74269      -501.56    149254.38   -48731.397    3206.2799   -51937.677     88.81019   0.98129063 
   28600    221.65221   -577.08627     149246.4   -48793.581    3234.1419   -52027.723    89.013148   0.98134307 
   28700    220.41683    -431.0305    149213.93   -48870.437    3216.1164   -52086.554     89.17805   0.98155666 
   28800     218.9921   -317.88563    149263.32   -48864.564    3195.3281   -52059.892    89.546941   0.98123187 
   28900     219.6411   -403.42688    149345.79   -48837.272    3204.7976    -52042.07    89.965917   0.98069004 
   29000    223.93093     -454.409    149473.01   -48886.432    3267.3908   -52153.822    90.254548    0.9798553 
   29100    218.64508    -399.2176    149422.53   -48840.744    3190.2646   -52031.008     90.60145   0.98018638 
   29200    224.72866   -441.22861    149271.71   -48889.606    3279.0305   -52168.637    90.557667    0.9811767 
   29300    220.63134   -471.56541    149291.65   -48894.417    3219.2463   -52113.663    90.765618   0.98104564 
   29400    218.98455   -405.08963    149257.14   -48937.155    3195.2178   -52132.373    91.067667   0.98127245 
   29500    218.40609   -327.04235    149269.81   -48958.125    3186.7775   -52144.903    91.646729    0.9811892 
   29600    219.80759   -448.12734    149235.88   -48914.713    3207.2269    -52121.94    92.354485   0.98141225 
   29700     221.4227    -435.0041     149379.6    -48882.56    3230.7931   -52113.354     92.66699   0.98046805 
   29800    220.17681   -564.74039    149341.63   -48866.635    3212.6142   -52079.249    93.184095   0.98071729 
   29900    223.21519   -691.74221    149261.03   -48775.236    3256.9474   -52032.184    93.337164   0.98124691 
   30000    220.87045   -399.36929    149161.15    -48791.34    3222.7352   -52014.075    93.564131   0.98190393 
   30100    220.90095    -293.7051    149184.45   -48789.559    3223.1801   -52012.739    93.923981   0.98175057 
   30200    217.70802   -304.76505    149181.89   -48809.252    3176.5919   -51985.844     94.28326   0.98176743 
   30300    217.89757   -416.38673    149153.31   -48788.206    3179.3576   -51967.564    94.326838   0.98195558 
   30400    217.90324   -480.57826    149214.05   -48848.225    3179.4404   -52027.665    94.247786   0.98155588 
   30500    215.90937   -534.17201    149254.85   -48914.651    3150.3476   -52064.999    94.462467   0.98128752 
   30600    215.13241     -713.346    149120.73   -48879.664    3139.0111   -52018.675    94.497921   0.98217012 
   30700    219.81553    -642.0475    149131.13   -48864.799    3207.3428   -52072.142    94.809837   0.98210162 
   30800    218.16255   -582.99967    149235.16   -48844.502     3183.224   -52027.726    95.252486   0.98141703 
   30900    221.10041   -609.54658    149261.67   -48852.504    3226.0904   -52078.594    95.476825   0.98124268 
   31000    221.97543   -465.69573    149201.15   -48862.836    3238.8579   -52101.694    95.756162   0.98164072 
   31100    218.45654   -687.58271    149284.46   -48868.357    3187.5136   -52055.871    96.359194   0.98109292 
   31200    218.82838   -756.57261    149281.28   -48957.555    3192.9391   -52150.494     96.34444   0.98111378 
   31300    220.28049   -544.10918    149245.88    -48872.74     3214.127   -52086.867    96.481821   0.98134651 
   31400    219.73719    -582.9849    149181.87   -48882.077    3206.1997   -52088.277    96.814027   0.98176762 
   31500     218.3116   -494.38216    149172.18   -48858.708    3185.3988   -52044.107     97.02251   0.98183137 
   31600    223.42065   -559.74427    149026.04   -48777.383    3259.9452   -52037.328    97.414054   0.98279416 
   31700    219.23037   -616.16651    148982.16    -48828.12    3198.8046   -52026.925    97.419888   0.98308364 
   31800    221.54251   -359.93384    148901.48   -48847.431    3232.5412   -52079.972    97.590725   0.98361628 
   31900    220.09836    -529.1227    148970.63   -48825.743    3211.4696   -52037.213    97.978855   0.98315972 
   32000    219.95631   -551.23551    148889.23   -48760.751    3209.3969   -51970.148    98.365498   0.98369721 
   32100    222.00826   -566.80104    148860.93   -48803.183    3239.3369    -52042.52    98.950476   0.98388426 
   32200    222.78355   -444.84184    148915.55   -48779.074    3250.6493   -52029.724    99.615799   0.98352339 
   32300    218.50493   -485.30764       148904   -48816.177    3188.2197   -52004.397    99.855197   0.98359966 
   32400     223.0885    -243.8582       148853   -48778.145    3255.0989   -52033.244    99.961328   0.98393664 
   32500    220.97626   -550.57789    148901.42   -48812.713    3224.2791   -52036.992    100.23375   0.98361673 
   32600     217.7108   -390.93945    148865.21   -48817.459    3176.6324   -51994.091    100.63339   0.98385595 
   32700    217.57007   -344.75123    148878.73   -48788.007     3174.579   -51962.586    101.19654   0.98376664 
   32800    216.26723   -421.09194    148933.73   -48809.399    3155.5693   -51964.969    101.78577   0.98340333 
   32900    217.07312   -405.77756    149086.78   -48900.421     3167.328   -52067.749    102.07304   0.98239376 
   33000    219.46996   -549.33379    149147.18   -48865.004    3202.3005   -52067.304    102.84124   0.98199593 
   33100    217.25915   -487.63924    149117.76   -48902.815    3170.0424   -52072.857    102.97945   0.98218969 
   33200     222.6666   -752.81681    149160.38   -48820.867    3248.9429    -52069.81    103.28734   0.98190904 
   33300    220.70058   -535.50563    149174.86   -48815.648    3220.2565   -52035.904    103.60045    0.9818137 
   33400    220.89729   -447.93227    149164.78   -48883.343    3223.1267   -52106.469    103.86493   0.98188009 
   33500    222.58034   -550.82821    149081.98   -48773.805    3247.6843   -52021.489    103.95784   0.98242542 
   33600    223.22543   -721.51519    149045.41   -48834.344    3257.0967   -52091.441    104.04093   0.98266648 
   33700    221.11598   -553.88786    149065.47   -48806.004    3226.3176   -52032.321    104.08656   0.98253421 
   33800    219.55017   -594.91346    148948.72   -48835.116    3203.4709   -52038.587    104.74191   0.98330437 
   33900    222.48941   -357.47497    148941.59   -48833.476    3246.3575   -52079.834    104.93527   0.98335144 
   34000    219.00678    -372.2052     148949.1   -48820.931    3195.5421   -52016.473    105.46515   0.98330183 
   34100    219.95823   -441.06138    149036.12   -48860.918    3209.4248   -52070.342    105.59233   0.98272773 
   34200    217.85115    -505.5164    148974.14   -48885.306    3178.6803   -52063.986    105.80323   0.98313657 
   34300    220.56386   -532.69323     148891.7   -48877.928    3218.2617    -52096.19    105.95107   0.98368089 
   34400    221.93763    -294.9995    148891.06   -48806.728    3238.3065   -52045.035    106.46406   0.98368515 
   34500    219.20708   -554.26668    148860.19   -48685.594    3198.4648   -51884.059    106.94643   0.98388916 
   34600    219.29659   -355.23232    148875.29    -48691.95    3199.7708    -51891.72    107.33897   0.98378935 
   34700    218.59519   -513.50558    148898.81   -48801.562    3189.5367   -51991.099    107.57856   0.98363395 
   34800    222.35267   -523.55681    148865.07   -48775.387    3244.3623    -52019.75    107.92793   0.98385691 
   34900    217.09802   -457.04502    148824.52   -48789.734    3167.6914   -51957.426     108.2325   0.98412494 
   35000    215.40577   -576.39831    148893.87   -48834.019    3142.9996   -51977.019    108.53198    0.9836666 
   35100    220.83079   -475.89473    148820.24   -48779.968    3222.1564   -52002.125    109.08598   0.98415323 
   35200    221.45699   -570.03377    148711.21   -48694.513    3231.2934   -51925.806    109.54366   0.98487481 
   35300    223.53491   -544.62297    148710.34   -48646.362    3261.6125   -51907.974    109.99223    0.9848806 
   35400    219.62001    -370.2025    148887.78   -48766.918    3204.4899   -51971.408    110.49092   0.98370683 
   35500    216.57262   -704.86155    148934.17   -48778.817    3160.0252   -51938.842    110.58818   0.98340041 
   35600    221.04758   -428.69244     148821.5   -48731.948    3225.3196   -51957.268    110.66555   0.98414491 
   35700    223.46031   -485.36675    148805.86   -48755.383    3260.5239   -52015.906    110.85178   0.98424837 
   35800    217.88287   -529.84748    148782.24   -48727.217    3179.1431    -51906.36    111.57225   0.98440465 
   35900    219.10363   -580.82012    148685.21   -48665.236    3196.9554   -51862.192    111.68567     0.985047 
   36000    217.69108   -605.81879    148618.44   -48689.945    3176.3448   -51866.289     111.9507   0.98548955 
   36100    218.60666   -612.67203    148543.97   -48716.093     3189.704   -51905.797    112.19991   0.98598363 
   36200    220.40258   -453.86839    148523.53   -48690.826    3215.9085   -51906.735    112.28717   0.98611931 
   36300    220.48569   -521.28019    148642.42   -48702.434    3217.1211   -51919.555    112.74672   0.98533057 
   36400    220.27533   -207.85274    148693.61   -48668.221    3214.0517   -51882.273    113.03819   0.98499139 
   36500    224.94064   -453.45743    148829.24   -48570.392    3282.1235   -51852.516    113.65999   0.98409374 
   36600    219.92204    -495.9736    148732.12   -48648.639    3208.8968   -51857.536    113.77011   0.98473633 
   36700    218.04399   -608.27878     148744.3   -48702.992    3181.4941   -51884.486    113.98254   0.98465569 
   36800    216.98057   -499.23575    148695.36   -48722.966    3165.9776   -51888.943    114.36548   0.98497981 
   36900    220.04093   -652.65963    148618.39   -48702.004    3210.6316   -51912.635    114.51879    0.9854899 
   37000    221.17403   -530.66339    148638.55   -48727.002    3227.1647   -51954.166    114.92271   0.98535622 
   37100    215.87094   -616.13575    148600.04   -48754.139     3149.787   -51903.926    115.41729   0.98561161 
   37200    218.20865   -286.04999    148569.27   -48769.697    3183.8966   -51953.594    115.91524   0.98581574 
   37300    221.78217   -397.94244    148576.74   -48736.571     3236.038   -51972.609    116.36251   0.98576618 
   37400    216.51817   -678.13488    148631.47   -48765.022    3159.2307   -51924.252    116.69574   0.98540322 
   37500    218.76549     -559.684    148616.17     -48805.6    3192.0215   -51997.621    116.47634   0.98550464 
   37600    218.93533   -573.29831    148572.93   -48753.487    3194.4996   -51947.987     116.8776   0.98579143 
   37700    218.32649    -521.3474    148498.48   -48738.757    3185.6161   -51924.373    117.31665   0.98628567 
   37800    220.08039   -590.20615    148552.53   -48785.554    3211.2073   -51996.762    118.39762   0.98592683 
   37900    218.54332   -507.40831    148557.46   -48787.166    3188.7799   -51975.946    118.78989   0.98589411 
   38000    214.73946   -532.29444    148489.06    -48778.85    3133.2774   -51912.128    119.31951   0.98634826 
   38100    217.78887   -575.38947    148515.91   -48773.866    3177.7716   -51951.638    120.02687   0.98616992 
   38200    219.21308   -389.35092    148522.71   -48727.986    3198.5524   -51926.539    119.86664   0.98612476 
   38300    217.45901   -454.78434    148533.89   -48749.193    3172.9586   -51922.152    120.41693   0.98605053 
   38400    213.03658   -462.57392    148574.49   -48828.205    3108.4307   -51936.635    120.33576   0.98578112 
   38500    217.51445   -382.79537     148489.8    -48878.86    3173.7675   -52052.628    120.79723    0.9863433 
   38600    218.09665   -370.92357    148529.97   -48811.989    3182.2624   -51994.252    121.08123   0.98607655 
   38700    220.89097   -448.73909     148617.1   -48760.461    3223.0346   -51983.496    121.27982   0.98549845 
   38800    217.58175   -323.82845    148692.63   -48772.053    3174.7496   -51946.802    121.66851   0.98499789 
   38900    219.61609   -453.48336    148689.34   -48747.605    3204.4327   -51952.038    121.80193   0.98501968 
   39000    220.74971   -453.64731     148610.9   -48774.822    3220.9734   -51995.796    121.78454   0.98553959 
   39100    218.10175    -438.9627    148609.08   -48737.993    3182.3369    -51920.33    122.08461   0.98555163 
   39200    217.58927   -425.96243    148571.41   -48759.629    3174.8593   -51934.489     122.5915   0.98580156 
   39300    222.12516   -541.85591     148717.5   -48751.547    3241.0428    -51992.59    122.99882   0.98483316 
   39400    220.60808   -431.94194    148738.15    -48742.15    3218.9068   -51961.057    123.55132   0.98469641 
   39500    218.03134   -595.26457    148737.81    -48774.79    3181.3095   -51956.099    123.85438   0.98469867 
   39600     225.3528    -785.4026    148654.65    -48689.58    3288.1374   -51977.717    123.88345   0.98524955 
   39700     218.2844   -546.49667    148524.62   -48710.109     3185.002   -51895.111    123.34937    0.9861121 
   39800    220.25514   -370.62594     148621.9   -48738.889    3213.7572   -51952.647    123.72597   0.98546662 
   39900    219.66765   -573.60971    148471.31   -48824.861     3205.185   -52030.046    123.66756   0.98646616 
   40000    214.12463   -555.38722    148472.26   -48862.755    3124.3064   -51987.062    123.86528   0.98645984 
   40100    221.36911   -450.85825    148437.59   -48724.418     3230.011   -51954.429    124.10594   0.98669023 
   40200    217.69766   -619.99879    148340.58   -48754.522    3176.4408   -51930.963    124.20366   0.98733552 
   40300    220.97335   -452.78917    148364.97   -48718.593    3224.2366    -51942.83    124.47164   0.98717321 
   40400    220.78754   -565.66019     148374.2   -48729.212    3221.5254   -51950.737    125.00344   0.98711178 
   40500     220.4594   -591.08358    148421.75   -48765.132    3216.7375    -51981.87    125.25833   0.98679558 
   40600    220.62443   -483.87626    148613.41    -48734.72    3219.1454   -51953.865    125.84617   0.98552292 
   40700     219.9056   -571.88294    148582.28   -48776.315     3208.657   -51984.972    125.91754   0.98572943 
   40800      223.096   -565.28057    148539.43    -48790.09    3255.2083   -52045.299    126.07349   0.98601379 
   40900    218.86927   -486.92048    148631.32   -48772.697    3193.5359   -51966.233    126.50066    0.9854042 
   41000    221.04471   -628.50453    148669.85   -48834.356    3225.2777   -52059.634    126.79678   0.98514878 
   41100    216.53336   -585.37322    148648.45   -48863.455    3159.4524   -52022.908    127.17427    0.9852906 
   41200    217.97473   -544.30354    148753.53   -48782.677    3180.4835    -51963.16    127.47776   0.98459459 
   41300    217.00769    -584.1819    148637.03   -48797.019    3166.3733   -51963.393    127.69893   0.98536636 
   41400    218.05275   -500.27703    148546.46   -48850.322    3181.6219   -52031.944    128.26503   0.98596712 
   41500    217.60317    -475.9621     148605.1   -48775.613    3175.0621   -51950.675    128.69167   0.98557807 
   41600     219.2732   -441.17183    148652.58   -48812.226    3199.4295   -52011.655      128.801   0.98526323 
   41700    218.30378   -568.32886    148653.62   -48813.083    3185.2846   -51998.367    129.42823   0.98525639 
   41800    221.94101   -479.96935    148762.41   -48823.652    3238.3558   -52062.008    129.68997   0.98453584 
   41900    222.03276   -429.37925    148890.33   -48761.273    3239.6944   -52000.967    129.99672   0.98368998 
   42000    221.86129   -394.93773    148863.77   -48796.385    3237.1925   -52033.577    130.24854   0.98386548 
   42100    221.73674   -331.05964    148847.33    -48771.78    3235.3752   -52007.155    130.18735   0.98397417 
   42200    221.66467   -350.04436    148873.94   -48762.411    3234.3237   -51996.734     130.1689    0.9837983 
   42300    223.68483   -531.06897     148883.9   -48795.754       3263.8   -52059.554    130.23231   0.98373245 
   42400    221.31736   -750.46375    148834.09   -48890.583    3229.2561   -52119.839    130.65191   0.98406171 
   42500    218.30115   -542.24916    148739.81   -48823.899    3185.2463   -52009.145    130.80049   0.98468542 
   42600    216.12338   -578.61286    148623.38   -48879.608    3153.4703   -52033.078    131.17718   0.98545684 
   42700    218.74384   -408.04278    148721.17   -48878.721    3191.7057   -52070.427    131.18258   0.98480884 
   42800    214.83409   -390.54911    148754.13   -48941.173    3134.6582   -52075.831    131.59416   0.98459062 
   42900    221.02878   -358.87024    148827.97   -48893.262    3225.0453   -52118.308    132.06209   0.98410214 
   43000    221.99334   -610.10827     148927.9   -48894.294    3239.1194   -52133.414    132.36965   0.98344182 
   43100    217.97841   -380.09243    148880.24    -48897.22    3180.5372   -52077.757    132.76497   0.98375662 
   43200     219.3478   -332.82782    148919.82   -48864.999    3200.5181   -52065.517    133.29254   0.98349518 
   43300     216.6551   -540.34904    149041.92   -48878.455    3161.2287   -52039.683    133.76215   0.98268947 
   43400    216.59126   -676.07968    149101.43   -48932.858    3160.2972   -52093.155    133.74921   0.98229725 
   43500    218.55521   -421.95387    149231.68   -48869.934    3188.9533   -52058.887    134.31282   0.98143988 
   43600    219.98176   -634.23836    149315.15   -48889.493    3209.7682   -52099.261    134.75939   0.98089124 
   43700    216.82956   -783.80651    149296.08   -48867.495    3163.7743   -52031.269    135.07359   0.98101654 
   43800     218.4487   -480.57683    149198.37    -48846.96    3187.3993   -52034.359    135.23929   0.98165902 
   43900    219.35509   -587.07804     149315.3   -48877.228    3200.6245   -52077.853    135.71422    0.9808903 
   44000    215.45335    -476.8487     149324.6   -48921.416    3143.6938    -52065.11    135.83098   0.98082917 
   44100    220.75885   -591.38665    149383.82   -48838.202    3221.1068   -52059.308    136.33831   0.98044037 
   44200    218.50541   -538.21054    149467.41   -48850.892    3188.2268   -52039.119    136.68134   0.97989206 
   44300    220.58056   -405.91899    149464.72   -48886.032    3218.5053   -52104.537    136.88269    0.9799097 
   44400    214.86674   -564.34367    149408.42   -48952.831    3135.1346   -52087.965    137.28836   0.98027893 
   44500    214.40829   -342.30142    149376.45   -48964.921    3128.4454   -52093.366     137.6816   0.98048869 
   44600    218.94344   -490.05494    149258.67   -48890.479    3194.6181   -52085.097    138.17717   0.98126245 
   44700    218.99408   -387.73186    149323.49   -48981.865    3195.3569   -52177.222    138.37783   0.98083648 
   44800    217.01904   -666.48808    149333.84   -48981.696    3166.5389   -52148.235    138.59614   0.98076847 
   44900    219.02821   -617.40847    149200.94   -48935.732    3195.8548   -52131.587    138.73832   0.98164209 
   45000    218.23343   -382.19311     149312.3   -48923.801    3184.2582   -52108.059    139.24785      0.98091 
   45100    215.24513   -435.81529    149168.58   -48972.043    3140.6558   -52112.699    139.37227   0.98185505 
   45200    215.76198   -485.02553    149099.77    -48950.77    3148.1971   -52098.967    139.92698   0.98230817 
   45300    218.02834   -412.11814    149291.87   -48949.637    3181.2657   -52130.903    139.97904   0.98104421 
   45400    221.09749   -561.28291    149142.66   -48949.965    3226.0478   -52176.013     139.7011   0.98202568 
   45500    223.79601   -374.36191    149152.11   -48930.847    3265.4222    -52196.27    139.70981    0.9819635 
   45600    221.18491   -502.20708    149208.78   -48920.733    3227.3234   -52148.056    139.84753   0.98159054 
   45700    219.90891   -540.79264    149058.72    -48936.78    3208.7052   -52145.485    140.16795   0.98257868 
   45800    219.27485   -458.51431    149024.81    -48855.82    3199.4537   -52055.273    140.15599   0.98280231 
   45900    220.74031   -404.01211    149091.62   -48910.135    3220.8363   -52130.971     140.4545   0.98236189 
   46000    219.89015   -451.86123    149207.21   -48924.962    3208.4315   -52133.394    140.86353   0.98160083 
   46100    218.67159   -400.61745    149140.42   -48951.881    3190.6515   -52142.532    140.89369   0.98204042 
   46200    222.08704   -568.03131    149094.93   -48926.506    3240.4865   -52166.992    141.29525   0.98234006 
   46300    218.04215   -419.14924    149169.78   -48878.821    3181.4672   -52060.288    141.42134   0.98184717 
   46400    220.67324   -445.75208    149242.16   -48864.524    3219.8577   -52084.381    141.60257   0.98137098 
   46500    221.03603   -613.98888    149200.45   -48884.465    3225.1512   -52109.616    141.81884   0.98164535 
   46600    221.12527   -416.03589    149196.84   -48842.238    3226.4532   -52068.691    142.17029   0.98166905 
   46700    222.05233   -510.03713     149150.5    -48862.71      3239.98    -52102.69    142.00212   0.98197405 
   46800    221.62735   -373.56551    149201.62    -48783.18    3233.7791   -52016.959    142.85883   0.98163762 
   46900    223.71105   -413.47612    149241.66   -48826.233    3264.1826   -52090.415    143.45736   0.98137427 
   47000    226.01593   -555.04343    149261.45   -48791.981    3297.8132   -52089.794    143.75018   0.98124417 
   47100    222.27113   -515.43093    149175.92   -48826.904    3243.1725   -52070.077    144.06214   0.98180674 
   47200    223.86966   -706.24112    149095.25   -48759.925    3266.4967   -52026.422    144.41332   0.98233793 
   47300    222.38944   -455.72149    149098.18   -48819.979    3244.8988   -52064.878    144.77843   0.98231864 
   47400    224.36859   -400.99473    149211.63   -48766.301    3273.7768   -52040.078     144.8699   0.98157178 
   47500    222.96024    -716.1082     149207.9   -48768.445    3253.2274   -52021.672    145.31733   0.98159629 
   47600    220.51034   -303.84379    149152.54   -48789.672    3217.4807   -52007.153    145.71476   0.98196064 
   47700    218.05453   -356.51795    149226.51   -48818.541    3181.6479   -52000.189    146.20108   0.98147389 
   47800    218.10744   -289.88974    149284.63   -48833.457    3182.4199   -52015.877    146.67508   0.98109179 
   47900    217.36525   -516.07332    149369.39   -48843.389    3171.5905    -52014.98    147.05124   0.98053508 
   48000    215.96189   -513.56773    149277.55   -48850.334    3151.1141   -52001.448    147.29327   0.98113829 
   48100    221.03151   -430.81343    149273.84   -48837.384    3225.0852    -52062.47    147.70506   0.98116271 
   48200    217.91118    -497.4859    149273.21   -48847.416    3179.5563   -52026.973    147.72182   0.98116684 
   48300    216.57655   -505.63307    149220.72   -48839.531    3160.0825   -51999.613    148.28948   0.98151198 
   48400    220.00716    -644.4555    149207.41   -48779.127    3210.1388   -51989.265    148.76525   0.98159954 
   48500    217.75595    -476.8827    149190.35   -48805.975    3177.2913   -51983.267    148.88425    0.9817118 
   48600    220.52311   -613.73394    149113.27    -48852.44    3217.6671   -52070.107    148.89299   0.98221928 
   48700    220.84256   -249.79997    149122.73   -48806.726    3222.3282   -52029.055    149.25365   0.98215693 
   48800    217.36685   -488.57763    149096.38   -48870.221    3171.6139   -52041.835    149.53447   0.98233049 
   48900     217.7827   -577.98835    149094.82   -48907.102    3177.6816   -52084.783    149.57409   0.98234079 
   49000    219.44076   -313.52378    149130.64   -48891.845    3201.8744   -52093.719    150.18956   0.98210486 
   49100    217.76636   -519.24705    149087.54   -48882.801    3177.4431   -52060.244    150.72377   0.98238878 
   49200    218.57665   -324.43106    149148.42   -48948.557    3189.2661   -52137.823    151.20361    0.9819878 
   49300    217.95059   -214.69807    149109.45   -48970.524    3180.1313   -52150.656     151.4859   0.98224439 
   49400    219.14733   -486.40796    149235.87   -48918.199     3197.593   -52115.792    151.58668   0.98141234 
   49500    220.54391   -497.68953    149249.01   -48915.154    3217.9705   -52133.124    151.36224   0.98132592 
   49600    222.20714    -524.0945    149234.97     -48898.8    3242.2388   -52141.039    151.69667   0.98141827 
   49700    217.11588   -485.78705    149217.14   -48933.239     3167.952   -52101.191    152.36384   0.98153549 
   49800    218.91878   -313.18024    149301.78   -48890.121    3194.2582   -52084.379    152.87145   0.98097907 
   49900    222.63023   -560.35408    149249.55   -48896.562    3248.4122   -52144.975    152.83264    0.9813224 
   50000    220.09769   -490.37657    149175.53   -48922.836    3211.4597   -52134.296    153.08228   0.98180934 
   50100    217.66285   -551.36573    149182.59   -48971.872    3175.9328   -52147.805    153.20401   0.98176287 
   50200     216.0766   -462.37613    149147.88   -48911.953    3152.7877   -52064.741    153.25724   0.98199131 
   50300     219.7079   -503.20142     149284.9   -48946.887    3205.7723   -52152.659    153.93996   0.98109004 
   50400    219.84081   -727.50509     149260.5   -48940.946    3207.7116   -52148.657    154.16477   0.98125042 
   50500    221.30838    -449.1131     149249.9   -48952.751     3229.125   -52181.876    154.31423   0.98132005 
   50600    217.68028   -556.96343    149227.67   -48942.195    3176.1872   -52118.382    154.72962   0.98146627 
   50700    221.39789   -441.99572    149092.38   -48893.825     3230.431   -52124.256    155.02946   0.98235685 
   50800    225.43485   -345.39488     149078.1   -48792.161    3289.3346   -52081.496    155.00144   0.98245099 
   50900    221.46573   -568.41622    149076.74   -48837.129    3231.4209    -52068.55    155.36975   0.98245991 
   51000    218.99421   -516.92541    148945.18   -48831.528    3195.3588   -52026.887    155.39676   0.98332769 
   51100    217.79656   -358.44125    148939.85   -48822.173    3177.8838   -52000.057    155.62865   0.98336289 
   51200    221.16721    -510.2389     148981.1   -48795.111    3227.0652   -52022.176    155.79558   0.98309063 
   51300    223.25749   -48.780534    149093.65   -48706.136    3257.5646     -51963.7    156.62693   0.98234849 
   51400    216.84656   -369.90263    149187.03   -48883.931    3164.0223   -52047.953    157.19271   0.98173363 
   51500     215.9476   -308.97996    149212.69   -48882.413    3150.9056   -52033.319    157.31979   0.98156482 
   51600    218.70092   -422.85005    149245.41   -48867.481    3191.0794    -52058.56    157.44444   0.98134957 
   51700    220.15739   -311.69993    149163.58   -48869.279    3212.3309    -52081.61     156.9731     0.981888 
   51800    219.65517   -488.96742    149157.01   -48869.154    3205.0029   -52074.157    157.17761   0.98193124 
   51900    220.74794   -536.69303    149083.04   -48939.986    3220.9476   -52160.934    157.08039   0.98241844 
   52000    212.50864   -676.80202    149016.13   -48929.893    3100.7274   -52030.621    157.27991   0.98285952 
   52100    219.90799   -426.51572     149077.1   -48877.375    3208.6917   -52086.066    157.73768   0.98245756 
   52200    216.36474   -609.60902    149031.09   -48874.236    3156.9921   -52031.228    158.60761   0.98276085 
   52300    223.11164   -546.59235     148879.4   -48844.045    3255.4365   -52099.481    158.86309   0.98376221 
   52400    221.53248   -393.09097    148836.46   -48810.123    3232.3949   -52042.518    159.15656   0.98404601 
   52500      220.074   -503.89806    149062.16   -48812.923    3211.1141   -52024.037    159.65533   0.98255605 
   52600     218.8044   -526.73579    149134.61   -48851.607    3192.5893   -52044.196    159.95708   0.98207871 
   52700    223.62822   -615.82978    149137.08   -48873.768    3262.9739   -52136.742    160.55552   0.98206243 
   52800    220.16807   -524.11835    149023.01   -48954.053    3212.4866    -52166.54    160.58154   0.98281416 
   52900    217.97162   -523.64423    149156.78    -48997.06    3180.4381   -52177.498    160.83758    0.9819327 
   53000    215.09469   -592.59202    149271.97   -49007.054    3138.4606   -52145.515    160.97373   0.98117498 
   53100    216.29296   -469.31175    149158.59   -49082.309    3155.9447   -52238.254    161.24624   0.98192078 
   53200    215.74163   -558.89523    149147.18   -48984.731    3147.9001   -52132.631    161.58086   0.98199591 
   53300    216.92436   -451.24645    149093.98   -48926.613    3165.1575   -52091.771    161.37008   0.98234631 
   53400    219.52142   -424.56694    148980.09   -48906.744    3203.0514   -52109.795    161.30548   0.98309729 
   53500    221.51881   -425.34913    149013.12   -48798.194    3232.1954   -52030.389     161.8148   0.98287939 
   53600    220.29467   -510.45592    148959.24   -48830.303    3214.3339   -52044.637    162.13061   0.98323489 
   53700    219.98186   -383.57049    149011.04    -48791.42    3209.7697    -52001.19    162.64339    0.9828931 
   53800    220.77634   -534.72732    149058.52   -48882.445     3221.362   -52103.807    162.95615   0.98258002 
   53900     216.2239   -393.76874    149024.15   -48938.779     3154.937   -52093.716    162.99832   0.98280667 
   54000    220.14498   -597.02711    148973.05   -48934.833    3212.1497   -52146.983    163.23281   0.98314375 
   54100    219.87313   -456.85724    148981.43   -48884.618    3208.1832   -52092.801    163.35941   0.98308848 
   54200    217.40026   -443.99999    149046.98   -48851.219    3172.1014   -52023.321    163.70403   0.98265608 
   54300    218.11547   -461.05851    149125.55   -48909.327    3182.5371   -52091.864    163.82006   0.98213836 
   54400    217.91388   -348.76093    149172.41   -48879.229    3179.5956   -52058.825    164.14423   0.98182986 
   54500    217.31755    -514.9745    149134.27   -48900.306    3170.8945   -52071.201     164.5828   0.98208095 
   54600    219.34773   -299.00035    149095.63   -48918.853    3200.5171    -52119.37    164.68052   0.98233548 
   54700    220.52702   -394.61718    149293.02    -48904.69    3217.7242   -52122.414    165.06055   0.98103662 
   54800    218.46148   -549.09028    149379.98   -48883.537    3187.5857   -52071.123    165.08673   0.98046553 
   54900    220.92968   -592.99396    149320.69   -48849.846    3223.5994   -52073.446     165.3021   0.98085489 
   55000    222.76833   -623.64351     149202.7   -48808.791    3250.4272   -52059.219    165.68672    0.9816305 
   55100    221.89616   -512.76678    149163.12   -48726.119    3237.7013   -51963.821    166.13469   0.98189097 
   55200    222.60125   -449.90039    149210.66   -48769.488    3247.9894   -52017.478    166.20857   0.98157814 
   55300     221.4372   -545.72328    149203.98   -48790.815    3231.0046   -52021.819    166.37234    0.9816221 
   55400    216.55623   -514.84379    149168.92   -48822.864    3159.7861    -51982.65    166.65847   0.98185282 
   55500    220.81033    -461.3584    149195.93   -48786.036    3221.8579   -52007.894    167.18585   0.98167507 
   55600    218.49219   -595.51385    149213.58    -48788.68    3188.0338   -51976.714    167.74761   0.98155896 
   55700    222.35126   -447.13315    149252.74    -48777.99    3244.3417   -52022.332     167.6243   0.98130139 
   55800    219.04336   -388.90623    149387.22   -48773.995     3196.076   -51970.071    168.13884   0.98041801 
   55900    222.45762   -572.39025    149269.53    -48900.39    3245.8937   -52146.284    167.84798   0.98119102 
   56000    215.90216   -675.21275    149273.05   -48921.863    3150.2425   -52072.106    168.54285   0.98116789 
   56100    219.47748    -558.8746    149270.85   -48881.569    3202.4103   -52083.979    168.89797   0.98118233 
   56200    218.97864   -452.59174     149341.8   -48886.913    3195.1317   -52082.044    169.17645    0.9807162 
   56300    220.09702   -496.50736    149353.07   -48829.241      3211.45   -52040.691    169.13012   0.98064223 
   56400    220.94186   -310.56481    149276.69   -48794.926     3223.777   -52018.703    169.25619   0.98114397 
   56500     221.0847   -656.90448    149314.96   -48773.503    3225.8612   -51999.365     169.8446    0.9808925 
   56600    220.05753   -359.88777    149181.82   -48800.487    3210.8738   -52011.361    170.01353   0.98176788 
   56700    221.66594   -409.07326     149219.4   -48785.132    3234.3422   -52019.474    169.94928   0.98152064 
   56800     222.9512   -661.62462    149223.11   -48790.127    3253.0955   -52043.222    169.84677   0.98149628 
   56900    223.11712   -538.92199    149103.19   -48811.782    3255.5164   -52067.299    170.08316   0.98228565 
   57000    223.65917   -567.53329    149033.05   -48888.973    3263.4256   -52152.398    170.40034   0.98274794 
   57100    219.77216   -493.00189    149029.53   -48940.273    3206.7099   -52146.983    170.93737   0.98277114 
   57200    215.53309   -441.60454    149070.35   -48953.308    3144.8574   -52098.165    171.14082   0.98250207 
   57300    212.26746   -428.08231    149092.92   -48994.988    3097.2083   -52092.197    171.51637   0.98235334 
   57400    218.74469   -582.45428    149001.64   -48938.661     3191.718   -52130.379    171.40881   0.98295514 
   57500    219.76125   -318.42209    148974.01   -48868.394    3206.5507   -52074.944     171.5825   0.98313741 
   57600    217.54099   -691.73935    149028.38   -48954.395    3174.1548    -52128.55     171.9144   0.98277873 
   57700    216.91214   -617.32145    149003.28   -48973.695    3164.9792   -52138.674    171.85167    0.9829443 
   57800    221.30022   -677.84913    149011.54   -48887.814    3229.0059    -52116.82    172.07964   0.98288982 
   57900    218.75303   -576.34701    149008.18   -48887.242    3191.8397   -52079.082     172.3951     0.982912 
   58000    212.98923   -474.48172     148875.3   -48978.918    3107.7397   -52086.657    172.29866   0.98378925 
   58100    219.31253   -436.34311    148960.82   -48887.309    3200.0034   -52087.313    172.62579   0.98322445 
   58200    219.57258   -387.87497    148964.86   -48859.635    3203.7979   -52063.433      172.998   0.98319779 
   58300    214.14636   -463.72958    148929.74   -48939.194    3124.6235   -52063.817    172.81867   0.98342966 
   58400    215.24958   -648.84917    148942.15   -48882.494    3140.7206   -52023.214    172.99059   0.98334774 
   58500    219.61568     -528.034    148826.98   -48796.256    3204.4266   -52000.683    173.06017   0.98410866 
   58600    218.33497   -576.36529    148867.97   -48826.944    3185.7398   -52012.684    173.83283   0.98383773 
   58700    218.41387   -462.78081    148903.99   -48769.961     3186.891   -51956.852    174.11623   0.98359974 
   58800    214.77281   -564.71773       148852   -48782.531    3133.7641   -51916.295    174.47476   0.98394325 
   58900    221.26222   -660.88268    148937.08   -48675.718    3228.4514    -51904.17    174.98709   0.98338121 
   59000    220.76854   -681.30464    149012.13   -48734.956    3221.2482   -51956.204    175.16697   0.98288593 
   59100    222.91197    -581.7326    148910.76   -48783.633    3252.5231   -52036.156    175.70683     0.983555 
   59200    221.96102   -563.47705     149043.6   -48799.336    3238.6477   -52037.984    176.42006    0.9826784 
   59300    220.05117   -581.87978    148963.12    -48828.92     3210.781   -52039.701     176.5156   0.98320928 
   59400    220.37847   -465.33136    149020.48   -48800.415    3215.5566   -52015.971     176.7326   0.98283086 
   59500     219.5318   -529.70101    149113.47   -48858.078    3203.2028    -52061.28    177.07668   0.98221795 
   59600      218.321   -534.25155     149180.8   -48757.444     3185.536    -51942.98    177.58002   0.98177463 
   59700     222.3768    -764.2408    149223.89   -48731.402    3244.7144   -51976.117    177.92527   0.98149112 
   59800    222.94919   -655.72372    149082.47   -48728.403    3253.0661   -51981.469    178.27615   0.98242215 
   59900    221.72828   -554.92447    148998.91   -48815.022    3235.2517   -52050.274    178.11019    0.9829731 
   60000    222.11787   -650.85216    148873.78   -48825.036    3240.9363   -52065.972    178.35928   0.98379931 
   60100    221.73759   -318.12339    148933.93   -48818.578    3235.3876   -52053.966    178.68733   0.98340197 
   60200    217.79075    -580.2634    148978.16   -48887.012    3177.7991   -52064.811    178.76657   0.98311006 
   60300    217.83003    -421.8416    148966.35   -48850.023    3178.3722   -52028.395    179.34845   0.98318796 
   60400    219.78235   -458.89393    148863.95   -48795.207    3206.8587   -52002.066    180.00619   0.98386428 
   60500     218.7554   -549.98879    148833.85   -48859.105    3191.8743   -52050.979    180.33272   0.98406327 
   60600    216.29458   -660.06628    148739.11   -48829.227    3155.9683   -51985.195    180.78318   0.98469005 
   60700    219.41401   -451.97053    148615.98    -48812.01    3201.4841   -52013.494    181.00816   0.98550587 
   60800    221.22791   -450.42821     148545.9   -48784.967    3227.9508   -52012.918    181.42916   0.98597085 
   60900    217.51087   -638.26135    148524.04   -48752.368    3173.7153   -51926.083    181.70615   0.98611594 
   61000    218.82803   -408.45693    148466.24   -48694.171     3192.934   -51887.105    181.82796   0.98649983 
   61100    223.15679   -528.40882    148395.72   -48656.708    3256.0952   -51912.803    181.95228   0.98696867 
   61200    220.99062   -512.63501    148383.43   -48665.856    3224.4885   -51890.345    182.38303   0.98705038 
   61300    222.37682   -454.08293    148362.93   -48703.706    3244.7147   -51948.421    182.61485   0.98718675 
   61400    220.04004   -550.25884     148338.2   -48571.968    3210.6186   -51782.586    183.16964   0.98735139 
   61500    219.47956   -545.87881    148352.75    -48583.04    3202.4406   -51785.481    183.73791   0.98725452 
   61600     222.3448   -577.87119    148495.21   -48605.943    3244.2475    -51850.19    184.59521    0.9863074 
   61700    221.05189   -531.04994    148404.49   -48663.503    3225.3825   -51888.886    184.50453   0.98691033 
   61800    219.55627   -403.08236    148449.48   -48671.712    3203.5598   -51875.272    185.01549   0.98661121 
   61900    224.28399   -520.07229    148391.15   -48644.159    3272.5423   -51916.701    185.41406   0.98699902 
   62000    222.79912   -486.55421    148375.38    -48704.35    3250.8764   -51955.227    185.52356   0.98710395 
   62100    219.79229   -521.71989     148336.5   -48759.725    3207.0036   -51966.728    185.84634   0.98736268 
   62200     223.4491   -436.45431    148326.12   -48732.278    3260.3604   -51992.639    186.52894    0.9874318 
   62300    217.57991   -502.46496    148251.52   -48811.298    3174.7227   -51986.021    186.87526   0.98792867 
   62400    219.81514   -522.22653    148199.24   -48816.399     3207.337   -52023.736    186.91376   0.98827715 
   62500    217.36553   -644.70499    148195.54   -48808.687    3171.5946   -51980.282    187.32712   0.98830184 
   62600    225.72704    -471.4596    148196.82   -48730.898    3293.5979   -52024.496    187.57047   0.98829333 
   62700    218.91939   -583.84878    148238.34   -48739.769    3194.2671   -51934.036      187.625   0.98801648 
   62800    221.61003    -457.4759     148314.9   -48792.816    3233.5264   -52026.342    187.66864   0.98750645 
   62900    220.01882   -349.63031    148434.87   -48733.761     3210.309    -51944.07    188.12667   0.98670831 
   63000    220.21358   -344.97228    148558.75   -48775.714    3213.1506   -51988.864    188.50145   0.98588552 
   63100    220.21062   -357.88641    148645.04   -48783.707    3213.1074   -51996.814    189.42754   0.98531323 
   63200    220.71104   -413.00023    148752.85   -48800.085    3220.4092   -52020.494    189.75457   0.98459909 
   63300    218.48787   -459.15818    148754.85   -48841.487    3187.9708   -52029.458    190.16135   0.98458587 
   63400    217.46637   -251.02649    148707.54   -48865.131    3173.0659   -52038.197    190.68366   0.98489911 
   63500    217.59847   -408.25711    148756.17   -48865.257    3174.9934   -52040.251    190.71623   0.98457713 
   63600    216.68654   -243.03025    148833.51   -48799.675    3161.6875   -51961.363    191.59002   0.98406554 
   63700    216.69032   -362.52981    148801.63   -48826.326    3161.7426   -51988.068    191.92354   0.98427635 
   63800    216.96729   -527.44383     148891.2   -48875.929    3165.7839   -52041.713    192.46515   0.98368419 
   63900    221.30935   -524.57097    148868.22   -48779.402    3229.1391   -52008.542    192.48732   0.98383604 
   64000    212.64236   -509.46897    148924.04   -48830.072    3102.6786    -51932.75    192.73376   0.98346729 
   64100    217.90367   -508.56419     148917.5   -48883.768    3179.4466   -52063.214    192.78137    0.9835105 
   64200    218.42256   -478.01537    148991.64   -48825.108    3187.0178   -52012.126    193.36775   0.98302108 
   64300    214.56567   -461.90916    148990.82   -48900.045    3130.7416   -52030.787    193.46211   0.98302649 
   64400    217.40541   -510.09706    149060.58   -48891.612    3172.1766   -52063.788    194.05077   0.98256642 
   64500    214.68318   -551.11936     149099.7   -48945.296    3132.4562   -52077.752    194.13498   0.98230862 
   64600    215.89301   -491.44779    148967.98   -48875.981    3150.1091    -52026.09    194.48155    0.9831772 
   64700    219.55538   -441.78057    148916.06   -48802.966    3203.5469   -52006.513    194.62737      0.98352 
   64800    217.93799   -505.56787    148958.32   -48794.814    3179.9474   -51974.761     195.0626   0.98324096 
   64900    224.26648   -497.90672    148877.98   -48755.707    3272.2868   -52027.993    195.14273   0.98377156 
   65000    224.01969   -474.76109    148889.62   -48745.331    3268.6858   -52014.017    195.75503   0.98369466 
   65100    220.81818   -494.00548    148913.73   -48824.673    3221.9724   -52046.645    196.17079   0.98353537 
   65200    218.79016     -287.288    148816.04   -48822.249    3192.3814    -52014.63    196.73113   0.98418102 
   65300    217.84157    -448.2445    148753.09   -48862.998    3178.5405   -52041.538    197.05576   0.98459752 
   65400    219.01734   -385.54724    148714.25   -48863.493    3195.6962    -52059.19    197.16819   0.98485469 
   65500    219.43666   -584.83428    148797.28   -48814.137    3201.8146   -52015.951    197.54574   0.98430512 
   65600    220.87144   -399.45415    148751.95   -48766.318    3222.7496   -51989.068    198.06128   0.98460505 
   65700    225.08946   -475.91091    148797.31   -48735.261    3284.2949   -52019.556    198.20832   0.98430494 
   65800    217.97299   -437.44202    148603.53   -48796.204    3180.4582   -51976.662     198.0919   0.98558848 
   65900    220.96856    -543.3231    148509.38   -48800.667    3224.1666   -52024.833    198.47643   0.98621326 
   66000    219.77906   -323.97653    148506.14   -48720.492    3206.8106   -51927.303    198.62834   0.98623477 
   66100     220.3755   -342.82121    148494.14   -48757.714    3215.5133   -51973.228    198.91242   0.98631452 
   66200    219.33108   -408.17562    148581.06   -48703.081    3200.2741   -51903.355    199.05547   0.98573752 
   66300    222.50984   -409.60615     148682.6   -48698.766    3246.6556   -51945.422    199.23799   0.98506431 
   66400    218.73831   -473.94721    148737.03   -48671.205     3191.625    -51862.83    199.73581   0.98470385 
   66500    220.19869   -497.84476    148874.48   -48710.098    3212.9334   -51923.032    199.95635   0.98379472 
   66600      219.368   -302.27398    148839.32   -48695.874    3200.8127   -51896.687    200.37036   0.98402709 
   66700    220.49517    -476.3708    148815.82   -48703.359    3217.2594   -51920.618    200.98684   0.98418249 
   66800    222.80044    -339.8273    148803.35   -48687.945    3250.8957   -51938.841    201.40034   0.98426497 
[...]
   84600     218.0459   -549.24178    148787.07   -48842.026    3181.5219   -52023.548    254.82871   0.98437265 
   84700    220.58419   -541.27934    148878.97   -48852.653    3218.5583   -52071.212    255.26614   0.98376505 
   84800    218.35613   -457.95534       148887   -48794.378    3186.0485   -51980.426    255.97503   0.98371197 
   84900    219.98579    -628.8366    148864.65   -48790.234    3209.8271   -52000.061    256.24007   0.98385964 
   85000    219.86671   -361.59611    148745.35   -48828.652    3208.0895   -52036.741    256.19664   0.98464876 
   85100    220.74727   -648.82042    148927.56   -48849.652    3220.9378    -52070.59    256.91001   0.98344406 
   85200    217.68195   -602.42444    148857.83   -48884.541    3176.2115   -52060.752    257.43483   0.98390473 
   85300    221.38494   -718.33691    148759.17   -48812.427    3230.2421   -52042.669    257.86049   0.98455727 
   85400     219.8288   -547.48356    148736.94    -48804.81    3207.5364   -52012.346    258.44342   0.98470444 
   85500    222.60261    -306.2232    148869.26   -48819.084    3248.0092   -52067.093    258.97695   0.98382917 
   85600    217.97968   -483.93986    148908.07   -48779.398    3180.5558   -51959.954    259.42272   0.98357277 
   85700    224.42441   -480.33735    149023.72   -48847.149    3274.5912   -52121.741    259.82668   0.98280947 
   85800    222.06356   -492.83167    149140.56   -48852.523    3240.1438   -52092.667    260.19682   0.98203953 
   85900    218.40374   -583.68363    149084.55   -48887.566    3186.7432   -52074.309     260.3292   0.98240847 
   86000    215.59402   -546.53739    149162.13   -48890.879    3145.7463   -52036.625    260.82422   0.98189751 
   86100    220.87916   -482.40928    149293.36   -48915.613    3222.8622   -52138.476     261.3069   0.98103439 
   86200     215.8662   -463.93792    149349.33   -48895.119    3149.7178   -52044.836    261.63851   0.98066675 
   86300    220.58036   -615.06741     149410.2   -48900.626    3218.5024   -52119.129     262.0262   0.98026723 
   86400    219.04635   -508.98823    149316.15   -48892.386    3196.1195   -52088.506    261.96963   0.98088467 
   86500    223.24179   -520.11223    149323.15   -48864.693    3257.3355   -52122.028    262.68474   0.98083873 
   86600    220.18716   -559.34625    149369.88   -48847.032    3212.7652   -52059.798    263.27827   0.98053183 
   86700     218.7773   -290.71827    149483.45   -48918.347    3192.1938   -52110.541    263.75055    0.9797869 
   86800    218.17627   -592.31367    149517.52   -48858.515    3183.4242   -52041.939    263.62961    0.9795636 
   86900    220.41647   -398.87741    149420.98   -48830.294    3216.1111   -52046.405    263.67996   0.98019648 
   87000    219.02153    -663.9005    149304.92    -48879.08    3195.7575   -52074.837    264.32469   0.98095848 
   87100    217.02244   -665.74916    149123.79    -48898.95    3166.5886   -52065.539    264.50092   0.98214998 
   87200    215.40985   -553.16857    149090.94   -48924.671    3143.0592   -52067.731    264.75433   0.98236634 
   87300    220.66355   -493.47235    149172.49   -48806.276    3219.7163   -52025.992    265.01681   0.98182929 
   87400    220.93281   -527.31616    149251.18   -48793.324    3223.6451   -52016.969    265.19016    0.9813117 
   87500    219.90979    -566.3541    149189.32   -48844.258    3208.7181   -52052.976    265.48085   0.98171853 
   87600    219.28937   -484.31783    149146.57   -48866.021    3199.6656   -52065.687    265.54813   0.98199997 
   87700    223.01565   -575.66926    149063.16   -48835.253    3254.0359   -52089.289    265.53062   0.98254944 
   87800    218.58094   -638.37943    149042.95   -48863.011    3189.3287    -52052.34    265.88928   0.98268269 
   87900    221.05393     -742.267    148957.51   -48812.488    3225.4124     -52037.9    265.87963    0.9832463 
   88000    224.43588   -524.58741    148963.74   -48789.302    3274.7585   -52064.061    266.24237   0.98320523 
   88100    221.13594    -567.9917    149014.82   -48818.856    3226.6089   -52045.465     266.2464   0.98286817 
   88200    219.62634   -620.37013    149069.14   -48788.602    3204.5822   -51993.184    266.62355   0.98251005 
   88300    219.91139    -442.5791    149160.89   -48827.622    3208.7415   -52036.364    267.07189   0.98190567 
   88400    221.54182   -463.98835    149324.14   -48812.205    3232.5311   -52044.736    267.20732   0.98083221 
   88500    216.86925   -576.21997    149317.48   -48833.818    3164.3534   -51998.171    267.93518   0.98087594 
   88600    221.19626   -683.53557    149172.07   -48870.005     3227.489   -52097.494     268.1415   0.98183211 
   88700    221.23524    -597.9874    149163.99   -48835.887    3228.0578   -52063.945    268.42579   0.98188526 
   88800    222.01563   -416.28408    149146.62   -48831.892    3239.4445   -52071.337    269.26572   0.98199961 
   88900    215.32313   -603.30582    149332.99   -48899.545    3141.7938   -52041.339    270.14605   0.98077408 
   89000    219.26788   -699.74403    149304.64   -48897.409     3199.352   -52096.761    270.67567   0.98096027 
   89100    220.14071   -622.75736    149240.38   -48857.218    3212.0875   -52069.305    270.80865   0.98138271 
   89200    220.45675   -733.59385    149129.83   -48902.659    3216.6988   -52119.358    270.84555   0.98211019 
   89300    218.66634    -466.1701    149275.77   -48869.617    3190.5749   -52060.192    271.57109   0.98115004 
   89400    217.87841   -614.69295    149257.49   -48871.072    3179.0781    -52050.15    271.70703   0.98127017 
   89500    216.45623   -584.85626    149180.39   -48864.941     3158.327   -52023.268    271.63797    0.9817773 
   89600    220.59288   -735.39449    148996.49   -48869.231    3218.6851   -52087.916    271.89091   0.98298909 
   89700    218.99246   -581.10443    149014.66    -48823.21    3195.3332   -52018.544    272.10663   0.98286923 
   89800    216.58333   -659.96372    148954.86     -48848.7    3160.1815   -52008.882    272.19632    0.9832638 
   89900    221.38876   -572.42506    148929.01   -48829.904    3230.2978   -52060.202     272.6198   0.98343445 
   90000    219.31721   -488.21258    149081.66   -48927.738    3200.0717    -52127.81    273.67066   0.98242748 
   90100     223.0924   -599.11358    149082.49   -48845.516    3255.1558   -52100.672    273.62001   0.98242205 
   90200    217.20723   -600.78399    149121.14   -48912.216    3169.2849   -52081.501    273.21327   0.98216744 
   90300    217.96048   -541.49124    149202.11   -48987.542    3180.2755   -52167.818    273.36763   0.98163441 
   90400    219.06584   -694.35574    149135.73   -48936.873     3196.404   -52133.277    273.41103   0.98207135 
   90500    221.23432   -680.30286    149078.95   -48876.782    3228.0443   -52104.826    274.01471   0.98244539 
   90600    220.07116   -508.22207    149021.92   -48850.645    3211.0727   -52061.718    273.90881   0.98282134 
   90700    217.21226   -571.89351     148866.4    -48862.15    3169.3583   -52031.508    273.75982   0.98384809 
   90800    219.03269   -596.93135    148783.77    -48824.17    3195.9203   -52020.091    274.00379   0.98439451 
   90900    222.30037   -440.47857    148727.17   -48883.314    3243.5992   -52126.913    274.10716   0.98476914 
   91000    215.34847   -501.23117    148692.68   -48867.608    3142.1635   -52009.772    273.84245   0.98499753 
   91100    217.54962   -689.50018    148822.35    -48821.58    3174.2807   -51995.861    274.67497   0.98413928 
   91200    220.31583   -433.35563     148818.3   -48848.703    3214.6427   -52063.346    274.87096   0.98416607 
   91300    219.13784   -348.79412     149061.1   -48831.785    3197.4545   -52029.239    275.93273   0.98256302 
   91400    217.02527   -392.86003    149134.06   -48865.934    3166.6299   -52032.564    276.56526    0.9820823 
   91500    217.89479   -562.68244    149190.13   -48892.572     3179.317   -52071.889    276.78309    0.9817132 
   91600    214.20963   -668.08612    149071.68   -48823.119    3125.5466   -51948.666    276.82331   0.98249326 
   91700    218.65517   -595.29091    149016.85   -48884.944    3190.4118   -52075.356     277.0767   0.98285478 
   91800    213.04807   -333.01739    148965.37    -48954.98    3108.5983   -52063.578    277.23288   0.98319441 
   91900    218.30826   -223.37708    149007.75   -48947.087    3185.3501   -52132.437    277.25085    0.9829148 
   92000    221.57422   -426.23036     149108.2   -48914.944    3233.0038   -52147.948    277.38684   0.98225266 
   92100    218.75376   -623.16538    149277.58   -48887.098    3191.8504   -52078.949    278.24933   0.98113814 
   92200    218.38012   -331.23405    149327.99    -48784.75    3186.3985   -51971.148     278.4672   0.98080694 
   92300    221.15146   -377.41085    149427.45   -48807.524    3226.8354    -52034.36     278.8467   0.98015407 
   92400    213.33437   -574.49579    149390.33   -48879.708    3112.7758   -51992.483    279.08662   0.98039763 
   92500    218.39656   -646.26496    149303.84   -48829.633    3186.6384   -52016.272    279.12151   0.98096554 
   92600    218.40581   -485.92848    149259.35   -48833.069    3186.7734   -52019.842    279.05476   0.98125794 
   92700    218.74371   -543.88612    149319.42   -48842.769    3191.7037   -52034.473    279.87808   0.98086317 
   92800    221.40871   -745.97559    149292.73   -48831.389    3230.5889   -52061.978    280.39233   0.98103857 
   92900    219.04743   -538.99311    149239.73   -48866.822    3196.1353   -52062.957    280.59652   0.98138693 
   93000     220.1429   -350.94188    149443.83   -48741.716    3212.1195   -51953.836    281.03528   0.98004662 
   93100    221.21517   -652.22769    149367.21   -48753.756     3227.765    -51981.52    281.28567   0.98054937 
   93200    220.58363   -375.24159    149294.18   -48773.325    3218.5501   -51991.875    281.54592     0.981029 
   93300    224.00078   -606.56914     149179.3   -48707.588      3268.41   -51975.998    281.71485   0.98178447 
   93400    222.42677   -446.16253    149153.21   -48761.275    3245.4435   -52006.719    281.73026    0.9819562 
   93500    224.14916   -565.23772    149130.31   -48772.864     3270.575    -52043.44    281.81674   0.98210701 
   93600     214.9697   -593.66012    149183.39   -48837.912    3136.6369   -51974.549    282.41587    0.9817576 
   93700    217.90744   -589.44665     149053.6   -48837.316    3179.5016   -52016.818    282.45726   0.98261244 
   93800    220.93241   -718.15268    148854.86   -48836.901    3223.6392   -52060.541    282.23884   0.98392439 
   93900    218.20944   -358.31062    148804.67   -48843.643    3183.9082   -52027.551    282.43409   0.98425622 
   94000    220.14758   -441.31433    148930.14   -48905.711    3212.1877   -52117.898    282.89085     0.983427 
   94100     218.6283    -512.4075    148958.26   -48936.941    3190.0197   -52126.961     283.1162   0.98324135 
   94200    217.49464   -586.00568    149059.78    -48910.42    3173.4785   -52083.899    283.58931   0.98257173 
   94300    215.65685   -387.87176    149019.05   -48896.495    3146.6632   -52043.158    284.03434   0.98284027 
   94400    219.38923   -427.87031       148992   -48888.561    3201.1225   -52089.683    284.35732   0.98301871 
   94500    219.69449   -433.48629    149080.98   -48921.081    3205.5767   -52126.658    284.90651   0.98243196 
   94600     217.6784    -333.2267    148998.26    -48968.25    3176.1598    -52144.41    285.10666   0.98297738 
   94700    218.55642    -327.5985    149120.12   -48969.914     3188.971   -52158.885    285.54543   0.98217412 
   94800     220.2273   -368.84544    149346.11   -48885.854    3213.3508   -52099.205    286.07606    0.9806879 
   94900     221.8451   -280.99081     149452.9     -48866.1    3236.9563   -52103.056    286.38866   0.97998716 
   95000    222.10202   -657.40861    149521.79   -48907.677     3240.705   -52148.382       287.15   0.97953563 
   95100    218.17643   -376.37812    149468.55   -48920.242    3183.4266   -52103.668     287.7872   0.97988453 
   95200    221.13392   -381.52607    149607.74   -48923.657    3226.5794   -52150.236     288.4245   0.97897292 
   95300    220.38233    -373.0218    149520.42   -48956.529     3215.613   -52172.142     288.4454   0.97954465 
   95400    219.53695   -399.11702    149484.82    -48971.31     3203.278   -52174.588    288.53901    0.9797779 
   95500    219.60347   -469.53533    149472.15   -48995.503    3204.2485   -52199.752    289.04456   0.97986097 
   95600    216.44954   -361.25011    149529.11   -49038.782    3158.2294   -52197.011    289.71881   0.97948768 
   95700    216.72962   -432.53863     149525.4   -49013.608     3162.316   -52175.924     289.6835   0.97951202 
   95800    219.26106   -441.46238    149557.48   -48976.301    3199.2524   -52175.553    289.74593   0.97930193 
   95900    219.50402   -438.48428    149583.99   -48978.571    3202.7974   -52181.369    289.55824   0.97912836 
   96000    217.34447   -573.87456    149487.51    -48971.11    3171.2873   -52142.397    289.76942   0.97976026 
   96100    220.66366   -388.40839    149371.82   -48928.262    3219.7179    -52147.98    289.38532   0.98051909 
   96200    219.19599   -541.42308    149395.46   -48937.563     3198.303   -52135.866      289.853   0.98036397 
   96300    220.00222    -380.4928    149529.15   -48959.026    3210.0668   -52169.093    290.02444   0.97948746 
   96400    219.51758   -510.50508    149479.41    -48934.73    3202.9953   -52137.725    289.82022   0.97981337 
   96500    221.53914   -423.49711    149391.71   -48938.431     3232.492   -52170.923    289.62184   0.98038856 
   96600    221.46202   -500.34915    149381.45   -48940.971    3231.3667   -52172.338    290.33434   0.98045589 
   96700    221.57633   -336.20053    149359.18   -48922.692    3233.0346   -52155.727    290.48126   0.98060207 
   96800    225.18594    -536.9114    149366.15   -48867.513    3285.7027   -52153.216    290.54735   0.98055632 
   96900    221.28062   -581.46431    149331.45    -48890.13      3228.72    -52118.85     291.0102    0.9807842 
   97000     221.3268   -398.15179    149246.68   -48878.312    3229.3938   -52107.706     291.1293   0.98134123 
   97100    221.25442   -609.50881    149239.97   -48914.331    3228.3377   -52142.669    291.29951   0.98138535 
   97200    222.12237   -415.17301    149197.97   -48908.089     3241.002   -52149.091    291.03966   0.98166166 
   97300    218.36199   -536.14945    149138.32   -48965.442     3186.134   -52151.576     291.2609   0.98205426 
   97400     217.3092   -530.13975    149063.35   -48945.543    3170.7728   -52116.316    291.26223   0.98254817 
   97500    220.93882   -514.87306     149052.1   -48970.662    3223.7327   -52194.395    291.78614   0.98262238 
   97600     217.2809   -476.28535    149118.72   -48992.177    3170.3598   -52162.537    292.10399   0.98218334 
   97700    216.89178   -510.71617    149133.77     -48986.1    3164.6821   -52150.782    292.79068   0.98208422 
   97800    217.37163   -493.85347    149070.65   -48963.264    3171.6836   -52134.948    292.82482   0.98250007 
   97900    217.97879   -648.68902    149117.67   -48948.849    3180.5427   -52129.392    293.43469    0.9821903 
   98000    220.18582   -547.07218    149050.79   -48834.005    3212.7456   -52046.751    293.61625   0.98263097 
   98100    219.54261   -476.97053     148812.1    -48869.47    3203.3605    -52072.83    293.37397   0.98420711 
   98200    217.18457   -387.84134    148903.36   -48844.348    3168.9542   -52013.302    293.66725   0.98360386 
   98300    219.67708   -552.67988    148930.69   -48813.424    3205.3226   -52018.747    293.76287   0.98342338 
   98400    223.02042   -601.06034    148886.94   -48739.026    3254.1054   -51993.131     293.7855   0.98371238 
   98500    221.98924   -526.67017    148813.48    -48806.47    3239.0595    -52045.53     294.2178   0.98419796 
   98600    222.84959    -373.8954    148860.13   -48740.064    3251.6129   -51991.677    294.58169   0.98388954 
   98700    217.44394   -579.90563    148893.08   -48789.406    3172.7387   -51962.145    294.74579   0.98367177 
   98800    219.17796    -617.1306    148954.42     -48768.9    3198.0399    -51966.94     294.9116    0.9832667 
   98900    220.29362     -609.965    148881.45   -48768.999    3214.3186   -51983.318    294.82841   0.98374867 
   99000     220.4163   -526.30668    148931.78   -48724.912    3216.1086    -51941.02    295.23773    0.9834162 
   99100    217.16414   -597.12956    148879.88   -48741.101    3168.6561   -51909.757    295.59428     0.983759 
   99200    221.72565   -566.90657    148892.61   -48741.281    3235.2134   -51976.494    296.14104   0.98367488 
   99300    221.00658   -485.41214    148938.21   -48730.345    3224.7215   -51955.066    296.95613   0.98337372 
   99400    221.41814   -458.39647    148823.97   -48706.366    3230.7265   -51937.093    296.53102   0.98412862 
   99500    224.89344    -430.3331    148869.96   -48697.193    3281.4348   -51978.628     296.9845   0.98382458 
   99600    221.27343   -404.33004    148752.52   -48760.263    3228.6151   -51988.878    296.93887   0.98460129 
   99700    218.38846   -413.48934     148687.2    -48726.87    3186.5202    -51913.39    297.43431   0.98503386 
   99800    221.31281   -465.00823    148695.56   -48779.757    3229.1897   -52008.947    297.47416   0.98497845 
   99900    219.41481   -372.01367    148775.49    -48744.09    3201.4958   -51945.586    298.32327   0.98444928 
  100000    218.70188   -392.53409    148734.62   -48750.241    3191.0934   -51941.334    298.24125   0.98471978 
  100100    222.72744   -458.52485    148879.27   -48758.449    3249.8306    -52008.28    298.98035   0.98376303 
  100200    224.51275   -429.34555    148918.56   -48711.717    3275.8801   -51987.597    299.34811   0.98350348 
  100300     217.1795   -442.76116    148801.29    -48720.39    3168.8802    -51889.27    299.49669   0.98427857 
  100400    224.81816   -433.39768    148793.33   -48736.475    3280.3364   -52016.811    300.23806   0.98433127 
  100500    218.44173   -507.23579    148920.07   -48758.343    3187.2975   -51945.641    300.52633   0.98349351 
  100600    215.85428    -573.1499    148808.95   -48788.693    3149.5439   -51938.237    300.72517   0.98422794 
  100700    219.77364   -448.44908    148844.08   -48720.469    3206.7315   -51927.201    301.44401   0.98399564 
  100708    218.22488   -510.99755    148851.32   -48728.312    3184.1334   -51912.445    301.57258   0.98394774 
Loop time of 173.683 on 12 procs for 100000 steps with 4896 atoms

Performance: 248.729 ns/day, 0.096 hours/ns, 575.762 timesteps/s
97.5% CPU use with 12 MPI tasks x no OpenMP threads

MPI task timing breakdown:
Section |  min time  |  avg time  |  max time  |%varavg| %total
---------------------------------------------------------------
Pair    | 116.56     | 120        | 126.18     |  26.7 | 69.09
Neigh   | 4.741      | 4.9656     | 5.2438     |   6.8 |  2.86
Comm    | 34.844     | 41.313     | 44.936     |  46.6 | 23.79
Output  | 0.22885    | 0.2316     | 0.25668    |   1.6 |  0.13
Modify  | 5.5793     | 5.7803     | 6.0471     |   5.4 |  3.33
Other   |            | 1.393      |            |       |  0.80

Nlocal:        408.000 ave         416 max         393 min
Histogram: 1 0 0 0 0 2 4 2 2 1
Nghost:        1103.00 ave        1116 max        1082 min
Histogram: 1 1 0 0 2 2 0 1 3 2
Neighs:        0.00000 ave           0 max           0 min
Histogram: 12 0 0 0 0 0 0 0 0 0
FullNghs:      13375.3 ave       13661 max       12703 min
Histogram: 1 0 0 0 0 3 0 3 3 2

Total # of neighbors = 160504
Ave neighs/atom = 32.782680
Neighbor list builds = 6072
Dangerous builds = 0

undump              1
unfix               2
unfix               3
unfix               4


write_data		data.${NAME}
write_data		data.liquid_mW_500
System init for write_data ...
Total wall time: 0:02:55
