LAMMPS data file via write_data, version 16 Mar 2018, timestep = 6000000

6489 atoms
2 atom types

0.0000000000000000e+00 4.9219999999999999e+01 xlo xhi
0.0000000000000000e+00 4.9019635930410494e+01 ylo yhi
7.3743916875319826e-01 5.9324560831248569e+01 zlo zhi

Masses

1 18.015
2 12.01

Atoms # atomic

6153 1 1.3936778431996326e+00 1.8995503736635053e+00 2.1630147798138171e+00 0 1 0
2160 1 3.8179261246227765e+00 9.9034651281693131e-01 3.1178994648438101e+00 0 0 1
269 1 6.1157022888897092e+00 2.2553838028795874e+00 2.4618126645369607e+00 1 2 0
1866 1 8.5364773602437403e+00 1.2283884965073828e+00 3.3618409260682194e+00 -1 -2 0
139 1 1.2827437396394579e+00 4.4775370018657679e+00 2.9242638701110155e+00 -2 3 1
3021 1 3.4924921293177507e+00 5.9849322442373918e+00 2.1059496288882378e+00 0 0 0
553 1 6.1130279907535305e+00 4.8779295375430909e+00 2.9782915766833336e+00 -2 4 1
190 1 8.2578443242928508e+00 6.3317212562283398e+00 2.1833929630751436e+00 0 -1 0
4852 1 3.3046336912016030e+00 8.3712405698320058e+00 2.7126575998752331e+00 2 0 0
1867 1 1.0408864468551948e+00 9.5811879039461925e+00 1.6913784423665437e+00 1 0 1
4550 1 1.1939358546739582e+00 1.1553798843968531e+01 5.5024152827380499e+00 1 3 1
1659 1 3.1649027244232819e+00 8.6640771197500204e+00 5.5336296543401300e+00 2 0 0
2165 1 8.3583063575915251e+00 9.1071522090488255e+00 2.6660755101339677e+00 1 0 1
2937 1 5.7329832554975830e+00 9.8467084018164925e+00 1.8910622353869462e+00 0 -2 1
4783 1 1.3928140074274225e+00 5.5722578324865317e+00 9.2102323782689339e+00 3 2 1
1566 1 6.2729026026873242e+00 1.2136122664241711e+01 2.9592910107238257e+00 1 1 0
253 1 1.0548679156870635e+00 1.2334774621437248e+01 2.8512627828995232e+00 -1 -1 0
4815 1 3.8804067916596838e+00 1.3161776626848987e+01 2.1513502918791421e+00 1 1 1
2164 1 1.2275596549237269e+00 1.3540587611398882e+01 9.5654343710660221e+00 1 -1 1
5158 1 8.6031076232305281e+00 1.3200665615221697e+01 1.9613414340321131e+00 1 0 0
6434 1 8.7067686749099877e+00 1.5691469398334599e+01 3.2229367316136397e+00 -2 -1 1
382 1 3.9894654488164574e+00 1.0564103618310881e+00 5.7518664502235737e+00 -3 -2 0
2093 1 3.9469408333612739e+00 3.6726984354644707e+00 6.8346509532928401e+00 0 -2 1
6366 1 3.7912004083998880e+00 3.9738283347818104e+00 9.4686823368367694e+00 2 0 1
5230 1 8.7023661473719880e+00 1.5329032060369001e+00 6.1486572393800385e+00 3 0 0
1587 1 5.8442927980793309e+00 1.3930830913254052e+01 8.7483161489172083e+00 2 -5 1
3018 1 3.7530190955054441e+00 1.5553601507938893e+01 3.4230534737108451e+00 3 -1 1
2939 1 1.4811056570454144e+00 4.2119828195683580e+00 5.7819144374468117e+00 2 2 1
3015 1 1.0732260723627753e+00 6.8677804908171263e+00 6.4666913878704486e+00 -1 1 1
5166 1 8.3968494967323295e+00 1.2582014058088669e+01 9.7732252402563784e+00 3 0 0
1655 1 7.8485008158939653e+00 9.9448888752561437e+00 1.0393143180068225e+01 -1 1 1
493 1 8.6535139154528782e+00 4.3092343017714869e+00 6.9683641561586214e+00 0 -2 1
5109 1 6.2520489569996469e+00 4.9405556244982822e+00 5.6554051374136796e+00 1 2 0
17 1 7.9263569930898408e+00 4.4038963958062780e+00 9.6399178221537056e+00 0 1 1
5222 1 5.6088302273450523e+00 7.5993494160453459e+00 6.3603635301060519e+00 4 1 0
4999 1 8.9133630907531476e+00 1.5634031085906031e+01 5.8710555155361170e+00 0 2 0
3160 1 3.8938358421636634e+00 1.1145563562002318e+01 6.4633692794310056e+00 2 0 1
3113 1 3.8004514623081791e+00 1.0026903717468061e+01 9.1189174864368159e+00 1 3 1
1637 1 5.7141444318912846e+00 8.1682838589427238e+00 8.9922448384877285e+00 0 1 0
97 1 6.5086288893631519e+00 1.1653665066447227e+01 5.5238877529572843e+00 -2 -1 0
3742 1 7.6898807453801359e+00 9.2085847830067102e+00 5.4080267860438607e+00 -1 0 1
2025 1 8.3116628901872769e+00 1.3230546149454842e+01 7.2018359674249419e+00 -2 0 0
1452 1 3.8098103420567315e+00 1.4885044909036846e+01 6.1866704863403115e+00 0 3 1
3374 1 1.1301558184430454e+00 1.4145296404494459e+01 6.6763026995436707e+00 0 -1 0
1583 1 1.6687311430553347e+00 8.3419115276836830e+00 9.9298445738768262e+00 1 1 1
3493 1 5.8672455896237352e+00 4.6008321462107829e-02 9.4836442509634935e+00 2 -1 0
3339 1 3.8827544215296901e+00 1.2778779637025089e+01 1.0279138168409546e+01 0 0 1
3121 1 1.1959083446297560e+00 1.6327477318262996e+01 1.0284359277870875e+01 0 -1 0
2910 1 3.7790915690871492e+00 1.3145536478815611e+00 1.0262362738245210e+01 1 -1 1
3186 1 5.7147198612291525e+00 5.7106589783523214e+00 1.0317491507136923e+01 -2 0 0
2986 1 9.7202664001653112e+00 8.1887176805750261e+00 6.7725131504361125e+00 0 -1 1
1278 1 8.1729051474491019e+00 1.5178352132563113e+00 1.0146051552004380e+01 3 0 0
42 1 3.4437098422440457e+00 1.3151714595642872e+00 1.2893891422556608e+01 -1 1 1
5231 1 2.0405463036922273e+00 3.5659062162764479e+00 1.3864813491240882e+01 -1 2 0
5096 1 5.9391942631703669e+00 6.5574419754739899e-01 1.6933402776791777e+01 1 -2 0
4705 1 8.1804586993310924e+00 1.7213131435415843e+00 1.3009623370594820e+01 -1 2 1
1588 1 9.8233235503969087e+00 1.6281079375248467e+01 2.0047097367649357e+01 1 0 1
9 1 1.4795941016161795e+00 4.6916862636227702e-01 1.6430603037214269e+01 2 0 1
4708 1 3.2685664468823368e+00 6.1917782200506135e+00 1.3422649302307805e+01 1 3 0
1772 1 7.7865475763111025e+00 1.4904905802002299e+01 1.3544442467725993e+01 -1 1 1
6277 1 7.5812964658298778e+00 4.4568865936989210e+00 1.3960054793107549e+01 0 1 0
4804 1 6.1880844816877065e+00 6.3008610930615907e+00 1.2854378035790354e+01 0 0 1
5357 1 1.5610406989537335e+00 8.0873658623998317e+00 1.2750671025714686e+01 1 2 1
1288 1 1.3803510103737118e+00 1.0909743580616018e+01 1.3684942884327414e+01 0 1 1
67 1 7.7976789080677786e+00 9.0356463605624526e+00 1.3140224157537315e+01 -3 0 1
2 1 5.8860141184085437e+00 1.0757959602732162e+01 1.3907358569078195e+01 0 0 1
6488 1 3.3667183747535754e+00 1.5241946927311414e+01 1.6472294759718991e+01 0 -1 0
5403 1 3.4123415373495063e+00 1.2562503970497160e+01 1.3071427173951999e+01 1 -2 0
1425 1 3.2814527893444554e+00 1.5061917999770262e+01 1.3664257615213954e+01 2 0 1
4951 1 6.4361677395143442e+00 1.2908043059649252e+01 1.2178181096590651e+01 -2 -1 0
56 1 5.4449206590140005e+00 1.6052329657092155e+01 2.0057692586186079e+01 2 -3 0
412 1 7.6617117079425228e+00 1.4813544303667133e+01 1.6213780167210182e+01 2 -1 0
433 1 1.8343003812007255e+00 3.2109536880934266e+00 1.6291924067003052e+01 0 0 0
4841 1 5.3494162872664255e+00 8.3742108109193296e+00 2.0262294505093589e+01 0 6 1
1350 1 2.5846046576182968e+00 4.2689258405275972e+00 1.9927962348649167e+01 3 -1 1
377 1 6.3308182560144912e+00 3.2973473365923947e+00 1.7597489409722872e+01 3 0 0
6123 1 3.7324415794116161e+00 4.6291817662479264e+00 1.7483012010215099e+01 2 2 1
6281 1 3.9008236686760371e+00 7.1434446136807779e+00 1.6196072806314305e+01 1 0 0
3659 1 8.2483725296525492e+00 1.2420731888668570e+01 1.7789752657532006e+01 1 -1 1
4839 1 8.2244581851883183e+00 4.7357184470255405e+00 1.6626037977856633e+01 2 0 1
4955 1 8.3905598292942418e+00 7.1024819446222951e+00 1.7865955482155460e+01 2 -1 1
4785 1 5.9292791597970451e+00 4.2561401467754856e-01 1.4191358295572400e+01 2 -2 1
6186 1 1.6099581693600371e+00 8.0206018178578411e+00 1.7357098851345786e+01 2 -1 1
345 1 1.5344413032313859e+00 1.0619854750612898e+01 1.6544113058766612e+01 0 2 0
1679 1 3.5027478427467593e+00 1.2488853425442334e+01 1.7370730586759983e+01 0 0 0
3785 1 5.9658183432644867e+00 1.0962957883101751e+01 1.6693590853087773e+01 0 0 1
3693 1 5.7796185661338573e+00 8.3532354330017959e+00 1.7651875888937166e+01 -3 -2 0
1948 1 8.1329776316898450e-01 1.6330709109732979e+01 1.7081391048743342e+01 2 -3 0
5168 1 1.4356227419000380e+00 8.2968312225988345e+00 2.0122795674565978e+01 1 0 0
4532 1 1.2752424255399832e+00 1.6324396911565135e+01 1.9801046754845469e+01 1 2 1
6220 1 3.2035124311502003e+00 1.2655672657220705e+01 2.0079612369339706e+01 -1 2 1
1398 1 3.4053768345661601e+00 2.1938127058263865e+00 2.3863180028701112e+01 0 1 1
6250 1 9.7896213851852532e-01 3.1266702506478548e+00 2.4361892530232097e+01 3 1 1
1727 1 4.1428074240107220e+00 2.2316663538278845e+00 2.1115361874037614e+01 0 -1 0
1916 1 8.7128265150144077e+00 2.2492009838611424e+00 2.3819529861683307e+01 0 -1 0
310 1 6.2741343837624157e+00 3.2214899351866819e+00 2.4546962725155669e+01 3 1 0
206 1 9.1242754609400158e+00 1.8282031599755433e+00 2.1224624461637795e+01 3 1 0
695 2 4.9220000000000006e+00 1.2787731112280996e+01 2.6731604742287178e+01 0 0 0
3792 1 1.1232262663895038e+00 5.8210516172630786e+00 2.4057697403665543e+01 2 -2 0
4863 1 3.4298124078583117e+00 7.1400546099422959e+00 2.3770275851217466e+01 2 -3 1
1451 1 3.3561504324904274e+00 6.5427636256489148e+00 2.1284526813764369e+01 -1 1 1
1952 1 6.5866114802030520e+00 5.6555532496708727e+00 2.1318287453760309e+01 0 3 0
4925 1 6.1654415810296879e+00 5.9147889773519449e+00 2.4207466736424788e+01 -1 6 0
1438 1 8.5569750053990710e+00 7.5843568194786570e+00 2.3863285725908597e+01 0 0 1
697 2 6.1524999999999990e+00 1.3498160618518829e+01 2.6731604742287178e+01 0 0 0
5227 1 9.2192556739550575e+00 1.0255345410431422e+01 2.1181784892912187e+01 2 -3 0
1368 1 1.3653906482216676e+00 1.0841146292937951e+01 2.1234165979961610e+01 -4 2 1
4514 1 3.4328603812251237e+00 9.7778368644492542e+00 2.4103599513770529e+01 -2 2 1
742 2 7.3829999999999991e+00 1.2787731112280996e+01 2.6731604742287178e+01 0 0 0
297 1 5.3384924101692448e+00 1.0970922871191165e+01 2.1285574435998598e+01 2 -2 0
1625 1 8.5799745816733530e+00 1.0247030410047202e+01 2.4083014106773586e+01 -1 -1 1
3551 1 6.0268115940338056e+00 1.1485523824610743e+01 2.3984080221294501e+01 1 -2 0
106 1 8.6309320410718531e+00 7.5250018690850533e+00 2.0549650727060161e+01 2 -1 1
785 2 8.6135000000000002e+00 1.4919019630994494e+01 2.6731604742287178e+01 0 0 0
378 1 3.4477709955421987e+00 1.5236835046421136e+01 2.3731380166884367e+01 0 -1 1
1898 1 3.2300041583534411e+00 1.5035448097140835e+01 2.0973709982049147e+01 1 1 0
4958 1 1.1021421887689200e+00 1.3820527791891864e+01 2.4262254630142177e+01 -1 0 1
6370 1 8.4101005096035788e+00 1.5385051952548086e+01 2.4081064099910456e+01 0 -2 1
208 1 5.8012673513671631e+00 1.3999116679228948e+01 2.4361514140586277e+01 1 -1 0
5238 1 7.6773799281129014e+00 1.4808417952808185e+01 2.1324594366303259e+01 -1 2 0
3174 1 6.7409944852283239e+00 3.0784266465009793e+00 2.0387631433461287e+01 -3 -1 1
572 2 0.0000000000000000e+00 2.8417180249513345e+00 2.6731604742287178e+01 0 0 0
574 2 0.0000000000000000e+00 0.0000000000000000e+00 2.6731604742287178e+01 0 0 0
576 2 1.2305000000000001e+00 7.1042950623783474e-01 2.6731604742287178e+01 0 0 0
583 2 1.2305000000000001e+00 2.1312885187134998e+00 2.6731604742287178e+01 0 0 0
585 2 2.4610000000000003e+00 2.8417180249513345e+00 2.6731604742287178e+01 0 0 0
587 2 2.4610000000000003e+00 0.0000000000000000e+00 2.6731604742287178e+01 0 0 0
589 2 3.6915000000000004e+00 7.1042950623783474e-01 2.6731604742287178e+01 0 0 0
604 2 3.6914999999999996e+00 2.1312885187134998e+00 2.6731604742287178e+01 0 0 0
606 2 4.9220000000000006e+00 2.8417180249513332e+00 2.6731604742287178e+01 0 0 0
608 2 4.9220000000000006e+00 0.0000000000000000e+00 2.6731604742287178e+01 0 0 0
610 2 6.1524999999999999e+00 7.1042950623783407e-01 2.6731604742287178e+01 0 0 0
633 2 6.1524999999999999e+00 2.1312885187134989e+00 2.6731604742287178e+01 0 0 0
635 2 7.3829999999999991e+00 2.8417180249513345e+00 2.6731604742287178e+01 0 0 0
637 2 7.3829999999999991e+00 0.0000000000000000e+00 2.6731604742287178e+01 0 0 0
639 2 8.6134999999999984e+00 7.1042950623783407e-01 2.6731604742287178e+01 0 0 0
670 2 8.6134999999999984e+00 2.1312885187135002e+00 2.6731604742287178e+01 0 0 0
579 2 0.0000000000000000e+00 4.2625770374269996e+00 2.6731604742287178e+01 0 0 0
581 2 1.2305000000000001e+00 4.9730065436648339e+00 2.6731604742287178e+01 0 0 0
596 2 1.2305000000000001e+00 6.3938655561404980e+00 2.6731604742287178e+01 0 0 0
600 2 2.4610000000000003e+00 4.2625770374269996e+00 2.6731604742287178e+01 0 0 0
602 2 3.6914999999999996e+00 4.9730065436648339e+00 2.6731604742287178e+01 0 0 0
625 2 3.6914999999999996e+00 6.3938655561404980e+00 2.6731604742287178e+01 0 0 0
577 2 0.0000000000000000e+00 7.1042950623783341e+00 2.6731604742287178e+01 0 0 0
598 2 2.4610000000000003e+00 7.1042950623783341e+00 2.6731604742287178e+01 0 0 0
629 2 4.9220000000000006e+00 4.2625770374269978e+00 2.6731604742287178e+01 0 0 0
631 2 6.1524999999999999e+00 4.9730065436648339e+00 2.6731604742287178e+01 0 0 0
662 2 6.1524999999999999e+00 6.3938655561404980e+00 2.6731604742287178e+01 0 0 0
666 2 7.3829999999999991e+00 4.2625770374269996e+00 2.6731604742287178e+01 0 0 0
668 2 8.6135000000000002e+00 4.9730065436648339e+00 2.6731604742287178e+01 0 0 0
707 2 8.6135000000000002e+00 6.3938655561404980e+00 2.6731604742287178e+01 0 0 0
627 2 4.9220000000000006e+00 7.1042950623783341e+00 2.6731604742287178e+01 0 0 0
664 2 7.3830000000000009e+00 7.1042950623783341e+00 2.6731604742287178e+01 0 0 0
592 2 0.0000000000000000e+00 8.5251540748539991e+00 2.6731604742287178e+01 0 0 0
594 2 1.2305000000000001e+00 9.2355835810918343e+00 2.6731604742287178e+01 0 0 0
621 2 2.4610000000000003e+00 8.5251540748539991e+00 2.6731604742287178e+01 0 0 0
623 2 3.6915000000000004e+00 9.2355835810918343e+00 2.6731604742287178e+01 0 0 0
590 2 0.0000000000000000e+00 1.1366872099805333e+01 2.6731604742287178e+01 0 0 0
617 2 1.2305000000000001e+00 1.0656442593567498e+01 2.6731604742287178e+01 0 0 0
619 2 2.4610000000000003e+00 1.1366872099805333e+01 2.6731604742287178e+01 0 0 0
654 2 3.6914999999999996e+00 1.0656442593567499e+01 2.6731604742287178e+01 0 0 0
658 2 4.9220000000000006e+00 8.5251540748539991e+00 2.6731604742287178e+01 0 0 0
660 2 6.1524999999999999e+00 9.2355835810918343e+00 2.6731604742287178e+01 0 0 0
703 2 7.3830000000000009e+00 8.5251540748539991e+00 2.6731604742287178e+01 0 0 0
705 2 8.6134999999999984e+00 9.2355835810918343e+00 2.6731604742287178e+01 0 0 0
656 2 4.9220000000000006e+00 1.1366872099805333e+01 2.6731604742287178e+01 0 0 0
699 2 6.1524999999999999e+00 1.0656442593567499e+01 2.6731604742287178e+01 0 0 0
701 2 7.3829999999999991e+00 1.1366872099805333e+01 2.6731604742287178e+01 0 0 0
746 2 8.6134999999999984e+00 1.0656442593567498e+01 2.6731604742287178e+01 0 0 0
650 2 2.4610000000000003e+00 1.2787731112280996e+01 2.6731604742287178e+01 0 0 0
646 2 1.2305000000000001e+00 1.4919019630994494e+01 2.6731604742287178e+01 0 0 0
613 2 0.0000000000000000e+00 1.2787731112280996e+01 2.6731604742287178e+01 0 0 0
691 2 3.6915000000000004e+00 1.4919019630994494e+01 2.6731604742287178e+01 0 0 0
648 2 2.4610000000000003e+00 1.5629449137232328e+01 2.6731604742287178e+01 0 0 0
611 2 0.0000000000000000e+00 1.5629449137232333e+01 2.6731604742287178e+01 0 0 0
615 2 1.2305000000000001e+00 1.3498160618518829e+01 2.6731604742287178e+01 0 0 0
652 2 3.6915000000000004e+00 1.3498160618518829e+01 2.6731604742287178e+01 0 0 0
744 2 8.6135000000000002e+00 1.3498160618518835e+01 2.6731604742287178e+01 0 0 0
740 2 7.3829999999999991e+00 1.5629449137232333e+01 2.6731604742287178e+01 0 0 0
693 2 4.9220000000000006e+00 1.5629449137232333e+01 2.6731604742287178e+01 0 0 0
738 2 6.1524999999999990e+00 1.4919019630994494e+01 2.6731604742287178e+01 0 0 0
5049 1 9.8761195259391499e-01 1.1095242539202351e+01 2.3982411677389372e+01 1 -1 1
1650 1 7.6140318740141968e+00 1.2237598998194288e+01 2.0550182722791902e+01 0 1 1
573 2 0.0000000000000000e+00 1.4208590124756650e+00 3.0031000000001320e+01 0 0 0
575 2 0.0000000000000000e+00 0.0000000000000000e+00 3.0031000000001320e+01 0 0 0
584 2 1.2305000000000001e+00 2.1312885187134998e+00 3.0031000000001320e+01 0 0 0
586 2 2.4610000000000003e+00 1.4208590124756650e+00 3.0031000000001320e+01 0 0 0
588 2 2.4610000000000003e+00 0.0000000000000000e+00 3.0031000000001320e+01 0 0 0
605 2 3.6914999999999996e+00 2.1312885187134998e+00 3.0031000000001320e+01 0 0 0
582 2 1.2305000000000001e+00 3.5521475311891644e+00 3.0031000000001320e+01 0 0 0
603 2 3.6914999999999996e+00 3.5521475311891644e+00 3.0031000000001320e+01 0 0 0
901 2 0.0000000000000000e+00 2.8417180249513345e+00 3.3330395257701383e+01 0 0 0
902 2 0.0000000000000000e+00 0.0000000000000000e+00 3.3330395257701383e+01 0 0 0
903 2 1.2305000000000001e+00 7.1042950623783474e-01 3.3330395257701383e+01 0 0 0
907 2 1.2305000000000001e+00 2.1312885187134998e+00 3.3330395257701383e+01 0 0 0
908 2 2.4610000000000003e+00 2.8417180249513345e+00 3.3330395257701383e+01 0 0 0
909 2 2.4610000000000003e+00 0.0000000000000000e+00 3.3330395257701383e+01 0 0 0
910 2 3.6915000000000004e+00 7.1042950623783474e-01 3.3330395257701383e+01 0 0 0
918 2 3.6914999999999996e+00 2.1312885187134998e+00 3.3330395257701383e+01 0 0 0
607 2 4.9220000000000006e+00 1.4208590124756650e+00 3.0031000000001320e+01 0 0 0
609 2 4.9220000000000006e+00 0.0000000000000000e+00 3.0031000000001320e+01 0 0 0
634 2 6.1524999999999999e+00 2.1312885187134989e+00 3.0031000000001320e+01 0 0 0
636 2 7.3829999999999991e+00 1.4208590124756659e+00 3.0031000000001320e+01 0 0 0
638 2 7.3829999999999991e+00 0.0000000000000000e+00 3.0031000000001320e+01 0 0 0
671 2 8.6134999999999984e+00 2.1312885187135002e+00 3.0031000000001320e+01 0 0 0
632 2 6.1524999999999999e+00 3.5521475311891644e+00 3.0031000000001320e+01 0 0 0
669 2 8.6134999999999984e+00 3.5521475311891657e+00 3.0031000000001320e+01 0 0 0
919 2 4.9220000000000006e+00 2.8417180249513332e+00 3.3330395257701383e+01 0 0 0
920 2 4.9220000000000006e+00 0.0000000000000000e+00 3.3330395257701383e+01 0 0 0
921 2 6.1524999999999999e+00 7.1042950623783407e-01 3.3330395257701383e+01 0 0 0
933 2 6.1524999999999999e+00 2.1312885187134989e+00 3.3330395257701383e+01 0 0 0
934 2 7.3829999999999991e+00 2.8417180249513345e+00 3.3330395257701383e+01 0 0 0
935 2 7.3829999999999991e+00 0.0000000000000000e+00 3.3330395257701383e+01 0 0 0
936 2 8.6134999999999984e+00 7.1042950623783407e-01 3.3330395257701383e+01 0 0 0
952 2 8.6134999999999984e+00 2.1312885187135002e+00 3.3330395257701383e+01 0 0 0
578 2 0.0000000000000000e+00 5.6834360499026637e+00 3.0031000000001320e+01 0 0 0
580 2 0.0000000000000000e+00 4.2625770374269996e+00 3.0031000000001320e+01 0 0 0
597 2 1.2305000000000001e+00 6.3938655561404980e+00 3.0031000000001320e+01 0 0 0
599 2 2.4610000000000003e+00 5.6834360499026637e+00 3.0031000000001320e+01 0 0 0
601 2 2.4610000000000003e+00 4.2625770374269996e+00 3.0031000000001320e+01 0 0 0
626 2 3.6914999999999996e+00 6.3938655561404980e+00 3.0031000000001320e+01 0 0 0
595 2 1.2305000000000001e+00 7.8147245686161639e+00 3.0031000000001320e+01 0 0 0
624 2 3.6914999999999996e+00 7.8147245686161639e+00 3.0031000000001320e+01 0 0 0
905 2 0.0000000000000000e+00 4.2625770374269996e+00 3.3330395257701383e+01 0 0 0
906 2 1.2305000000000001e+00 4.9730065436648339e+00 3.3330395257701383e+01 0 0 0
914 2 1.2305000000000001e+00 6.3938655561404980e+00 3.3330395257701383e+01 0 0 0
916 2 2.4610000000000003e+00 4.2625770374269996e+00 3.3330395257701383e+01 0 0 0
917 2 3.6914999999999996e+00 4.9730065436648339e+00 3.3330395257701383e+01 0 0 0
929 2 3.6914999999999996e+00 6.3938655561404980e+00 3.3330395257701383e+01 0 0 0
904 2 0.0000000000000000e+00 7.1042950623783341e+00 3.3330395257701383e+01 0 0 0
915 2 2.4610000000000003e+00 7.1042950623783341e+00 3.3330395257701383e+01 0 0 0
628 2 4.9220000000000006e+00 5.6834360499026637e+00 3.0031000000001320e+01 0 0 0
630 2 4.9220000000000006e+00 4.2625770374269978e+00 3.0031000000001320e+01 0 0 0
663 2 6.1524999999999999e+00 6.3938655561404980e+00 3.0031000000001320e+01 0 0 0
665 2 7.3829999999999991e+00 5.6834360499026637e+00 3.0031000000001320e+01 0 0 0
667 2 7.3829999999999991e+00 4.2625770374269996e+00 3.0031000000001320e+01 0 0 0
708 2 8.6135000000000002e+00 6.3938655561404980e+00 3.0031000000001320e+01 0 0 0
661 2 6.1524999999999999e+00 7.8147245686161639e+00 3.0031000000001320e+01 0 0 0
706 2 8.6135000000000002e+00 7.8147245686161639e+00 3.0031000000001320e+01 0 0 0
931 2 4.9220000000000006e+00 4.2625770374269978e+00 3.3330395257701383e+01 0 0 0
932 2 6.1524999999999999e+00 4.9730065436648339e+00 3.3330395257701383e+01 0 0 0
948 2 6.1524999999999999e+00 6.3938655561404980e+00 3.3330395257701383e+01 0 0 0
950 2 7.3829999999999991e+00 4.2625770374269996e+00 3.3330395257701383e+01 0 0 0
951 2 8.6135000000000002e+00 4.9730065436648339e+00 3.3330395257701383e+01 0 0 0
971 2 8.6135000000000002e+00 6.3938655561404980e+00 3.3330395257701383e+01 0 0 0
930 2 4.9220000000000006e+00 7.1042950623783341e+00 3.3330395257701383e+01 0 0 0
949 2 7.3830000000000009e+00 7.1042950623783341e+00 3.3330395257701383e+01 0 0 0
591 2 0.0000000000000000e+00 9.9460130873296642e+00 3.0031000000001320e+01 0 0 0
593 2 0.0000000000000000e+00 8.5251540748539991e+00 3.0031000000001320e+01 0 0 0
620 2 2.4610000000000003e+00 9.9460130873296642e+00 3.0031000000001320e+01 0 0 0
622 2 2.4610000000000003e+00 8.5251540748539991e+00 3.0031000000001320e+01 0 0 0
616 2 1.2305000000000001e+00 1.2077301606043163e+01 3.0031000000001320e+01 0 0 0
618 2 1.2305000000000001e+00 1.0656442593567498e+01 3.0031000000001320e+01 0 0 0
653 2 3.6914999999999996e+00 1.2077301606043163e+01 3.0031000000001320e+01 0 0 0
655 2 3.6914999999999996e+00 1.0656442593567499e+01 3.0031000000001320e+01 0 0 0
912 2 0.0000000000000000e+00 8.5251540748539991e+00 3.3330395257701383e+01 0 0 0
913 2 1.2305000000000001e+00 9.2355835810918343e+00 3.3330395257701383e+01 0 0 0
927 2 2.4610000000000003e+00 8.5251540748539991e+00 3.3330395257701383e+01 0 0 0
928 2 3.6915000000000004e+00 9.2355835810918343e+00 3.3330395257701383e+01 0 0 0
911 2 0.0000000000000000e+00 1.1366872099805333e+01 3.3330395257701383e+01 0 0 0
925 2 1.2305000000000001e+00 1.0656442593567498e+01 3.3330395257701383e+01 0 0 0
926 2 2.4610000000000003e+00 1.1366872099805333e+01 3.3330395257701383e+01 0 0 0
944 2 3.6914999999999996e+00 1.0656442593567499e+01 3.3330395257701383e+01 0 0 0
657 2 4.9220000000000006e+00 9.9460130873296642e+00 3.0031000000001320e+01 0 0 0
659 2 4.9220000000000006e+00 8.5251540748539991e+00 3.0031000000001320e+01 0 0 0
702 2 7.3830000000000009e+00 9.9460130873296642e+00 3.0031000000001320e+01 0 0 0
704 2 7.3830000000000009e+00 8.5251540748539991e+00 3.0031000000001320e+01 0 0 0
698 2 6.1524999999999999e+00 1.2077301606043163e+01 3.0031000000001320e+01 0 0 0
700 2 6.1524999999999999e+00 1.0656442593567499e+01 3.0031000000001320e+01 0 0 0
745 2 8.6135000000000002e+00 1.2077301606043163e+01 3.0031000000001320e+01 0 0 0
747 2 8.6134999999999984e+00 1.0656442593567498e+01 3.0031000000001320e+01 0 0 0
946 2 4.9220000000000006e+00 8.5251540748539991e+00 3.3330395257701383e+01 0 0 0
947 2 6.1524999999999999e+00 9.2355835810918343e+00 3.3330395257701383e+01 0 0 0
969 2 7.3830000000000009e+00 8.5251540748539991e+00 3.3330395257701383e+01 0 0 0
970 2 8.6134999999999984e+00 9.2355835810918343e+00 3.3330395257701383e+01 0 0 0
945 2 4.9220000000000006e+00 1.1366872099805333e+01 3.3330395257701383e+01 0 0 0
967 2 6.1524999999999999e+00 1.0656442593567499e+01 3.3330395257701383e+01 0 0 0
968 2 7.3829999999999991e+00 1.1366872099805333e+01 3.3330395257701383e+01 0 0 0
991 2 8.6134999999999984e+00 1.0656442593567498e+01 3.3330395257701383e+01 0 0 0
614 2 0.0000000000000000e+00 1.2787731112280996e+01 3.0031000000001320e+01 0 0 0
651 2 2.4610000000000003e+00 1.2787731112280996e+01 3.0031000000001320e+01 0 0 0
612 2 0.0000000000000000e+00 1.4208590124756663e+01 3.0031000000001320e+01 0 0 0
647 2 1.2305000000000001e+00 1.4919019630994494e+01 3.0031000000001320e+01 0 0 0
649 2 2.4610000000000003e+00 1.4208590124756663e+01 3.0031000000001320e+01 0 0 0
692 2 3.6915000000000004e+00 1.4919019630994494e+01 3.0031000000001320e+01 0 0 0
923 2 0.0000000000000000e+00 1.2787731112280996e+01 3.3330395257701383e+01 0 0 0
924 2 1.2305000000000001e+00 1.3498160618518829e+01 3.3330395257701383e+01 0 0 0
942 2 2.4610000000000003e+00 1.2787731112280996e+01 3.3330395257701383e+01 0 0 0
943 2 3.6915000000000004e+00 1.3498160618518829e+01 3.3330395257701383e+01 0 0 0
922 2 0.0000000000000000e+00 1.5629449137232333e+01 3.3330395257701383e+01 0 0 0
940 2 1.2305000000000001e+00 1.4919019630994494e+01 3.3330395257701383e+01 0 0 0
941 2 2.4610000000000003e+00 1.5629449137232328e+01 3.3330395257701383e+01 0 0 0
963 2 3.6915000000000004e+00 1.4919019630994494e+01 3.3330395257701383e+01 0 0 0
696 2 4.9220000000000006e+00 1.2787731112280996e+01 3.0031000000001320e+01 0 0 0
743 2 7.3829999999999991e+00 1.2787731112280996e+01 3.0031000000001320e+01 0 0 0
694 2 4.9220000000000006e+00 1.4208590124756663e+01 3.0031000000001320e+01 0 0 0
739 2 6.1524999999999990e+00 1.4919019630994494e+01 3.0031000000001320e+01 0 0 0
741 2 7.3830000000000009e+00 1.4208590124756663e+01 3.0031000000001320e+01 0 0 0
786 2 8.6135000000000002e+00 1.4919019630994494e+01 3.0031000000001320e+01 0 0 0
965 2 4.9220000000000006e+00 1.2787731112280996e+01 3.3330395257701383e+01 0 0 0
966 2 6.1524999999999990e+00 1.3498160618518829e+01 3.3330395257701383e+01 0 0 0
989 2 7.3829999999999991e+00 1.2787731112280996e+01 3.3330395257701383e+01 0 0 0
990 2 8.6135000000000002e+00 1.3498160618518835e+01 3.3330395257701383e+01 0 0 0
964 2 4.9220000000000006e+00 1.5629449137232333e+01 3.3330395257701383e+01 0 0 0
987 2 6.1524999999999990e+00 1.4919019630994494e+01 3.3330395257701383e+01 0 0 0
988 2 7.3829999999999991e+00 1.5629449137232333e+01 3.3330395257701383e+01 0 0 0
1011 2 8.6135000000000002e+00 1.4919019630994494e+01 3.3330395257701383e+01 0 0 0
6099 1 2.7025213771533036e+00 3.8276587149990546e+00 3.6119240569345365e+01 -1 1 0
5026 1 4.3560660192834062e+00 3.2315144874018698e+00 3.8728716474629529e+01 0 2 -1
2180 1 6.2905077952890642e-01 2.2435565832180235e+00 3.6182118622628508e+01 0 0 -1
1757 1 6.5966436868795348e+00 3.5549006574192571e-01 3.6378416653251385e+01 -2 1 0
509 1 5.6078961553117086e+00 2.9838994809169122e+00 3.6217713091390081e+01 1 -1 0
3647 1 9.6776752904850287e+00 8.5044286567245120e+00 3.5925101706934157e+01 1 -1 -1
4491 1 1.4676286323193524e+00 1.4814293104651314e+01 3.6025970975227999e+01 0 -1 0
1508 1 9.1152494836210742e+00 3.5697806262000791e+00 3.8782304561683993e+01 0 0 0
5093 1 6.5501142052366212e+00 1.5144607990444069e+01 3.5890437116615956e+01 -2 -1 0
2867 1 1.9226542518150764e+00 6.7224090091109838e+00 3.8883639520970874e+01 1 -1 0
260 1 2.1942299918333208e+00 6.3550294847831266e+00 3.6313317543139647e+01 1 -1 -1
5090 1 6.4494997086375943e+00 1.4632201765334834e+01 3.8592328317100176e+01 -1 0 0
1917 1 8.0039252912411722e+00 4.2989939354039510e+00 3.6182968436448107e+01 1 0 -1
3187 1 6.5130096566163767e+00 7.1656750454837370e+00 3.8946535514619782e+01 -2 2 0
5399 1 7.3440533751507280e+00 7.0790862990763221e+00 3.5976364755375030e+01 -1 0 -1
1858 1 4.2230588670413516e+00 1.5658144662718028e+01 3.9451914538381153e+01 0 1 -1
153 1 1.9215326122978864e+00 1.2115709065234368e+01 3.5664586075047055e+01 2 2 0
4650 1 6.4809083098447440e+00 1.2391374028494004e+01 3.5561704025918381e+01 0 -1 0
3671 1 1.7795081969945210e+00 1.4917320825880408e+01 3.8939926871669854e+01 2 1 -1
1763 1 4.5733214394537809e+00 7.8335450049299320e+00 3.6034063455865542e+01 0 2 0
2952 1 4.2621136570719989e+00 1.1020854156051715e+01 3.8824262159808342e+01 0 -2 0
3274 1 4.2692047113405147e+00 1.0641164656604628e+01 3.6108664606496255e+01 4 0 -1
339 1 9.0073808891495339e+00 1.1139131299840441e+01 3.9169636354916129e+01 0 -1 -1
5115 1 8.9941913648024467e+00 1.1165572249637993e+01 3.6374549952990577e+01 -1 4 -1
1736 1 3.8696019434627456e+00 1.6330031174569108e+01 3.5800137665383915e+01 5 0 0
3344 1 4.2043860452123401e+00 8.4816071790964163e+00 3.9432678301679083e+01 -3 -1 0
5035 1 9.0482351863489860e+00 8.2890661786715079e+00 3.9587167475832885e+01 -2 0 -1
501 1 1.8954437879762445e+00 1.2028829558994365e+01 3.9575690952268538e+01 0 2 -1
4810 1 2.2814130914488828e-01 7.7131155661551425e+00 3.5575026051706651e+01 1 0 0
1848 1 1.7227757441728377e+00 4.2404795336052699e+00 3.9609545553922992e+01 -2 3 -1
4761 1 6.7207466233209541e+00 4.7146860516979370e+00 3.9784060583790875e+01 2 -1 -1
3612 1 4.2030600824606523e+00 3.5181901979744934e+00 4.3342930771281715e+01 0 -2 -1
3723 1 4.2112002610812924e+00 8.7031618827013013e-01 4.2593932030885973e+01 0 -2 -1
2923 1 6.4935363924191956e+00 4.4098358355853406e-02 4.3553521774695369e+01 -3 2 -1
5394 1 8.9967686950438566e+00 9.2698866117586265e-01 4.2632570968909370e+01 3 -1 0
2075 1 9.1020014615584888e+00 3.7486836244945865e+00 4.3417687394486400e+01 0 1 -1
5321 1 2.0159382514118147e+00 4.6987304004225185e+00 4.2507390359737123e+01 2 1 -1
496 1 2.2682021455473578e+00 7.3006312003416607e+00 4.3324536158123038e+01 0 -1 0
1689 1 8.7211738297535319e+00 1.5822749131306615e+01 4.2763660375737935e+01 -3 0 -1
468 1 6.6617657796022582e+00 4.5973417160838315e+00 4.2581909161036435e+01 -1 0 -1
3614 1 6.7658717299302769e+00 7.3624614616067516e+00 4.3323986426864643e+01 0 1 0
4949 1 4.6058553412058370e+00 1.5797643024220164e+01 4.7244059613683071e+01 2 1 -1
5328 1 4.3690029869353300e+00 8.5107588048339000e+00 4.2116955017046863e+01 2 1 0
4990 1 3.9530969642176514e+00 1.1020075470684894e+01 4.3720795295357846e+01 2 -1 -1
3264 1 1.7495034673811878e+00 1.1821138686578360e+01 4.2406584478199321e+01 2 1 -1
5306 1 9.0312576775700801e+00 1.6218856450996956e+01 4.7149829928711725e+01 0 -1 0
6141 1 9.2790862127891742e+00 8.2996994142603846e+00 4.2331401767559122e+01 1 -3 0
1431 1 9.0110134943888092e+00 1.0779050645600867e+01 4.3578524751345114e+01 -1 1 0
5374 1 6.4817193809893379e+00 1.2039684768728518e+01 4.2654831023791331e+01 3 -2 -1
121 1 1.9209830633157647e+00 1.4253953609620831e+01 4.3378633616229564e+01 1 0 0
5205 1 4.4239990519547545e+00 1.5703499183885226e+01 4.2256829648685425e+01 3 -1 -1
6282 1 6.7637496668331005e+00 1.4781264257258121e+01 4.6455625365983629e+01 1 -2 0
5224 1 6.5823682682610398e+00 1.4444202283242266e+01 4.3895026197669324e+01 1 1 -1
1379 1 3.9805305477292841e+00 3.6685729267630300e+00 4.6133432525033349e+01 1 2 0
6374 1 4.6287275529976215e+00 1.0310992988444823e+00 4.7103266267129058e+01 2 2 -1
2927 1 8.7955508939908622e+00 1.3497575354813776e+00 4.7178400956080161e+01 -1 0 0