LAMMPS data file via write_data, version 16 Mar 2018, timestep = 100000

6489 atoms
2 atom types

0.0000000000000000e+00 4.9219999999999999e+01 xlo xhi
0.0000000000000000e+00 4.9019635930410494e+01 ylo yhi
2.0225672373924048e+00 5.8039432762608264e+01 zlo zhi

Masses

1 18.015
2 12.01

Atoms # atomic

357 1 4.1003210157137762e+00 3.1414472407895984e+00 4.5778343286924725e+00 0 0 0
4691 1 2.3949405514087232e+00 8.1737665801814885e-01 4.8069974831257039e+00 1 0 1
1303 1 3.0230364013533411e+00 5.4655092371070539e+00 1.0744162703440551e+01 1 0 1
6287 1 8.2405146857582690e+00 2.5496695051173228e+00 4.7865817198074083e+00 0 1 1
1809 1 6.3985469391062653e+00 2.4972195947720337e+00 2.5933612152023895e+00 0 1 0
516 1 1.5595076529319762e+00 5.6035904786802044e+00 2.5265936452328224e+00 0 0 1
3383 1 8.1462023004628517e+00 1.4247291993506146e+01 2.6190719803654874e+00 1 0 0
2171 1 4.9492027193979595e+00 7.7756859319738005e+00 6.1865535859182996e+00 0 1 0
4502 1 1.7927276269983026e+00 8.4676037913511433e+00 2.9382546928042093e+00 1 1 0
3507 1 2.6562850328002536e+00 1.4146771780069292e+01 1.0384292541821585e+01 1 -1 0
3639 1 7.6677984982429370e+00 4.3329171880744060e+00 6.7008769163111435e+00 1 0 0
1534 1 4.4670542249350840e+00 1.0907526897013481e+01 2.9532519293391148e+00 1 0 1
377 1 4.0170026416665303e+00 1.2124628888678965e+01 9.0986463464308489e+00 1 0 0
3565 1 9.3662562010947035e+00 1.1829895793296862e+01 3.4606923217011167e+00 0 0 1
5178 1 6.5025946625543130e+00 1.5338536102114046e+01 6.6053643752697404e+00 1 1 0
2065 1 7.0084577146007838e+00 7.8137532053234375e+00 4.5229664193569112e+00 1 0 0
1611 1 4.0987013092483151e+00 1.4989552880363343e+01 3.0073472329433812e+00 0 1 1
3528 1 2.4416521474916593e+00 1.3052604702908051e+01 7.1744813783601282e+00 1 -1 0
3348 1 4.4423336749801851e-01 1.4882518584781517e+01 9.1008952373271583e+00 1 0 1
252 1 4.6850711085993781e+00 1.1478841846313154e+01 5.6750446768598195e+00 0 0 0
2143 1 7.2744011076672166e+00 1.0486252151002175e+01 5.0469058118067256e+00 0 1 1
4652 1 6.4323392765241838e+00 1.2655145359345592e+01 7.5876634177913678e+00 0 1 1
3461 1 5.6888963069143310e+00 1.1631553294185647e-01 7.3511851483839923e+00 0 1 0
5100 1 9.5877045035738782e+00 2.8530863982209920e+00 8.6595935525958918e+00 1 1 0
1485 1 7.0231762738891765e+00 3.4416452817541634e+00 1.0125382973248737e+01 0 0 1
2992 1 4.2804958983277658e-01 1.5162606875812839e+01 4.7215725276388127e+00 1 0 1
1815 1 2.8321860098371197e+00 2.5362898841864041e+00 1.0208991715475037e+01 1 1 0
3536 1 2.8536090246457491e+00 9.4213103931746378e+00 5.3941878712497404e+00 0 0 0
3488 1 5.0862247766623847e+00 2.4709499800024086e+00 8.4916354450033449e+00 0 0 0
4937 1 7.5549338981303462e+00 1.3326592451318229e+01 9.9556819060122557e+00 0 1 0
1995 1 3.1115977261503005e+00 1.5074081556370686e+01 5.4094500071197187e+00 1 0 0
5271 1 5.6784940405992099e+00 5.7260936471358113e+00 9.6338062321336047e+00 0 0 0
4831 1 6.8401294834353861e+00 1.5743302014384504e+01 1.0350199131075561e+01 1 0 0
432 1 4.9924991016388898e+00 4.7481189218644877e+00 6.6924403763894311e+00 1 0 0
129 1 4.4278149909124673e+00 1.6153993670929513e+01 9.6394691884016694e+00 1 -1 0
317 1 9.0017171390037838e+00 6.5404368700412983e+00 5.5451542623227921e+00 1 0 0
1654 1 2.2446853986701010e+00 1.0002473729923008e+01 9.6256808857095848e+00 0 1 0
3286 1 5.3583036874158028e+00 8.4880486860945723e+00 8.9867492790504979e+00 1 0 0
5136 1 8.9673851585686215e+00 1.0536164321744110e+01 7.4900564476762064e+00 1 0 0
6385 1 7.7651950660161742e+00 9.2658392945551995e+00 9.9971214510246682e+00 0 1 0
355 1 7.4748574088986230e-01 9.9261450247760088e+00 7.2023549615502676e+00 0 0 0
1369 1 4.5870725557782316e-01 1.0151347369810444e+00 1.1154388608991413e+01 0 1 1
6306 1 6.5789532489764415e+00 1.5797078801948411e+01 4.0508969630022591e+00 1 -1 1
4929 1 9.1935845596080634e-01 1.4041290311897047e+01 2.0262387998192404e+00 0 -1 0
1664 1 8.1340971288305024e+00 1.2353297293388830e-01 6.2702445652620753e+00 1 0 0
55 1 9.6734941199431326e+00 1.3592732058107754e-02 8.5176798144052093e+00 0 1 0
5038 1 2.5215761379838408e+00 6.5401445979481665e-02 2.2097723203547748e+00 -1 0 1
125 1 8.9833259113631847e+00 1.6153845638984983e+01 6.5699018195279395e+00 1 0 0
5039 1 3.8147859749106821e+00 4.5542981827647546e+00 2.1922910485259921e+00 1 1 1
5064 1 8.5447744038982520e+00 6.5772455864337989e+00 1.8396565583488936e+01 1 1 0
1784 1 5.9253396107021219e+00 4.9124925803360564e-01 1.5770694972281492e+01 0 0 0
286 1 2.3413140675397517e+00 8.6992230520596063e+00 1.3877506132780955e+01 0 0 0
4494 1 7.2972717713780777e-01 2.9220383832175214e+00 1.5879349162916911e+01 0 1 1
3183 1 4.2466964400681180e+00 5.0835230039713215e+00 1.7515255952264766e+01 0 0 1
2911 1 2.7574524797845594e+00 6.1203721081092892e+00 1.5164930518500928e+01 0 1 1
1823 1 5.6724527744585673e+00 6.3646306207075174e+00 1.4804904823844423e+01 0 1 1
95 1 4.1410201242156477e+00 1.0913560174317389e+01 1.4264831129130300e+01 0 1 1
9 1 7.5728197474764603e+00 6.5588436011252131e+00 1.1723839789199655e+01 1 0 1
5345 1 4.3370278275046834e+00 1.3695444730649164e+01 1.5171923198812546e+01 1 1 0
1463 1 6.2631456278240005e+00 1.0135964062937457e+01 1.6268241145115518e+01 0 0 0
6215 1 6.7079478373399244e+00 1.3013180128373975e+01 1.6842366065191534e+01 0 0 1
2085 1 1.9898307900124639e+00 1.4109680858417976e+01 1.3073198503912574e+01 1 0 0
175 1 5.5152283252130667e+00 6.3430996055028743e-01 1.9972747968224407e+01 1 2 0
3222 1 6.1327151118363608e+00 8.3547906500883773e+00 1.3190377451066094e+01 0 1 1
3711 1 6.5043828776303299e+00 1.2529667194544267e+01 2.0275685656056012e+01 0 1 0
6288 1 8.3744818249935271e+00 1.2778162357189766e+01 1.3969938786979968e+01 0 1 1
3641 1 2.0494488593454045e+00 2.2068354999235802e+00 2.0256483651540726e+01 1 1 1
304 1 1.9312890398484153e+00 4.1150129027260904e+00 1.8288156334210267e+01 1 0 1
4896 1 3.9357612225536509e+00 1.3701726776095413e+00 1.3053275845458668e+01 1 0 0
5393 1 6.7585271833230216e+00 1.7549763766860740e+00 1.2321764689452015e+01 1 1 0
3012 1 1.3889094453203719e+00 7.9355739380572421e-01 1.4266587804085155e+01 0 1 1
5165 1 5.9424457176760681e+00 2.5203382363283797e+00 1.7791913973671026e+01 0 1 0
3375 1 7.2359863674328455e+00 3.8030062277895631e+00 1.4102451535966251e+01 1 -1 0
3151 1 2.8408139770629670e-01 1.1935871799172721e+01 1.7509345329191103e+01 0 -1 1
5233 1 6.1145869461292088e+00 4.7861815772900620e+00 2.0168219588873683e+01 0 1 0
6239 1 9.1540047775491793e+00 1.1392704530023876e+01 1.1396029893202082e+01 0 0 1
208 1 1.0068436785907067e+00 7.7317480189935175e+00 1.7102772556057211e+01 1 0 0
1518 1 2.2324757506628661e+00 3.9400704051197315e+00 1.3328795739155231e+01 0 1 0
5303 1 6.2121285675384952e+00 7.3813940080774705e+00 1.7661623054840316e+01 0 1 0
4911 1 5.2827633606169115e+00 1.6063255062147014e+01 1.6270300935062831e+01 1 0 1
3212 1 2.3398659172594849e+00 1.0364999466562557e+01 1.6603365664450973e+01 1 0 1
3547 1 4.3253123055356202e+00 1.1308589794636093e+01 1.8546334176331001e+01 0 0 0
6407 1 8.8248016565150884e+00 6.2230335547340067e-02 1.2488834235863331e+01 0 1 0
5172 1 4.9736449375551262e+00 8.8071999103928764e+00 1.9682911180974173e+01 1 -1 0
3178 1 9.0345852237222406e+00 1.2420601415042126e+01 1.8578844749787493e+01 0 0 1
3548 1 4.6378579970237294e-01 1.4728884520261012e+01 1.6196140316601323e+01 1 0 0
2032 1 2.5391234294820695e+00 1.3557326974459826e+01 1.8700020566454281e+01 1 0 0
3063 1 8.1521297411544946e+00 1.0081187606647825e+01 1.4038150379121719e+01 0 1 0
454 1 8.3883138733083005e+00 3.6843030667488779e+00 1.8267899302808612e+01 0 1 1
4838 1 2.1626822642453307e+00 7.7471981854175684e+00 1.9565300345520168e+01 1 0 1
5087 1 6.4015355134665084e+00 1.4850758755823902e+01 1.3354530046012462e+01 1 -1 1
5005 1 7.5816481141446062e+00 1.5674628366634616e+01 1.8000061232925457e+01 1 0 0
4826 1 5.5085395498736593e+00 1.2206252684577478e+01 1.1901183254902483e+01 0 0 1
3615 1 9.5428544408743079e+00 5.4086459587843532e+00 1.3815835789386114e+01 0 1 0
5139 1 3.8602331111382515e+00 8.3958601005485658e+00 1.1521758404733934e+01 1 1 0
1633 1 5.2899574235516855e+00 2.1257816858051957e+00 2.4589433277850965e+01 0 1 1
3651 1 4.1273883735210450e+00 3.2642655593682717e+00 2.1962244094935055e+01 0 0 0
742 2 7.3829999999999991e+00 1.2787731112280996e+01 2.6876351414767036e+01 0 0 0
1847 1 7.4450212171415266e+00 3.7854292208458564e+00 2.4225357101742294e+01 0 0 1
4869 1 8.6430950593556659e+00 3.1241567865303379e+00 2.1406383952042187e+01 0 0 1
693 2 4.9220000000000006e+00 1.5629449137232333e+01 2.6876351414767036e+01 0 0 0
3323 1 5.8181310341527692e-01 9.1642077419397392e+00 2.1355244541040491e+01 0 0 0
2010 1 2.7252418472355560e+00 3.4553173601313305e+00 2.4639801104037769e+01 0 1 0
421 1 3.9648067080804408e+00 8.1416654228525474e+00 2.4391244791239171e+01 1 1 0
6224 1 2.5240010452142787e+00 5.7420757187996934e+00 2.1710754403263135e+01 2 1 0
697 2 6.1524999999999990e+00 1.3498160618518829e+01 2.6876351414767036e+01 0 0 0
1269 1 1.9863145432945601e+00 1.3806984323217097e+01 2.1279541840474689e+01 2 1 1
2156 1 6.8899051710092731e+00 6.5289600883469978e+00 2.4040863135631454e+01 1 0 0
186 1 6.7136210195558776e+00 1.0228363836414822e+01 2.1745968821362300e+01 1 0 0
5349 1 1.9508144783617101e+00 6.2282906554855559e+00 2.4591384966220307e+01 2 0 0
1660 1 2.8573421387290354e+00 1.1075271799248991e+01 2.1325220736190982e+01 1 0 0
1992 1 3.7091529289344516e+00 1.0755311657895739e+01 2.4029301671980232e+01 0 0 0
6118 1 2.5392814994060928e+00 1.3464626516917635e+01 2.4449876037427753e+01 1 0 1
1819 1 9.1063494083678123e+00 9.2216213567391190e+00 2.1872881268684473e+01 0 0 1
217 1 7.1375106732709810e+00 8.0188099660809553e-01 2.2215353490527022e+01 1 0 0
744 2 8.6135000000000002e+00 1.3498160618518835e+01 2.6876351414767036e+01 0 0 0
5394 1 5.2190566441849100e+00 7.1267267402297483e+00 2.2002214812325743e+01 1 0 1
1688 1 9.5748404556799578e+00 1.1936031929346209e+01 2.4312386293403833e+01 1 1 0
695 2 4.9220000000000006e+00 1.2787731112280996e+01 2.6876351414767036e+01 0 0 0
3554 1 8.3777398628725308e+00 6.2461898957010309e+00 2.1370280248372442e+01 2 0 0
3452 1 5.0872290491928744e+00 1.4756823161072722e+01 2.4115351543809965e+01 1 1 0
5248 1 6.2925189412196616e+00 1.2009292539817599e+01 2.4027045740799181e+01 0 -1 0
572 2 0.0000000000000000e+00 2.8417180249513345e+00 2.6876351414767036e+01 0 0 0
574 2 0.0000000000000000e+00 0.0000000000000000e+00 2.6876351414767036e+01 0 0 0
576 2 1.2305000000000001e+00 7.1042950623783474e-01 2.6876351414767036e+01 0 0 0
583 2 1.2305000000000001e+00 2.1312885187134998e+00 2.6876351414767036e+01 0 0 0
585 2 2.4610000000000003e+00 2.8417180249513345e+00 2.6876351414767036e+01 0 0 0
587 2 2.4610000000000003e+00 0.0000000000000000e+00 2.6876351414767036e+01 0 0 0
589 2 3.6915000000000004e+00 7.1042950623783474e-01 2.6876351414767036e+01 0 0 0
604 2 3.6914999999999996e+00 2.1312885187134998e+00 2.6876351414767036e+01 0 0 0
606 2 4.9220000000000006e+00 2.8417180249513332e+00 2.6876351414767036e+01 0 0 0
608 2 4.9220000000000006e+00 0.0000000000000000e+00 2.6876351414767036e+01 0 0 0
610 2 6.1524999999999999e+00 7.1042950623783407e-01 2.6876351414767036e+01 0 0 0
633 2 6.1524999999999999e+00 2.1312885187134989e+00 2.6876351414767036e+01 0 0 0
635 2 7.3829999999999991e+00 2.8417180249513345e+00 2.6876351414767036e+01 0 0 0
637 2 7.3829999999999991e+00 0.0000000000000000e+00 2.6876351414767036e+01 0 0 0
639 2 8.6134999999999984e+00 7.1042950623783407e-01 2.6876351414767036e+01 0 0 0
670 2 8.6134999999999984e+00 2.1312885187135002e+00 2.6876351414767036e+01 0 0 0
579 2 0.0000000000000000e+00 4.2625770374269996e+00 2.6876351414767036e+01 0 0 0
581 2 1.2305000000000001e+00 4.9730065436648339e+00 2.6876351414767036e+01 0 0 0
596 2 1.2305000000000001e+00 6.3938655561404980e+00 2.6876351414767036e+01 0 0 0
600 2 2.4610000000000003e+00 4.2625770374269996e+00 2.6876351414767036e+01 0 0 0
602 2 3.6914999999999996e+00 4.9730065436648339e+00 2.6876351414767036e+01 0 0 0
625 2 3.6914999999999996e+00 6.3938655561404980e+00 2.6876351414767036e+01 0 0 0
577 2 0.0000000000000000e+00 7.1042950623783341e+00 2.6876351414767036e+01 0 0 0
598 2 2.4610000000000003e+00 7.1042950623783341e+00 2.6876351414767036e+01 0 0 0
629 2 4.9220000000000006e+00 4.2625770374269978e+00 2.6876351414767036e+01 0 0 0
631 2 6.1524999999999999e+00 4.9730065436648339e+00 2.6876351414767036e+01 0 0 0
662 2 6.1524999999999999e+00 6.3938655561404980e+00 2.6876351414767036e+01 0 0 0
666 2 7.3829999999999991e+00 4.2625770374269996e+00 2.6876351414767036e+01 0 0 0
668 2 8.6135000000000002e+00 4.9730065436648339e+00 2.6876351414767036e+01 0 0 0
707 2 8.6135000000000002e+00 6.3938655561404980e+00 2.6876351414767036e+01 0 0 0
627 2 4.9220000000000006e+00 7.1042950623783341e+00 2.6876351414767036e+01 0 0 0
664 2 7.3830000000000009e+00 7.1042950623783341e+00 2.6876351414767036e+01 0 0 0
592 2 0.0000000000000000e+00 8.5251540748539991e+00 2.6876351414767036e+01 0 0 0
594 2 1.2305000000000001e+00 9.2355835810918343e+00 2.6876351414767036e+01 0 0 0
621 2 2.4610000000000003e+00 8.5251540748539991e+00 2.6876351414767036e+01 0 0 0
623 2 3.6915000000000004e+00 9.2355835810918343e+00 2.6876351414767036e+01 0 0 0
590 2 0.0000000000000000e+00 1.1366872099805333e+01 2.6876351414767036e+01 0 0 0
617 2 1.2305000000000001e+00 1.0656442593567498e+01 2.6876351414767036e+01 0 0 0
619 2 2.4610000000000003e+00 1.1366872099805333e+01 2.6876351414767036e+01 0 0 0
654 2 3.6914999999999996e+00 1.0656442593567499e+01 2.6876351414767036e+01 0 0 0
658 2 4.9220000000000006e+00 8.5251540748539991e+00 2.6876351414767036e+01 0 0 0
660 2 6.1524999999999999e+00 9.2355835810918343e+00 2.6876351414767036e+01 0 0 0
703 2 7.3830000000000009e+00 8.5251540748539991e+00 2.6876351414767036e+01 0 0 0
705 2 8.6134999999999984e+00 9.2355835810918343e+00 2.6876351414767036e+01 0 0 0
656 2 4.9220000000000006e+00 1.1366872099805333e+01 2.6876351414767036e+01 0 0 0
699 2 6.1524999999999999e+00 1.0656442593567499e+01 2.6876351414767036e+01 0 0 0
701 2 7.3829999999999991e+00 1.1366872099805333e+01 2.6876351414767036e+01 0 0 0
746 2 8.6134999999999984e+00 1.0656442593567498e+01 2.6876351414767036e+01 0 0 0
652 2 3.6915000000000004e+00 1.3498160618518829e+01 2.6876351414767036e+01 0 0 0
650 2 2.4610000000000003e+00 1.2787731112280996e+01 2.6876351414767036e+01 0 0 0
611 2 0.0000000000000000e+00 1.5629449137232333e+01 2.6876351414767036e+01 0 0 0
646 2 1.2305000000000001e+00 1.4919019630994494e+01 2.6876351414767036e+01 0 0 0
648 2 2.4610000000000003e+00 1.5629449137232328e+01 2.6876351414767036e+01 0 0 0
691 2 3.6915000000000004e+00 1.4919019630994494e+01 2.6876351414767036e+01 0 0 0
613 2 0.0000000000000000e+00 1.2787731112280996e+01 2.6876351414767036e+01 0 0 0
615 2 1.2305000000000001e+00 1.3498160618518829e+01 2.6876351414767036e+01 0 0 0
740 2 7.3829999999999991e+00 1.5629449137232333e+01 2.6876351414767036e+01 0 0 0
738 2 6.1524999999999990e+00 1.4919019630994494e+01 2.6876351414767036e+01 0 0 0
785 2 8.6135000000000002e+00 1.4919019630994494e+01 2.6876351414767036e+01 0 0 0
5220 1 1.9554129112320887e-01 2.6665291344402577e+00 2.4423877677626404e+01 1 1 0
392 1 7.1038149196255738e+00 1.5156532697906350e+01 2.0851714246534719e+01 1 1 0
3653 1 9.8433753672121718e+00 1.4736909779279529e+01 2.1838191934879859e+01 0 0 0
3638 1 9.8009676030766411e+00 1.1842041792194395e+01 2.1362701120397411e+01 1 0 0
573 2 0.0000000000000000e+00 1.4208590124756650e+00 3.0031000000000653e+01 0 0 0
575 2 0.0000000000000000e+00 0.0000000000000000e+00 3.0031000000000653e+01 0 0 0
584 2 1.2305000000000001e+00 2.1312885187134998e+00 3.0031000000000653e+01 0 0 0
586 2 2.4610000000000003e+00 1.4208590124756650e+00 3.0031000000000653e+01 0 0 0
588 2 2.4610000000000003e+00 0.0000000000000000e+00 3.0031000000000653e+01 0 0 0
605 2 3.6914999999999996e+00 2.1312885187134998e+00 3.0031000000000653e+01 0 0 0
582 2 1.2305000000000001e+00 3.5521475311891644e+00 3.0031000000000653e+01 0 0 0
603 2 3.6914999999999996e+00 3.5521475311891644e+00 3.0031000000000653e+01 0 0 0
901 2 0.0000000000000000e+00 2.8417180249513345e+00 3.3185648585229593e+01 0 0 0
902 2 0.0000000000000000e+00 0.0000000000000000e+00 3.3185648585229593e+01 0 0 0
903 2 1.2305000000000001e+00 7.1042950623783474e-01 3.3185648585229593e+01 0 0 0
907 2 1.2305000000000001e+00 2.1312885187134998e+00 3.3185648585229593e+01 0 0 0
908 2 2.4610000000000003e+00 2.8417180249513345e+00 3.3185648585229593e+01 0 0 0
909 2 2.4610000000000003e+00 0.0000000000000000e+00 3.3185648585229593e+01 0 0 0
910 2 3.6915000000000004e+00 7.1042950623783474e-01 3.3185648585229593e+01 0 0 0
918 2 3.6914999999999996e+00 2.1312885187134998e+00 3.3185648585229593e+01 0 0 0
607 2 4.9220000000000006e+00 1.4208590124756650e+00 3.0031000000000653e+01 0 0 0
609 2 4.9220000000000006e+00 0.0000000000000000e+00 3.0031000000000653e+01 0 0 0
634 2 6.1524999999999999e+00 2.1312885187134989e+00 3.0031000000000653e+01 0 0 0
636 2 7.3829999999999991e+00 1.4208590124756659e+00 3.0031000000000653e+01 0 0 0
638 2 7.3829999999999991e+00 0.0000000000000000e+00 3.0031000000000653e+01 0 0 0
671 2 8.6134999999999984e+00 2.1312885187135002e+00 3.0031000000000653e+01 0 0 0
632 2 6.1524999999999999e+00 3.5521475311891644e+00 3.0031000000000653e+01 0 0 0
669 2 8.6134999999999984e+00 3.5521475311891657e+00 3.0031000000000653e+01 0 0 0
919 2 4.9220000000000006e+00 2.8417180249513332e+00 3.3185648585229593e+01 0 0 0
920 2 4.9220000000000006e+00 0.0000000000000000e+00 3.3185648585229593e+01 0 0 0
921 2 6.1524999999999999e+00 7.1042950623783407e-01 3.3185648585229593e+01 0 0 0
933 2 6.1524999999999999e+00 2.1312885187134989e+00 3.3185648585229593e+01 0 0 0
934 2 7.3829999999999991e+00 2.8417180249513345e+00 3.3185648585229593e+01 0 0 0
935 2 7.3829999999999991e+00 0.0000000000000000e+00 3.3185648585229593e+01 0 0 0
936 2 8.6134999999999984e+00 7.1042950623783407e-01 3.3185648585229593e+01 0 0 0
952 2 8.6134999999999984e+00 2.1312885187135002e+00 3.3185648585229593e+01 0 0 0
578 2 0.0000000000000000e+00 5.6834360499026637e+00 3.0031000000000653e+01 0 0 0
580 2 0.0000000000000000e+00 4.2625770374269996e+00 3.0031000000000653e+01 0 0 0
597 2 1.2305000000000001e+00 6.3938655561404980e+00 3.0031000000000653e+01 0 0 0
599 2 2.4610000000000003e+00 5.6834360499026637e+00 3.0031000000000653e+01 0 0 0
601 2 2.4610000000000003e+00 4.2625770374269996e+00 3.0031000000000653e+01 0 0 0
626 2 3.6914999999999996e+00 6.3938655561404980e+00 3.0031000000000653e+01 0 0 0
595 2 1.2305000000000001e+00 7.8147245686161639e+00 3.0031000000000653e+01 0 0 0
624 2 3.6914999999999996e+00 7.8147245686161639e+00 3.0031000000000653e+01 0 0 0
905 2 0.0000000000000000e+00 4.2625770374269996e+00 3.3185648585229593e+01 0 0 0
906 2 1.2305000000000001e+00 4.9730065436648339e+00 3.3185648585229593e+01 0 0 0
914 2 1.2305000000000001e+00 6.3938655561404980e+00 3.3185648585229593e+01 0 0 0
916 2 2.4610000000000003e+00 4.2625770374269996e+00 3.3185648585229593e+01 0 0 0
917 2 3.6914999999999996e+00 4.9730065436648339e+00 3.3185648585229593e+01 0 0 0
929 2 3.6914999999999996e+00 6.3938655561404980e+00 3.3185648585229593e+01 0 0 0
904 2 0.0000000000000000e+00 7.1042950623783341e+00 3.3185648585229593e+01 0 0 0
915 2 2.4610000000000003e+00 7.1042950623783341e+00 3.3185648585229593e+01 0 0 0
628 2 4.9220000000000006e+00 5.6834360499026637e+00 3.0031000000000653e+01 0 0 0
630 2 4.9220000000000006e+00 4.2625770374269978e+00 3.0031000000000653e+01 0 0 0
663 2 6.1524999999999999e+00 6.3938655561404980e+00 3.0031000000000653e+01 0 0 0
665 2 7.3829999999999991e+00 5.6834360499026637e+00 3.0031000000000653e+01 0 0 0
667 2 7.3829999999999991e+00 4.2625770374269996e+00 3.0031000000000653e+01 0 0 0
708 2 8.6135000000000002e+00 6.3938655561404980e+00 3.0031000000000653e+01 0 0 0
661 2 6.1524999999999999e+00 7.8147245686161639e+00 3.0031000000000653e+01 0 0 0
706 2 8.6135000000000002e+00 7.8147245686161639e+00 3.0031000000000653e+01 0 0 0
931 2 4.9220000000000006e+00 4.2625770374269978e+00 3.3185648585229593e+01 0 0 0
932 2 6.1524999999999999e+00 4.9730065436648339e+00 3.3185648585229593e+01 0 0 0
948 2 6.1524999999999999e+00 6.3938655561404980e+00 3.3185648585229593e+01 0 0 0
950 2 7.3829999999999991e+00 4.2625770374269996e+00 3.3185648585229593e+01 0 0 0
951 2 8.6135000000000002e+00 4.9730065436648339e+00 3.3185648585229593e+01 0 0 0
971 2 8.6135000000000002e+00 6.3938655561404980e+00 3.3185648585229593e+01 0 0 0
930 2 4.9220000000000006e+00 7.1042950623783341e+00 3.3185648585229593e+01 0 0 0
949 2 7.3830000000000009e+00 7.1042950623783341e+00 3.3185648585229593e+01 0 0 0
591 2 0.0000000000000000e+00 9.9460130873296642e+00 3.0031000000000653e+01 0 0 0
593 2 0.0000000000000000e+00 8.5251540748539991e+00 3.0031000000000653e+01 0 0 0
620 2 2.4610000000000003e+00 9.9460130873296642e+00 3.0031000000000653e+01 0 0 0
622 2 2.4610000000000003e+00 8.5251540748539991e+00 3.0031000000000653e+01 0 0 0
616 2 1.2305000000000001e+00 1.2077301606043163e+01 3.0031000000000653e+01 0 0 0
618 2 1.2305000000000001e+00 1.0656442593567498e+01 3.0031000000000653e+01 0 0 0
653 2 3.6914999999999996e+00 1.2077301606043163e+01 3.0031000000000653e+01 0 0 0
655 2 3.6914999999999996e+00 1.0656442593567499e+01 3.0031000000000653e+01 0 0 0
912 2 0.0000000000000000e+00 8.5251540748539991e+00 3.3185648585229593e+01 0 0 0
913 2 1.2305000000000001e+00 9.2355835810918343e+00 3.3185648585229593e+01 0 0 0
927 2 2.4610000000000003e+00 8.5251540748539991e+00 3.3185648585229593e+01 0 0 0
928 2 3.6915000000000004e+00 9.2355835810918343e+00 3.3185648585229593e+01 0 0 0
911 2 0.0000000000000000e+00 1.1366872099805333e+01 3.3185648585229593e+01 0 0 0
925 2 1.2305000000000001e+00 1.0656442593567498e+01 3.3185648585229593e+01 0 0 0
926 2 2.4610000000000003e+00 1.1366872099805333e+01 3.3185648585229593e+01 0 0 0
944 2 3.6914999999999996e+00 1.0656442593567499e+01 3.3185648585229593e+01 0 0 0
657 2 4.9220000000000006e+00 9.9460130873296642e+00 3.0031000000000653e+01 0 0 0
659 2 4.9220000000000006e+00 8.5251540748539991e+00 3.0031000000000653e+01 0 0 0
702 2 7.3830000000000009e+00 9.9460130873296642e+00 3.0031000000000653e+01 0 0 0
704 2 7.3830000000000009e+00 8.5251540748539991e+00 3.0031000000000653e+01 0 0 0
698 2 6.1524999999999999e+00 1.2077301606043163e+01 3.0031000000000653e+01 0 0 0
700 2 6.1524999999999999e+00 1.0656442593567499e+01 3.0031000000000653e+01 0 0 0
745 2 8.6135000000000002e+00 1.2077301606043163e+01 3.0031000000000653e+01 0 0 0
747 2 8.6134999999999984e+00 1.0656442593567498e+01 3.0031000000000653e+01 0 0 0
946 2 4.9220000000000006e+00 8.5251540748539991e+00 3.3185648585229593e+01 0 0 0
947 2 6.1524999999999999e+00 9.2355835810918343e+00 3.3185648585229593e+01 0 0 0
969 2 7.3830000000000009e+00 8.5251540748539991e+00 3.3185648585229593e+01 0 0 0
970 2 8.6134999999999984e+00 9.2355835810918343e+00 3.3185648585229593e+01 0 0 0
945 2 4.9220000000000006e+00 1.1366872099805333e+01 3.3185648585229593e+01 0 0 0
967 2 6.1524999999999999e+00 1.0656442593567499e+01 3.3185648585229593e+01 0 0 0
968 2 7.3829999999999991e+00 1.1366872099805333e+01 3.3185648585229593e+01 0 0 0
991 2 8.6134999999999984e+00 1.0656442593567498e+01 3.3185648585229593e+01 0 0 0
614 2 0.0000000000000000e+00 1.2787731112280996e+01 3.0031000000000653e+01 0 0 0
651 2 2.4610000000000003e+00 1.2787731112280996e+01 3.0031000000000653e+01 0 0 0
612 2 0.0000000000000000e+00 1.4208590124756663e+01 3.0031000000000653e+01 0 0 0
647 2 1.2305000000000001e+00 1.4919019630994494e+01 3.0031000000000653e+01 0 0 0
649 2 2.4610000000000003e+00 1.4208590124756663e+01 3.0031000000000653e+01 0 0 0
692 2 3.6915000000000004e+00 1.4919019630994494e+01 3.0031000000000653e+01 0 0 0
923 2 0.0000000000000000e+00 1.2787731112280996e+01 3.3185648585229593e+01 0 0 0
924 2 1.2305000000000001e+00 1.3498160618518829e+01 3.3185648585229593e+01 0 0 0
942 2 2.4610000000000003e+00 1.2787731112280996e+01 3.3185648585229593e+01 0 0 0
943 2 3.6915000000000004e+00 1.3498160618518829e+01 3.3185648585229593e+01 0 0 0
922 2 0.0000000000000000e+00 1.5629449137232333e+01 3.3185648585229593e+01 0 0 0
940 2 1.2305000000000001e+00 1.4919019630994494e+01 3.3185648585229593e+01 0 0 0
941 2 2.4610000000000003e+00 1.5629449137232328e+01 3.3185648585229593e+01 0 0 0
963 2 3.6915000000000004e+00 1.4919019630994494e+01 3.3185648585229593e+01 0 0 0
696 2 4.9220000000000006e+00 1.2787731112280996e+01 3.0031000000000653e+01 0 0 0
743 2 7.3829999999999991e+00 1.2787731112280996e+01 3.0031000000000653e+01 0 0 0
694 2 4.9220000000000006e+00 1.4208590124756663e+01 3.0031000000000653e+01 0 0 0
739 2 6.1524999999999990e+00 1.4919019630994494e+01 3.0031000000000653e+01 0 0 0
741 2 7.3830000000000009e+00 1.4208590124756663e+01 3.0031000000000653e+01 0 0 0
786 2 8.6135000000000002e+00 1.4919019630994494e+01 3.0031000000000653e+01 0 0 0
965 2 4.9220000000000006e+00 1.2787731112280996e+01 3.3185648585229593e+01 0 0 0
966 2 6.1524999999999990e+00 1.3498160618518829e+01 3.3185648585229593e+01 0 0 0
989 2 7.3829999999999991e+00 1.2787731112280996e+01 3.3185648585229593e+01 0 0 0
990 2 8.6135000000000002e+00 1.3498160618518835e+01 3.3185648585229593e+01 0 0 0
964 2 4.9220000000000006e+00 1.5629449137232333e+01 3.3185648585229593e+01 0 0 0
987 2 6.1524999999999990e+00 1.4919019630994494e+01 3.3185648585229593e+01 0 0 0
988 2 7.3829999999999991e+00 1.5629449137232333e+01 3.3185648585229593e+01 0 0 0
1011 2 8.6135000000000002e+00 1.4919019630994494e+01 3.3185648585229593e+01 0 0 0
6482 1 1.8364594547379429e+00 6.8361487621439543e-01 3.7951082397565685e+01 0 0 -1
6232 1 2.9468887479248465e+00 2.9935143763483265e+00 3.8249470467796769e+01 1 0 0
1686 1 5.7741770415220470e+00 2.7357174063515339e+00 3.8835080427545051e+01 0 2 0
4675 1 4.6854061836142966e+00 3.1812124883284243e+00 3.5723943973040278e+01 2 1 0
4674 1 1.4028808991411466e+00 1.3436744643864197e+01 3.8531241703176804e+01 0 0 0
6164 1 8.0360400839522441e+00 4.7397693972542028e+00 3.8954692253450133e+01 1 1 0
4881 1 3.8667053838942507e+00 5.7468117374913952e+00 3.9132798931424432e+01 0 1 0
1729 1 5.2966933571251307e-01 4.3950048979195060e+00 3.6519986794101314e+01 0 1 -1
3138 1 3.0349729519656914e+00 5.4456981940591502e+00 3.5817445047645052e+01 -1 1 0
156 1 8.1440949613188938e+00 9.0858078340505219e+00 3.9276764220765543e+01 1 0 -1
4962 1 6.8071513695050507e+00 4.9438873952093028e+00 3.5687980720963154e+01 1 -1 0
1512 1 5.7926488140412848e+00 7.5323511638615415e+00 3.6246695581989187e+01 0 0 0
3019 1 3.0121591177105853e+00 1.5978935224182194e+01 3.8894026442723444e+01 0 -1 0
5204 1 2.9348922464882672e+00 8.5394229177210548e+00 3.6660022817949212e+01 0 0 -1
6238 1 5.5857758839342937e+00 6.2867189268572721e-01 3.5673917282025386e+01 0 1 -1
487 1 4.0276030975641932e+00 1.1151689103353009e+01 3.5656409812342019e+01 0 1 0
2169 1 1.3421539036543589e-01 8.4621469075223814e+00 3.5913905600983057e+01 1 1 0
1453 1 7.8951728012596343e+00 9.3441968913059519e+00 3.6122611406374560e+01 0 0 0
216 1 7.0319409750340940e+00 1.1856373100763754e+01 3.5955044137448937e+01 0 1 0
6374 1 6.2803892329542572e+00 1.1394597726920644e+01 3.8910307965771665e+01 1 0 -1
1294 1 8.4374163595014000e+00 1.4512047978704249e+01 3.6256505866988036e+01 0 -1 0
3096 1 2.5264359959814850e+00 1.3490423235416960e+01 3.5923671573642252e+01 0 -1 0
2147 1 9.3005425285142298e+00 4.1961865900261603e+00 3.6185338928530399e+01 0 1 0
6256 1 6.3007006408973742e+00 6.8588383444885270e+00 3.8773691949021369e+01 1 0 -1
512 1 8.8483200391710497e+00 1.4626346599891898e+01 3.9086329220484117e+01 -1 0 0
3611 1 3.1288904114344129e+00 1.6330244915593983e+01 3.6082493179523738e+01 0 1 0
6470 1 2.6869760379271499e+00 8.5664009033055759e+00 3.9288405879226843e+01 0 1 0
1519 1 9.7789003058577375e+00 6.1946807640131389e+00 4.7355141090213792e+01 0 0 0
324 1 5.4625670470029535e+00 1.3666180311106883e+01 4.4885506419399732e+01 1 0 -1
76 1 1.3845814216826233e+00 1.2006841129973710e+01 4.7366875072076425e+01 0 1 -1
3484 1 8.6448903296410116e+00 2.7551063641151581e+00 4.0787527508509299e+01 1 0 -1
3154 1 5.5206373561550492e+00 1.0910775070450462e+00 4.3017963202962434e+01 0 1 0
506 1 3.4940721624773290e+00 4.8749599922585150e+00 4.4913123776275953e+01 1 0 -1
3364 1 6.0693010992937273e+00 5.6041737098215911e+00 4.3393785508077045e+01 0 1 -1
1424 1 7.5850960149562772e+00 7.5013027968561783e+00 4.5407816575762382e+01 0 0 0
567 1 7.0420976941776814e-01 2.7094478450437753e+00 4.4124901085744142e+01 1 0 0
2894 1 7.8501414843314468e+00 3.6587283252084490e+00 4.3457450548983275e+01 0 0 0
138 1 9.0440270385692596e+00 1.0124651439193906e+01 4.5480860970105198e+01 1 0 -1
6270 1 3.7266714312525755e+00 1.1986871222078452e+01 4.2200493373412030e+01 1 0 -1
2033 1 7.7984597324068989e+00 7.9727492436968399e+00 4.2513586141771313e+01 0 0 0
5189 1 8.0389711764231979e+00 1.0688257807497413e+01 4.2095711661013056e+01 1 -1 -1
2180 1 3.4683261535263874e+00 1.4810463726922775e+01 4.3246370623875791e+01 0 1 -1
3656 1 5.3318084327553708e+00 1.5498804214259721e+01 4.0965363338178960e+01 1 0 0
6281 1 6.9432017396276331e+00 1.3214986027300698e+01 4.0715131783688179e+01 1 1 -1
1981 1 1.6899056459168220e-02 1.0483447083300863e+00 4.1706557409487687e+01 1 1 -1
6222 1 7.6039623156555356e+00 2.0108040376506900e-01 4.5337289625729071e+01 0 1 0
202 1 6.9462966285238510e+00 4.6292009368474751e+00 4.7212883186118077e+01 0 1 -1
3261 1 2.7969816852721605e+00 1.8504852857329011e+00 4.5870876115518030e+01 1 -1 0
5221 1 4.9335636281812922e+00 3.0920283815663057e+00 4.1489357465148998e+01 1 0 0
1646 1 2.5703806947757633e+00 7.5866808942592980e+00 4.5851308120025038e+01 0 0 -1
1740 1 5.3372628081286289e+00 6.9174305590826961e+00 4.8152341679431245e+01 1 -1 -1
1287 1 1.2413724852564325e+00 8.1503878949678317e+00 4.3307528162820773e+01 1 0 0
6384 1 5.7954796317329853e+00 2.9158550180327505e+00 4.5504966300839484e+01 1 1 0
4663 1 4.0737447331909342e+00 1.1281458439777005e+01 4.7075454583888188e+01 0 1 0
1724 1 3.2406124772312470e+00 6.9936618898233114e+00 4.1817343241168956e+01 1 0 -1