LAMMPS data file via write_data, version 16 Mar 2018, timestep = 6000000

6337 atoms
2 atom types

0.0000000000000000e+00 4.9219999999999999e+01 xlo xhi
0.0000000000000000e+00 4.9019635930410494e+01 ylo yhi
1.8863745648048642e+00 5.8175625435187030e+01 zlo zhi

Masses

1 18.015
2 12.01

Atoms # atomic

6130 1 8.0317625315588326e-01 3.2802703392951993e+00 2.5619567415465276e+00 0 2 1
4426 1 9.0277802603799095e-01 3.6198539382484758e+00 5.2920165149797889e+00 0 0 1
3681 1 5.4272166246792741e+00 3.4857827930230867e+00 2.3308800456862766e+00 -2 3 1
3299 1 5.5284153946102110e+00 3.8072704525143326e+00 5.0983053565839800e+00 -1 2 0
3707 1 9.8564784806857286e+00 3.7897178664811704e+00 2.3842369053081733e+00 2 -2 2
371 1 9.9951654677749566e+00 3.3802970837844502e+00 5.2946306605148497e+00 0 0 0
3144 1 3.2000451879234464e+00 7.3799657604722668e+00 2.5454675169408123e+00 2 -1 1
5226 1 3.2515413727829299e+00 7.7689570173912204e+00 5.4286279416321914e+00 -1 4 0
130 1 7.7574966118332513e+00 7.6528809102867781e+00 2.4789915307050463e+00 1 -1 0
5231 1 7.8640919735914707e+00 7.5935781630731283e+00 5.2852660614903328e+00 -1 2 1
3705 1 2.8704464654795618e+00 1.0239192151502543e+01 6.2659718379508043e+00 -5 1 1
4590 1 8.2417505427138416e-01 1.1571424877301613e+01 2.7953422736173552e+00 2 0 0
6097 1 5.9314383814114213e-01 1.1603416395604158e+01 5.5685916437163758e+00 0 -2 1
171 1 5.2855231756987768e+00 1.1790025797720270e+01 2.7354661226728747e+00 3 1 0
3249 1 5.2863566002488138e+00 1.1507189618225828e+01 5.4796821879424673e+00 -2 1 0
2836 1 1.0025868958057039e+01 1.1240146272049273e+01 5.2211950352553798e+00 2 1 1
4735 1 9.8662226048166808e+00 1.1530403286870641e+01 2.6093674164789946e+00 0 2 1
1502 1 3.1580473625401946e+00 2.5432762611469988e+00 6.1739045727489188e+00 2 1 0
4609 1 7.6926396775517638e+00 1.0119345162612042e+01 6.3124881834207693e+00 -3 1 1
4749 1 7.3037367202790833e+00 2.3038142786947979e+00 6.2208330990620864e+00 2 -1 0
1327 1 9.7706577117245423e+00 5.8286637216692823e+00 6.5459319232386743e+00 -1 0 1
139 1 1.1889873537574264e+01 7.3903030875685793e+00 5.2685623778453543e+00 0 0 0
4796 1 1.2272988717459274e+00 6.2093423302136879e+00 6.1577103183491504e+00 -1 0 1
309 1 5.6783393326941791e+00 6.4106762179204582e+00 6.2491294166412077e+00 -1 2 0
3338 1 1.2224713782526289e+01 2.2390259151444689e+00 8.8507008986679949e+00 0 1 0
18 1 1.2181442731750176e+01 2.2116344409266189e+00 6.1461326426438916e+00 -1 1 0
1621 1 1.2119162187820898e+01 1.0042104940397815e+01 6.3968995740604742e+00 -1 -1 0
4487 1 3.1424270239889989e+00 9.9950813898920874e+00 8.7935351995121014e+00 -2 0 1
3102 1 5.3304815876475402e+00 9.1218139436905776e+00 1.9479643816304226e+00 1 3 1
5007 1 1.0128024403692779e+00 1.1513357336299699e+00 1.0194002970489427e+01 -1 -1 0
5244 1 5.6228137103715472e+00 1.5561117897745054e+00 1.0008290600746117e+01 -3 -4 1
3679 1 1.2264683751017865e+01 4.8250351056296141e+00 1.0049369845036843e+01 -2 0 1
6032 1 9.8302680771097872e+00 1.0505271616525758e+00 9.9697943716986792e+00 0 3 1
5269 1 7.4348173614629101e+00 9.8557625051841882e+00 9.2354028227381946e+00 -2 0 1
1329 1 3.1258802103769141e+00 5.0076347972649078e+00 1.0390608963818170e+01 -2 1 1
21 1 7.7944696771517981e+00 2.5818321318202924e+00 8.9463469793601540e+00 -1 1 1
2937 1 7.6976373978287986e+00 5.1219329632115738e+00 9.9807527878072495e+00 -1 -1 1
22 1 1.1996766704994274e+01 2.2121110617982032e-01 1.3562920766223035e+01 -1 -2 1
4773 1 1.2230253577434969e+01 4.7861515474456660e+00 1.2903924181353810e+01 -1 -3 1
3546 1 1.1998642069564610e+01 7.4327417367671238e+00 1.3889863457637169e+01 -2 4 1
93 1 9.6919974926217423e-01 9.0043848405526283e+00 1.0249337104441420e+01 3 1 0
407 1 5.1960851104422874e+00 8.6907897620654744e+00 9.9356213397431432e+00 5 -2 0
5129 1 9.7871476872837242e+00 8.7784168478531672e+00 9.8800141931671526e+00 2 2 0
118 1 8.7255011797961723e-01 1.1188030210430486e+00 1.3025526636263242e+01 -2 2 0
5971 1 1.2116545525209426e+00 3.6941947741296040e+00 1.3950488189932186e+01 3 -1 1
6234 1 5.4105922359988510e+00 1.4456448933220154e+00 1.2877476507186017e+01 0 2 0
247 1 5.4905691790962310e+00 3.7958503641766885e+00 1.3972598029231708e+01 -1 0 1
6216 1 9.7564177144258242e+00 3.6948521349937882e+00 1.3679924892123363e+01 0 0 1
1757 1 9.5877163945375372e+00 1.0063198730090399e+00 1.2844015047271931e+01 -1 -2 0
4740 1 3.4782810946452769e+00 5.1215232017216756e+00 1.3069241408283503e+01 -1 0 1
1924 1 3.0782913733987911e+00 7.7392094877722668e+00 1.4097766123734955e+01 1 1 0
5036 1 7.5280004809046766e+00 5.2353707495025725e+00 1.2769564901956551e+01 -3 0 0
6082 1 7.5101905192369953e+00 7.7667577483011554e+00 1.3759190544664763e+01 -1 1 1
487 1 9.7499138575805073e+00 1.1622280923785180e+01 1.3665654489610818e+01 2 -2 0
152 1 1.0031953456714296e+01 8.8485444924483971e+00 1.2913900051618503e+01 -1 0 0
5187 1 4.7362177689163792e-01 1.1639985080876130e+01 1.3807989798162872e+01 -1 3 0
1448 1 6.5835836257631430e-01 8.9065993494121081e+00 1.3068324183688988e+01 -2 2 1
1430 1 5.1927717663283062e+00 1.1397559689683153e+01 1.3686737260323122e+01 0 0 1
1323 1 5.1851094107311413e+00 8.8357371552040647e+00 1.2725947948503418e+01 0 2 1
2991 1 1.0142247871953531e+00 6.3601058710838894e+00 9.2848691385638880e+00 -1 0 1
6301 1 5.3759019261673844e+00 6.1588428652018443e+00 8.9717954199013938e+00 3 -4 1
181 1 2.9910475678678088e+00 2.6248245265403294e+00 9.1246153633452156e+00 0 -1 0
1792 1 9.9879516119798293e+00 6.0801358435683488e+00 9.0423725385520974e+00 -1 2 0
5037 1 1.2154031203153528e+01 9.8986219308966383e+00 9.2432643342087211e+00 0 2 0
127 1 1.1880684634731231e+00 1.2388963614281276e+00 1.7756735687311281e+01 -1 -2 0
415 1 3.6831991029721323e-01 1.1710791862821372e+01 2.1479099322724206e+01 3 0 0
1390 1 5.1873697848001719e+00 1.2370370058567468e+00 1.7290528196147996e+01 -5 2 1
3747 1 5.4361157610764872e+00 3.5804071608418622e+00 1.6525042169103656e+01 -1 1 1
2003 1 3.5484316328940237e+00 2.0174914003387576e-01 2.1449629803446282e+01 -1 -3 1
6298 1 9.8186086933664374e+00 1.1612730856485733e+00 1.7366534722862678e+01 -1 -1 1
33 1 9.6798362579990638e+00 3.8312489050878700e+00 1.6437520417517888e+01 3 -1 0
4625 1 1.2528071082038235e+00 3.7076332350704373e+00 1.6833292650839962e+01 0 1 1
4936 1 3.4935490828873768e+00 5.0800497474906496e+00 1.7539315596318275e+01 2 2 0
5179 1 3.1743406883284191e+00 7.7446981082053066e+00 1.6667169390057566e+01 0 1 0
6251 1 7.5774984768933979e+00 4.9295633577023992e+00 1.7574330199194275e+01 -1 4 0
6163 1 7.3679090506512779e+00 7.7427989856048587e+00 1.6442901444372112e+01 2 1 0
317 1 7.6225642000733931e+00 1.7868254311443507e-01 2.0961130236976693e+01 1 -4 1
3736 1 7.8344030572876877e-01 9.2347502280978713e+00 2.0571285396716110e+01 3 2 1
4574 1 7.8058636891599920e-01 9.2657720720992902e+00 1.7589868887824185e+01 0 -2 0
5992 1 6.3248780207890598e-01 1.1739963987299832e+01 1.6524110093424422e+01 3 2 1
2154 1 5.1609839283337209e+00 9.0153841688209830e+00 1.7669308506508884e+01 1 1 1
5165 1 1.2222812488452874e+01 5.2827709410108161e+00 2.0058488188716566e+01 1 2 1
3735 1 9.4942230326362100e+00 9.3510865820504545e+00 1.7489283188876321e+01 5 2 1
6211 1 1.2072310806913237e+01 2.1275566480866648e-01 1.6365132805292752e+01 4 3 1
3033 1 1.1211989630013499e+00 1.4630057321223313e+00 2.0494204730397922e+01 0 3 1
1832 1 1.2251363981964414e+00 4.1308997481039595e+00 2.1359638296131223e+01 0 -3 0
30 1 9.5459130248096855e+00 1.1849116890828167e+01 1.6492042033555965e+01 -1 -1 0
4490 1 5.1204039271688755e+00 9.2894357846008724e+00 2.0471069158105944e+01 0 1 1
1485 1 5.6030156723262960e+00 1.4342147129330034e+00 2.0106809535252111e+01 2 -3 0
2956 1 9.7769330418458971e+00 1.3498035176694632e+00 2.0186438121718979e+01 3 0 1
6091 1 9.8773198809025509e+00 4.0026700970570692e+00 2.1324734999541977e+01 -2 1 1
1673 1 5.2833712282296368e+00 1.1602675370809100e+01 1.6372283503476901e+01 0 3 0
3004 1 3.0165589210735315e+00 7.8444729248296117e+00 2.1546717968758415e+01 0 1 1
3518 1 3.1418487658407153e+00 5.3991355767826068e+00 2.0342343346651791e+01 1 2 0
3743 1 5.7239828553487877e+00 3.8491432821350000e+00 2.1042780170269754e+01 0 -1 1
109 1 7.4944722759353750e+00 8.1150190589455296e+00 2.1097815551408065e+01 2 -2 1
55 1 7.5330003030246848e+00 5.4842334671516868e+00 2.0299488547096921e+01 3 3 0
1285 1 9.6191113384501143e+00 9.3726761891953370e+00 2.0188843217276748e+01 -5 0 1
1833 1 1.1910437918762190e+01 7.8264545556279224e+00 2.1089893274860476e+01 0 -1 0
6150 1 4.5361597349910694e+00 1.2015152907928801e+01 2.1063299925861848e+01 -1 -1 0
1429 1 1.2093132629734441e+01 9.9506694282313901e-03 2.1178969598280663e+01 1 -2 0
1965 1 9.4700084266176319e+00 1.2214056243526089e+01 2.1114869209635312e+01 -2 0 0
2153 1 1.1812396612026570e+01 5.4348259065605999e+00 1.7624400571693975e+01 0 -1 1
4635 1 1.1729648565971699e+01 8.0329716444276933e+00 1.6914416996071395e+01 1 0 1
279 1 2.3399453133099790e+00 2.9573419794650975e+00 2.3757196563718072e+01 2 3 0
6336 1 3.0433618137652712e+00 9.0304752499967389e-02 2.4192035003097981e+01 -2 1 0
4961 1 7.6477233821508754e+00 3.3415635087868545e-01 2.3841457743280404e+01 2 2 0
3373 1 7.5052887499458460e+00 3.2710330630202993e+00 2.3960204423067566e+01 0 -2 0
728 2 8.6134999999999984e+00 1.0656442593567498e+01 2.6789475910418552e+01 0 0 0
6309 1 4.7851025722957079e+00 4.0345169898506512e+00 2.3887427182063234e+01 1 0 1
1472 1 4.7602579220597221e+00 7.0004373429084268e+00 2.4377151540317321e+01 1 -1 0
1954 1 9.8352851499980734e+00 4.7164421037277613e+00 2.4004940151407382e+01 2 2 0
4467 1 9.7691321273393488e+00 7.5217112475022363e+00 2.4041580678241701e+01 -2 3 1
1890 1 2.0954156218998721e+00 8.6495518689258368e+00 2.3951818868264453e+01 1 -4 1
334 1 2.0835834472950059e+00 1.1365220797452704e+01 2.3744818896246205e+01 2 1 0
2897 1 7.1970285067595645e+00 8.4933265346564344e+00 2.3737036492134610e+01 2 3 1
84 1 7.1053569851102649e+00 1.1152568797150188e+01 2.4424522116224740e+01 3 1 1
732 2 9.8440000000000012e+00 8.5251540748539956e+00 2.6789475910418552e+01 0 0 0
775 2 1.1074500000000002e+01 1.0656442593567498e+01 2.6789475910418552e+01 0 0 0
554 2 0.0000000000000000e+00 2.8417180249513345e+00 2.6789475910418552e+01 0 0 0
556 2 0.0000000000000000e+00 0.0000000000000000e+00 2.6789475910418552e+01 0 0 0
558 2 1.2305000000000001e+00 7.1042950623783474e-01 2.6789475910418552e+01 0 0 0
565 2 1.2305000000000001e+00 2.1312885187134998e+00 2.6789475910418552e+01 0 0 0
567 2 2.4610000000000003e+00 2.8417180249513345e+00 2.6789475910418552e+01 0 0 0
569 2 2.4610000000000003e+00 0.0000000000000000e+00 2.6789475910418552e+01 0 0 0
571 2 3.6915000000000004e+00 7.1042950623783474e-01 2.6789475910418552e+01 0 0 0
586 2 3.6914999999999996e+00 2.1312885187134998e+00 2.6789475910418552e+01 0 0 0
588 2 4.9220000000000006e+00 2.8417180249513332e+00 2.6789475910418552e+01 0 0 0
590 2 4.9220000000000006e+00 0.0000000000000000e+00 2.6789475910418552e+01 0 0 0
592 2 6.1524999999999999e+00 7.1042950623783407e-01 2.6789475910418552e+01 0 0 0
615 2 6.1524999999999999e+00 2.1312885187134989e+00 2.6789475910418552e+01 0 0 0
617 2 7.3829999999999991e+00 2.8417180249513345e+00 2.6789475910418552e+01 0 0 0
619 2 7.3829999999999991e+00 0.0000000000000000e+00 2.6789475910418552e+01 0 0 0
621 2 8.6134999999999984e+00 7.1042950623783407e-01 2.6789475910418552e+01 0 0 0
652 2 8.6134999999999984e+00 2.1312885187135002e+00 2.6789475910418552e+01 0 0 0
654 2 9.8440000000000012e+00 2.8417180249513332e+00 2.6789475910418552e+01 0 0 0
656 2 9.8440000000000012e+00 0.0000000000000000e+00 2.6789475910418552e+01 0 0 0
658 2 1.1074500000000002e+01 7.1042950623783330e-01 2.6789475910418552e+01 0 0 0
697 2 1.1074500000000002e+01 2.1312885187135002e+00 2.6789475910418552e+01 0 0 0
561 2 0.0000000000000000e+00 4.2625770374269996e+00 2.6789475910418552e+01 0 0 0
563 2 1.2305000000000001e+00 4.9730065436648339e+00 2.6789475910418552e+01 0 0 0
578 2 1.2305000000000001e+00 6.3938655561404980e+00 2.6789475910418552e+01 0 0 0
582 2 2.4610000000000003e+00 4.2625770374269996e+00 2.6789475910418552e+01 0 0 0
584 2 3.6914999999999996e+00 4.9730065436648339e+00 2.6789475910418552e+01 0 0 0
607 2 3.6914999999999996e+00 6.3938655561404980e+00 2.6789475910418552e+01 0 0 0
559 2 0.0000000000000000e+00 7.1042950623783341e+00 2.6789475910418552e+01 0 0 0
580 2 2.4610000000000003e+00 7.1042950623783341e+00 2.6789475910418552e+01 0 0 0
611 2 4.9220000000000006e+00 4.2625770374269978e+00 2.6789475910418552e+01 0 0 0
613 2 6.1524999999999999e+00 4.9730065436648339e+00 2.6789475910418552e+01 0 0 0
644 2 6.1524999999999999e+00 6.3938655561404980e+00 2.6789475910418552e+01 0 0 0
648 2 7.3829999999999991e+00 4.2625770374269996e+00 2.6789475910418552e+01 0 0 0
609 2 4.9220000000000006e+00 7.1042950623783341e+00 2.6789475910418552e+01 0 0 0
646 2 7.3830000000000009e+00 7.1042950623783341e+00 2.6789475910418552e+01 0 0 0
650 2 8.6135000000000002e+00 4.9730065436648339e+00 2.6789475910418552e+01 0 0 0
689 2 8.6135000000000002e+00 6.3938655561404980e+00 2.6789475910418552e+01 0 0 0
693 2 9.8440000000000012e+00 4.2625770374270004e+00 2.6789475910418552e+01 0 0 0
695 2 1.1074500000000002e+01 4.9730065436648339e+00 2.6789475910418552e+01 0 0 0
736 2 1.1074500000000002e+01 6.3938655561404980e+00 2.6789475910418552e+01 0 0 0
691 2 9.8440000000000012e+00 7.1042950623783341e+00 2.6789475910418552e+01 0 0 0
574 2 0.0000000000000000e+00 8.5251540748539991e+00 2.6789475910418552e+01 0 0 0
576 2 1.2305000000000001e+00 9.2355835810918343e+00 2.6789475910418552e+01 0 0 0
603 2 2.4610000000000003e+00 8.5251540748539991e+00 2.6789475910418552e+01 0 0 0
605 2 3.6915000000000004e+00 9.2355835810918343e+00 2.6789475910418552e+01 0 0 0
572 2 0.0000000000000000e+00 1.1366872099805333e+01 2.6789475910418552e+01 0 0 0
599 2 1.2305000000000001e+00 1.0656442593567498e+01 2.6789475910418552e+01 0 0 0
601 2 2.4610000000000003e+00 1.1366872099805333e+01 2.6789475910418552e+01 0 0 0
636 2 3.6914999999999996e+00 1.0656442593567499e+01 2.6789475910418552e+01 0 0 0
638 2 4.9220000000000006e+00 1.1366872099805333e+01 2.6789475910418552e+01 0 0 0
681 2 6.1524999999999999e+00 1.0656442593567499e+01 2.6789475910418552e+01 0 0 0
683 2 7.3829999999999991e+00 1.1366872099805333e+01 2.6789475910418552e+01 0 0 0
640 2 4.9220000000000006e+00 8.5251540748539991e+00 2.6789475910418552e+01 0 0 0
642 2 6.1524999999999999e+00 9.2355835810918343e+00 2.6789475910418552e+01 0 0 0
685 2 7.3830000000000009e+00 8.5251540748539991e+00 2.6789475910418552e+01 0 0 0
687 2 8.6134999999999984e+00 9.2355835810918343e+00 2.6789475910418552e+01 0 0 0
730 2 9.8440000000000012e+00 1.1366872099805333e+01 2.6789475910418552e+01 0 0 0
777 2 1.2304999999999998e+01 1.1366872099805333e+01 2.6789475910418552e+01 0 0 0
734 2 1.1074500000000002e+01 9.2355835810918343e+00 2.6789475910418552e+01 0 0 0
3247 1 1.2246694547561544e+01 3.3094149004805979e+00 2.4441024684365786e+01 0 -1 1
5135 1 1.6340471724392741e-01 4.5725436953217011e+00 2.4300651512077561e+01 0 2 0
555 2 0.0000000000000000e+00 1.4208590124756650e+00 3.0030999999995988e+01 0 0 0
557 2 0.0000000000000000e+00 0.0000000000000000e+00 3.0030999999995988e+01 0 0 0
566 2 1.2305000000000001e+00 2.1312885187134998e+00 3.0030999999995988e+01 0 0 0
568 2 2.4610000000000003e+00 1.4208590124756650e+00 3.0030999999995988e+01 0 0 0
570 2 2.4610000000000003e+00 0.0000000000000000e+00 3.0030999999995988e+01 0 0 0
587 2 3.6914999999999996e+00 2.1312885187134998e+00 3.0030999999995988e+01 0 0 0
564 2 1.2305000000000001e+00 3.5521475311891644e+00 3.0030999999995988e+01 0 0 0
585 2 3.6914999999999996e+00 3.5521475311891644e+00 3.0030999999995988e+01 0 0 0
883 2 0.0000000000000000e+00 2.8417180249513345e+00 3.3272524089574418e+01 0 0 0
884 2 0.0000000000000000e+00 0.0000000000000000e+00 3.3272524089574418e+01 0 0 0
885 2 1.2305000000000001e+00 7.1042950623783474e-01 3.3272524089574418e+01 0 0 0
889 2 1.2305000000000001e+00 2.1312885187134998e+00 3.3272524089574418e+01 0 0 0
890 2 2.4610000000000003e+00 2.8417180249513345e+00 3.3272524089574418e+01 0 0 0
891 2 2.4610000000000003e+00 0.0000000000000000e+00 3.3272524089574418e+01 0 0 0
892 2 3.6915000000000004e+00 7.1042950623783474e-01 3.3272524089574418e+01 0 0 0
900 2 3.6914999999999996e+00 2.1312885187134998e+00 3.3272524089574418e+01 0 0 0
589 2 4.9220000000000006e+00 1.4208590124756650e+00 3.0030999999995988e+01 0 0 0
591 2 4.9220000000000006e+00 0.0000000000000000e+00 3.0030999999995988e+01 0 0 0
616 2 6.1524999999999999e+00 2.1312885187134989e+00 3.0030999999995988e+01 0 0 0
618 2 7.3829999999999991e+00 1.4208590124756659e+00 3.0030999999995988e+01 0 0 0
620 2 7.3829999999999991e+00 0.0000000000000000e+00 3.0030999999995988e+01 0 0 0
614 2 6.1524999999999999e+00 3.5521475311891644e+00 3.0030999999995988e+01 0 0 0
901 2 4.9220000000000006e+00 2.8417180249513332e+00 3.3272524089574418e+01 0 0 0
902 2 4.9220000000000006e+00 0.0000000000000000e+00 3.3272524089574418e+01 0 0 0
903 2 6.1524999999999999e+00 7.1042950623783407e-01 3.3272524089574418e+01 0 0 0
915 2 6.1524999999999999e+00 2.1312885187134989e+00 3.3272524089574418e+01 0 0 0
916 2 7.3829999999999991e+00 2.8417180249513345e+00 3.3272524089574418e+01 0 0 0
917 2 7.3829999999999991e+00 0.0000000000000000e+00 3.3272524089574418e+01 0 0 0
653 2 8.6134999999999984e+00 2.1312885187135002e+00 3.0030999999995988e+01 0 0 0
655 2 9.8440000000000012e+00 1.4208590124756659e+00 3.0030999999995988e+01 0 0 0
657 2 9.8440000000000012e+00 0.0000000000000000e+00 3.0030999999995988e+01 0 0 0
698 2 1.1074500000000002e+01 2.1312885187135002e+00 3.0030999999995988e+01 0 0 0
651 2 8.6134999999999984e+00 3.5521475311891657e+00 3.0030999999995988e+01 0 0 0
696 2 1.1074500000000002e+01 3.5521475311891644e+00 3.0030999999995988e+01 0 0 0
918 2 8.6134999999999984e+00 7.1042950623783407e-01 3.3272524089574418e+01 0 0 0
934 2 8.6134999999999984e+00 2.1312885187135002e+00 3.3272524089574418e+01 0 0 0
935 2 9.8440000000000012e+00 2.8417180249513332e+00 3.3272524089574418e+01 0 0 0
936 2 9.8440000000000012e+00 0.0000000000000000e+00 3.3272524089574418e+01 0 0 0
937 2 1.1074500000000002e+01 7.1042950623783330e-01 3.3272524089574418e+01 0 0 0
957 2 1.1074500000000002e+01 2.1312885187135002e+00 3.3272524089574418e+01 0 0 0
560 2 0.0000000000000000e+00 5.6834360499026637e+00 3.0030999999995988e+01 0 0 0
562 2 0.0000000000000000e+00 4.2625770374269996e+00 3.0030999999995988e+01 0 0 0
579 2 1.2305000000000001e+00 6.3938655561404980e+00 3.0030999999995988e+01 0 0 0
581 2 2.4610000000000003e+00 5.6834360499026637e+00 3.0030999999995988e+01 0 0 0
583 2 2.4610000000000003e+00 4.2625770374269996e+00 3.0030999999995988e+01 0 0 0
608 2 3.6914999999999996e+00 6.3938655561404980e+00 3.0030999999995988e+01 0 0 0
577 2 1.2305000000000001e+00 7.8147245686161639e+00 3.0030999999995988e+01 0 0 0
606 2 3.6914999999999996e+00 7.8147245686161639e+00 3.0030999999995988e+01 0 0 0
887 2 0.0000000000000000e+00 4.2625770374269996e+00 3.3272524089574418e+01 0 0 0
888 2 1.2305000000000001e+00 4.9730065436648339e+00 3.3272524089574418e+01 0 0 0
896 2 1.2305000000000001e+00 6.3938655561404980e+00 3.3272524089574418e+01 0 0 0
898 2 2.4610000000000003e+00 4.2625770374269996e+00 3.3272524089574418e+01 0 0 0
899 2 3.6914999999999996e+00 4.9730065436648339e+00 3.3272524089574418e+01 0 0 0
911 2 3.6914999999999996e+00 6.3938655561404980e+00 3.3272524089574418e+01 0 0 0
886 2 0.0000000000000000e+00 7.1042950623783341e+00 3.3272524089574418e+01 0 0 0
897 2 2.4610000000000003e+00 7.1042950623783341e+00 3.3272524089574418e+01 0 0 0
610 2 4.9220000000000006e+00 5.6834360499026637e+00 3.0030999999995988e+01 0 0 0
612 2 4.9220000000000006e+00 4.2625770374269978e+00 3.0030999999995988e+01 0 0 0
645 2 6.1524999999999999e+00 6.3938655561404980e+00 3.0030999999995988e+01 0 0 0
647 2 7.3829999999999991e+00 5.6834360499026637e+00 3.0030999999995988e+01 0 0 0
649 2 7.3829999999999991e+00 4.2625770374269996e+00 3.0030999999995988e+01 0 0 0
643 2 6.1524999999999999e+00 7.8147245686161639e+00 3.0030999999995988e+01 0 0 0
913 2 4.9220000000000006e+00 4.2625770374269978e+00 3.3272524089574418e+01 0 0 0
914 2 6.1524999999999999e+00 4.9730065436648339e+00 3.3272524089574418e+01 0 0 0
930 2 6.1524999999999999e+00 6.3938655561404980e+00 3.3272524089574418e+01 0 0 0
932 2 7.3829999999999991e+00 4.2625770374269996e+00 3.3272524089574418e+01 0 0 0
912 2 4.9220000000000006e+00 7.1042950623783341e+00 3.3272524089574418e+01 0 0 0
931 2 7.3830000000000009e+00 7.1042950623783341e+00 3.3272524089574418e+01 0 0 0
690 2 8.6135000000000002e+00 6.3938655561404980e+00 3.0030999999995988e+01 0 0 0
692 2 9.8440000000000012e+00 5.6834360499026637e+00 3.0030999999995988e+01 0 0 0
694 2 9.8440000000000012e+00 4.2625770374270004e+00 3.0030999999995988e+01 0 0 0
737 2 1.1074500000000002e+01 6.3938655561404980e+00 3.0030999999995988e+01 0 0 0
688 2 8.6135000000000002e+00 7.8147245686161639e+00 3.0030999999995988e+01 0 0 0
735 2 1.1074500000000002e+01 7.8147245686161639e+00 3.0030999999995988e+01 0 0 0
933 2 8.6135000000000002e+00 4.9730065436648339e+00 3.3272524089574418e+01 0 0 0
953 2 8.6135000000000002e+00 6.3938655561404980e+00 3.3272524089574418e+01 0 0 0
955 2 9.8440000000000012e+00 4.2625770374270004e+00 3.3272524089574418e+01 0 0 0
956 2 1.1074500000000002e+01 4.9730065436648339e+00 3.3272524089574418e+01 0 0 0
977 2 1.1074500000000002e+01 6.3938655561404980e+00 3.3272524089574418e+01 0 0 0
954 2 9.8440000000000012e+00 7.1042950623783341e+00 3.3272524089574418e+01 0 0 0
573 2 0.0000000000000000e+00 9.9460130873296642e+00 3.0030999999995988e+01 0 0 0
575 2 0.0000000000000000e+00 8.5251540748539991e+00 3.0030999999995988e+01 0 0 0
602 2 2.4610000000000003e+00 9.9460130873296642e+00 3.0030999999995988e+01 0 0 0
604 2 2.4610000000000003e+00 8.5251540748539991e+00 3.0030999999995988e+01 0 0 0
598 2 1.2305000000000001e+00 1.2077301606043163e+01 3.0030999999995988e+01 0 0 0
600 2 1.2305000000000001e+00 1.0656442593567498e+01 3.0030999999995988e+01 0 0 0
635 2 3.6914999999999996e+00 1.2077301606043163e+01 3.0030999999995988e+01 0 0 0
637 2 3.6914999999999996e+00 1.0656442593567499e+01 3.0030999999995988e+01 0 0 0
894 2 0.0000000000000000e+00 8.5251540748539991e+00 3.3272524089574418e+01 0 0 0
895 2 1.2305000000000001e+00 9.2355835810918343e+00 3.3272524089574418e+01 0 0 0
909 2 2.4610000000000003e+00 8.5251540748539991e+00 3.3272524089574418e+01 0 0 0
910 2 3.6915000000000004e+00 9.2355835810918343e+00 3.3272524089574418e+01 0 0 0
893 2 0.0000000000000000e+00 1.1366872099805333e+01 3.3272524089574418e+01 0 0 0
907 2 1.2305000000000001e+00 1.0656442593567498e+01 3.3272524089574418e+01 0 0 0
908 2 2.4610000000000003e+00 1.1366872099805333e+01 3.3272524089574418e+01 0 0 0
926 2 3.6914999999999996e+00 1.0656442593567499e+01 3.3272524089574418e+01 0 0 0
639 2 4.9220000000000006e+00 9.9460130873296642e+00 3.0030999999995988e+01 0 0 0
641 2 4.9220000000000006e+00 8.5251540748539991e+00 3.0030999999995988e+01 0 0 0
684 2 7.3830000000000009e+00 9.9460130873296642e+00 3.0030999999995988e+01 0 0 0
686 2 7.3830000000000009e+00 8.5251540748539991e+00 3.0030999999995988e+01 0 0 0
680 2 6.1524999999999999e+00 1.2077301606043163e+01 3.0030999999995988e+01 0 0 0
682 2 6.1524999999999999e+00 1.0656442593567499e+01 3.0030999999995988e+01 0 0 0
928 2 4.9220000000000006e+00 8.5251540748539991e+00 3.3272524089574418e+01 0 0 0
929 2 6.1524999999999999e+00 9.2355835810918343e+00 3.3272524089574418e+01 0 0 0
951 2 7.3830000000000009e+00 8.5251540748539991e+00 3.3272524089574418e+01 0 0 0
927 2 4.9220000000000006e+00 1.1366872099805333e+01 3.3272524089574418e+01 0 0 0
949 2 6.1524999999999999e+00 1.0656442593567499e+01 3.3272524089574418e+01 0 0 0
950 2 7.3829999999999991e+00 1.1366872099805333e+01 3.3272524089574418e+01 0 0 0
731 2 9.8440000000000012e+00 9.9460130873296642e+00 3.0030999999995988e+01 0 0 0
733 2 9.8440000000000012e+00 8.5251540748539956e+00 3.0030999999995988e+01 0 0 0
727 2 8.6135000000000002e+00 1.2077301606043163e+01 3.0030999999995988e+01 0 0 0
729 2 8.6134999999999984e+00 1.0656442593567498e+01 3.0030999999995988e+01 0 0 0
774 2 1.1074500000000002e+01 1.2077301606043163e+01 3.0030999999995988e+01 0 0 0
776 2 1.1074500000000002e+01 1.0656442593567498e+01 3.0030999999995988e+01 0 0 0
952 2 8.6134999999999984e+00 9.2355835810918343e+00 3.3272524089574418e+01 0 0 0
975 2 9.8440000000000012e+00 8.5251540748539956e+00 3.3272524089574418e+01 0 0 0
976 2 1.1074500000000002e+01 9.2355835810918343e+00 3.3272524089574418e+01 0 0 0
973 2 8.6134999999999984e+00 1.0656442593567498e+01 3.3272524089574418e+01 0 0 0
974 2 9.8440000000000012e+00 1.1366872099805333e+01 3.3272524089574418e+01 0 0 0
997 2 1.1074500000000002e+01 1.0656442593567498e+01 3.3272524089574418e+01 0 0 0
998 2 1.2304999999999998e+01 1.1366872099805333e+01 3.3272524089574418e+01 0 0 0
4832 1 6.5545179384939196e+00 2.4479156312163624e+00 3.6585414669196908e+01 -1 -3 -1
5044 1 1.8755709586531706e+00 2.1384784181268679e+00 3.6474418584297354e+01 1 2 -1
1302 1 1.0728122881592375e+01 3.3020816254315806e+00 3.6198287214184091e+01 1 -1 0
4707 1 1.0943283315159029e+01 4.1253566214627868e-01 3.6268835229254748e+01 0 -3 0
6027 1 4.2524250253562412e+00 3.4605084217758817e+00 3.5508202343136574e+01 -2 -4 0
3266 1 8.0148009291999820e+00 4.8501389813470848e+00 3.6299031649636589e+01 1 1 0
2905 1 4.1118868081236881e+00 6.0695522410024276e+00 3.6231611504299551e+01 0 0 0
304 1 1.3394257610050138e+00 6.1903277988752610e+00 3.5484015626424565e+01 -1 -1 -1
6059 1 1.2256100661258269e+00 8.9025445719403749e+00 3.6265745947059870e+01 0 2 -1
1873 1 3.4563424221961672e+00 1.0530976060315993e+01 3.5618292234449783e+01 -3 3 0
79 1 5.5696955961178549e+00 8.5935148678200353e+00 3.6275276153363222e+01 4 1 0
288 1 7.8358235984763152e+00 9.9770609007480981e+00 3.5696188403797052e+01 0 1 -1
5100 1 1.0987252717075178e+01 6.2136277270312599e+00 3.5919216553939975e+01 -1 0 -1
3081 1 1.0133134472635474e+01 8.8079916989440594e+00 3.6538911088423561e+01 0 1 -1
1816 1 1.1872580021186559e+01 1.0619396548664373e+01 3.5539225314591121e+01 -1 2 -1
1995 1 1.8964738930204046e+00 1.8347707923992433e+00 3.9361224386702105e+01 1 0 -1
2996 1 4.2512806252251609e+00 2.7608770732445094e+00 4.0246604345987876e+01 0 -1 0
1362 1 6.5589471144976983e+00 1.7826880140313528e+00 3.8982448830663927e+01 0 1 -1
4550 1 7.9268281352300063e+00 1.0445249139335123e+01 4.2985129341009369e+01 -1 0 0
5243 1 8.6192646578099374e+00 2.9002641544878545e+00 4.0312645606432085e+01 0 2 0
4787 1 1.0938813542656867e+01 2.3054142279642704e+00 3.8881617224699667e+01 -1 0 -1
5085 1 1.5662174228305374e+00 6.4632192928105576e+00 4.0373622260258045e+01 0 2 0
337 1 4.0354005564180762e+00 5.1680248874879817e+00 3.9108565171989511e+01 1 -1 -1
3537 1 5.8688763499563867e+00 6.5095803991013153e+00 4.0376343173647527e+01 -1 -2 -1
4592 1 8.1183909746120442e+00 5.3204568049237020e+00 3.9158616613009031e+01 0 -2 0
365 1 1.0470831286243811e+01 6.3226506391149560e+00 4.0172267695571790e+01 0 0 -1
61 1 1.3987898970927666e+00 8.9808138287280812e+00 3.8961997876752392e+01 2 -1 0
6116 1 3.5234455405822187e+00 1.0130884807136592e+01 4.0065941016075172e+01 1 -2 0
3432 1 5.6612333627893259e+00 9.0330919536041225e+00 3.9046627615743844e+01 2 2 -1
4486 1 7.9242475148950966e+00 1.0276744479167363e+01 4.0131667167604419e+01 2 2 0
4477 1 1.0129667481192712e+01 9.0127785239469862e+00 3.9397270095582073e+01 0 1 0
4637 1 3.9169834519527709e+00 2.6024701112711601e+00 4.3154015277843854e+01 2 2 0
1664 1 2.0701073621182076e-01 4.9959142421597463e-01 4.3811522362419893e+01 1 3 -1
6034 1 1.2999037199093468e+00 1.1793954867718714e+01 4.3977742906855838e+01 2 0 0
5167 1 8.7146576166716105e+00 3.0864681905411140e+00 4.3048776271586590e+01 -1 -3 -1
1463 1 3.7246741036414228e+00 1.0477713716813252e+01 4.3131210088172693e+01 -1 0 -1
1486 1 1.3925587404215694e+00 6.9870549114162062e+00 4.3214754955285784e+01 1 0 0
5163 1 5.8045366082273393e+00 6.6347895864805464e+00 4.3267813311514047e+01 1 -1 -1
545 1 1.0394758231536281e+01 6.9752217880992395e+00 4.2900628559704501e+01 1 2 0
4562 1 1.2237303497059756e+01 1.0205229458333216e+01 4.0542954986384288e+01 -3 0 0
4513 1 1.2251460488460811e+01 1.0730589879405603e+01 4.3078238141151076e+01 1 -1 0
66 1 6.0575955306712235e+00 3.8409871093792263e+00 4.4055123942965992e+01 -1 0 -1
414 1 1.0826511492866302e+01 4.4191123872989984e+00 4.3827186970684025e+01 0 1 0
2831 1 8.9081996854549725e+00 3.8268815118897842e-01 4.3751259096831092e+01 2 -2 0
4905 1 8.2952690988714632e+00 7.9909063314076541e+00 4.3936596405321524e+01 -1 1 0
1932 1 3.6140965785576360e+00 7.9175368508197828e+00 4.4088978989495232e+01 1 2 -1
278 1 6.0708442721969664e+00 4.0696521665325518e+00 4.6722434779971891e+01 -2 -2 -1
406 1 9.0508995286189986e+00 5.4375548926162298e-01 4.6567460535887349e+01 -1 1 -1
4757 1 1.1014679266011797e+01 4.3043938493967042e+00 4.6709599871468299e+01 -1 2 -1
3088 1 1.8091439263879618e+00 4.0465441805438482e+00 4.6720669586310947e+01 1 2 -1
4997 1 3.3380985991137067e+00 7.9723356586325913e+00 4.6686694979290110e+01 0 -2 -1
3478 1 9.9540705020035318e+00 6.2411651982343512e+00 5.0225444258143099e+01 -1 3 -1
240 1 7.9056783005322364e+00 7.7928916435348770e+00 4.6684432514198079e+01 -4 2 -1
1937 1 1.0180868103303737e+01 6.8262153961227963e+00 4.7530108624597943e+01 2 -1 -1
1369 1 1.1764148329680384e+00 1.1753356327467113e+01 4.6629761512564428e+01 0 0 0
3123 1 3.3837495005796061e+00 1.0286008931077317e+01 4.7823732280017978e+01 1 3 -1
213 1 5.3617828256332958e+00 1.1530136284824891e+01 4.6890594593318511e+01 -2 2 -1
3511 1 5.5236225760777957e+00 6.2021688715002217e+00 5.0548767367686139e+01 0 1 -1
453 1 1.0271180383869625e+01 1.1283462828386263e+01 4.6916980041323072e+01 -1 1 0
3370 1 7.6973932754692260e+00 1.0258231987828282e+01 4.7663940140931743e+01 1 -2 -1
5255 1 4.0718169567018823e+00 3.0317723316057199e+00 4.7977442481352696e+01 3 0 -1
3132 1 3.3840760056084349e+00 2.1760767630854034e+00 5.0647368331148968e+01 3 -1 0
3114 1 7.7527516652375583e+00 2.3013430966923338e+00 5.0121864440094413e+01 3 1 -1