LAMMPS data file via write_data, version 16 Mar 2018, timestep = 100000

6337 atoms
2 atom types

0.0000000000000000e+00 4.9219999999999999e+01 xlo xhi
0.0000000000000000e+00 4.9019635930410494e+01 ylo yhi
2.5620909493187725e+00 5.7499909050678745e+01 zlo zhi

Masses

1 18.015
2 12.01

Atoms # atomic

501 1 3.2492514174269505e+00 3.1531678480259462e+00 3.4347660659337160e+00 0 2 1
2911 1 1.9119532304791811e+00 4.7118076113738985e+00 5.3197354178054646e+00 0 0 1
6330 1 3.9977170960503985e+00 9.9745419904328241e+00 8.6547163884495646e+00 1 1 1
2101 1 4.9442911026366900e+00 2.0958622648152270e+00 5.2874101306787296e+00 1 0 0
6250 1 5.7650420236628861e+00 1.1421394023215747e+01 7.2212577439191161e+00 0 1 1
1594 1 1.0440706657317225e+01 1.7396481290098977e+00 3.2672853164972917e+00 0 0 1
35 1 5.6388367004814750e+00 7.3751147086618474e+00 8.7345858523755773e+00 0 0 1
3402 1 3.9110513438039152e+00 7.0927878570698102e+00 3.1538655604034966e+00 -1 0 0
4931 1 5.4107670516401001e+00 5.7614019548679918e-01 8.3588947937802907e+00 0 0 0
4515 1 5.8840333052438494e+00 6.1302493501513640e+00 5.3862302125246968e+00 -1 2 0
1736 1 8.3602533911363874e+00 5.0404600409223832e+00 5.1599648978327934e+00 1 1 0
3520 1 1.0082856474327135e+01 7.4418117472943743e+00 4.7894685225443645e+00 1 0 0
3596 1 1.1358880468722328e+01 1.1020823021046636e+01 6.4735794356823497e+00 1 0 0
2104 1 2.8352869148182376e+00 1.0668524066744645e+01 3.2367948697574302e+00 -1 1 0
5034 1 1.2389638316191491e+00 8.9800645698145782e+00 4.7734579318367398e+00 0 1 0
502 1 6.4600655823282294e+00 8.9272397303179059e+00 5.7295634234244508e+00 0 1 1
5128 1 8.1900572452495481e+00 1.3476199728701266e+00 4.5101062211813874e+00 1 0 1
5227 1 1.0517932208409725e+01 6.6534495053232261e+00 9.1215814845943335e+00 1 1 0
3226 1 8.6447662901333171e+00 2.8004490696697655e+00 6.8065430165297300e+00 0 0 1
4786 1 1.0367472924737180e+00 6.7123068555928569e+00 3.2421653854750812e+00 0 1 0
2863 1 2.0004471471227054e+00 8.1675335749462175e+00 7.3800376708706716e+00 1 0 1
1268 1 9.0730777230119344e+00 9.1930253502662715e+00 6.4637932496458195e+00 0 0 1
3523 1 3.6006379630199903e+00 5.6898781683146051e+00 7.2954349070061317e+00 -1 1 0
1380 1 8.1865565151071582e+00 8.2976860039832747e+00 8.8883759064959342e+00 1 1 1
2167 1 1.0714681389731794e+01 4.4402439868101897e+00 7.6693219967818012e+00 1 0 1
5055 1 7.4876024071379526e+00 4.7262276091145914e+00 2.6620326485902477e+00 0 0 0
3399 1 7.5056959880003973e+00 9.8944514097382843e+00 3.3451878802691342e+00 0 1 0
2846 1 1.3021238511421198e+00 1.4476403990067490e+00 2.9010436115384599e+00 0 1 1
32 1 7.9886356926715330e+00 1.9226834295833461e+00 9.3784898887679127e+00 0 1 1
5148 1 1.0361857911880289e+01 1.1763554397860922e+01 9.0544270185671731e+00 1 0 0
4527 1 1.2155188760324529e+01 5.8495895978873804e+00 5.9454351366232387e+00 0 0 1
4539 1 5.1968855166090311e+00 1.6495704951751682e+00 1.4304283595957953e+01 0 1 1
5179 1 1.8232917187337037e+00 3.3045635655831362e+00 1.1329603738227966e+01 1 0 0
4757 1 2.6096932996597153e+00 3.0941294722234480e+00 1.4161910325929993e+01 1 0 0
3565 1 2.8778811367672938e+00 1.1197918455886823e+01 1.2590469697959998e+01 0 -1 0
337 1 9.0679111689392098e+00 6.0597952073295094e+00 1.5998499077289967e+01 0 0 0
1810 1 2.1507768185933305e+00 6.2111894434643240e+00 1.1492295601819432e+01 0 0 0
1569 1 4.0884427574219462e+00 9.6031314118181719e+00 1.5182931004553666e+01 0 0 1
1604 1 7.4303014703759995e+00 3.9895092443869973e+00 1.0846720561773935e+01 1 0 0
5028 1 5.8051766948907457e-01 6.8554549870376587e+00 1.3637206239025080e+01 0 0 0
121 1 9.7430459073423386e+00 5.3909664117304033e+00 1.1574469555499418e+01 0 0 1
3561 1 1.0943447836469501e+01 9.3171997485610909e+00 1.3299601872097686e+01 1 0 1
195 1 1.0948822149792816e+01 3.1191550395585216e-01 1.4735695237509454e+01 0 1 0
1514 1 1.1290778929212184e+00 9.4183124842477568e+00 1.4142408267383610e+01 1 0 1
1343 1 4.7031932181999290e+00 6.7580463450155168e+00 1.1238424532429592e+01 0 1 1
6317 1 7.7638490926808910e+00 1.0271485887478239e+01 1.0760047918107658e+01 1 0 1
4663 1 5.1455178668746857e+00 9.8677404155592097e+00 1.1317738944579508e+01 1 0 0
1584 1 2.6496859736530030e+00 5.6418562022209588e+00 1.5547557448530597e+01 1 0 0
2079 1 1.0950865532385198e+01 6.3941392501038372e+00 1.3918974601407330e+01 1 1 1
45 1 1.1789446047704834e+01 3.3552096152759079e+00 1.1524150048619545e+01 0 0 1
89 1 8.5500733441603902e+00 1.0575266197102746e+01 1.3806151660041525e+01 0 0 1
4811 1 7.7719375961804005e+00 2.3268890720269964e+00 1.3503348146302244e+01 0 0 0
57 1 9.6754916630000256e+00 3.0860937675898641e+00 1.5697394424843893e+01 0 0 0
1591 1 6.2703219029131398e+00 8.5270884490295575e+00 1.3677948220688961e+01 0 0 1
3556 1 3.1834088225307431e+00 9.7728152445340855e-01 1.0417013929578637e+01 0 0 0
4745 1 6.4716312724556335e+00 5.9130238434116968e+00 1.4728830030743145e+01 2 0 1
3046 1 5.2131770308193559e+00 4.2308044382050989e+00 1.2773783804745028e+01 0 0 0
1235 1 1.1672574519593651e+01 1.0289060222313099e+01 1.0715968948827303e+01 0 0 0
5149 1 2.1683867456455768e+00 1.1946136423168467e+01 9.7540157940104173e+00 0 0 1
2982 1 1.0503698865267049e+01 9.8999924942438822e-01 1.0690645720039759e+01 0 1 0
4689 1 7.6968343818418528e-01 7.7132661893615255e+00 9.6857571632556247e+00 1 0 1
1601 1 7.9487823947864911e-02 1.0356293464720121e+01 9.6987610222076679e+00 0 0 0
5205 1 8.9229660409757372e+00 1.3031155716586085e-01 1.2546863028888881e+01 0 1 0
444 1 1.1849461226815272e+01 3.0147601687443162e+00 2.0080843418648083e+01 0 1 0
3430 1 8.1766009291369048e+00 1.7941961427806816e+00 1.7642057106965758e+01 0 0 0
2039 1 4.0269781505831990e+00 7.3852720348022247e+00 1.8834127365826184e+01 0 1 0
5097 1 8.5665916115375751e+00 1.2034484892808988e+01 2.1056118869691090e+01 0 0 0
2003 1 4.1450989232658930e+00 1.4736192909776640e+00 1.8517295102134373e+01 0 0 1
283 1 1.2185718662833457e+01 2.5735149677420552e+00 1.7340321536292837e+01 0 1 0
5181 1 4.1589413709313322e-01 5.3413507966370792e+00 2.1605036703059529e+01 1 1 0
4747 1 1.1617958131366761e+01 1.1836323260268195e+01 1.8774188469970458e+01 0 0 0
3326 1 6.1067246293672328e+00 3.3988435218162114e+00 1.8780852429417887e+01 1 1 0
223 1 5.1342880757862268e+00 3.6258020056635307e+00 2.1651389152391321e+01 1 1 0
4908 1 4.8545191048192677e+00 5.3201028992111983e+00 1.6979274520816990e+01 0 0 0
6153 1 7.3346239968899984e-01 1.0038628760212783e+01 2.1227369389685872e+01 1 0 1
189 1 3.5625320792133177e+00 9.2647018840155653e+00 2.1770749573442536e+01 1 0 0
301 1 2.1749154862627584e+00 8.8577340518935195e+00 1.7310347957430743e+01 1 0 1
1568 1 5.2678941021593033e+00 1.1278925562872143e+01 1.7510452771038040e+01 1 0 1
302 1 5.5770788425657312e+00 9.6340972531233202e+00 1.9822767654671523e+01 0 0 0
344 1 9.4711594176926059e+00 1.0262072784076869e+01 1.8524517170637992e+01 0 1 1
3333 1 5.4956306384597209e-01 2.6140686231754633e+00 2.1586310370614868e+01 1 0 0
2855 1 9.8553234799925633e+00 1.1621412183950122e+00 2.0062504318865461e+01 0 1 1
469 1 1.1267874425951212e+00 1.1607723161924470e+00 1.8680216944063506e+01 1 0 0
2015 1 3.2979913156351741e+00 1.5179000461902472e+00 2.1274829408429632e+01 1 0 0
6321 1 8.0789423845418593e+00 9.0934514152537123e+00 2.1118808360958081e+01 0 0 0
5103 1 8.0846510074714164e+00 2.7469200416804882e+00 2.1602129773452702e+01 0 -1 0
1880 1 3.3634124410742618e+00 5.8620402849743920e+00 2.1442838730333378e+01 1 0 1
3208 1 7.6410368470506000e+00 6.1588871837583650e+00 2.0910361589805600e+01 0 1 0
154 1 4.5184214823990869e+00 1.2129558343518198e+01 2.1531643724894337e+01 1 0 0
3138 1 1.0248716160321889e+01 5.3210550962462815e+00 2.1025793126199851e+01 0 0 1
2837 1 1.0498119241174052e+01 8.3531716640448153e+00 1.6972258051444477e+01 0 0 1
4562 1 1.0655054404913507e+00 3.7574175334208331e+00 1.7206929731283939e+01 1 0 1
5204 1 1.1218925173959928e+01 7.1778645556004435e+00 1.9457688180084986e+01 0 0 0
6072 1 3.3683522183652015e-01 7.8870630179529266e+00 1.9301362330305832e+01 1 0 1
3319 1 5.8030417086585633e+00 2.2731431674027053e-01 1.6628288961084252e+01 2 0 1
1918 1 8.0106736417659743e+00 1.1664367749514820e+01 1.6468795402490819e+01 0 -1 0
4619 1 3.3934326746024102e+00 1.8145871170945789e+00 2.4117652891419571e+01 0 1 1
777 2 1.2304999999999998e+01 1.1366872099805333e+01 2.6867300749240830e+01 0 0 0
2879 1 7.9163211415727810e+00 1.6806496837579457e+00 2.4089417344609316e+01 1 1 0
88 1 8.4655511266298085e+00 1.2131641294357632e+01 2.4122573467441825e+01 0 0 0
5966 1 8.4700289259475037e-01 1.2244074078753513e+01 2.4173405782134058e+01 1 -1 1
2051 1 1.0798327278406454e+01 5.8672951192179781e+00 2.3690008933109457e+01 0 0 0
5188 1 4.1316137767327197e+00 6.8538976539514982e+00 2.4138939605252439e+01 1 1 0
1955 1 5.2426536065596387e+00 3.7147177195904586e+00 2.4537978222366306e+01 1 0 0
1808 1 6.9950904815521886e+00 6.6195020914845921e+00 2.3638486765680113e+01 0 0 0
734 2 1.1074500000000002e+01 9.2355835810918343e+00 2.6867300749240830e+01 0 0 0
3541 1 8.5433940083935287e+00 4.5319749319084828e+00 2.4588442290697255e+01 1 1 0
267 1 2.2734867788949664e+00 4.8245632978789104e+00 2.4443123291076230e+01 -1 -1 0
3221 1 4.3332207521230464e+00 9.9275618908790815e+00 2.4396700824469669e+01 1 0 0
728 2 8.6134999999999984e+00 1.0656442593567498e+01 2.6867300749240830e+01 0 0 0
1791 1 6.9016864399886071e+00 9.4377687470100291e+00 2.3923254353185410e+01 0 1 1
687 2 8.6134999999999984e+00 9.2355835810918343e+00 2.6867300749240830e+01 0 0 0
775 2 1.1074500000000002e+01 1.0656442593567498e+01 2.6867300749240830e+01 0 0 0
554 2 0.0000000000000000e+00 2.8417180249513345e+00 2.6867300749240830e+01 0 0 0
556 2 0.0000000000000000e+00 0.0000000000000000e+00 2.6867300749240830e+01 0 0 0
558 2 1.2305000000000001e+00 7.1042950623783474e-01 2.6867300749240830e+01 0 0 0
565 2 1.2305000000000001e+00 2.1312885187134998e+00 2.6867300749240830e+01 0 0 0
567 2 2.4610000000000003e+00 2.8417180249513345e+00 2.6867300749240830e+01 0 0 0
569 2 2.4610000000000003e+00 0.0000000000000000e+00 2.6867300749240830e+01 0 0 0
571 2 3.6915000000000004e+00 7.1042950623783474e-01 2.6867300749240830e+01 0 0 0
586 2 3.6914999999999996e+00 2.1312885187134998e+00 2.6867300749240830e+01 0 0 0
588 2 4.9220000000000006e+00 2.8417180249513332e+00 2.6867300749240830e+01 0 0 0
590 2 4.9220000000000006e+00 0.0000000000000000e+00 2.6867300749240830e+01 0 0 0
592 2 6.1524999999999999e+00 7.1042950623783407e-01 2.6867300749240830e+01 0 0 0
615 2 6.1524999999999999e+00 2.1312885187134989e+00 2.6867300749240830e+01 0 0 0
617 2 7.3829999999999991e+00 2.8417180249513345e+00 2.6867300749240830e+01 0 0 0
619 2 7.3829999999999991e+00 0.0000000000000000e+00 2.6867300749240830e+01 0 0 0
621 2 8.6134999999999984e+00 7.1042950623783407e-01 2.6867300749240830e+01 0 0 0
652 2 8.6134999999999984e+00 2.1312885187135002e+00 2.6867300749240830e+01 0 0 0
654 2 9.8440000000000012e+00 2.8417180249513332e+00 2.6867300749240830e+01 0 0 0
656 2 9.8440000000000012e+00 0.0000000000000000e+00 2.6867300749240830e+01 0 0 0
658 2 1.1074500000000002e+01 7.1042950623783330e-01 2.6867300749240830e+01 0 0 0
697 2 1.1074500000000002e+01 2.1312885187135002e+00 2.6867300749240830e+01 0 0 0
561 2 0.0000000000000000e+00 4.2625770374269996e+00 2.6867300749240830e+01 0 0 0
563 2 1.2305000000000001e+00 4.9730065436648339e+00 2.6867300749240830e+01 0 0 0
578 2 1.2305000000000001e+00 6.3938655561404980e+00 2.6867300749240830e+01 0 0 0
582 2 2.4610000000000003e+00 4.2625770374269996e+00 2.6867300749240830e+01 0 0 0
584 2 3.6914999999999996e+00 4.9730065436648339e+00 2.6867300749240830e+01 0 0 0
607 2 3.6914999999999996e+00 6.3938655561404980e+00 2.6867300749240830e+01 0 0 0
559 2 0.0000000000000000e+00 7.1042950623783341e+00 2.6867300749240830e+01 0 0 0
580 2 2.4610000000000003e+00 7.1042950623783341e+00 2.6867300749240830e+01 0 0 0
611 2 4.9220000000000006e+00 4.2625770374269978e+00 2.6867300749240830e+01 0 0 0
613 2 6.1524999999999999e+00 4.9730065436648339e+00 2.6867300749240830e+01 0 0 0
644 2 6.1524999999999999e+00 6.3938655561404980e+00 2.6867300749240830e+01 0 0 0
648 2 7.3829999999999991e+00 4.2625770374269996e+00 2.6867300749240830e+01 0 0 0
609 2 4.9220000000000006e+00 7.1042950623783341e+00 2.6867300749240830e+01 0 0 0
646 2 7.3830000000000009e+00 7.1042950623783341e+00 2.6867300749240830e+01 0 0 0
650 2 8.6135000000000002e+00 4.9730065436648339e+00 2.6867300749240830e+01 0 0 0
689 2 8.6135000000000002e+00 6.3938655561404980e+00 2.6867300749240830e+01 0 0 0
693 2 9.8440000000000012e+00 4.2625770374270004e+00 2.6867300749240830e+01 0 0 0
695 2 1.1074500000000002e+01 4.9730065436648339e+00 2.6867300749240830e+01 0 0 0
736 2 1.1074500000000002e+01 6.3938655561404980e+00 2.6867300749240830e+01 0 0 0
691 2 9.8440000000000012e+00 7.1042950623783341e+00 2.6867300749240830e+01 0 0 0
574 2 0.0000000000000000e+00 8.5251540748539991e+00 2.6867300749240830e+01 0 0 0
576 2 1.2305000000000001e+00 9.2355835810918343e+00 2.6867300749240830e+01 0 0 0
603 2 2.4610000000000003e+00 8.5251540748539991e+00 2.6867300749240830e+01 0 0 0
605 2 3.6915000000000004e+00 9.2355835810918343e+00 2.6867300749240830e+01 0 0 0
572 2 0.0000000000000000e+00 1.1366872099805333e+01 2.6867300749240830e+01 0 0 0
599 2 1.2305000000000001e+00 1.0656442593567498e+01 2.6867300749240830e+01 0 0 0
601 2 2.4610000000000003e+00 1.1366872099805333e+01 2.6867300749240830e+01 0 0 0
636 2 3.6914999999999996e+00 1.0656442593567499e+01 2.6867300749240830e+01 0 0 0
640 2 4.9220000000000006e+00 8.5251540748539991e+00 2.6867300749240830e+01 0 0 0
642 2 6.1524999999999999e+00 9.2355835810918343e+00 2.6867300749240830e+01 0 0 0
685 2 7.3830000000000009e+00 8.5251540748539991e+00 2.6867300749240830e+01 0 0 0
638 2 4.9220000000000006e+00 1.1366872099805333e+01 2.6867300749240830e+01 0 0 0
681 2 6.1524999999999999e+00 1.0656442593567499e+01 2.6867300749240830e+01 0 0 0
683 2 7.3829999999999991e+00 1.1366872099805333e+01 2.6867300749240830e+01 0 0 0
730 2 9.8440000000000012e+00 1.1366872099805333e+01 2.6867300749240830e+01 0 0 0
732 2 9.8440000000000012e+00 8.5251540748539956e+00 2.6867300749240830e+01 0 0 0
100 1 1.1967724793562340e+01 5.5840886818911950e-01 2.4322677980620874e+01 0 0 0
3294 1 3.8985186153241547e-01 2.0813780781068432e+00 2.4482931857975519e+01 2 0 0
221 1 5.6159061697825647e+00 4.7752203338050518e-02 2.3889621579864603e+01 0 0 0
6165 1 3.7015523448174009e-01 9.3015594395914434e+00 2.3967465924571915e+01 0 0 1
1636 1 1.2236408657631328e+01 3.5631775392076301e+00 2.4302323461162757e+01 1 1 0
555 2 0.0000000000000000e+00 1.4208590124756650e+00 3.0030999999998794e+01 0 0 0
557 2 0.0000000000000000e+00 0.0000000000000000e+00 3.0030999999998794e+01 0 0 0
566 2 1.2305000000000001e+00 2.1312885187134998e+00 3.0030999999998794e+01 0 0 0
568 2 2.4610000000000003e+00 1.4208590124756650e+00 3.0030999999998794e+01 0 0 0
570 2 2.4610000000000003e+00 0.0000000000000000e+00 3.0030999999998794e+01 0 0 0
587 2 3.6914999999999996e+00 2.1312885187134998e+00 3.0030999999998794e+01 0 0 0
564 2 1.2305000000000001e+00 3.5521475311891644e+00 3.0030999999998794e+01 0 0 0
585 2 3.6914999999999996e+00 3.5521475311891644e+00 3.0030999999998794e+01 0 0 0
883 2 0.0000000000000000e+00 2.8417180249513345e+00 3.3194699250753793e+01 0 0 0
884 2 0.0000000000000000e+00 0.0000000000000000e+00 3.3194699250753793e+01 0 0 0
885 2 1.2305000000000001e+00 7.1042950623783474e-01 3.3194699250753793e+01 0 0 0
889 2 1.2305000000000001e+00 2.1312885187134998e+00 3.3194699250753793e+01 0 0 0
890 2 2.4610000000000003e+00 2.8417180249513345e+00 3.3194699250753793e+01 0 0 0
891 2 2.4610000000000003e+00 0.0000000000000000e+00 3.3194699250753793e+01 0 0 0
892 2 3.6915000000000004e+00 7.1042950623783474e-01 3.3194699250753793e+01 0 0 0
900 2 3.6914999999999996e+00 2.1312885187134998e+00 3.3194699250753793e+01 0 0 0
589 2 4.9220000000000006e+00 1.4208590124756650e+00 3.0030999999998794e+01 0 0 0
591 2 4.9220000000000006e+00 0.0000000000000000e+00 3.0030999999998794e+01 0 0 0
616 2 6.1524999999999999e+00 2.1312885187134989e+00 3.0030999999998794e+01 0 0 0
618 2 7.3829999999999991e+00 1.4208590124756659e+00 3.0030999999998794e+01 0 0 0
620 2 7.3829999999999991e+00 0.0000000000000000e+00 3.0030999999998794e+01 0 0 0
614 2 6.1524999999999999e+00 3.5521475311891644e+00 3.0030999999998794e+01 0 0 0
901 2 4.9220000000000006e+00 2.8417180249513332e+00 3.3194699250753793e+01 0 0 0
902 2 4.9220000000000006e+00 0.0000000000000000e+00 3.3194699250753793e+01 0 0 0
903 2 6.1524999999999999e+00 7.1042950623783407e-01 3.3194699250753793e+01 0 0 0
915 2 6.1524999999999999e+00 2.1312885187134989e+00 3.3194699250753793e+01 0 0 0
916 2 7.3829999999999991e+00 2.8417180249513345e+00 3.3194699250753793e+01 0 0 0
917 2 7.3829999999999991e+00 0.0000000000000000e+00 3.3194699250753793e+01 0 0 0
653 2 8.6134999999999984e+00 2.1312885187135002e+00 3.0030999999998794e+01 0 0 0
655 2 9.8440000000000012e+00 1.4208590124756659e+00 3.0030999999998794e+01 0 0 0
657 2 9.8440000000000012e+00 0.0000000000000000e+00 3.0030999999998794e+01 0 0 0
698 2 1.1074500000000002e+01 2.1312885187135002e+00 3.0030999999998794e+01 0 0 0
651 2 8.6134999999999984e+00 3.5521475311891657e+00 3.0030999999998794e+01 0 0 0
696 2 1.1074500000000002e+01 3.5521475311891644e+00 3.0030999999998794e+01 0 0 0
918 2 8.6134999999999984e+00 7.1042950623783407e-01 3.3194699250753793e+01 0 0 0
934 2 8.6134999999999984e+00 2.1312885187135002e+00 3.3194699250753793e+01 0 0 0
935 2 9.8440000000000012e+00 2.8417180249513332e+00 3.3194699250753793e+01 0 0 0
936 2 9.8440000000000012e+00 0.0000000000000000e+00 3.3194699250753793e+01 0 0 0
937 2 1.1074500000000002e+01 7.1042950623783330e-01 3.3194699250753793e+01 0 0 0
957 2 1.1074500000000002e+01 2.1312885187135002e+00 3.3194699250753793e+01 0 0 0
560 2 0.0000000000000000e+00 5.6834360499026637e+00 3.0030999999998794e+01 0 0 0
562 2 0.0000000000000000e+00 4.2625770374269996e+00 3.0030999999998794e+01 0 0 0
579 2 1.2305000000000001e+00 6.3938655561404980e+00 3.0030999999998794e+01 0 0 0
581 2 2.4610000000000003e+00 5.6834360499026637e+00 3.0030999999998794e+01 0 0 0
583 2 2.4610000000000003e+00 4.2625770374269996e+00 3.0030999999998794e+01 0 0 0
608 2 3.6914999999999996e+00 6.3938655561404980e+00 3.0030999999998794e+01 0 0 0
577 2 1.2305000000000001e+00 7.8147245686161639e+00 3.0030999999998794e+01 0 0 0
606 2 3.6914999999999996e+00 7.8147245686161639e+00 3.0030999999998794e+01 0 0 0
887 2 0.0000000000000000e+00 4.2625770374269996e+00 3.3194699250753793e+01 0 0 0
888 2 1.2305000000000001e+00 4.9730065436648339e+00 3.3194699250753793e+01 0 0 0
896 2 1.2305000000000001e+00 6.3938655561404980e+00 3.3194699250753793e+01 0 0 0
898 2 2.4610000000000003e+00 4.2625770374269996e+00 3.3194699250753793e+01 0 0 0
899 2 3.6914999999999996e+00 4.9730065436648339e+00 3.3194699250753793e+01 0 0 0
911 2 3.6914999999999996e+00 6.3938655561404980e+00 3.3194699250753793e+01 0 0 0
886 2 0.0000000000000000e+00 7.1042950623783341e+00 3.3194699250753793e+01 0 0 0
897 2 2.4610000000000003e+00 7.1042950623783341e+00 3.3194699250753793e+01 0 0 0
610 2 4.9220000000000006e+00 5.6834360499026637e+00 3.0030999999998794e+01 0 0 0
612 2 4.9220000000000006e+00 4.2625770374269978e+00 3.0030999999998794e+01 0 0 0
645 2 6.1524999999999999e+00 6.3938655561404980e+00 3.0030999999998794e+01 0 0 0
647 2 7.3829999999999991e+00 5.6834360499026637e+00 3.0030999999998794e+01 0 0 0
649 2 7.3829999999999991e+00 4.2625770374269996e+00 3.0030999999998794e+01 0 0 0
643 2 6.1524999999999999e+00 7.8147245686161639e+00 3.0030999999998794e+01 0 0 0
913 2 4.9220000000000006e+00 4.2625770374269978e+00 3.3194699250753793e+01 0 0 0
914 2 6.1524999999999999e+00 4.9730065436648339e+00 3.3194699250753793e+01 0 0 0
930 2 6.1524999999999999e+00 6.3938655561404980e+00 3.3194699250753793e+01 0 0 0
932 2 7.3829999999999991e+00 4.2625770374269996e+00 3.3194699250753793e+01 0 0 0
912 2 4.9220000000000006e+00 7.1042950623783341e+00 3.3194699250753793e+01 0 0 0
931 2 7.3830000000000009e+00 7.1042950623783341e+00 3.3194699250753793e+01 0 0 0
690 2 8.6135000000000002e+00 6.3938655561404980e+00 3.0030999999998794e+01 0 0 0
692 2 9.8440000000000012e+00 5.6834360499026637e+00 3.0030999999998794e+01 0 0 0
694 2 9.8440000000000012e+00 4.2625770374270004e+00 3.0030999999998794e+01 0 0 0
737 2 1.1074500000000002e+01 6.3938655561404980e+00 3.0030999999998794e+01 0 0 0
688 2 8.6135000000000002e+00 7.8147245686161639e+00 3.0030999999998794e+01 0 0 0
735 2 1.1074500000000002e+01 7.8147245686161639e+00 3.0030999999998794e+01 0 0 0
933 2 8.6135000000000002e+00 4.9730065436648339e+00 3.3194699250753793e+01 0 0 0
953 2 8.6135000000000002e+00 6.3938655561404980e+00 3.3194699250753793e+01 0 0 0
955 2 9.8440000000000012e+00 4.2625770374270004e+00 3.3194699250753793e+01 0 0 0
956 2 1.1074500000000002e+01 4.9730065436648339e+00 3.3194699250753793e+01 0 0 0
977 2 1.1074500000000002e+01 6.3938655561404980e+00 3.3194699250753793e+01 0 0 0
954 2 9.8440000000000012e+00 7.1042950623783341e+00 3.3194699250753793e+01 0 0 0
573 2 0.0000000000000000e+00 9.9460130873296642e+00 3.0030999999998794e+01 0 0 0
575 2 0.0000000000000000e+00 8.5251540748539991e+00 3.0030999999998794e+01 0 0 0
602 2 2.4610000000000003e+00 9.9460130873296642e+00 3.0030999999998794e+01 0 0 0
604 2 2.4610000000000003e+00 8.5251540748539991e+00 3.0030999999998794e+01 0 0 0
598 2 1.2305000000000001e+00 1.2077301606043163e+01 3.0030999999998794e+01 0 0 0
600 2 1.2305000000000001e+00 1.0656442593567498e+01 3.0030999999998794e+01 0 0 0
635 2 3.6914999999999996e+00 1.2077301606043163e+01 3.0030999999998794e+01 0 0 0
637 2 3.6914999999999996e+00 1.0656442593567499e+01 3.0030999999998794e+01 0 0 0
894 2 0.0000000000000000e+00 8.5251540748539991e+00 3.3194699250753793e+01 0 0 0
895 2 1.2305000000000001e+00 9.2355835810918343e+00 3.3194699250753793e+01 0 0 0
909 2 2.4610000000000003e+00 8.5251540748539991e+00 3.3194699250753793e+01 0 0 0
910 2 3.6915000000000004e+00 9.2355835810918343e+00 3.3194699250753793e+01 0 0 0
893 2 0.0000000000000000e+00 1.1366872099805333e+01 3.3194699250753793e+01 0 0 0
907 2 1.2305000000000001e+00 1.0656442593567498e+01 3.3194699250753793e+01 0 0 0
908 2 2.4610000000000003e+00 1.1366872099805333e+01 3.3194699250753793e+01 0 0 0
926 2 3.6914999999999996e+00 1.0656442593567499e+01 3.3194699250753793e+01 0 0 0
639 2 4.9220000000000006e+00 9.9460130873296642e+00 3.0030999999998794e+01 0 0 0
641 2 4.9220000000000006e+00 8.5251540748539991e+00 3.0030999999998794e+01 0 0 0
684 2 7.3830000000000009e+00 9.9460130873296642e+00 3.0030999999998794e+01 0 0 0
686 2 7.3830000000000009e+00 8.5251540748539991e+00 3.0030999999998794e+01 0 0 0
680 2 6.1524999999999999e+00 1.2077301606043163e+01 3.0030999999998794e+01 0 0 0
682 2 6.1524999999999999e+00 1.0656442593567499e+01 3.0030999999998794e+01 0 0 0
928 2 4.9220000000000006e+00 8.5251540748539991e+00 3.3194699250753793e+01 0 0 0
929 2 6.1524999999999999e+00 9.2355835810918343e+00 3.3194699250753793e+01 0 0 0
951 2 7.3830000000000009e+00 8.5251540748539991e+00 3.3194699250753793e+01 0 0 0
927 2 4.9220000000000006e+00 1.1366872099805333e+01 3.3194699250753793e+01 0 0 0
949 2 6.1524999999999999e+00 1.0656442593567499e+01 3.3194699250753793e+01 0 0 0
950 2 7.3829999999999991e+00 1.1366872099805333e+01 3.3194699250753793e+01 0 0 0
731 2 9.8440000000000012e+00 9.9460130873296642e+00 3.0030999999998794e+01 0 0 0
733 2 9.8440000000000012e+00 8.5251540748539956e+00 3.0030999999998794e+01 0 0 0
727 2 8.6135000000000002e+00 1.2077301606043163e+01 3.0030999999998794e+01 0 0 0
729 2 8.6134999999999984e+00 1.0656442593567498e+01 3.0030999999998794e+01 0 0 0
774 2 1.1074500000000002e+01 1.2077301606043163e+01 3.0030999999998794e+01 0 0 0
776 2 1.1074500000000002e+01 1.0656442593567498e+01 3.0030999999998794e+01 0 0 0
952 2 8.6134999999999984e+00 9.2355835810918343e+00 3.3194699250753793e+01 0 0 0
975 2 9.8440000000000012e+00 8.5251540748539956e+00 3.3194699250753793e+01 0 0 0
976 2 1.1074500000000002e+01 9.2355835810918343e+00 3.3194699250753793e+01 0 0 0
973 2 8.6134999999999984e+00 1.0656442593567498e+01 3.3194699250753793e+01 0 0 0
974 2 9.8440000000000012e+00 1.1366872099805333e+01 3.3194699250753793e+01 0 0 0
997 2 1.1074500000000002e+01 1.0656442593567498e+01 3.3194699250753793e+01 0 0 0
998 2 1.2304999999999998e+01 1.1366872099805333e+01 3.3194699250753793e+01 0 0 0
1290 1 2.9342379514945995e+00 3.5100821242513160e+00 3.5944010336325505e+01 0 1 0
488 1 4.2572032711136822e+00 1.1579568385774250e+01 3.6126710542134994e+01 0 0 0
6238 1 4.2815011961232257e+00 1.0947536747957831e+00 3.5538322310046063e+01 0 0 0
3417 1 8.3746925232648550e+00 3.4694632369112606e+00 3.5582640777633557e+01 0 0 -1
3746 1 7.0985772918299581e+00 1.1664947512612864e+00 3.6085065199880681e+01 1 1 0
6058 1 9.4380853786917274e-01 9.2069438918951363e+00 3.5579813344206414e+01 1 1 0
4679 1 8.5613288698251129e+00 1.0931902018506062e+01 3.5822716894657731e+01 1 1 0
1393 1 7.1857117082016915e+00 6.3586223575744549e+00 3.5966809098190787e+01 0 0 0
515 1 4.2643709966271226e+00 5.8234593718422811e+00 3.5786334259493920e+01 0 0 0
3344 1 1.0007811846388051e+01 6.7234640809786015e+00 3.5705050182756366e+01 1 0 -1
5996 1 1.1050152713592412e+01 2.8841873797912521e+00 3.5768560857645689e+01 1 -1 0
1544 1 6.2464451457796244e+00 9.0326458085043200e+00 3.6521846393150589e+01 0 1 0
4701 1 1.1018041867904012e+01 9.5025334951852027e+00 3.5755361379607969e+01 0 0 0
3488 1 2.7567356089146294e-01 4.0987828262848653e+00 3.5452801721381846e+01 1 1 -1
4622 1 3.4163130730367888e+00 8.4494308088050385e+00 3.6688890540926060e+01 1 0 -1
5986 1 2.3568175050124553e+00 1.9518362128494566e+00 4.0230400171057575e+01 1 1 0
5991 1 2.3746674423259799e+00 2.2082331373616650e+00 4.3194290852713422e+01 1 0 -1
3040 1 6.3124457004098549e+00 3.0141974491216397e+00 3.9305126555597106e+01 0 1 0
287 1 3.6530833888145979e+00 4.1059735886000563e+00 3.8774565239515361e+01 0 0 -1
6236 1 1.0183579128442389e+01 3.1444867694371488e+00 3.8499427427842832e+01 1 0 0
4555 1 4.5741781002712569e+00 7.6950348605503827e-01 3.8635544731723741e+01 0 1 0
3605 1 3.2165950856039807e+00 5.9421314935249754e+00 4.0835320616827183e+01 0 -1 -1
6024 1 8.1376248629950254e+00 4.8886958022366498e+00 3.8487298220633932e+01 0 0 0
4942 1 7.8672749005600995e+00 7.1055214665433652e+00 4.0394322075274282e+01 1 0 0
104 1 1.1519341148241969e+01 4.9055001708833066e+00 4.0468885338051116e+01 1 0 0
3357 1 1.0211366364374864e+01 7.3752673767862902e+00 3.8309538398960576e+01 0 0 -1
4513 1 2.1738618099574296e+00 7.9065970872020754e+00 3.9170549363793803e+01 0 0 0
1334 1 6.6020755546795487e+00 9.8117747239395658e+00 3.9522038887527636e+01 0 1 0
4687 1 9.5798094780824048e+00 1.0341231649452416e+01 3.8624315860267352e+01 1 1 0
391 1 1.2176477243062624e+01 7.5963893129092099e+00 4.2242256738291154e+01 1 -1 -1
4672 1 1.1550221911803387e+01 1.6187235437236016e+00 4.2880101519913410e+01 1 0 0
395 1 4.7707901988675498e+00 8.9451682134090973e+00 4.1085357297005935e+01 0 0 -1
3647 1 6.6687909794259665e+00 3.3244238432183666e+00 4.2041086672194645e+01 0 1 0
2972 1 8.1481694673844309e+00 1.1146675532812408e+01 4.1720874650736334e+01 0 -1 0
1408 1 9.4984407489539731e+00 3.5991790135487194e+00 4.2193967732262422e+01 0 0 0
4543 1 8.7079702377337593e+00 1.1183587331356695e+00 4.0037157068902935e+01 1 1 0
6219 1 1.9008683024101294e+00 9.8818793554426207e+00 4.1283826707364831e+01 1 2 -1
1253 1 1.4669467413857249e+00 4.6526167605930606e+00 4.2748433609808075e+01 1 0 0
3233 1 5.8439572240041429e+00 6.0707671451618728e+00 4.1878326315974938e+01 0 0 -1
1606 1 9.4197247478230786e+00 7.2975007805231620e+00 4.2770055988497269e+01 0 0 -1
4708 1 2.6934302522804554e+00 1.2161353328336627e+01 4.0161511262367441e+01 1 0 -1
3015 1 3.2441604149177357e+00 1.0982395341873543e+01 4.3596713618889872e+01 1 0 -1
3055 1 9.1929309966870765e+00 9.6808949524774786e+00 4.3795273568480503e+01 1 1 0
2057 1 9.8705971585870755e-01 3.5578092491692154e-01 4.4571501676847149e+01 1 0 0
6177 1 1.1321007527037132e+01 1.1145818239142416e+01 4.4058596299472228e+01 1 0 0
1445 1 4.5220801662640904e+00 2.2535911847460861e+00 4.6532114647292879e+01 2 1 0
4681 1 5.6905172403711628e+00 6.2096591947759885e+00 4.5085017350648492e+01 1 0 0
1762 1 9.5118789459137290e+00 7.3089279601036283e+00 4.8288080407428183e+01 0 0 -1
3637 1 2.3334647720717054e+00 8.3307120287093639e+00 5.0076301964509931e+01 1 0 0
1709 1 2.8624401378384738e+00 4.5132340298376032e+00 4.7413951584606920e+01 -1 1 -1
4559 1 3.9128213540384684e+00 1.0358102185798229e+01 4.8463890267274053e+01 0 0 -1
5269 1 8.9809358801871237e+00 1.4402028758153442e+00 4.7271284128236232e+01 1 0 0
3314 1 8.7429469425388611e+00 1.1973859531403907e+01 4.7071597396611686e+01 1 0 0
4609 1 5.6353549768252043e+00 8.8444505165764777e+00 4.6195460266749826e+01 1 0 0
4875 1 5.7005076677693189e+00 4.6396266939529207e-01 5.0279012739939517e+01 1 0 0
3145 1 1.0070972369619607e+01 5.4561090196875837e+00 4.4948346514114348e+01 0 1 0
5318 1 2.2486394711673854e+00 1.0870460145087165e+01 4.6401856181405513e+01 0 0 0
1724 1 8.3616757255911089e+00 9.5062408388430359e+00 4.6602771416223398e+01 0 0 -1
4897 1 1.2014387660219430e+01 3.3457541613752992e+00 4.7558698098682022e+01 0 0 -1
6048 1 2.7572903484874702e+00 5.8947929004655570e+00 4.4899152461837303e+01 1 -1 0
1603 1 6.8382703300078500e+00 3.3974435664286924e+00 5.0023607340339574e+01 1 0 0
1289 1 9.3039296503505344e+00 4.4185577993319018e+00 4.7774554349753714e+01 1 0 -1
3529 1 8.8502240596203107e-03 3.6155793944181234e+00 4.9775124991434623e+01 0 0 0
4507 1 8.5228640667355759e-01 7.4864556433805773e-01 4.9242007459090033e+01 1 1 0
6057 1 6.3728561004317541e+00 3.5654948898889854e-01 4.7609084687856260e+01 -1 1 0
2894 1 9.2508809529995144e+00 1.4340285331766796e+00 5.0186471669836735e+01 1 0 0
3140 1 9.1189540914275327e+00 1.3750650794979500e+00 4.4492022583720662e+01 1 0 -1
4520 1 4.0313006600513166e+00 6.0245326495375151e+00 4.9530279335577596e+01 0 1 0
5999 1 6.1385662652893593e+00 4.6711162196562004e+00 4.7425665301472478e+01 0 -1 0