LAMMPS data file via write_data, version 16 Mar 2018, timestep = 6000000

6489 atoms
2 atom types

0.0000000000000000e+00 4.9219999999999999e+01 xlo xhi
0.0000000000000000e+00 4.9019635930410494e+01 ylo yhi
9.6676705931199436e-01 5.9095232940679224e+01 zlo zhi

Masses

1 18.015
2 12.01

Atoms # atomic

3143 1 3.8873442816179580e+00 3.0067400044578250e+00 3.5559784839085187e+00 1 -3 0
2887 1 3.9899458231983091e+00 4.5145281911186724e-01 2.5198214559947441e+00 -2 2 1
5110 1 8.3284340270824426e+00 2.5833082606964752e+00 3.6756972453170622e+00 2 2 1
551 1 1.0475127182307906e+01 3.8053703282353881e+00 2.5338881221355329e+00 0 1 1
3311 1 8.3817703649448845e+00 2.1270951212641620e-01 2.4798931075161734e+00 0 -2 1
2922 1 1.5939362165570512e+00 4.5112271666547832e+00 2.7118452903095398e+00 -1 1 1
3504 1 1.5289279976135035e+00 7.1916042117903691e+00 3.0062288520514286e+00 -1 2 0
2943 1 4.0224830789234023e+00 7.9430684936175471e+00 2.4600617405979879e+00 -1 3 1
336 1 6.2812179577804201e+00 4.1829363146546745e+00 2.8688984886497408e+00 1 -1 0
3744 1 6.1076736811183787e+00 6.7032497628150498e+00 3.4734801999109601e+00 1 -1 1
2983 1 8.3936235422515253e+00 7.6663538105955098e+00 2.5989761927134905e+00 1 -2 1
4999 1 1.0643595563126588e+01 6.3974941947916779e+00 3.5514394137944443e+00 3 -1 0
4795 1 3.5277291530991008e+00 1.0469080270711661e+01 3.0914860343701269e+00 -2 2 1
4822 1 1.3946116779233564e+00 1.1728680409633746e+01 1.9171187087377068e+00 3 0 1
260 1 5.7373199690691390e+00 1.1281794864148894e+01 2.0364125352400668e+00 1 0 0
3176 1 8.2094445253644270e+00 1.0382608841384126e+01 2.9332741611258122e+00 1 3 1
2145 1 1.0608358751540402e+01 1.1484512250188823e+01 2.3139826509910790e+00 0 1 1
3113 1 1.3648446259002573e+00 2.1273773393770741e+00 6.9674482354627809e+00 2 3 1
3670 1 3.7525609250101630e+00 3.2883974347234628e+00 6.3790414338977524e+00 2 0 0
1957 1 5.8663892746298059e+00 1.7538826903008102e+00 7.2563534112745200e+00 1 0 0
4882 1 8.4289932330093382e+00 2.6316726793529912e+00 6.2230782823159867e+00 1 0 0
1612 1 1.0750563434309802e+01 1.4670455556698039e+00 6.9329440026515918e+00 0 -1 1
3128 1 1.2790224334029276e+00 6.8350599637188996e+00 6.0881957310149142e+00 -1 1 1
158 1 3.5416077511276272e+00 5.9238963047895821e+00 7.2809924569679323e+00 0 0 0
3251 1 5.9725660877611464e+00 6.9113022369461188e+00 6.2436927464973087e+00 -2 2 0
3025 1 8.1518612656570024e+00 5.2791966419659913e+00 6.9625904324739931e+00 0 0 1
294 1 1.0629419846680266e+01 6.4973259280619580e+00 6.3847674386370015e+00 1 2 0
118 1 1.5033282893815638e+00 9.3743323316422593e+00 7.0201018855166213e+00 1 3 0
5442 1 3.7674565543349616e+00 1.0641657004559022e+01 5.8143235019133108e+00 3 -1 0
1725 1 8.1253818935932554e+00 1.0204250196788248e+01 5.8148901942575408e+00 0 1 1
1329 1 5.8929060137441676e+00 9.3249993346790685e+00 6.9336949317419236e+00 -1 1 1
6321 1 1.0124132987237244e+01 9.0348487638404720e+00 7.2384376523855787e+00 -1 -1 1
307 1 1.1462630055604959e+00 1.8957850730636707e+00 9.7860670435379209e+00 2 2 0
3157 1 3.4122388643006065e+00 7.9551998677005920e-01 1.1066803518634270e+01 -2 0 1
1567 1 6.0749904664988055e+00 1.6356365993321873e+00 9.8680450448403203e+00 1 1 1
360 1 1.0814164024464100e+01 1.5087422619669970e+00 9.7208844448270533e+00 3 2 1
3498 1 1.0813782028251183e+01 4.0018955304689339e+00 1.0737752635142986e+01 1 -2 0
5248 1 8.2743137518328425e+00 2.2580075529417065e-01 1.0352859832163752e+01 2 1 0
3316 1 1.2554278283922744e+00 4.4984401864783470e+00 1.0650943939946321e+01 3 -2 0
5067 1 3.6829638422350071e+00 5.4652357320939267e+00 9.9257552591357641e+00 3 0 0
1661 1 6.0974434122882997e+00 4.3133193062475463e+00 1.0818872109998075e+01 2 -2 1
6197 1 8.4526861679538339e+00 5.4545915462222707e+00 9.6717808474189901e+00 2 -2 1
236 1 3.8447937463557849e+00 8.3073671219540461e+00 1.0752453022744106e+01 0 1 0
5415 1 1.4613912673210430e+00 9.5547399925598864e+00 9.6245473715926870e+00 0 -1 1
38 1 6.2563787242001689e+00 9.3905831631136181e+00 9.6818430692040405e+00 4 0 0
1781 1 5.9657586348752059e+00 1.2084940913339789e+01 1.0343974385547778e+01 0 -2 1
1972 1 8.4678478514614568e+00 8.2390203599798362e+00 1.0504960132586039e+01 1 0 0
1935 1 1.0681248232788244e+01 9.5549323305608791e+00 9.8939003335307714e+00 1 2 0
4980 1 3.3244774799723040e+00 5.0492689473838237e-01 1.3731151016262718e+01 0 0 0
1273 1 3.5794586704547684e+00 3.2404752856297705e+00 1.4289297022730434e+01 2 2 1
1423 1 8.6361379306029082e+00 2.9480847496391931e+00 1.3945153811541008e+01 0 1 1
1906 1 8.2289313739595187e+00 3.1647334350625300e-01 1.3223569155136799e+01 0 1 0
3234 1 1.4183283096790515e+00 4.4068752176792776e+00 1.3321642304615342e+01 0 0 0
512 1 1.2331776177577412e+00 6.9776595655738891e+00 1.4362284852373390e+01 0 1 1
3061 1 3.6041192558763870e+00 8.0779522609691945e+00 1.3566505994461536e+01 0 2 0
2038 1 5.9912802519261597e+00 4.1183217324511894e+00 1.3564317975456406e+01 0 0 0
348 1 5.9591026538716623e+00 6.8770610706052446e+00 1.4207147487844543e+01 2 -2 0
1443 1 8.1690086069914347e+00 8.1537762558438338e+00 1.3235571968507816e+01 -1 -2 1
4629 1 1.0870140751267115e+01 4.3031120612213378e+00 1.3498233592631509e+01 1 -2 1
1306 1 1.0488223733973580e+01 7.0321060592924063e+00 1.4289153742407384e+01 3 -1 1
6172 1 3.6941953872645938e+00 1.0746652544762526e+01 1.4265401427045003e+01 -1 1 1
3015 1 1.5113342668656506e+00 1.1986987646476033e+01 1.2999783060803070e+01 -2 3 1
1600 1 5.8925290690917720e+00 1.2133321221661106e+01 1.3235698163781386e+01 -1 2 0
99 1 8.3354483107428585e+00 1.0696036201396785e+01 1.4086345927294071e+01 -1 3 1
3133 1 1.0785418646954751e+01 1.2045704351343572e+01 1.3206030651727387e+01 0 -2 1
6392 1 3.6067621001343979e+00 3.1956598135945207e+00 1.7174161877401133e+01 0 1 1
6381 1 3.5565618893881834e+00 7.7793542149988659e-01 1.8467760097818360e+01 1 2 1
4975 1 8.7177108403938437e+00 3.1439458416153632e+00 1.6692767737021555e+01 1 -1 0
6396 1 9.6550379885608528e+00 1.0215431945099638e+00 1.8366250977943832e+01 -1 1 0
1996 1 1.2616275438868305e+00 4.4547149655772680e+00 1.7988829248484176e+01 0 -1 0
3502 1 1.0397948274649558e+00 6.8617650802002528e+00 1.7276790250246627e+01 0 1 0
5160 1 3.9082879817438645e+00 8.1106361299184115e+00 1.7807556119918303e+01 0 2 0
160 1 6.2044725999820374e+00 4.2839159928504467e+00 1.7561257687486279e+01 -3 1 1
4943 1 6.2580785007035287e+00 6.8780408534079562e+00 1.7088292089918152e+01 -4 1 0
1844 1 1.1135176559824695e+01 4.4604733586759693e+00 1.7294723094318641e+01 1 4 0
4776 1 1.0837216269543998e+01 7.0612520866140764e+00 1.6846987525117743e+01 -1 -1 0
290 1 3.9531612804054435e+00 1.0655554490197041e+01 1.7054941652720512e+01 1 1 0
536 1 1.6041693171558333e+00 1.1707541344369931e+01 1.7902993611195061e+01 -1 0 1
3517 1 6.4114056491119902e+00 1.1877103209384547e+01 1.7860736675436570e+01 1 3 0
6364 1 8.5032351260869934e+00 8.2128540984538194e+00 1.7859656527907081e+01 0 1 1
3533 1 8.6921611908256260e+00 1.0650829464582175e+01 1.6904686564920468e+01 1 -1 0
2199 1 1.0644080300272602e+01 1.2046166340318345e+01 1.8047374317155153e+01 1 3 1
1722 1 3.9841729007511733e+00 2.5910639598183884e+00 2.1004971747198603e+01 0 0 1
3777 1 1.3483997912847621e+00 3.5530307793360447e+00 2.0831853088379408e+01 0 -2 1
4500 1 6.2935453536460191e+00 3.9600478175007190e+00 2.0393121757849247e+01 0 0 1
3620 1 8.6970390146662560e+00 2.7241171512979028e+00 2.1194281967872172e+01 3 2 0
1613 1 1.3894244845840358e+00 6.5748904037466023e+00 2.1486652541782043e+01 -1 5 1
5424 1 3.7405168890403973e+00 7.9418626265083390e+00 2.0489895004685764e+01 0 3 1
1352 1 6.2700095583484705e+00 6.6598458861093164e+00 2.1188366873392287e+01 -1 -1 1
6120 1 1.0682886900281050e+01 4.4073514995523517e+00 2.0170414571684155e+01 -2 0 1
3641 1 8.5563702961246371e+00 8.0637478200607582e+00 2.0570107675711409e+01 3 3 1
2079 1 1.0944707424634561e+01 6.8277763031037155e+00 2.1186690509056842e+01 0 1 0
4573 1 1.3874093091430773e+00 1.1467191585066253e+01 2.0386322487204453e+01 4 -1 0
1467 1 3.7494249151995414e+00 1.0582413582829091e+01 2.1304074058492006e+01 -1 1 1
4749 1 5.9545056497882678e+00 1.1835563539959866e+01 2.0662889944723819e+01 0 -1 0
4984 1 8.3680244975840452e+00 1.0624196006591873e+01 2.1518911118815026e+01 -1 1 0
3600 1 1.0592261443113557e+01 1.2031136886291941e+01 2.0922434372528944e+01 1 1 0
308 1 1.4324965371548184e+00 3.5103333646070234e+00 2.3955730560267444e+01 1 2 0
6394 1 4.1466563964035359e+00 2.1932363716343861e+00 2.3730793218171954e+01 -1 1 1
4878 1 6.4685634001955465e+00 3.4228684996319743e+00 2.4374537096579328e+01 -1 1 1
4718 1 8.8791832775272699e+00 2.1521087517458719e+00 2.3819352843455921e+01 -1 0 1
5065 1 1.1355683217150652e+01 3.2369924011852147e+00 2.4399109314553534e+01 0 2 0
3190 1 1.2572307284470206e+00 6.2353374362966507e+00 2.4104852935316547e+01 -1 0 0
1738 1 3.7312511747032735e+00 7.4658801790372946e+00 2.4127351844732644e+01 1 2 0
1861 1 6.2766720353301810e+00 6.2353832933410800e+00 2.3848676552417448e+01 -1 0 0
1554 1 1.0877776357943768e+01 6.1196196922996524e+00 2.3925182716124233e+01 1 1 0
2024 1 8.4850310892736669e+00 7.3605437774546294e+00 2.4517099375788213e+01 2 2 0
6263 1 3.5175095799867671e+00 1.0356507861865653e+01 2.4094718190125477e+01 4 0 1
1667 1 1.2688848853902666e+00 1.1921330908182540e+01 2.4442773452148135e+01 1 2 1
4914 1 6.0280031425325484e+00 1.1486133458750576e+01 2.4064797983116481e+01 1 -1 1
1545 1 8.3515027693439308e+00 1.0062659447423272e+01 2.4217876518376045e+01 -1 2 1
3100 1 1.1231049596827384e+01 1.1480114010492608e+01 2.4007333594656238e+01 -2 2 1
572 2 0.0000000000000000e+00 2.8417180249513345e+00 2.6757434424071999e+01 0 0 0
574 2 0.0000000000000000e+00 0.0000000000000000e+00 2.6757434424071999e+01 0 0 0
576 2 1.2305000000000001e+00 7.1042950623783474e-01 2.6757434424071999e+01 0 0 0
583 2 1.2305000000000001e+00 2.1312885187134998e+00 2.6757434424071999e+01 0 0 0
585 2 2.4610000000000003e+00 2.8417180249513345e+00 2.6757434424071999e+01 0 0 0
587 2 2.4610000000000003e+00 0.0000000000000000e+00 2.6757434424071999e+01 0 0 0
589 2 3.6915000000000004e+00 7.1042950623783474e-01 2.6757434424071999e+01 0 0 0
604 2 3.6914999999999996e+00 2.1312885187134998e+00 2.6757434424071999e+01 0 0 0
606 2 4.9220000000000006e+00 2.8417180249513332e+00 2.6757434424071999e+01 0 0 0
608 2 4.9220000000000006e+00 0.0000000000000000e+00 2.6757434424071999e+01 0 0 0
610 2 6.1524999999999999e+00 7.1042950623783407e-01 2.6757434424071999e+01 0 0 0
633 2 6.1524999999999999e+00 2.1312885187134989e+00 2.6757434424071999e+01 0 0 0
635 2 7.3829999999999991e+00 2.8417180249513345e+00 2.6757434424071999e+01 0 0 0
637 2 7.3829999999999991e+00 0.0000000000000000e+00 2.6757434424071999e+01 0 0 0
639 2 8.6134999999999984e+00 7.1042950623783407e-01 2.6757434424071999e+01 0 0 0
670 2 8.6134999999999984e+00 2.1312885187135002e+00 2.6757434424071999e+01 0 0 0
672 2 9.8440000000000012e+00 2.8417180249513332e+00 2.6757434424071999e+01 0 0 0
674 2 9.8440000000000012e+00 0.0000000000000000e+00 2.6757434424071999e+01 0 0 0
676 2 1.1074500000000002e+01 7.1042950623783330e-01 2.6757434424071999e+01 0 0 0
715 2 1.1074500000000002e+01 2.1312885187135002e+00 2.6757434424071999e+01 0 0 0
579 2 0.0000000000000000e+00 4.2625770374269996e+00 2.6757434424071999e+01 0 0 0
581 2 1.2305000000000001e+00 4.9730065436648339e+00 2.6757434424071999e+01 0 0 0
596 2 1.2305000000000001e+00 6.3938655561404980e+00 2.6757434424071999e+01 0 0 0
600 2 2.4610000000000003e+00 4.2625770374269996e+00 2.6757434424071999e+01 0 0 0
602 2 3.6914999999999996e+00 4.9730065436648339e+00 2.6757434424071999e+01 0 0 0
625 2 3.6914999999999996e+00 6.3938655561404980e+00 2.6757434424071999e+01 0 0 0
577 2 0.0000000000000000e+00 7.1042950623783341e+00 2.6757434424071999e+01 0 0 0
598 2 2.4610000000000003e+00 7.1042950623783341e+00 2.6757434424071999e+01 0 0 0
629 2 4.9220000000000006e+00 4.2625770374269978e+00 2.6757434424071999e+01 0 0 0
631 2 6.1524999999999999e+00 4.9730065436648339e+00 2.6757434424071999e+01 0 0 0
662 2 6.1524999999999999e+00 6.3938655561404980e+00 2.6757434424071999e+01 0 0 0
666 2 7.3829999999999991e+00 4.2625770374269996e+00 2.6757434424071999e+01 0 0 0
627 2 4.9220000000000006e+00 7.1042950623783341e+00 2.6757434424071999e+01 0 0 0
664 2 7.3830000000000009e+00 7.1042950623783341e+00 2.6757434424071999e+01 0 0 0
668 2 8.6135000000000002e+00 4.9730065436648339e+00 2.6757434424071999e+01 0 0 0
707 2 8.6135000000000002e+00 6.3938655561404980e+00 2.6757434424071999e+01 0 0 0
711 2 9.8440000000000012e+00 4.2625770374270004e+00 2.6757434424071999e+01 0 0 0
713 2 1.1074500000000002e+01 4.9730065436648339e+00 2.6757434424071999e+01 0 0 0
754 2 1.1074500000000002e+01 6.3938655561404980e+00 2.6757434424071999e+01 0 0 0
709 2 9.8440000000000012e+00 7.1042950623783341e+00 2.6757434424071999e+01 0 0 0
592 2 0.0000000000000000e+00 8.5251540748539991e+00 2.6757434424071999e+01 0 0 0
594 2 1.2305000000000001e+00 9.2355835810918343e+00 2.6757434424071999e+01 0 0 0
621 2 2.4610000000000003e+00 8.5251540748539991e+00 2.6757434424071999e+01 0 0 0
623 2 3.6915000000000004e+00 9.2355835810918343e+00 2.6757434424071999e+01 0 0 0
590 2 0.0000000000000000e+00 1.1366872099805333e+01 2.6757434424071999e+01 0 0 0
617 2 1.2305000000000001e+00 1.0656442593567498e+01 2.6757434424071999e+01 0 0 0
619 2 2.4610000000000003e+00 1.1366872099805333e+01 2.6757434424071999e+01 0 0 0
654 2 3.6914999999999996e+00 1.0656442593567499e+01 2.6757434424071999e+01 0 0 0
660 2 6.1524999999999999e+00 9.2355835810918343e+00 2.6757434424071999e+01 0 0 0
703 2 7.3830000000000009e+00 8.5251540748539991e+00 2.6757434424071999e+01 0 0 0
656 2 4.9220000000000006e+00 1.1366872099805333e+01 2.6757434424071999e+01 0 0 0
699 2 6.1524999999999999e+00 1.0656442593567499e+01 2.6757434424071999e+01 0 0 0
701 2 7.3829999999999991e+00 1.1366872099805333e+01 2.6757434424071999e+01 0 0 0
658 2 4.9220000000000006e+00 8.5251540748539991e+00 2.6757434424071999e+01 0 0 0
793 2 1.1074500000000002e+01 1.0656442593567498e+01 2.6757434424071999e+01 0 0 0
705 2 8.6134999999999984e+00 9.2355835810918343e+00 2.6757434424071999e+01 0 0 0
748 2 9.8440000000000012e+00 1.1366872099805333e+01 2.6757434424071999e+01 0 0 0
750 2 9.8440000000000012e+00 8.5251540748539956e+00 2.6757434424071999e+01 0 0 0
795 2 1.2304999999999998e+01 1.1366872099805333e+01 2.6757434424071999e+01 0 0 0
746 2 8.6134999999999984e+00 1.0656442593567498e+01 2.6757434424071999e+01 0 0 0
752 2 1.1074500000000002e+01 9.2355835810918343e+00 2.6757434424071999e+01 0 0 0
573 2 0.0000000000000000e+00 1.4208590124756650e+00 3.0030999999995981e+01 0 0 0
575 2 0.0000000000000000e+00 0.0000000000000000e+00 3.0030999999995981e+01 0 0 0
584 2 1.2305000000000001e+00 2.1312885187134998e+00 3.0030999999995981e+01 0 0 0
586 2 2.4610000000000003e+00 1.4208590124756650e+00 3.0030999999995981e+01 0 0 0
588 2 2.4610000000000003e+00 0.0000000000000000e+00 3.0030999999995981e+01 0 0 0
605 2 3.6914999999999996e+00 2.1312885187134998e+00 3.0030999999995981e+01 0 0 0
582 2 1.2305000000000001e+00 3.5521475311891644e+00 3.0030999999995981e+01 0 0 0
603 2 3.6914999999999996e+00 3.5521475311891644e+00 3.0030999999995981e+01 0 0 0
901 2 0.0000000000000000e+00 2.8417180249513345e+00 3.3304565575903069e+01 0 0 0
902 2 0.0000000000000000e+00 0.0000000000000000e+00 3.3304565575903069e+01 0 0 0
903 2 1.2305000000000001e+00 7.1042950623783474e-01 3.3304565575903069e+01 0 0 0
907 2 1.2305000000000001e+00 2.1312885187134998e+00 3.3304565575903069e+01 0 0 0
908 2 2.4610000000000003e+00 2.8417180249513345e+00 3.3304565575903069e+01 0 0 0
909 2 2.4610000000000003e+00 0.0000000000000000e+00 3.3304565575903069e+01 0 0 0
910 2 3.6915000000000004e+00 7.1042950623783474e-01 3.3304565575903069e+01 0 0 0
918 2 3.6914999999999996e+00 2.1312885187134998e+00 3.3304565575903069e+01 0 0 0
607 2 4.9220000000000006e+00 1.4208590124756650e+00 3.0030999999995981e+01 0 0 0
609 2 4.9220000000000006e+00 0.0000000000000000e+00 3.0030999999995981e+01 0 0 0
634 2 6.1524999999999999e+00 2.1312885187134989e+00 3.0030999999995981e+01 0 0 0
636 2 7.3829999999999991e+00 1.4208590124756659e+00 3.0030999999995981e+01 0 0 0
638 2 7.3829999999999991e+00 0.0000000000000000e+00 3.0030999999995981e+01 0 0 0
632 2 6.1524999999999999e+00 3.5521475311891644e+00 3.0030999999995981e+01 0 0 0
919 2 4.9220000000000006e+00 2.8417180249513332e+00 3.3304565575903069e+01 0 0 0
920 2 4.9220000000000006e+00 0.0000000000000000e+00 3.3304565575903069e+01 0 0 0
921 2 6.1524999999999999e+00 7.1042950623783407e-01 3.3304565575903069e+01 0 0 0
933 2 6.1524999999999999e+00 2.1312885187134989e+00 3.3304565575903069e+01 0 0 0
934 2 7.3829999999999991e+00 2.8417180249513345e+00 3.3304565575903069e+01 0 0 0
935 2 7.3829999999999991e+00 0.0000000000000000e+00 3.3304565575903069e+01 0 0 0
671 2 8.6134999999999984e+00 2.1312885187135002e+00 3.0030999999995981e+01 0 0 0
673 2 9.8440000000000012e+00 1.4208590124756659e+00 3.0030999999995981e+01 0 0 0
675 2 9.8440000000000012e+00 0.0000000000000000e+00 3.0030999999995981e+01 0 0 0
716 2 1.1074500000000002e+01 2.1312885187135002e+00 3.0030999999995981e+01 0 0 0
669 2 8.6134999999999984e+00 3.5521475311891657e+00 3.0030999999995981e+01 0 0 0
714 2 1.1074500000000002e+01 3.5521475311891644e+00 3.0030999999995981e+01 0 0 0
936 2 8.6134999999999984e+00 7.1042950623783407e-01 3.3304565575903069e+01 0 0 0
952 2 8.6134999999999984e+00 2.1312885187135002e+00 3.3304565575903069e+01 0 0 0
953 2 9.8440000000000012e+00 2.8417180249513332e+00 3.3304565575903069e+01 0 0 0
954 2 9.8440000000000012e+00 0.0000000000000000e+00 3.3304565575903069e+01 0 0 0
955 2 1.1074500000000002e+01 7.1042950623783330e-01 3.3304565575903069e+01 0 0 0
975 2 1.1074500000000002e+01 2.1312885187135002e+00 3.3304565575903069e+01 0 0 0
578 2 0.0000000000000000e+00 5.6834360499026637e+00 3.0030999999995981e+01 0 0 0
580 2 0.0000000000000000e+00 4.2625770374269996e+00 3.0030999999995981e+01 0 0 0
597 2 1.2305000000000001e+00 6.3938655561404980e+00 3.0030999999995981e+01 0 0 0
599 2 2.4610000000000003e+00 5.6834360499026637e+00 3.0030999999995981e+01 0 0 0
601 2 2.4610000000000003e+00 4.2625770374269996e+00 3.0030999999995981e+01 0 0 0
626 2 3.6914999999999996e+00 6.3938655561404980e+00 3.0030999999995981e+01 0 0 0
595 2 1.2305000000000001e+00 7.8147245686161639e+00 3.0030999999995981e+01 0 0 0
624 2 3.6914999999999996e+00 7.8147245686161639e+00 3.0030999999995981e+01 0 0 0
905 2 0.0000000000000000e+00 4.2625770374269996e+00 3.3304565575903069e+01 0 0 0
906 2 1.2305000000000001e+00 4.9730065436648339e+00 3.3304565575903069e+01 0 0 0
914 2 1.2305000000000001e+00 6.3938655561404980e+00 3.3304565575903069e+01 0 0 0
916 2 2.4610000000000003e+00 4.2625770374269996e+00 3.3304565575903069e+01 0 0 0
917 2 3.6914999999999996e+00 4.9730065436648339e+00 3.3304565575903069e+01 0 0 0
929 2 3.6914999999999996e+00 6.3938655561404980e+00 3.3304565575903069e+01 0 0 0
904 2 0.0000000000000000e+00 7.1042950623783341e+00 3.3304565575903069e+01 0 0 0
915 2 2.4610000000000003e+00 7.1042950623783341e+00 3.3304565575903069e+01 0 0 0
628 2 4.9220000000000006e+00 5.6834360499026637e+00 3.0030999999995981e+01 0 0 0
630 2 4.9220000000000006e+00 4.2625770374269978e+00 3.0030999999995981e+01 0 0 0
663 2 6.1524999999999999e+00 6.3938655561404980e+00 3.0030999999995981e+01 0 0 0
665 2 7.3829999999999991e+00 5.6834360499026637e+00 3.0030999999995981e+01 0 0 0
667 2 7.3829999999999991e+00 4.2625770374269996e+00 3.0030999999995981e+01 0 0 0
661 2 6.1524999999999999e+00 7.8147245686161639e+00 3.0030999999995981e+01 0 0 0
931 2 4.9220000000000006e+00 4.2625770374269978e+00 3.3304565575903069e+01 0 0 0
932 2 6.1524999999999999e+00 4.9730065436648339e+00 3.3304565575903069e+01 0 0 0
948 2 6.1524999999999999e+00 6.3938655561404980e+00 3.3304565575903069e+01 0 0 0
950 2 7.3829999999999991e+00 4.2625770374269996e+00 3.3304565575903069e+01 0 0 0
930 2 4.9220000000000006e+00 7.1042950623783341e+00 3.3304565575903069e+01 0 0 0
949 2 7.3830000000000009e+00 7.1042950623783341e+00 3.3304565575903069e+01 0 0 0
708 2 8.6135000000000002e+00 6.3938655561404980e+00 3.0030999999995981e+01 0 0 0
710 2 9.8440000000000012e+00 5.6834360499026637e+00 3.0030999999995981e+01 0 0 0
712 2 9.8440000000000012e+00 4.2625770374270004e+00 3.0030999999995981e+01 0 0 0
755 2 1.1074500000000002e+01 6.3938655561404980e+00 3.0030999999995981e+01 0 0 0
706 2 8.6135000000000002e+00 7.8147245686161639e+00 3.0030999999995981e+01 0 0 0
753 2 1.1074500000000002e+01 7.8147245686161639e+00 3.0030999999995981e+01 0 0 0
951 2 8.6135000000000002e+00 4.9730065436648339e+00 3.3304565575903069e+01 0 0 0
971 2 8.6135000000000002e+00 6.3938655561404980e+00 3.3304565575903069e+01 0 0 0
973 2 9.8440000000000012e+00 4.2625770374270004e+00 3.3304565575903069e+01 0 0 0
974 2 1.1074500000000002e+01 4.9730065436648339e+00 3.3304565575903069e+01 0 0 0
995 2 1.1074500000000002e+01 6.3938655561404980e+00 3.3304565575903069e+01 0 0 0
972 2 9.8440000000000012e+00 7.1042950623783341e+00 3.3304565575903069e+01 0 0 0
591 2 0.0000000000000000e+00 9.9460130873296642e+00 3.0030999999995981e+01 0 0 0
593 2 0.0000000000000000e+00 8.5251540748539991e+00 3.0030999999995981e+01 0 0 0
620 2 2.4610000000000003e+00 9.9460130873296642e+00 3.0030999999995981e+01 0 0 0
622 2 2.4610000000000003e+00 8.5251540748539991e+00 3.0030999999995981e+01 0 0 0
616 2 1.2305000000000001e+00 1.2077301606043163e+01 3.0030999999995981e+01 0 0 0
618 2 1.2305000000000001e+00 1.0656442593567498e+01 3.0030999999995981e+01 0 0 0
653 2 3.6914999999999996e+00 1.2077301606043163e+01 3.0030999999995981e+01 0 0 0
655 2 3.6914999999999996e+00 1.0656442593567499e+01 3.0030999999995981e+01 0 0 0
912 2 0.0000000000000000e+00 8.5251540748539991e+00 3.3304565575903069e+01 0 0 0
913 2 1.2305000000000001e+00 9.2355835810918343e+00 3.3304565575903069e+01 0 0 0
927 2 2.4610000000000003e+00 8.5251540748539991e+00 3.3304565575903069e+01 0 0 0
928 2 3.6915000000000004e+00 9.2355835810918343e+00 3.3304565575903069e+01 0 0 0
911 2 0.0000000000000000e+00 1.1366872099805333e+01 3.3304565575903069e+01 0 0 0
925 2 1.2305000000000001e+00 1.0656442593567498e+01 3.3304565575903069e+01 0 0 0
926 2 2.4610000000000003e+00 1.1366872099805333e+01 3.3304565575903069e+01 0 0 0
944 2 3.6914999999999996e+00 1.0656442593567499e+01 3.3304565575903069e+01 0 0 0
657 2 4.9220000000000006e+00 9.9460130873296642e+00 3.0030999999995981e+01 0 0 0
659 2 4.9220000000000006e+00 8.5251540748539991e+00 3.0030999999995981e+01 0 0 0
702 2 7.3830000000000009e+00 9.9460130873296642e+00 3.0030999999995981e+01 0 0 0
704 2 7.3830000000000009e+00 8.5251540748539991e+00 3.0030999999995981e+01 0 0 0
698 2 6.1524999999999999e+00 1.2077301606043163e+01 3.0030999999995981e+01 0 0 0
700 2 6.1524999999999999e+00 1.0656442593567499e+01 3.0030999999995981e+01 0 0 0
946 2 4.9220000000000006e+00 8.5251540748539991e+00 3.3304565575903069e+01 0 0 0
947 2 6.1524999999999999e+00 9.2355835810918343e+00 3.3304565575903069e+01 0 0 0
969 2 7.3830000000000009e+00 8.5251540748539991e+00 3.3304565575903069e+01 0 0 0
945 2 4.9220000000000006e+00 1.1366872099805333e+01 3.3304565575903069e+01 0 0 0
967 2 6.1524999999999999e+00 1.0656442593567499e+01 3.3304565575903069e+01 0 0 0
968 2 7.3829999999999991e+00 1.1366872099805333e+01 3.3304565575903069e+01 0 0 0
749 2 9.8440000000000012e+00 9.9460130873296642e+00 3.0030999999995981e+01 0 0 0
751 2 9.8440000000000012e+00 8.5251540748539956e+00 3.0030999999995981e+01 0 0 0
745 2 8.6135000000000002e+00 1.2077301606043163e+01 3.0030999999995981e+01 0 0 0
747 2 8.6134999999999984e+00 1.0656442593567498e+01 3.0030999999995981e+01 0 0 0
792 2 1.1074500000000002e+01 1.2077301606043163e+01 3.0030999999995981e+01 0 0 0
794 2 1.1074500000000002e+01 1.0656442593567498e+01 3.0030999999995981e+01 0 0 0
970 2 8.6134999999999984e+00 9.2355835810918343e+00 3.3304565575903069e+01 0 0 0
993 2 9.8440000000000012e+00 8.5251540748539956e+00 3.3304565575903069e+01 0 0 0
994 2 1.1074500000000002e+01 9.2355835810918343e+00 3.3304565575903069e+01 0 0 0
991 2 8.6134999999999984e+00 1.0656442593567498e+01 3.3304565575903069e+01 0 0 0
992 2 9.8440000000000012e+00 1.1366872099805333e+01 3.3304565575903069e+01 0 0 0
1015 2 1.1074500000000002e+01 1.0656442593567498e+01 3.3304565575903069e+01 0 0 0
1016 2 1.2304999999999998e+01 1.1366872099805333e+01 3.3304565575903069e+01 0 0 0
1544 1 1.2910789630063444e+00 1.9134998275631496e+00 3.6132525868940888e+01 1 1 -1
3243 1 3.8278739036883356e+00 3.3242238474836654e+00 3.6075352997622645e+01 -1 1 -1
3151 1 6.4644977849889935e+00 2.1388288343666306e+00 3.6269685829521350e+01 -2 -4 0
2865 1 8.7656965998098890e+00 3.6355961522237448e+00 3.5689510173593504e+01 -1 1 -1
4716 1 1.1182221494206065e+01 2.3668071703968887e+00 3.6005617842923840e+01 0 0 0
4737 1 1.1146786657823564e+00 7.4578985075733293e+00 3.5993985670403163e+01 0 4 0
496 1 3.6576808570495154e+00 6.1510338877870403e+00 3.5879799099316884e+01 0 -1 0
3009 1 6.5174919095313317e+00 6.9589373464696305e+00 3.6356884508508230e+01 -1 0 0
490 1 9.0275916299223411e+00 6.2814255774868197e+00 3.5536872081461851e+01 2 0 0
4978 1 1.1141157114937329e+01 7.8360710304779451e+00 3.6587451349956012e+01 1 2 -1
4775 1 1.1821457742163564e+00 1.0227188048947379e+01 3.5890979107813450e+01 2 0 0
3335 1 3.7957611232460091e+00 1.0753354689404512e+01 3.5950355686326759e+01 2 1 0
1753 1 6.4255906748141820e+00 9.4197711789371272e+00 3.5668419677377415e+01 0 2 -1
3781 1 8.7026336168905090e+00 1.1275465107675481e+01 3.6071062705772164e+01 1 1 0
5314 1 1.1328444346076449e+01 1.0476566033772610e+01 3.5686916386047159e+01 -1 -2 0
3582 1 1.3611450960147011e+00 1.7584771333088098e+00 3.8999214761767817e+01 -1 -1 -1
2907 1 3.8549560060925718e+00 3.3014948319800115e+00 3.8958495907142947e+01 -2 2 0
1639 1 6.5297054013399540e+00 2.0337818329568536e+00 3.9286512260381897e+01 -2 -3 -1
6216 1 1.0973260507795608e+01 1.9923972333795250e+00 3.9675207157254164e+01 -3 0 0
4930 1 8.7975481323713023e+00 3.4231996930985140e+00 3.8467937550284333e+01 0 -2 -1
1557 1 1.1636840575373044e+00 7.2609398365365783e+00 3.8911234217388440e+01 0 1 0
3109 1 3.5895906573020309e+00 5.9152372065052683e+00 3.8785316409162633e+01 -1 -3 0
5210 1 6.1558458303517725e+00 7.4694044483761814e+00 3.9307736219549099e+01 3 2 -1
5448 1 8.9818932068553643e+00 6.0428903524105735e+00 3.9126158546132046e+01 -2 2 0
6108 1 1.1276210798409600e+01 7.7964463628499718e+00 3.9169252848237775e+01 -1 3 0
6353 1 1.3611748453985952e+00 1.0004782359322807e+01 3.9341581366788319e+01 4 1 0
5289 1 3.7876050731929563e+00 1.1090309021848302e+01 3.8472508786704267e+01 2 3 -1
1881 1 6.2872860238048780e+00 1.0226793055908232e+01 3.9472665581835983e+01 0 -2 -1
258 1 1.1168398916649991e+01 1.0508198077817060e+01 3.9610219961707259e+01 -1 1 -1
5280 1 8.7750589964550016e+00 1.1521064357472355e+01 3.8917568478944645e+01 -1 2 -1
1801 1 2.6513980212291650e+00 2.4616098321051085e+00 4.1560701941692457e+01 0 1 -1
6220 1 3.7835397679064336e-01 1.0878096784798283e+00 4.3000813866808400e+01 0 3 0
5004 1 4.7013734990321527e+00 8.4317859791238525e-01 4.2882918644972037e+01 0 -1 0
3046 1 6.9976128222634317e+00 2.3556551071753979e+00 4.2183908888049018e+01 0 -1 0
1481 1 1.1244305222698722e+01 2.6544084360426043e+00 4.2322496674157861e+01 -3 2 0
3288 1 9.3066358882515861e+00 9.4807598360533929e-01 4.3068436821584825e+01 0 4 0
5205 1 2.7267666444348158e+00 5.1438084466756102e+00 4.2488575226665219e+01 0 4 -1
314 1 7.3627278571751376e-01 7.0622065323781760e+00 4.1848663163288805e+01 3 2 -1
4789 1 4.8752061460740332e+00 6.6603720258886163e+00 4.1787263183633684e+01 2 0 0
5096 1 7.0991932119930370e+00 5.2348627262756287e+00 4.2902203419958340e+01 -1 -1 -1
3585 1 9.2093973700064833e+00 6.6227285025554945e+00 4.2015600755478900e+01 1 2 -1
19 1 1.1344443439679603e+01 5.3666537905378631e+00 4.2914857878775976e+01 0 0 0
63 1 2.5037499555316951e+00 1.0616288344733897e+01 4.1900642888800917e+01 0 -1 0
6357 1 3.2397855492963729e-01 9.4142833692732868e+00 4.3281209260591325e+01 1 2 0
4877 1 6.9258523569357386e+00 1.0616305621266351e+01 4.2046202064816242e+01 0 2 -1
3454 1 4.5334278279169800e+00 9.1179717836831173e+00 4.2928114153983898e+01 -2 0 -1
3006 1 1.1309889963096564e+01 1.0738313967917732e+01 4.2277476566599105e+01 2 0 0
3237 1 9.1398602711898302e+00 9.2793548488204376e+00 4.3132967216034018e+01 -1 1 -1
3218 1 5.5532517146048788e-01 1.4949619669265755e+00 4.5868835877486049e+01 3 0 0
1564 1 5.0141061335652495e+00 1.3932901710240515e+00 4.5710442343459647e+01 -1 4 0
417 1 9.6875964145712121e+00 8.5934809353761654e-01 4.5659721807846395e+01 0 3 -1
4793 1 9.1962037391905671e+00 3.5263895860162418e+00 4.6633918034745108e+01 -1 2 0
4814 1 5.5875969935475867e-01 4.1556043806856486e+00 4.6481598825134824e+01 5 0 -1
2022 1 2.7120907463043520e+00 5.6601772863584792e+00 4.5337625320975491e+01 2 5 -1
6455 1 4.5743754726716377e+00 4.2048744407901317e+00 4.6587444105274216e+01 3 -4 0
3104 1 7.1285090201273942e+00 5.3686932299153973e+00 4.5874147067927225e+01 -3 0 0
1465 1 6.9682094547835822e+00 8.0701136569785312e+00 4.6676254421304407e+01 1 1 0
4717 1 1.1145777854514707e+01 5.1202440048445235e+00 4.5676798778263489e+01 0 0 0
4721 1 1.1475866797986333e+01 8.1489578367978410e+00 4.6692511005570367e+01 1 -1 0
1596 1 2.5534080790017577e+00 8.3245482378857574e+00 4.6288432079690395e+01 0 0 0
1541 1 2.8033443663424751e-01 9.9258728235587874e+00 4.6018107720302282e+01 4 1 -1
3536 1 4.7414938245926406e+00 9.8265420927132165e+00 4.5677573636066668e+01 4 -1 -1
4887 1 9.1175111009150438e+00 9.4088855001942200e+00 4.5832959507679846e+01 0 0 0
299 1 9.1916943475109409e+00 1.2075695962185936e+01 4.6459031501404539e+01 2 1 -1
1 1 3.7667956014933277e+00 3.9339753057434890e+00 4.9356000980627897e+01 -1 1 -1
3281 1 4.4864981685164160e+00 1.5108811301616700e+00 5.0233970564354962e+01 2 2 0
6314 1 7.3656371293259104e+00 1.0688155576688974e+00 5.0162083319762004e+01 0 4 0
5181 1 9.5445300269782205e+00 2.4725608852616734e+00 4.9185048728473717e+01 1 1 -1
3395 1 1.1821170551028155e+01 1.2208921381519267e+00 4.9891205539338202e+01 3 0 -1