LAMMPS data file via write_data, version 16 Mar 2018, timestep = 100000

6489 atoms
2 atom types

0.0000000000000000e+00 4.9219999999999999e+01 xlo xhi
0.0000000000000000e+00 4.9019635930410494e+01 ylo yhi
1.9023711156725511e+00 5.8159628884326395e+01 zlo zhi

Masses

1 18.015
2 12.01

Atoms # atomic

367 1 1.2244784597656194e+01 1.1556057081751653e+01 8.2987639438321885e+00 0 0 0
1589 1 3.7367150714058819e+00 3.2836988539387586e+00 4.4992082995203635e+00 -1 1 1
3617 1 9.4687641728620004e+00 1.2530574510032446e+00 3.7403729750182673e+00 0 0 0
1854 1 1.1733749563807475e+01 8.5056607108573594e+00 7.7994461372692090e+00 1 0 1
1540 1 5.7796196282500487e+00 1.1672156913552103e+01 5.6452481329378292e+00 0 0 0
6318 1 7.6827384149571589e+00 9.8996684304992719e+00 6.6445408564446913e+00 1 1 1
5074 1 8.3081466077381219e+00 9.6712961185904618e+00 3.5878539852895655e+00 0 0 0
4569 1 4.5005644259336899e+00 6.0494432466992025e+00 5.1673674942147692e+00 1 1 1
3123 1 6.6663743353687916e+00 5.2202923090980677e+00 3.9757586819864339e+00 0 0 0
3778 1 1.4936929182774714e+00 1.1640592182096828e+01 5.0101075546710110e+00 0 1 1
4872 1 7.8161949619615934e-01 3.7551236973638580e+00 4.4606775969312160e+00 1 1 0
3222 1 5.4816180647135324e+00 1.0214262614890226e+01 3.0081675974051740e+00 0 1 1
1339 1 4.9538109144759863e+00 2.8731929308224280e+00 1.9115047206143516e+00 0 0 1
2994 1 1.1100201558769456e+00 8.8311275593812653e+00 5.3870434634332689e+00 1 1 0
1298 1 7.0679964051776691e+00 5.7405513354595739e-01 8.0684848304763630e+00 1 0 1
5038 1 8.6706316623888355e+00 7.5722955533272431e+00 2.3119430067431690e+00 -1 0 1
2898 1 9.8173844926666156e+00 8.1517781580056052e+00 5.7202794431673656e+00 1 1 0
3381 1 9.7506386631792257e+00 1.6454238782401522e+00 7.7036208375777093e+00 0 0 0
424 1 1.0023410286130587e+00 1.5590408623422054e+00 8.2700667229163756e+00 1 0 0
1871 1 3.3484769665366159e+00 5.5213950634952429e+00 8.0219036561242945e+00 1 1 0
6270 1 6.8202638471490165e+00 2.1091123915525274e+00 4.5999652250465726e+00 1 0 0
5196 1 7.7289729101484115e+00 3.7513555284358100e+00 7.0442026054211748e+00 0 0 0
3397 1 3.3582019832813574e+00 2.6920863412924825e+00 8.1896420839352650e+00 -1 0 1
4928 1 4.8135620500348564e+00 1.0450932624261786e+00 6.2070263085902591e+00 1 1 0
488 1 1.1547364178533567e+01 2.3920949659399744e+00 5.3553874490233335e+00 0 1 0
3770 1 1.1867524975124573e+00 7.4442555593661526e+00 7.9540674013574142e+00 1 0 1
3591 1 5.6127649848944223e+00 7.9869998114992526e+00 7.0462493494567857e+00 1 0 0
3080 1 9.2804308228069274e+00 5.4078914565060838e+00 4.7260022741549532e+00 1 1 1
4669 1 1.1128384704907607e+01 4.7212228175573818e+00 6.7798347806279899e+00 0 0 1
3714 1 8.2683537960954769e+00 6.7952593258054739e+00 7.8912078154430363e+00 0 0 1
478 1 3.4107853263512307e+00 8.1366475006917440e+00 3.7184540632359413e+00 0 1 1
3171 1 1.1527906698404829e+01 1.0780390985592978e+01 3.8277563318240082e+00 0 0 0
4623 1 1.0504367551987388e+01 4.1289830295064585e+00 2.5266795261407964e+00 0 0 0
6194 1 3.2203207525063693e+00 1.2174351048814811e+01 6.9743584493230166e+00 0 0 1
2035 1 2.5479458567347715e+00 4.8083231050233568e+00 1.9337331108934066e+00 1 0 0
3436 1 5.8091894135786362e+00 3.3082312637610665e+00 9.9450632770004930e+00 2 -1 0
539 1 6.6169534011818270e+00 5.7416709948710565e-01 1.0784362672171042e+01 0 1 1
1481 1 9.2057989409322385e+00 1.5241797825466754e+00 1.1467372329581012e+01 0 0 1
5136 1 7.7297937074699670e+00 1.0704346822709901e+01 9.4162517434253665e+00 1 0 0
3105 1 1.2037758602685978e+01 2.0492545857518540e+00 1.4507432800534332e+01 -1 0 1
1428 1 1.3643184182857389e+00 3.8384089003951170e+00 1.2283977347145788e+01 0 1 0
1380 1 3.3783868647661257e+00 5.6442658260527141e+00 1.0807643885784151e+01 1 0 1
2091 1 1.8044832404997084e+00 9.2764460611487340e+00 1.4042779727506652e+01 0 0 0
2156 1 7.4003006314617608e+00 1.1323130047671281e+01 1.3980967420570432e+01 1 0 0
3346 1 5.5873655113035277e+00 7.0713297238248529e+00 1.1667188623429931e+01 0 0 1
304 1 9.1028283117547897e+00 4.3450464896892740e+00 1.2331048751006369e+01 1 0 1
3645 1 1.0237884101105688e+01 7.1619716693245330e+00 9.9032012154246267e+00 1 1 0
5174 1 1.7631552266174002e+00 7.5834704153720560e+00 1.1829678976350712e+01 1 -1 0
6288 1 3.4473293908425529e+00 3.5307850961586063e-01 1.2050028728592450e+01 0 1 1
5064 1 4.4410765365698683e+00 8.9279556620521330e+00 1.5050373236953995e+01 1 1 0
6479 1 1.4334414967651485e+00 9.6976837728897021e+00 9.8039075151152595e+00 1 0 0
3563 1 1.0548370676366901e+01 5.8369571106488491e+00 1.3873758353656578e+01 1 0 0
3239 1 9.4964110386868938e+00 9.4366891996453237e+00 1.1409975231222825e+01 0 0 0
6386 1 1.6532001334985567e+00 1.1499712811140983e+01 1.2552840682100864e+01 0 1 0
3409 1 4.1858628344727995e+00 3.1049765671571063e+00 1.2171634475009915e+01 1 0 0
3636 1 5.6006854571485833e+00 1.2900631360635972e+00 1.4364217217719945e+01 0 0 1
5412 1 6.4231407945049863e+00 4.4370998453428445e+00 1.3988411938960274e+01 0 0 1
1446 1 9.6122671433049174e+00 7.2369549499294805e-01 1.4265967164870927e+01 0 1 1
3477 1 9.2700666082787766e+00 9.0555595402657314e+00 1.3980845449657810e+01 1 -1 0
6489 1 1.1361688124418508e+01 1.1070897897622446e+01 1.1230577278183530e+01 0 -1 1
3718 1 7.3460917852353305e+00 5.5180018767568200e+00 1.0448798344658423e+01 1 0 0
5121 1 6.8454324028689202e+00 7.5075397452099546e+00 1.4343918102054182e+01 1 -1 1
5254 1 3.7296356063635856e+00 1.1313189407882238e+01 9.3890433298984810e+00 1 0 1
5371 1 1.1459718960448972e+01 1.2201638801351601e+01 1.3713633003083405e+01 0 1 0
1611 1 5.6596605543292142e+00 9.0141198078446436e+00 9.8131993775011335e+00 0 1 1
5289 1 8.1559191776779389e+00 2.7773713528387738e+00 1.5505174724045487e+01 1 0 0
482 1 1.0482288897459526e+01 3.9642051312111781e+00 9.2104929588983069e+00 1 0 1
1991 1 2.4485986268509539e+00 3.6649285465797647e+00 1.7485154313852032e+01 1 1 0
1994 1 4.6183199134460819e+00 7.4871019740708422e-01 1.9527449310713791e+01 0 1 0
3480 1 7.8837160689021379e-01 4.4272865686525114e+00 2.1246941518474515e+01 1 0 0
4528 1 1.1241360970504775e+01 1.0062157526727720e+01 2.1047693034870800e+01 0 0 1
5141 1 4.1017882790324709e+00 1.1958553633248203e+00 1.6713475524498843e+01 0 1 0
4585 1 1.3397674874039618e+00 6.0733483017593386e+00 1.8109281127836926e+01 0 1 1
1845 1 7.3582950645804459e+00 6.7726586182199195e+00 1.7012613868645950e+01 0 1 0
1983 1 7.4524279474455186e+00 3.7332527407470542e+00 1.8211668845794041e+01 0 0 0
25 1 1.0192656296808842e+01 4.9649170785864900e+00 1.6628255317393958e+01 0 0 0
5176 1 6.1734072009369383e+00 1.0274997780074232e+01 2.2106234784561899e+01 0 1 0
377 1 1.7972613317698769e+00 9.2355723884153118e+00 1.8238663912788564e+01 1 0 0
5029 1 8.5080075312566326e+00 9.1614514804728344e+00 2.0907275257569069e+01 1 1 1
1737 1 8.6902649850989988e+00 8.8728781844223512e+00 1.8086191600004330e+01 0 0 0
1942 1 6.9112487810586805e+00 1.0765492849813455e+01 1.6730988700504433e+01 0 0 0
5048 1 3.8822354583651557e+00 1.0998995736969961e+01 1.6784997315651687e+01 0 0 0
3094 1 1.3847087055078078e+00 4.8247812611817115e-01 2.1305252912775007e+01 0 0 1
4838 1 2.9264919095643727e+00 2.8417916053937540e+00 2.0378481167062095e+01 1 1 1
2987 1 4.6437984271928796e+00 4.1430648650025779e+00 2.2242635319545638e+01 0 0 1
3584 1 1.2049410404243002e+01 2.7945619988833008e+00 1.6853532181128024e+01 0 1 0
318 1 5.1541985377335839e+00 1.1855874752476221e+00 2.2452896875307392e+01 1 0 0
3178 1 7.2416000118212107e+00 7.2183211727262120e-01 1.8286120935186009e+01 0 0 1
3086 1 9.5610620906019097e+00 2.0861899341162720e+00 2.1651427169823705e+01 0 0 1
6434 1 3.9466369802980057e+00 8.0385159123382870e+00 1.9793031195454034e+01 1 0 1
3052 1 1.7533171590235033e+00 7.0937768314362657e+00 2.1482007316625349e+01 1 -1 1
513 1 1.1977645336588155e+01 6.1570028648780983e+00 2.1084174752384726e+01 0 1 1
3335 1 5.8448676433142523e+00 6.3140778278047769e+00 2.1355372640107479e+01 1 0 1
5185 1 8.5884208930611923e+00 6.4949091754860149e+00 2.1598954143216570e+01 1 0 1
4720 1 9.9456389203353375e+00 4.4077247834801776e+00 1.9809354944825930e+01 2 0 1
1750 1 1.1534188516634226e+01 2.0716504673291503e-01 1.8038882146088092e+01 -1 1 0
6478 1 1.0897082091915360e+01 1.1136499174961170e+01 1.8116119628460069e+01 0 0 1
3389 1 4.1798487734298488e+00 1.1036098811105397e+01 2.0134620904536053e+01 1 0 0
5146 1 9.6989259664575966e-01 1.1847356547418496e+01 2.2192776786979930e+01 1 0 0
1885 1 5.0008243502945939e+00 4.4159016645962081e+00 1.6460066848887934e+01 1 0 1
3158 1 4.5877008781738429e+00 7.2195373174386548e+00 1.7170256167125302e+01 -1 1 1
1878 1 1.1495160131992080e+01 7.4790874375689143e+00 1.7276730133057765e+01 0 0 0
5323 1 1.1720288642005059e+01 7.8600588661151316e-01 2.0861990207335857e+01 1 0 0
1 1 7.6727922970603215e+00 2.2803505455037509e-01 2.1200601636484631e+01 0 0 0
3177 1 1.3270019751864719e-02 8.9769791278940634e+00 1.6018967986988308e+01 1 0 0
1480 1 1.1506261199849593e+01 9.8135128120028021e+00 1.5970804463512012e+01 1 0 1
1355 1 8.0960263799538990e-01 6.7299551424232096e-01 2.4051440633267887e+01 0 1 0
1391 1 1.1071584454430809e+01 9.2156376785918166e+00 2.3766260054192152e+01 -1 1 1
5102 1 7.3718553310353334e+00 1.0138021505935209e+00 2.4097475829434824e+01 1 1 0
4993 1 9.6021343664419270e+00 2.7535418295930572e+00 2.4263913347151782e+01 0 1 0
293 1 7.4704423081769844e-01 3.4706352470619306e+00 2.3926495573212424e+01 1 1 0
5418 1 3.1599442550945667e+00 5.1184084443773008e+00 2.4318434207047204e+01 0 1 0
793 2 1.1074500000000002e+01 1.0656442593567498e+01 2.6862813473228869e+01 0 0 0
3454 1 6.1182760320222513e+00 6.5909645831345687e+00 2.4351931677768231e+01 0 0 0
6215 1 8.9710285980883135e+00 5.6086298689570384e+00 2.4266102922156598e+01 0 0 1
5163 1 2.6358418565516062e+00 1.1247382700842739e+01 2.4521536097976075e+01 1 0 0
3634 1 4.9521756534103192e+00 9.0250666098695493e+00 2.4347993868709889e+01 1 0 0
1947 1 8.4656098666938107e+00 1.0232008252182865e+01 2.4549206020910354e+01 1 -1 0
795 2 1.2304999999999998e+01 1.1366872099805333e+01 2.6862813473228869e+01 0 0 0
572 2 0.0000000000000000e+00 2.8417180249513345e+00 2.6862813473228869e+01 0 0 0
574 2 0.0000000000000000e+00 0.0000000000000000e+00 2.6862813473228869e+01 0 0 0
576 2 1.2305000000000001e+00 7.1042950623783474e-01 2.6862813473228869e+01 0 0 0
583 2 1.2305000000000001e+00 2.1312885187134998e+00 2.6862813473228869e+01 0 0 0
585 2 2.4610000000000003e+00 2.8417180249513345e+00 2.6862813473228869e+01 0 0 0
587 2 2.4610000000000003e+00 0.0000000000000000e+00 2.6862813473228869e+01 0 0 0
589 2 3.6915000000000004e+00 7.1042950623783474e-01 2.6862813473228869e+01 0 0 0
604 2 3.6914999999999996e+00 2.1312885187134998e+00 2.6862813473228869e+01 0 0 0
606 2 4.9220000000000006e+00 2.8417180249513332e+00 2.6862813473228869e+01 0 0 0
608 2 4.9220000000000006e+00 0.0000000000000000e+00 2.6862813473228869e+01 0 0 0
610 2 6.1524999999999999e+00 7.1042950623783407e-01 2.6862813473228869e+01 0 0 0
633 2 6.1524999999999999e+00 2.1312885187134989e+00 2.6862813473228869e+01 0 0 0
635 2 7.3829999999999991e+00 2.8417180249513345e+00 2.6862813473228869e+01 0 0 0
637 2 7.3829999999999991e+00 0.0000000000000000e+00 2.6862813473228869e+01 0 0 0
639 2 8.6134999999999984e+00 7.1042950623783407e-01 2.6862813473228869e+01 0 0 0
670 2 8.6134999999999984e+00 2.1312885187135002e+00 2.6862813473228869e+01 0 0 0
672 2 9.8440000000000012e+00 2.8417180249513332e+00 2.6862813473228869e+01 0 0 0
674 2 9.8440000000000012e+00 0.0000000000000000e+00 2.6862813473228869e+01 0 0 0
676 2 1.1074500000000002e+01 7.1042950623783330e-01 2.6862813473228869e+01 0 0 0
715 2 1.1074500000000002e+01 2.1312885187135002e+00 2.6862813473228869e+01 0 0 0
579 2 0.0000000000000000e+00 4.2625770374269996e+00 2.6862813473228869e+01 0 0 0
581 2 1.2305000000000001e+00 4.9730065436648339e+00 2.6862813473228869e+01 0 0 0
596 2 1.2305000000000001e+00 6.3938655561404980e+00 2.6862813473228869e+01 0 0 0
600 2 2.4610000000000003e+00 4.2625770374269996e+00 2.6862813473228869e+01 0 0 0
602 2 3.6914999999999996e+00 4.9730065436648339e+00 2.6862813473228869e+01 0 0 0
625 2 3.6914999999999996e+00 6.3938655561404980e+00 2.6862813473228869e+01 0 0 0
577 2 0.0000000000000000e+00 7.1042950623783341e+00 2.6862813473228869e+01 0 0 0
598 2 2.4610000000000003e+00 7.1042950623783341e+00 2.6862813473228869e+01 0 0 0
629 2 4.9220000000000006e+00 4.2625770374269978e+00 2.6862813473228869e+01 0 0 0
631 2 6.1524999999999999e+00 4.9730065436648339e+00 2.6862813473228869e+01 0 0 0
662 2 6.1524999999999999e+00 6.3938655561404980e+00 2.6862813473228869e+01 0 0 0
666 2 7.3829999999999991e+00 4.2625770374269996e+00 2.6862813473228869e+01 0 0 0
627 2 4.9220000000000006e+00 7.1042950623783341e+00 2.6862813473228869e+01 0 0 0
664 2 7.3830000000000009e+00 7.1042950623783341e+00 2.6862813473228869e+01 0 0 0
668 2 8.6135000000000002e+00 4.9730065436648339e+00 2.6862813473228869e+01 0 0 0
707 2 8.6135000000000002e+00 6.3938655561404980e+00 2.6862813473228869e+01 0 0 0
711 2 9.8440000000000012e+00 4.2625770374270004e+00 2.6862813473228869e+01 0 0 0
713 2 1.1074500000000002e+01 4.9730065436648339e+00 2.6862813473228869e+01 0 0 0
754 2 1.1074500000000002e+01 6.3938655561404980e+00 2.6862813473228869e+01 0 0 0
709 2 9.8440000000000012e+00 7.1042950623783341e+00 2.6862813473228869e+01 0 0 0
592 2 0.0000000000000000e+00 8.5251540748539991e+00 2.6862813473228869e+01 0 0 0
594 2 1.2305000000000001e+00 9.2355835810918343e+00 2.6862813473228869e+01 0 0 0
621 2 2.4610000000000003e+00 8.5251540748539991e+00 2.6862813473228869e+01 0 0 0
623 2 3.6915000000000004e+00 9.2355835810918343e+00 2.6862813473228869e+01 0 0 0
590 2 0.0000000000000000e+00 1.1366872099805333e+01 2.6862813473228869e+01 0 0 0
617 2 1.2305000000000001e+00 1.0656442593567498e+01 2.6862813473228869e+01 0 0 0
619 2 2.4610000000000003e+00 1.1366872099805333e+01 2.6862813473228869e+01 0 0 0
654 2 3.6914999999999996e+00 1.0656442593567499e+01 2.6862813473228869e+01 0 0 0
658 2 4.9220000000000006e+00 8.5251540748539991e+00 2.6862813473228869e+01 0 0 0
660 2 6.1524999999999999e+00 9.2355835810918343e+00 2.6862813473228869e+01 0 0 0
703 2 7.3830000000000009e+00 8.5251540748539991e+00 2.6862813473228869e+01 0 0 0
656 2 4.9220000000000006e+00 1.1366872099805333e+01 2.6862813473228869e+01 0 0 0
699 2 6.1524999999999999e+00 1.0656442593567499e+01 2.6862813473228869e+01 0 0 0
701 2 7.3829999999999991e+00 1.1366872099805333e+01 2.6862813473228869e+01 0 0 0
752 2 1.1074500000000002e+01 9.2355835810918343e+00 2.6862813473228869e+01 0 0 0
750 2 9.8440000000000012e+00 8.5251540748539956e+00 2.6862813473228869e+01 0 0 0
746 2 8.6134999999999984e+00 1.0656442593567498e+01 2.6862813473228869e+01 0 0 0
705 2 8.6134999999999984e+00 9.2355835810918343e+00 2.6862813473228869e+01 0 0 0
748 2 9.8440000000000012e+00 1.1366872099805333e+01 2.6862813473228869e+01 0 0 0
195 1 1.1497389711565711e+01 6.5867976666644923e+00 2.3956031630982544e+01 1 1 0
107 1 2.3979630216386849e+00 7.8525052751005298e+00 2.4135984085473854e+01 1 0 0
573 2 0.0000000000000000e+00 1.4208590124756650e+00 3.0030999999999793e+01 0 0 0
575 2 0.0000000000000000e+00 0.0000000000000000e+00 3.0030999999999793e+01 0 0 0
584 2 1.2305000000000001e+00 2.1312885187134998e+00 3.0030999999999793e+01 0 0 0
586 2 2.4610000000000003e+00 1.4208590124756650e+00 3.0030999999999793e+01 0 0 0
588 2 2.4610000000000003e+00 0.0000000000000000e+00 3.0030999999999793e+01 0 0 0
605 2 3.6914999999999996e+00 2.1312885187134998e+00 3.0030999999999793e+01 0 0 0
582 2 1.2305000000000001e+00 3.5521475311891644e+00 3.0030999999999793e+01 0 0 0
603 2 3.6914999999999996e+00 3.5521475311891644e+00 3.0030999999999793e+01 0 0 0
901 2 0.0000000000000000e+00 2.8417180249513345e+00 3.3199186526770731e+01 0 0 0
902 2 0.0000000000000000e+00 0.0000000000000000e+00 3.3199186526770731e+01 0 0 0
903 2 1.2305000000000001e+00 7.1042950623783474e-01 3.3199186526770731e+01 0 0 0
907 2 1.2305000000000001e+00 2.1312885187134998e+00 3.3199186526770731e+01 0 0 0
908 2 2.4610000000000003e+00 2.8417180249513345e+00 3.3199186526770731e+01 0 0 0
909 2 2.4610000000000003e+00 0.0000000000000000e+00 3.3199186526770731e+01 0 0 0
910 2 3.6915000000000004e+00 7.1042950623783474e-01 3.3199186526770731e+01 0 0 0
918 2 3.6914999999999996e+00 2.1312885187134998e+00 3.3199186526770731e+01 0 0 0
607 2 4.9220000000000006e+00 1.4208590124756650e+00 3.0030999999999793e+01 0 0 0
609 2 4.9220000000000006e+00 0.0000000000000000e+00 3.0030999999999793e+01 0 0 0
634 2 6.1524999999999999e+00 2.1312885187134989e+00 3.0030999999999793e+01 0 0 0
636 2 7.3829999999999991e+00 1.4208590124756659e+00 3.0030999999999793e+01 0 0 0
638 2 7.3829999999999991e+00 0.0000000000000000e+00 3.0030999999999793e+01 0 0 0
632 2 6.1524999999999999e+00 3.5521475311891644e+00 3.0030999999999793e+01 0 0 0
919 2 4.9220000000000006e+00 2.8417180249513332e+00 3.3199186526770731e+01 0 0 0
920 2 4.9220000000000006e+00 0.0000000000000000e+00 3.3199186526770731e+01 0 0 0
921 2 6.1524999999999999e+00 7.1042950623783407e-01 3.3199186526770731e+01 0 0 0
933 2 6.1524999999999999e+00 2.1312885187134989e+00 3.3199186526770731e+01 0 0 0
934 2 7.3829999999999991e+00 2.8417180249513345e+00 3.3199186526770731e+01 0 0 0
935 2 7.3829999999999991e+00 0.0000000000000000e+00 3.3199186526770731e+01 0 0 0
671 2 8.6134999999999984e+00 2.1312885187135002e+00 3.0030999999999793e+01 0 0 0
673 2 9.8440000000000012e+00 1.4208590124756659e+00 3.0030999999999793e+01 0 0 0
675 2 9.8440000000000012e+00 0.0000000000000000e+00 3.0030999999999793e+01 0 0 0
716 2 1.1074500000000002e+01 2.1312885187135002e+00 3.0030999999999793e+01 0 0 0
669 2 8.6134999999999984e+00 3.5521475311891657e+00 3.0030999999999793e+01 0 0 0
714 2 1.1074500000000002e+01 3.5521475311891644e+00 3.0030999999999793e+01 0 0 0
936 2 8.6134999999999984e+00 7.1042950623783407e-01 3.3199186526770731e+01 0 0 0
952 2 8.6134999999999984e+00 2.1312885187135002e+00 3.3199186526770731e+01 0 0 0
953 2 9.8440000000000012e+00 2.8417180249513332e+00 3.3199186526770731e+01 0 0 0
954 2 9.8440000000000012e+00 0.0000000000000000e+00 3.3199186526770731e+01 0 0 0
955 2 1.1074500000000002e+01 7.1042950623783330e-01 3.3199186526770731e+01 0 0 0
975 2 1.1074500000000002e+01 2.1312885187135002e+00 3.3199186526770731e+01 0 0 0
578 2 0.0000000000000000e+00 5.6834360499026637e+00 3.0030999999999793e+01 0 0 0
580 2 0.0000000000000000e+00 4.2625770374269996e+00 3.0030999999999793e+01 0 0 0
597 2 1.2305000000000001e+00 6.3938655561404980e+00 3.0030999999999793e+01 0 0 0
599 2 2.4610000000000003e+00 5.6834360499026637e+00 3.0030999999999793e+01 0 0 0
601 2 2.4610000000000003e+00 4.2625770374269996e+00 3.0030999999999793e+01 0 0 0
626 2 3.6914999999999996e+00 6.3938655561404980e+00 3.0030999999999793e+01 0 0 0
595 2 1.2305000000000001e+00 7.8147245686161639e+00 3.0030999999999793e+01 0 0 0
624 2 3.6914999999999996e+00 7.8147245686161639e+00 3.0030999999999793e+01 0 0 0
905 2 0.0000000000000000e+00 4.2625770374269996e+00 3.3199186526770731e+01 0 0 0
906 2 1.2305000000000001e+00 4.9730065436648339e+00 3.3199186526770731e+01 0 0 0
914 2 1.2305000000000001e+00 6.3938655561404980e+00 3.3199186526770731e+01 0 0 0
916 2 2.4610000000000003e+00 4.2625770374269996e+00 3.3199186526770731e+01 0 0 0
917 2 3.6914999999999996e+00 4.9730065436648339e+00 3.3199186526770731e+01 0 0 0
929 2 3.6914999999999996e+00 6.3938655561404980e+00 3.3199186526770731e+01 0 0 0
904 2 0.0000000000000000e+00 7.1042950623783341e+00 3.3199186526770731e+01 0 0 0
915 2 2.4610000000000003e+00 7.1042950623783341e+00 3.3199186526770731e+01 0 0 0
628 2 4.9220000000000006e+00 5.6834360499026637e+00 3.0030999999999793e+01 0 0 0
630 2 4.9220000000000006e+00 4.2625770374269978e+00 3.0030999999999793e+01 0 0 0
663 2 6.1524999999999999e+00 6.3938655561404980e+00 3.0030999999999793e+01 0 0 0
665 2 7.3829999999999991e+00 5.6834360499026637e+00 3.0030999999999793e+01 0 0 0
667 2 7.3829999999999991e+00 4.2625770374269996e+00 3.0030999999999793e+01 0 0 0
661 2 6.1524999999999999e+00 7.8147245686161639e+00 3.0030999999999793e+01 0 0 0
931 2 4.9220000000000006e+00 4.2625770374269978e+00 3.3199186526770731e+01 0 0 0
932 2 6.1524999999999999e+00 4.9730065436648339e+00 3.3199186526770731e+01 0 0 0
948 2 6.1524999999999999e+00 6.3938655561404980e+00 3.3199186526770731e+01 0 0 0
950 2 7.3829999999999991e+00 4.2625770374269996e+00 3.3199186526770731e+01 0 0 0
930 2 4.9220000000000006e+00 7.1042950623783341e+00 3.3199186526770731e+01 0 0 0
949 2 7.3830000000000009e+00 7.1042950623783341e+00 3.3199186526770731e+01 0 0 0
708 2 8.6135000000000002e+00 6.3938655561404980e+00 3.0030999999999793e+01 0 0 0
710 2 9.8440000000000012e+00 5.6834360499026637e+00 3.0030999999999793e+01 0 0 0
712 2 9.8440000000000012e+00 4.2625770374270004e+00 3.0030999999999793e+01 0 0 0
755 2 1.1074500000000002e+01 6.3938655561404980e+00 3.0030999999999793e+01 0 0 0
706 2 8.6135000000000002e+00 7.8147245686161639e+00 3.0030999999999793e+01 0 0 0
753 2 1.1074500000000002e+01 7.8147245686161639e+00 3.0030999999999793e+01 0 0 0
951 2 8.6135000000000002e+00 4.9730065436648339e+00 3.3199186526770731e+01 0 0 0
971 2 8.6135000000000002e+00 6.3938655561404980e+00 3.3199186526770731e+01 0 0 0
973 2 9.8440000000000012e+00 4.2625770374270004e+00 3.3199186526770731e+01 0 0 0
974 2 1.1074500000000002e+01 4.9730065436648339e+00 3.3199186526770731e+01 0 0 0
995 2 1.1074500000000002e+01 6.3938655561404980e+00 3.3199186526770731e+01 0 0 0
972 2 9.8440000000000012e+00 7.1042950623783341e+00 3.3199186526770731e+01 0 0 0
591 2 0.0000000000000000e+00 9.9460130873296642e+00 3.0030999999999793e+01 0 0 0
593 2 0.0000000000000000e+00 8.5251540748539991e+00 3.0030999999999793e+01 0 0 0
620 2 2.4610000000000003e+00 9.9460130873296642e+00 3.0030999999999793e+01 0 0 0
622 2 2.4610000000000003e+00 8.5251540748539991e+00 3.0030999999999793e+01 0 0 0
616 2 1.2305000000000001e+00 1.2077301606043163e+01 3.0030999999999793e+01 0 0 0
618 2 1.2305000000000001e+00 1.0656442593567498e+01 3.0030999999999793e+01 0 0 0
653 2 3.6914999999999996e+00 1.2077301606043163e+01 3.0030999999999793e+01 0 0 0
655 2 3.6914999999999996e+00 1.0656442593567499e+01 3.0030999999999793e+01 0 0 0
912 2 0.0000000000000000e+00 8.5251540748539991e+00 3.3199186526770731e+01 0 0 0
913 2 1.2305000000000001e+00 9.2355835810918343e+00 3.3199186526770731e+01 0 0 0
927 2 2.4610000000000003e+00 8.5251540748539991e+00 3.3199186526770731e+01 0 0 0
928 2 3.6915000000000004e+00 9.2355835810918343e+00 3.3199186526770731e+01 0 0 0
911 2 0.0000000000000000e+00 1.1366872099805333e+01 3.3199186526770731e+01 0 0 0
925 2 1.2305000000000001e+00 1.0656442593567498e+01 3.3199186526770731e+01 0 0 0
926 2 2.4610000000000003e+00 1.1366872099805333e+01 3.3199186526770731e+01 0 0 0
944 2 3.6914999999999996e+00 1.0656442593567499e+01 3.3199186526770731e+01 0 0 0
657 2 4.9220000000000006e+00 9.9460130873296642e+00 3.0030999999999793e+01 0 0 0
659 2 4.9220000000000006e+00 8.5251540748539991e+00 3.0030999999999793e+01 0 0 0
702 2 7.3830000000000009e+00 9.9460130873296642e+00 3.0030999999999793e+01 0 0 0
704 2 7.3830000000000009e+00 8.5251540748539991e+00 3.0030999999999793e+01 0 0 0
698 2 6.1524999999999999e+00 1.2077301606043163e+01 3.0030999999999793e+01 0 0 0
700 2 6.1524999999999999e+00 1.0656442593567499e+01 3.0030999999999793e+01 0 0 0
946 2 4.9220000000000006e+00 8.5251540748539991e+00 3.3199186526770731e+01 0 0 0
947 2 6.1524999999999999e+00 9.2355835810918343e+00 3.3199186526770731e+01 0 0 0
969 2 7.3830000000000009e+00 8.5251540748539991e+00 3.3199186526770731e+01 0 0 0
945 2 4.9220000000000006e+00 1.1366872099805333e+01 3.3199186526770731e+01 0 0 0
967 2 6.1524999999999999e+00 1.0656442593567499e+01 3.3199186526770731e+01 0 0 0
968 2 7.3829999999999991e+00 1.1366872099805333e+01 3.3199186526770731e+01 0 0 0
749 2 9.8440000000000012e+00 9.9460130873296642e+00 3.0030999999999793e+01 0 0 0
751 2 9.8440000000000012e+00 8.5251540748539956e+00 3.0030999999999793e+01 0 0 0
745 2 8.6135000000000002e+00 1.2077301606043163e+01 3.0030999999999793e+01 0 0 0
747 2 8.6134999999999984e+00 1.0656442593567498e+01 3.0030999999999793e+01 0 0 0
792 2 1.1074500000000002e+01 1.2077301606043163e+01 3.0030999999999793e+01 0 0 0
794 2 1.1074500000000002e+01 1.0656442593567498e+01 3.0030999999999793e+01 0 0 0
970 2 8.6134999999999984e+00 9.2355835810918343e+00 3.3199186526770731e+01 0 0 0
993 2 9.8440000000000012e+00 8.5251540748539956e+00 3.3199186526770731e+01 0 0 0
994 2 1.1074500000000002e+01 9.2355835810918343e+00 3.3199186526770731e+01 0 0 0
991 2 8.6134999999999984e+00 1.0656442593567498e+01 3.3199186526770731e+01 0 0 0
992 2 9.8440000000000012e+00 1.1366872099805333e+01 3.3199186526770731e+01 0 0 0
1015 2 1.1074500000000002e+01 1.0656442593567498e+01 3.3199186526770731e+01 0 0 0
1016 2 1.2304999999999998e+01 1.1366872099805333e+01 3.3199186526770731e+01 0 0 0
1549 1 1.1875072431281930e+01 9.2332330903384818e+00 3.6212595761519935e+01 0 1 0
5425 1 1.4839412430341177e+00 5.3852158990516461e+00 3.6748071298654672e+01 0 1 0
5336 1 2.7382497884257888e+00 6.6649512268670075e-01 3.6014475448340107e+01 1 1 0
5204 1 8.4726314405140890e+00 1.5729490076858366e+00 3.5953853509928699e+01 0 0 -1
1290 1 9.0626266830799711e+00 4.6183099992974785e+00 3.5900076595436829e+01 -1 0 0
4920 1 9.0082436564104906e+00 9.2584512808319985e+00 3.5764428064077642e+01 1 1 -1
4594 1 6.0596427143745473e+00 1.1134336163047149e+00 3.5778568694465733e+01 1 0 0
3724 1 2.9863118285632186e+00 3.4290363405671784e+00 3.5497737122014868e+01 0 1 0
4862 1 6.5911120952421216e+00 5.9345134421625643e+00 3.6101205850931173e+01 1 0 0
3734 1 5.2962322257706562e+00 8.7690229221775624e+00 3.5934324471815387e+01 1 0 0
4508 1 1.1053008591914054e+01 6.5990928982312775e+00 3.5926523946301785e+01 0 1 0
3028 1 6.0454502415010714e+00 1.1448828899743665e+01 3.6498091491823466e+01 1 1 0
4746 1 5.9080170615837091e-01 9.3479350804217205e+00 3.5841205757644175e+01 0 1 0
3147 1 2.7059417218705804e+00 8.0202105392716696e+00 3.6804227931480327e+01 1 -1 0
4619 1 1.1654187439444030e+01 1.2093371645419214e+01 3.5898187341240778e+01 -1 2 0
1719 1 8.5516879857020403e+00 1.1977908239635452e+01 3.5620126393437005e+01 0 0 -1
3684 1 1.4881479534185937e+00 1.2057757482618534e+01 3.6057579122502666e+01 0 0 0
4745 1 5.1454068119911467e-01 5.0865628495151638e-01 3.7943614093154288e+01 0 1 0
1939 1 4.0863223838008071e+00 2.1265228805820948e+00 4.0667293840103341e+01 -1 1 -1
2949 1 6.5394752911852585e+00 1.9505878035312620e+00 3.9330994069722607e+01 0 1 0
90 1 1.0277685842868918e+01 1.1301558777788749e+00 4.1753004917598027e+01 1 0 0
4682 1 9.0219848820099013e+00 3.3886870753837637e+00 3.8474428266672113e+01 0 0 0
294 1 8.3171379541642700e+00 1.2679272990612975e+00 4.3660011927376310e+01 1 1 -1
3743 1 7.0425315226613527e+00 5.6689978310185065e+00 3.8841565561911629e+01 0 1 0
2912 1 2.5898904775734954e+00 7.9297022003133826e+00 3.9474773687090249e+01 0 1 -1
6319 1 1.1902049894573796e+01 2.7684462883886769e+00 3.8508650507465383e+01 0 1 0
4784 1 1.1412915736719045e+01 5.8027090206196847e+00 3.8745273947684836e+01 0 1 -1
3678 1 7.0003922742342095e-01 1.0412372650853907e+01 4.0180957625994964e+01 1 1 0
5409 1 1.2037509472200089e+01 4.1006555955445984e-01 4.3790570874073879e+01 0 0 0
4981 1 7.3102689203885935e+00 8.6449692173929922e+00 3.7945840358082975e+01 1 1 -1
3784 1 1.1936678695848354e+01 9.0594608440402702e+00 4.3625015921801044e+01 1 0 0
5111 1 7.2515294278619331e+00 1.0855502318168639e+01 3.9622565102430052e+01 0 0 0
6190 1 9.6239350098235725e+00 9.2395756656629349e+00 4.1466344082239431e+01 0 1 0
4848 1 1.1131890624526966e+01 9.8011684862729176e+00 3.9119083892484340e+01 0 -1 0
1612 1 3.5883484429479235e+00 4.6060864958773857e+00 4.1647080439906766e+01 0 1 0
1478 1 2.3276409134717384e+00 2.9358995401422203e+00 3.8611023627347571e+01 0 0 0
4590 1 1.0931659472540465e+01 3.9827021878894713e+00 4.1571703697649014e+01 0 1 0
5431 1 1.3478168775485009e+00 5.4452019777563692e+00 3.9839957815042119e+01 -1 0 0
1338 1 9.1180286792192682e+00 6.4697896867668607e+00 4.0603237989576058e+01 0 1 0
3090 1 4.8452916006861306e+00 7.0926397040212814e+00 4.0993219550164440e+01 1 0 -1
4563 1 5.6557671890186807e+00 3.4848046475886890e-01 4.2517984130216639e+01 0 1 0
4507 1 1.9651934691540478e+00 1.0030906001256605e+01 4.2835261090944911e+01 -1 0 0
3047 1 7.0153049990137477e+00 1.0631033149089767e+01 4.2448354627655107e+01 0 1 -1
329 1 4.8494224777997044e+00 9.0035504901618673e+00 4.2958898388461030e+01 1 0 -1
1361 1 7.8791664308557570e+00 5.8890137828732021e+00 4.3195365904765637e+01 -1 2 0
77 1 5.2630081787288594e+00 3.3632200016419245e+00 3.7135232387940370e+01 1 2 -1
2985 1 9.6601454747578153e+00 1.2082956166678938e+01 3.8544785715774005e+01 0 0 -1
188 1 9.1704654578501064e+00 3.8783467701713308e+00 4.3818068885994087e+01 0 0 0
4747 1 1.3623137187792622e-03 6.1871173429195006e+00 4.2471453980173798e+01 1 0 -1
4844 1 4.4716699791952381e+00 1.2087848259765435e+01 3.9133569991308171e+01 0 0 -1
6323 1 2.2949444676243798e+00 1.2388502970064508e-01 4.0911420035434539e+01 0 1 0
3752 1 1.0531757253100771e+01 4.5763842851840764e-02 3.9120722913757589e+01 0 1 0
6438 1 9.5416406940429912e+00 3.6533880493657084e-01 4.6024519484746570e+01 0 0 0
1483 1 1.8123989891704808e+00 1.9244012279992866e+00 4.5101227045562936e+01 0 1 0
3121 1 6.1532615381461673e+00 4.0579194422143043e+00 4.5223737209982566e+01 0 1 -1
6262 1 7.2834810972834543e+00 1.1652767831055487e+01 5.0824256468023009e+01 -1 1 -1
527 1 1.0341423358266793e+01 3.1307008740046323e+00 4.6720564111572799e+01 0 0 0
1636 1 1.1327684613517174e+01 4.7489664823049722e+00 5.0914698153554909e+01 0 0 -1
1489 1 1.1999152861193862e+00 7.6073017354088242e+00 4.4585045887798231e+01 0 1 0
3368 1 2.7647090113750221e+00 6.2971860435462501e+00 4.5934704239530753e+01 0 1 -1
2124 1 5.2153760267618123e+00 7.9558109657261795e+00 4.5670671143164114e+01 -1 1 0
5414 1 5.9549603681862102e+00 5.9656284904155772e+00 4.7189470813947672e+01 -1 1 0
1758 1 1.1415203175582365e+01 5.5869114678861926e+00 4.5514194186192036e+01 0 0 0