
# Create simulation box and atoms

read_data data.ML_graphite_m500atm_240K
  orthogonal box = (0 0 2.16312) to (49.22 49.0196 57.8989)
  4 by 4 by 8 MPI processor grid
  reading atoms ...
  6489 atoms
  reading velocities ...
  6489 velocities
group water type 1
3729 atoms in group water
group graphite type 2
2760 atoms in group graphite

# Define potential

pair_style sw
pair_coeff * * MLC_e.sw mW C


# Fix graphite atoms in place

fix 5 graphite setforce 0.0 0.0 0.0
velocity graphite set 0.0 0.0 0.0


# Equilibration of molecular water

# Add velocity/set timestep

velocity	    water create ${TEMP} ${SEED} rot yes dist gaussian
velocity	    water create 240 ${SEED} rot yes dist gaussian
velocity	    water create 240 20813 rot yes dist gaussian
timestep	    5.0

# Define output

compute			1 water msd
compute			3 water temp
thermo	    	50
thermo_style	custom step temp press vol etotal ke pe c_1[4] c_3

# Neighbor lists

neigh_modify    delay 0 every 1 check yes

# Set fixes

fix             1 water momentum 10 linear 1 1 1 rescale
fix             2 water nve
fix             3 water temp/csvr ${TEMP} ${TEMP} 500.0 ${SEED}
fix             3 water temp/csvr 240 ${TEMP} 500.0 ${SEED}
fix             3 water temp/csvr 240 240 500.0 ${SEED}
fix             3 water temp/csvr 240 240 500.0 20813
fix             4 water press/berendsen z ${PRES} ${PRES} 1000.0 modulus 20000
fix             4 water press/berendsen z -500 ${PRES} 1000.0 modulus 20000
fix             4 water press/berendsen z -500 -500 1000.0 modulus 20000

# Run 0.5 ns equilibration

dump		    1 all atom 2000 ${DIR}/eq.${NAME}-${TEMP}.dump
dump		    1 all atom 2000 run_16/eq.${NAME}-${TEMP}.dump
dump		    1 all atom 2000 run_16/eq.het_freeze_16-${TEMP}.dump
dump		    1 all atom 2000 run_16/eq.het_freeze_16-240.dump

reset_timestep  0

run	            100000
Neighbor list info ...
  update every 1 steps, delay 0 steps, check yes
  max neighbors/atom: 2000, page size: 100000
  master list distance cutoff = 6.67472
  ghost atom cutoff = 6.67472
  binsize = 3.33736, bins = 15 15 17
  1 neighbor lists, perpetual/occasional/extra = 1 0 0
  (1) pair sw, perpetual
      attributes: full, newton on
      pair build: full/bin/atomonly
      stencil: full/bin/3d
      bin: standard
Per MPI rank memory allocation (min/avg/max) = 4.068 | 4.178 | 4.493 Mbytes
Step Temp Press Volume TotEng KinEng PotEng c_1[4] c_3 
       0    137.90382   -585.46729    134476.24   -35583.071    2666.9904   -38250.061            0          240 
      50    139.88661   -520.08463    134540.27    -35630.26    2705.3366   -38335.597   0.50941008    243.45074 
     100    136.43005   -721.51075     134508.9    -35641.22    2638.4884   -38279.708   0.85839025    237.43514 
     150    138.84387   -384.76483    134609.55   -35633.256    2685.1704   -38318.427    1.0565001      241.636 
     200    138.42181   -801.24487     134727.2   -35691.242     2677.008    -38368.25    1.2892291    240.90148 
     250    135.29504    -669.1303    134730.79    -35719.91    2616.5379   -38336.448    1.5199573    235.45982 
     300    137.30304   -975.53112    134646.33   -35678.511    2655.3715   -38333.882    1.7097802    238.95443 
     350     138.6826   -790.24801    134529.45   -35629.493    2682.0516   -38311.545    1.9328685    241.35534 
     400    138.73137   -695.07589    134482.09    -35672.59    2682.9947   -38355.585    2.1090551    241.44021 
     450    138.69774   -802.00251    134489.74   -35660.164    2682.3443   -38342.508    2.2978113    241.38169 
     500    136.76041   -465.39533    134580.69   -35690.324    2644.8774   -38335.202    2.4306509    238.01007 
     550    138.01782    -572.9751    134606.93   -35730.151    2669.1949   -38399.345     2.565948    240.19839 
     600    138.43364   -646.40384    134606.16   -35767.702    2677.2367   -38444.939    2.6646302    240.92206 
     650    137.66436   -558.92946    134698.57   -35740.994    2662.3592   -38403.353    2.8605174    239.58325 
     700    135.91111   -656.74608    134768.39   -35767.035    2628.4524   -38395.488    3.0771339      236.532 
     750     138.5782   -577.94009    134821.81   -35770.971    2680.0324   -38451.003    3.2611475    241.17364 
     800    137.48405   -511.44671    134813.82   -35781.855    2658.8722   -38440.727    3.4541224    239.26946 
     850    134.48041   -380.40271    134897.73   -35801.622    2600.7833   -38402.405    3.5896027    234.04209 
     900    136.19098   -345.49564    134982.59   -35791.217    2633.8649   -38425.081     3.767126    237.01907 
     950    136.75468   -590.08464    135040.06   -35780.116    2644.7666   -38424.882    3.9956846     238.0001 
    1000    138.97056   -620.31912    135088.15   -35737.956    2687.6205   -38425.576    4.1710583    241.85648 
    1050    137.64405   -626.76616    135113.72   -35745.861    2661.9664   -38407.828    4.3621304     239.5479 
    1100    135.84076   -643.00533    135133.75   -35781.436    2627.0917   -38408.528      4.52309    236.40956 
    1150    135.46726   -706.22535    135188.03   -35773.658    2619.8685   -38393.527    4.6873321    235.75954 
    1200      136.169   -681.12308    135137.52   -35778.687    2633.4398   -38412.127    4.8372029    236.98082 
    1250    137.44004   -649.24994    135278.13   -35784.741     2658.021   -38442.762    4.9843927    239.19285 
    1300    138.80609   -575.19699    135269.92   -35750.429    2684.4398   -38434.868    5.1653309    241.57026 
    1350    138.12003   -781.31714    135385.29   -35812.904    2671.1717   -38484.076    5.2870227    240.37627 
    1400    134.96739   -723.95093    135369.95   -35799.089    2610.2012    -38409.29    5.4638481     234.8896 
    1450    138.57952    -534.1578    135293.14   -35768.291    2680.0581   -38448.349    5.5776603    241.17595 
    1500    136.25226    -943.1672    135243.98   -35781.291      2635.05   -38416.341    5.7211008    237.12572 
    1550    134.55809   -749.17645    135144.86   -35770.453    2602.2856   -38372.739    5.9644662    234.17728 
    1600    136.90853    -799.8315    135127.45   -35794.473     2647.742   -38442.215    6.1800287    238.26785 
    1650     137.6799   -877.95292    135118.87   -35799.911    2662.6597   -38462.571    6.3704442    239.61029 
    1700    138.67295   -464.43497    135175.93   -35777.909    2681.8648   -38459.773    6.5936448    241.33854 
    1750    136.01352   -679.60879    135196.64   -35738.008     2630.433   -38368.441    6.8062013    236.71023 
    1800    137.21991   -840.43396    135111.63   -35729.442    2653.7639   -38383.206    6.9638913    238.80976 
    1850    137.74121   -822.05909    135040.19    -35695.64    2663.8455   -38359.485    7.1589406      239.717 
    1900     136.3912    -555.0674    134988.22   -35710.591     2637.737   -38348.328    7.3476984    237.36752 
    1950    142.51735    -689.0334    134979.77   -35675.759    2756.2137   -38431.973    7.5710109    248.02913 
    2000     139.2981   -748.11149    134952.57   -35606.076     2693.955   -38300.031    7.7629955    242.42652 
    2050    138.09122    -662.6028    134985.26   -35594.774    2670.6145   -38265.388    7.9832429    240.32613 
    2100    138.44822   -829.06896    134952.02   -35597.502    2677.5188    -38275.02    8.2054627    240.94744 
    2150      137.442   -848.29669    134973.25   -35571.718    2658.0589   -38229.776    8.3647328    239.19626 
    2200      140.755   -604.33948    134953.34   -35586.273    2722.1307   -38308.404    8.5417012    244.96203 
    2250    141.33831   -685.66322       134996   -35594.624    2733.4117   -38328.035    8.7307557     245.9772 
    2300    139.45699   -894.19698    134959.67   -35647.689    2697.0279   -38344.717    8.9089728    242.70305 
    2350    139.81991   -516.16607    135094.88   -35605.717    2704.0464   -38309.764    9.1048364    243.33464 
    2400    137.33864   -560.21399    135064.52   -35687.184    2656.0601   -38343.244    9.2331204     239.0164 
    2450    138.32957    -783.3811    135091.98   -35695.281    2675.2241   -38370.506     9.390561    240.74095 
    2500    137.02862   -885.77194    135064.32   -35663.243    2650.0645   -38313.307    9.4659723    238.47685 
    2550    139.53484   -670.29079    135029.07   -35647.263    2698.5334   -38345.796    9.5334636    242.83853 
    2600    137.58271   -847.81814    135119.19   -35636.945    2660.7803   -38297.726     9.647537    239.44116 
    2650    137.85407   -937.24677    135093.26   -35713.961    2666.0282   -38379.989     9.827704    239.91342 
    2700       138.01   -769.43109    135053.44   -35714.556    2669.0437   -38383.599    9.9507593    240.18478 
    2750    139.22008   -445.61967     135158.4   -35729.803    2692.4462   -38422.249    10.226159    242.29075 
    2800    136.48141   -609.36256    135100.66   -35749.497    2639.4816   -38388.979    10.394285    237.52451 
    2850    138.48369     -781.915    135180.76   -35727.522    2678.2048   -38405.726    10.586884    241.00917 
    2900    137.68935   -645.40369    135222.78    -35646.51    2662.8426   -38309.352    10.736324    239.62675 
    2950    135.25766   -825.73288    135369.87   -35666.303     2615.815   -38282.118    10.863557    235.39478 
    3000    138.36186   -636.72492    135416.58   -35676.127    2675.8485   -38351.975     11.05274    240.79714 
    3050    138.24829     -741.318    135390.44   -35650.555    2673.6522   -38324.207     11.29729    240.59949 
    3100    137.79842   -799.97455     135340.8   -35638.186     2664.952   -38303.138    11.297166    239.81657 
    3150    138.99677   -578.69252    135239.37   -35637.224    2688.1275   -38325.352    11.334583    241.90211 
    3200    136.77377   -589.92276    135225.67   -35710.019    2645.1357   -38355.155    11.506237    238.03332 
    3250    137.91527   -792.60787    135188.39   -35735.813    2667.2118   -38403.025    11.631962    240.01992 
    3300    135.61675   -717.18765     135115.4   -35717.495    2622.7595   -38340.254    11.805082    236.01971 
    3350    136.53495   -503.98966     135113.5   -35714.681    2640.5171   -38355.199    11.935311    237.61769 
    3400     134.3339   -701.04258     135173.7   -35693.493    2597.9498   -38291.443     12.09418     233.7871 
    3450    137.84076   -601.91524    135268.09    -35682.98    2665.7707   -38348.751     12.24663    239.89024 
    3500    137.26546   -712.56983    135224.34   -35716.031    2654.6447   -38370.676     12.45937    238.88903 
    3550    135.11307   -788.96948    135228.58   -35748.659    2613.0186   -38361.678    12.604781    235.14313 
    3600    137.67975   -869.44403    135264.07   -35754.594    2662.6569    -38417.25    12.692414    239.61004 
    3650    137.92345   -728.89052    135212.49   -35784.704    2667.3699   -38452.074    12.829558    240.03415 
    3700    135.19034   -778.62541    135269.97   -35761.302     2614.513   -38375.815     12.97478    235.27761 
    3750     136.2972   -692.42026    135246.86   -35786.494    2635.9191   -38422.413    13.152409    237.20392 
    3800    135.17881   -818.95076    135335.59   -35815.866    2614.2901   -38430.156    13.228442    235.25755 
    3850    135.40983   -717.66138    135368.58   -35767.695    2618.7577   -38386.453    13.352939    235.65959 
    3900    138.36787   -837.36668    135375.94   -35793.301    2675.9648   -38469.266    13.626585    240.80761 
    3950     135.6596   -781.03105    135345.85   -35758.953    2623.5883   -38382.542    13.839078    236.09429 
    4000    137.26651   -703.49867    135330.23    -35757.29    2654.6652   -38411.955     13.98357    238.89087 
    4050    136.04293   -892.10824    135327.45   -35792.966    2631.0017   -38423.967    14.092463    236.76141 
    4100    136.33123   -859.15773    135269.14   -35754.482    2636.5771   -38391.059    14.187451    237.26314 
    4150    138.04942   -937.28388    135273.08   -35707.777    2669.8061   -38377.583    14.329959    240.25339 
    4200    136.30849   -929.25076    135282.92   -35760.154    2636.1374   -38396.292    14.467009    237.22357 
    4250    135.73757   -1017.4153     135251.7   -35768.384    2625.0961    -38393.48    14.602232    236.22997 
    4300    137.27294   -944.71298    135210.85   -35750.999    2654.7894   -38405.788    14.709304    238.90205 
    4350    135.10103   -909.57707    135109.94    -35779.84    2612.7857   -38392.625    14.947911    235.12217 
    4400    135.09568    -732.6878    135080.91   -35735.412    2612.6823   -38348.094    15.127581    235.11286 
    4450    139.45136   -808.68602    135033.66   -35712.543     2696.919   -38409.462    15.317743    242.69325 
    4500    137.08504   -650.52424    135119.01    -35745.78    2651.1555   -38396.936    15.567983    238.57504 
    4550    138.45967   -769.14417     135227.5    -35713.23    2677.7402   -38390.971    15.686838    240.96737 
    4600    137.65145   -388.10596    135331.62   -35659.076    2662.1095   -38321.185     15.71915    239.56078 
    4650    137.80248   -752.06337     135446.5   -35649.904    2665.0304   -38314.934    15.813482    239.82362 
    4700    137.38944   -851.73077     135416.8   -35694.704    2657.0426   -38351.746     16.10997    239.10481 
    4750     137.0493   -710.07888    135375.06   -35685.587    2650.4643   -38336.052    16.178389    238.51283 
    4800    139.17326   -735.80606    135381.98   -35648.682    2691.5407   -38340.223    16.315149    242.20926 
    4850    137.61388   -964.49366    135331.06   -35656.566     2661.383   -38317.949    16.606003     239.4954 
    4900      137.805   -1027.5156    135150.19    -35698.77    2665.0792    -38363.85    16.839305    239.82802 
    4950    138.77646   -908.43191    134938.19   -35704.341    2683.8668   -38388.208     16.84181    241.51869 
    5000    140.22695   -783.39308    134816.44   -35709.152    2711.9185   -38421.071    17.079881    244.04304 
    5050    133.95991   -780.32351    134777.35    -35729.01    2590.7172   -38319.728    17.247784    233.13625 
    5100    136.61768   -856.52443    134733.91   -35700.497    2642.1171   -38342.614     17.39555    237.76167 
    5150    135.57389   -847.26157    134639.03   -35703.227    2621.9306   -38325.158    17.584431    235.94511 
    5200    134.98927   -719.32525     134660.7   -35707.727    2610.6244   -38318.351    17.736544    234.92768 
    5250    138.34358   -762.79583    134642.33   -35688.221    2675.4951   -38363.716    17.876897    240.76533 
    5300     138.8088   -779.75228    134576.09   -35709.328    2684.4921    -38393.82    18.046994    241.57496 
    5350    137.37917   -846.75523    134558.39   -35699.545    2656.8438   -38356.388     18.28952    239.08692 
    5400    139.46829    -556.2539    134610.95    -35727.36    2697.2463   -38424.607    18.503726    242.72271 
    5450     138.1485   -591.63464    134742.81   -35762.642    2671.7224   -38434.365    18.610824    240.42583 
    5500    137.44416   -865.61782    134714.91   -35780.818    2658.1006   -38438.918    18.681737    239.20002 
    5550    135.26733   -665.59542    134791.05   -35728.631    2616.0019   -38344.633    18.847763    235.41159 
    5600    137.17646   -955.07689    134753.23   -35740.263    2652.9236   -38393.187    18.900094    238.73414 
    5650    134.55408   -762.04513    134657.92   -35769.177     2602.208   -38371.385    19.043024    234.17029 
    5700      135.435   -834.83613    134707.73   -35750.668    2619.2447   -38369.912    19.222182    235.70341 
    5750    137.00024   -700.76191    134814.22   -35738.178    2649.5156   -38387.693    19.404543    238.42746 
    5800    136.89286   -805.17467    134847.12   -35701.111    2647.4389    -38348.55     19.58811    238.24058 
    5850    137.27206   -909.75689    134856.04   -35738.664    2654.7725   -38393.436    19.776547    238.90052 
    5900    137.58697   -730.18393    134801.15   -35696.195    2660.8625   -38357.058    19.890693    239.44856 
    5950    136.67371   -748.14176    134823.71   -35679.228    2643.2006   -38322.429    20.116182    237.85918 
    6000    136.57749   -964.20848    134686.24    -35662.08    2641.3398    -38303.42    20.336192    237.69173 
    6050    137.26917    -809.1258    134581.78   -35702.155    2654.7165   -38356.872    20.585084    238.89549 
    6100    135.81113   -696.63925    134502.09   -35700.328    2626.5188   -38326.847    20.760554      236.358 
    6150    138.74281   -754.89371    134506.12    -35683.66     2683.216   -38366.876    20.980319    241.46013 
    6200    134.67572   -971.11248    134550.63   -35672.487    2604.5604   -38277.048    21.004312    234.38199 
    6250    136.72474   -1001.6932     134442.2   -35658.688    2644.1875   -38302.876    21.020247    237.94799 
    6300    137.85671   -1036.4068    134436.04   -35718.631    2666.0793    -38384.71    21.066038    239.91802 
    6350    134.42475   -640.29685    134438.03   -35757.794    2599.7068   -38357.501    21.262592    233.94521 
    6400    131.67402   -738.43738    134532.62   -35749.862    2546.5092   -38296.372    21.507014    229.15801 
    6450    138.49949   -1088.5784    134539.21   -35647.884    2678.5103   -38326.394    21.825768    241.03667 
    6500    137.85258    -636.7452    134586.24   -35628.719    2665.9994   -38294.719    22.029306    239.91083 
    6550    139.27855   -921.85614    134616.47    -35630.26    2693.5769   -38323.837    22.310053     242.3925 
    6600    139.16904   -853.63831     134621.8   -35632.656    2691.4591   -38324.115    22.668046    242.20192 
    6650    141.02604   -616.67976    134754.22   -35647.397    2727.3726   -38374.769    22.848949    245.43374 
    6700    138.57618   -771.93547    134817.34   -35650.428    2679.9934   -38330.422    23.067389    241.17013 
    6750    137.72227    -768.2628    134904.34   -35678.996    2663.4792   -38342.475    23.199132    239.68403 
    6800    139.01326   -908.68308    134930.79   -35709.438    2688.4463   -38397.885    23.210329     241.9308 
    6850     138.5528   -723.78676    134909.65   -35681.781    2679.5413   -38361.323    23.296148    241.12945 
    6900    138.43707   -676.06135    134972.13   -35665.705     2677.303   -38343.008    23.454539    240.92803 
    6950    136.88266   -715.16404    135011.55   -35662.305    2647.2416   -38309.547    23.765345    238.22283 
    7000    137.86495   -790.62913    135094.53   -35646.897    2666.2386   -38313.136    24.010806    239.93235 
    7050    140.62134    -759.6413    135131.27   -35628.118    2719.5458   -38347.664    24.161042    244.72941 
    7100    140.35659   -637.85705    135133.97   -35625.267    2714.4257   -38339.693    24.293351    244.26866 
    7150    138.13635   -899.66872    135108.37   -35691.008    2671.4874   -38362.496    24.553193    240.40468 
    7200    136.62844   -845.07061     135062.3    -35702.06    2642.3252   -38344.385    24.645592    237.78041 
    7250      137.421   -689.05313    135135.77    -35669.81    2657.6529   -38327.463    24.784172    239.15973 
    7300     136.6099   -530.12167    135125.42   -35679.444    2641.9666   -38321.411    25.086513    237.74814 
    7350    139.31413   -575.40332    135169.25    -35705.15     2694.265   -38399.415    25.305903    242.45442 
    7400    136.24571    -823.8869    135211.07    -35781.35    2634.9233   -38416.274    25.463654    237.11432 
    7450    136.39072   -518.94321    135252.15   -35794.142    2637.7278   -38431.869    25.705689    237.36668 
    7500    135.95529   -673.64029     135263.3    -35763.69    2629.3067   -38392.996    26.041732    236.60888 
    7550    138.30661   -601.97547    135285.33   -35712.508    2674.7801   -38387.288    26.283484    240.70099 
    7600    136.87672   -378.55968    135330.44   -35739.489    2647.1268   -38386.616    26.409002    238.21249 
    7650    139.10762   -750.08461    135444.32   -35713.906    2690.2712   -38404.177    26.564337    242.09502 
    7700    139.08881   -560.26604     135416.9   -35705.562    2689.9074   -38395.469    26.753748    242.06228 
    7750    137.03224   -456.12817    135470.81   -35766.748    2650.1344   -38416.882    26.866864    238.48315 
    7800    137.52185   -569.12531    135435.39   -35748.573    2659.6033   -38408.176    26.965321    239.33524 
    7850    138.63753   -710.67372    135406.59   -35713.534      2681.18   -38394.714    27.167671    241.27691 
    7900    139.58035   -918.89534    135397.97   -35716.752    2699.4135   -38416.166    27.251191    242.91773 
    7950    137.89732   -822.15392    135284.08   -35675.521    2666.8647   -38342.385    27.305667    239.98869 
    8000    135.37169   -577.20455    135323.89   -35668.231    2618.0202   -38286.251    27.474076    235.59322 
    8050    137.13383   -802.46724    135288.87    -35704.99    2652.0991   -38357.089    27.679957    238.65995 
    8100    134.26656   -665.90707    135254.41   -35712.472    2596.6475   -38309.119    27.784367    233.66991 
    8150    135.73298   -527.40859    135164.34   -35738.358    2625.0074   -38363.365    27.922674    236.22199 
    8200    137.14002    -801.2298     135183.9   -35700.371    2652.2189    -38352.59    28.013154    238.67073 
    8250    136.34086   -705.28174    135124.87   -35699.332    2636.7635   -38336.096    27.933874    237.27991 
    8300    137.34613   -636.26864    135072.51   -35719.563    2656.2048   -38375.768    28.028482    239.02942 
    8350    135.29102   -707.02628    135038.99   -35744.413      2616.46   -38360.873    28.154504    235.45282 
    8400    135.58669   -433.54478    135093.16   -35732.279    2622.1783   -38354.457    28.417928     235.9674 
    8450    136.20292   -558.18136    135087.96   -35747.771    2634.0957   -38381.867    28.515884    237.03984 
    8500    133.58203    -625.7136    135064.22   -35782.036    2583.4091   -38365.445     28.67177     232.4786 
    8550    137.12523   -689.60723    135083.83   -35764.647    2651.9327    -38416.58     28.85292    238.64498 
    8600    132.21366   -305.33823    135130.24   -35836.162    2556.9455   -38393.108    28.961295    230.09717 
    8650    134.81692   -363.37198    135164.65   -35830.734    2607.2912   -38438.025    29.130889    234.62772 
    8700    135.81469   -554.36884    135262.71   -35822.444    2626.5876   -38449.031    29.310767    236.36419 
    8750    136.06366   -697.39552    135361.84   -35795.063    2631.4026   -38426.465    29.387588    236.79749 
    8800    138.27122   -470.32645    135408.04    -35737.94    2674.0956   -38412.036    29.497721    240.63939 
    8850    139.18457   -573.21585    135508.94   -35688.376    2691.7593   -38380.135    29.596458    242.22894 
    8900    136.41819   -667.44836    135545.44   -35721.702     2638.259   -38359.961    29.658286    237.41449 
    8950    136.67194   -603.03883    135613.14   -35748.799    2643.1663   -38391.965    29.748223     237.8561 
    9000    141.63165   -532.76024    135615.17   -35690.135    2739.0847    -38429.22    29.963454     246.4877 
    9050    138.58982   -693.15702    135563.03   -35689.908    2680.2572   -38370.165     30.13394    241.19387 
    9100    136.70528   -690.70972    135585.91   -35695.071    2643.8112   -38338.882    30.298209    237.91412 
    9150    142.04652    -563.1945    135668.33   -35632.124     2747.108   -38379.232    30.500232    247.20971 
    9200    138.74928   -577.10424    135650.44    -35681.55    2683.3411   -38364.891    30.682989    241.47139 
    9250    139.24114   -686.78019     135647.6   -35663.154    2692.8534   -38356.007    30.784789    242.32739 
    9300    139.18678   -647.20903    135657.33   -35666.343    2691.8021   -38358.145    31.087419    242.23278 
    9350    138.81198   -737.15574    135661.22   -35639.951    2684.5536   -38324.504    31.269623     241.5805 
    9400    139.91961   -900.34353    135625.77   -35688.523    2705.9747   -38394.498    31.419052    243.50817 
    9450    140.62002    -752.3007     135607.3   -35689.362    2719.5203   -38408.882    31.519504    244.72712 
    9500    138.59871   -722.16416     135560.9   -35656.204    2680.4292   -38336.633    31.809415    241.20935 
    9550    140.93634   -655.30474    135525.04   -35653.086    2725.6377   -38378.724     31.96338    245.27762 
    9600    136.63334   -885.79223    135475.99    -35659.04      2642.42    -38301.46    32.012743    237.78893 
    9650    140.79189   -770.07167    135478.52   -35706.087    2722.8442   -38428.931    32.182539    245.02623 
    9700     139.6203   -620.00547    135548.68   -35681.993    2700.1863   -38382.179    32.099821    242.98727 
    9750    138.78873   -670.49364    135623.32   -35655.318    2684.1041   -38339.422    32.312653    241.54005 
    9800    140.30794     -886.561    135705.78   -35659.256    2713.4848   -38372.741    32.521073    244.18399 
    9850    138.27864   -771.97086    135700.83   -35728.838    2674.2391   -38403.077    32.620433    240.65231 
    9900     136.3762   -721.27322    135769.67   -35783.854    2637.4469   -38421.301    32.913954    237.34141 
    9950    134.34728   -709.20469    135794.63   -35785.703    2598.2086   -38383.912    33.069332     233.8104 
   10000    134.59429   -872.86241    135756.08   -35755.531    2602.9856   -38358.517    33.350941    234.24027 
   10050    137.93476   -502.77335     135771.4   -35701.069    2667.5886   -38368.658    33.684188    240.05384 
   10100    137.48718   -757.61089    135783.56   -35715.327    2658.9327    -38374.26    33.906878    239.27489 
   10150    138.00237   -873.86668    135757.01   -35736.072    2668.8963   -38404.968    34.046625    240.17151 
   10200    138.17637   -643.30882     135832.6    -35757.92    2672.2613   -38430.181    34.272309    240.47432 
   10250    136.82201    -892.0416    135792.81   -35774.421    2646.0687    -38420.49     34.39854    238.11728 
   10300    134.47268   -665.61086    135731.56   -35809.653    2600.6338   -38410.287    34.515097    234.02864 
   10350     136.6911   -812.46745    135733.16   -35798.464    2643.5369   -38442.001     34.63909    237.88944 
   10400    134.68302   -1004.4723    135653.55    -35834.23    2604.7018   -38438.931    34.838588    234.39471 
   10450    132.38642   -812.60834    135634.75   -35862.577    2560.2866   -38422.863     34.88372    230.39783 
   10500    135.22086   -735.84277    135589.63   -35793.688    2615.1032   -38408.791    35.006263    235.33072 
   10550    136.11859   -806.79716     135593.4   -35773.782    2632.4648   -38406.247    35.139454    236.89307 
   10600    139.02693   -717.61269    135574.56   -35744.547    2688.7107   -38433.258    35.148971     241.9546 
   10650    137.10565   -979.54494    135507.79   -35757.921    2651.5541   -38409.475    35.174077     238.6109 
   10700    136.15804   -820.05067     135558.3    -35778.98    2633.2278   -38412.207    35.301868    236.96174 
   10750    136.79938   -832.20435    135502.27   -35777.239     2645.631    -38422.87     35.48741    238.07789 
   10800    135.76221   -766.64888    135498.38    -35786.67    2625.5726   -38412.243    35.629671    236.27286 
   10850     136.8748   -726.88501    135529.07   -35809.537    2647.0896   -38456.626    35.618697    238.20915 
   10900    140.60022    -829.4987    135558.47   -35751.228    2719.1373   -38470.366    35.844996    244.69266 
   10950    136.45621   -477.73097    135606.57   -35736.851    2638.9943   -38375.845    36.114923    237.48066 
   11000    140.24267   -901.74238    135663.91   -35707.307    2712.2224    -38419.53    36.250783    244.07039 
   11050    138.70237   -850.51835    135710.12   -35736.156    2682.4339    -38418.59    36.395903    241.38975 
   11100    137.77186   -940.69667    135791.31    -35702.68    2664.4382   -38367.118    36.729243    239.77033 
   11150    138.31276   -745.94286     135808.5   -35732.089    2674.8989   -38406.988    36.954491    240.71169 
   11200    139.72556   -857.61864    135819.64    -35702.57    2702.2218   -38404.792    36.912387    243.17045 
   11250    135.64857    -971.2645    135842.64   -35723.133    2623.3749   -38346.508    37.201715    236.07509 
   11300    139.36789   -684.28471    135804.18   -35689.782    2695.3047   -38385.087    37.259272    242.54798 
   11350    138.56496   -522.25554    135872.59   -35684.488    2679.7764   -38364.265    37.397056    241.15061 
   11400    139.40493   -634.15456    135960.94   -35746.731    2696.0211   -38442.752    37.674471    242.61244 
   11450    141.16364   -726.84754    136004.58   -35769.579    2730.0337   -38499.612    37.894979    245.67321 
   11500    138.23437   -831.78528    135904.28   -35795.445     2673.383   -38468.828    38.224722    240.57527 
   11550    141.17542   -918.71604     135849.3   -35780.007    2730.2615   -38510.268    38.171027    245.69371 
   11600    136.33344   -722.57191    135822.23   -35877.575    2636.6199   -38514.195    38.410059    237.26699 
   11650    137.56385   -713.74094    135934.23   -35892.718    2660.4154   -38553.134     38.64633    239.40833 
   11700    135.22527   -837.93071    135864.54    -35925.73    2615.1885   -38540.919    38.919574     235.3384 
   11750    136.33499   -759.17983    135735.16   -35918.054    2636.6499   -38554.704    39.129211    237.26969 
   11800    138.36362     -712.727    135708.71   -35859.531    2675.8827   -38535.413     39.35082    240.80021 
   11850    138.14169   -548.05812    135724.63   -35808.972    2671.5907   -38480.563    39.435135    240.41398 
   11900    137.56227   -716.04269    135709.08   -35751.622    2660.3849   -38412.006    39.440916    239.40558 
   11950    137.09031   -628.72506    135767.19   -35773.137    2651.2575   -38424.395    39.592314    238.58421 
   12000    138.59619   -529.13382    135814.82   -35801.933    2680.3803   -38482.313    39.693344    241.20495 
   12050    137.53826   -703.57257    135911.18   -35818.286    2659.9206   -38478.207    39.866844    239.36379 
   12100    137.83135   -504.48162    135867.55   -35876.291    2665.5889    -38541.88    40.036702    239.87388 
   12150    135.60549   -521.89488    135901.94   -35876.222    2622.5419   -38498.764    40.244123    236.00012 
   12200    135.72594   -641.08086    135958.78   -35873.202    2624.8713   -38498.073    40.341385    236.20974 
   12250    137.77093   -627.52472    135962.57   -35826.544    2664.4204   -38490.964    40.422743    239.76873 
   12300    138.78208   -715.61364    136011.72   -35787.158    2683.9754   -38471.133    40.492036    241.52847 
   12350    137.61331   -526.61442    135969.18   -35829.395     2661.372   -38490.767    40.662246    239.49441 
   12400    137.19317   -650.63966    135945.98   -35847.834    2653.2468   -38501.081    40.657593    238.76323 
   12450    138.83607   -635.41573    135860.07   -35809.556    2685.0196   -38494.575    40.858884    241.62244 
   12500    138.16359     -536.917    135818.13   -35825.827    2672.0141   -38497.841    41.102152    240.45208 
   12550    139.33121   -794.22196    135790.26   -35806.502    2694.5954   -38501.097    41.276878    242.48415 
   12600    139.48741   -522.63818    135763.17   -35842.702    2697.6162   -38540.318    41.491825    242.75599 
   12650    136.75987   -664.48429    135840.52    -35862.81     2644.867   -38507.677    41.709008    238.00914 
   12700    137.01411   -853.82095       135852   -35919.744    2649.7838   -38569.527    41.838201    238.45159 
   12750    137.47384   -649.76363    135796.13   -35906.389    2658.6747   -38565.063    42.086513    239.25168 
   12800    139.07203    -562.5482    135825.63   -35871.156    2689.5829   -38560.739    42.179077    242.03308 
   12850    138.15285   -703.09839    135923.28   -35858.486    2671.8064   -38530.292    42.351213    240.43339 
   12900    139.50419   -772.61353    135918.39   -35915.534    2697.9407   -38613.475    42.474683    242.78519 
   12950    139.25619   -654.28859    135877.82    -35933.81    2693.1444   -38626.954    42.595048    242.35358 
   13000    138.86418   -657.44944    135818.81   -35875.433    2685.5632   -38560.997     42.65037    241.67136 
   13050    136.23482   -574.08954    135790.12   -35879.647    2634.7126   -38514.359    42.701119    237.09536 
   13100    134.20829   -644.81639    135789.17    -35946.14    2595.5206    -38541.66    42.716511     233.5685 
   13150    134.39226   -827.50709    135724.44   -35983.177    2599.0786   -38582.255    42.819205    233.88868 
   13200    138.36962   -628.97257    135721.68   -35909.142    2675.9986   -38585.141    42.834962    240.81064 
   13250      135.328    -667.4787    135685.16   -35916.381    2617.1752   -38533.556    42.865953    235.51718 
   13300    137.65992   -922.79855    135644.19   -35889.445    2662.2734   -38551.719    43.070063    239.57553 
   13350    134.80163   -808.71513    135595.05   -35872.819    2606.9954   -38479.814    43.354813    234.60111 
   13400     138.4654   -812.08858    135578.82   -35824.967     2677.851   -38502.818    43.554171    240.97734 
   13450    137.76204   -937.83021       135567    -35821.59    2664.2484   -38485.838    43.778686    239.75325 
   13500    138.34989   -804.14474     135482.2   -35825.714    2675.6171   -38501.331    44.146399    240.77631 
   13550    135.57642   -871.25077     135463.2   -35850.658    2621.9796   -38472.637    44.375153    235.94953 
   13600    135.97685   -821.76185       135424   -35856.447    2629.7237   -38486.171    44.394478     236.6464 
   13650    134.21421   -835.18288    135411.44   -35858.765    2595.6351     -38454.4    44.534842     233.5788 
   13700    138.17407    -710.5751    135446.96   -35819.791    2672.2167   -38492.008    44.687156    240.47031 
   13750    139.02929   -798.33513    135426.64    -35864.63    2688.7564   -38553.386    44.774178    241.95871 
   13800    138.23528   -729.78551    135391.02   -35828.112    2673.4005   -38501.513    44.857338    240.57685 
   13850    137.55786   -804.27842    135286.28   -35839.199    2660.2997   -38499.499    44.881436    239.39791 
   13900    135.72197   -739.41536    135235.56   -35858.062    2624.7945   -38482.857    45.114872    236.20283 
   13950     136.8634    -690.2048    135176.59   -35856.373    2646.8692   -38503.243    45.398005    238.18932 
   14000    136.76833   -605.94119    135163.06   -35793.307    2645.0305   -38438.338     45.50903    238.02385 
   14050    141.73493   -799.18227    135227.27   -35744.952     2741.082   -38486.034    45.632456    246.66743 
   14100    138.72552   -376.88126    135217.82   -35761.981    2682.8815   -38444.862    45.853736    241.43003 
   14150    138.60432    -769.0552    135240.48   -35797.888    2680.5376   -38478.426    46.020244     241.2191 
   14200    138.09447   -447.83724    135288.71   -35790.666    2670.6774   -38461.343    46.163985    240.33179 
   14250    139.39872   -1093.6871    135270.04   -35776.938     2695.901   -38472.839    46.345107    242.60164 
   14300    137.12414    -622.9495    135199.58   -35805.861    2651.9117   -38457.773    46.561572    238.64309 
   14350    137.40966   -511.88036    135260.72   -35836.307    2657.4335   -38493.741    46.658136    239.13999 
   14400    134.15685   -692.06338    135326.56   -35840.863    2594.5259   -38435.389    46.793854    233.47899 
   14450    139.70676   -495.34342     135426.9   -35730.592    2701.8583   -38432.451    46.930164    243.13774 
   14500    139.34524   -491.60241    135481.85   -35731.042    2694.8666   -38425.909    47.133285    242.50855 
   14550    137.53328   -723.62095    135455.28    -35756.38    2659.8242   -38416.204    47.266703    239.35513 
   14600    139.55137   -611.40443    135522.74   -35717.314    2698.8531   -38416.167    47.482708     242.8673 
   14650    140.30024   -782.81694    135566.24   -35687.408    2713.3358   -38400.744    47.706455    244.17059 
   14700    140.97025   -553.39577    135551.55   -35671.842    2726.2936   -38398.135    47.766194    245.33664 
   14750    136.71951   -742.32965    135545.33   -35738.217    2644.0863   -38382.303    48.017729    237.93889 
   14800     138.4702   -1025.8403     135532.1   -35749.995    2677.9438   -38427.939    48.392635    240.98569 
   14850    138.75837    -533.7578    135549.03   -35753.661    2683.5168   -38437.178      48.5608     241.4872 
   14900     138.2426   -739.42432    135616.51   -35777.628    2673.5422    -38451.17      48.8005    240.58959 
   14950     138.7979   -394.70487    135714.18   -35730.426    2684.2813   -38414.708    48.997478      241.556 
   15000    137.63608   -789.68316    135828.61   -35693.788    2661.8124     -38355.6    48.820378    239.53404 
   15050    136.64241    -1013.755    135691.96   -35747.177    2642.5953   -38389.773    48.755567    237.80471 
   15100    137.59411   -881.98093    135685.39   -35731.473    2661.0008   -38392.474    48.973349      239.461 
   15150    137.66742   -594.81943    135726.61   -35745.341    2662.4185    -38407.76     49.13808    239.58858 
   15200    138.61349   -814.85134    135695.32    -35770.69    2680.7151   -38451.405    49.113918    241.23507 
   15250    137.16856   -693.91109    135603.35   -35753.235    2652.7707   -38406.006    49.040295    238.72038 
   15300    137.87856   -571.06401    135639.86   -35747.423    2666.5019   -38413.924    49.106023    239.95604 
   15350    135.44344   -1036.7225    135627.88   -35749.491    2619.4079   -38368.899    49.147068    235.71809 
   15400    135.89116   -920.84715    135504.73   -35760.602    2628.0665   -38388.668    49.323785    236.49727 
   15450    135.27739   -649.46406    135471.44   -35765.234    2616.1964   -38381.431    49.440104     235.4291 
   15500    136.63576   -944.38592    135497.27   -35761.683    2642.4667   -38404.149    49.278329    237.79314 
   15550    137.26032   -1038.7218    135582.14   -35786.546    2654.5454   -38441.091     49.44635    238.88009 
   15600    137.88336   -911.37089     135570.8   -35747.772    2666.5947   -38414.367     49.62844    239.96439 
   15650    137.01357   -850.08582    135547.62   -35757.384    2649.7734   -38407.157    49.623119    238.45066 
   15700    136.54363   -754.90019    135565.57   -35753.462    2640.6849   -38394.147    49.831243     237.6328 
   15750    136.89609   -915.00917    135530.77   -35693.228    2647.5014   -38340.729    49.988446     238.2462 
   15800    140.02973   -556.60932    135472.68   -35629.602    2708.1043   -38337.706     50.07659     243.6998 
   15850    138.27926   -536.96039    135505.68   -35647.167    2674.2511   -38321.419    50.344526    240.65339 
   15900    138.85301   -790.53299    135488.42   -35700.374    2685.3471   -38385.722     50.67113    241.65191 
   15950    140.55255   -547.14216    135453.73   -35660.299    2718.2155   -38378.514    50.887223     244.6097 
   16000    138.28561   -765.88199    135437.24   -35677.185    2674.3739   -38351.559    51.117257    240.66444 
   16050     140.6668   -672.19976    135401.75   -35693.366    2720.4249   -38413.791    51.195429    244.80853 
   16100    139.56398    -634.3669    135465.29   -35678.498     2699.097   -38377.595    51.463104    242.88925 
   16150    137.20614   -525.10552    135573.61   -35721.464    2653.4976   -38374.961    51.690054     238.7858 
   16200    140.08607   -557.25067     135592.4   -35681.803    2709.1939   -38390.997    51.679851    243.79785 
   16250    135.07502   -854.72482    135613.56   -35773.567    2612.2828    -38385.85    51.684108    235.07691 
   16300    138.63905   -625.56103    135554.77   -35739.064    2681.2093   -38420.273    51.875772    241.27955 
   16350    140.94168    -802.7745    135475.39   -35680.331     2725.741   -38406.072    52.185036    245.28692 
   16400    139.39848      -268.01    135449.11   -35691.408    2695.8964   -38387.305    52.213389    242.60122 
   16450    139.72906   -420.88593    135478.21   -35703.145    2702.2895   -38405.434    52.391238    243.17653 
   16500    137.16084   -649.01996    135565.19   -35743.096    2652.6214   -38395.717    52.657083    238.70695 
   16550    138.97811   -522.82482    135612.57   -35741.409    2687.7666   -38429.176    52.927507    241.86963 
   16600    136.78607   -762.35392    135676.04   -35733.745    2645.3736   -38379.119    53.137668    238.05473 
   16650    137.74624   -713.30359    135741.81   -35752.073    2663.9427   -38416.016    53.341369    239.72575 
   16700    135.71474   -632.35918    135727.04   -35801.278    2624.6546   -38425.932    53.457424    236.19024 
   16750    137.28855   -839.85422    135743.79   -35819.215    2655.0914   -38474.307    53.589114    238.92922 
   16800    133.87262   -808.73288     135793.2   -35793.791     2589.029    -38382.82    53.737791    232.98433 
   16850    136.10572   -707.38055    135713.71   -35762.634     2632.216    -38394.85    53.928792    236.87069 
   16900    137.42282    -940.5714    135633.56   -35799.868     2657.688   -38457.556    53.872907    239.16289 
   16950    138.11415   -943.67154     135469.3   -35775.962    2671.0579    -38447.02    53.904439    240.36604 
   17000    137.29187   -789.24112    135384.41   -35785.152    2655.1556   -38440.307    53.724226      238.935 
   17050    136.38884   -676.62494    135431.46   -35810.251    2637.6913   -38447.942    53.825578    237.36341 
   17100     133.9186   -731.47788    135437.42   -35798.733    2589.9182   -38388.651    54.044424    233.06435 
   17150    137.40088   -783.84723    135410.72    -35758.55    2657.2636   -38415.814    54.188575     239.1247 
   17200    136.96439   -726.32635    135383.69   -35776.477    2648.8221   -38425.299     54.16099    238.36506 
   17250    137.06503   -844.61474    135347.19   -35771.118    2650.7685   -38421.887    54.069944    238.54021 
   17300    135.74643    -617.3646    135375.42    -35725.44    2625.2675   -38350.707    54.218441     236.2454 
   17350     139.2236   -792.49662    135466.58   -35713.206    2692.5142    -38405.72    54.310407    242.29687 
   17400    137.26973   -782.63763    135556.06    -35755.95    2654.7273   -38410.678    54.397195    238.89646 
   17450    137.36764   -914.49654    135531.29   -35803.338    2656.6208   -38459.959     54.54347    239.06685 
   17500    134.94707   -699.08009    135372.81   -35794.369    2609.8083   -38404.177    54.689827    234.85424 
   17550    136.26652   -693.69994    135318.19   -35784.173    2635.3257   -38419.499    54.790048    237.15053 
   17600    135.62113   -595.91815    135300.38   -35832.367    2622.8443   -38455.211    54.889618    236.02733 
   17650    135.83852   -798.41773     135235.8   -35845.921    2627.0485    -38472.97    55.367196    236.40567 
   17700    134.29604   -867.74072    135249.86   -35820.078    2597.2177   -38417.296    55.640899    233.72123 
   17750    132.92892   -658.12467    135158.62   -35846.195    2570.7782   -38416.974    55.842331    231.34195 
   17800    134.25914   -1193.4438     135151.9   -35790.854     2596.504   -38387.358    56.154927      233.657 
   17850    136.35263    -743.5653    135134.18   -35775.025    2636.9912   -38412.016    56.382901     237.3004 
   17900    137.05971    -644.3174    135157.73   -35727.026    2650.6657   -38377.692    56.410903    238.53096 
   17950    137.57813   -705.53861     135202.5    -35763.67    2660.6917   -38424.361    56.565101    239.43319 
   18000    136.21599   -939.47311    135299.18   -35723.504    2634.3486   -38357.853    56.820445     237.0626 
   18050    137.40048   -905.63525    135173.36   -35708.129     2657.256   -38365.385    57.070703    239.12401 
   18100    135.99619   -770.11026    135088.81   -35707.474    2630.0977   -38337.572    57.142106    236.68007 
   18150    136.09297   -695.17105    135099.09   -35717.047    2631.9694   -38349.017    57.290304    236.84849 
   18200    137.73429   -1004.4087    135083.67   -35680.014    2663.7117   -38343.725     57.52217    239.70496 
   18250    137.53702   -631.41795    135075.69   -35749.591    2659.8966   -38409.488    57.675272    239.36164 
   18300    139.60755   -772.54504    135070.08   -35687.746    2699.9397   -38387.686    57.943879    242.96508 
   18350     137.7539    -836.4868    135085.74   -35751.004    2664.0909   -38415.095    58.260846    239.73908 
   18400    138.96069    -699.8072    135052.23   -35721.958    2687.4297   -38409.388    58.598462    241.83932 
   18450    142.39749   -642.52716    135049.38   -35665.972    2753.8956   -38419.868    58.985866    247.82053 
   18500     139.1275   -757.36018    135028.71   -35656.812    2690.6558   -38347.467    59.501428    242.12963 
   18550    139.25153   -749.26852    134961.69     -35731.3    2693.0544   -38424.354    59.524651    242.34548 
   18600     141.8154   -660.42555    134970.99   -35729.003    2742.6384   -38471.641    59.881441     246.8075 
   18650    139.16319   -996.07887    135062.73   -35743.254    2691.3458     -38434.6    60.042481    242.19172 
   18700    139.49469   -841.07721       135109   -35744.559    2697.7569   -38442.316    60.258145    242.76865 
   18750     139.0514   -648.80971    135145.32   -35759.437    2689.1839   -38448.621    60.212175    241.99718 
   18800    134.50268    -660.7658    135165.86   -35802.965     2601.214   -38404.179    60.233091    234.08085 
   18850    133.39781   -663.45977     135164.1   -35863.103    2579.8464   -38442.949    60.376707      232.158 
   18900    136.89252   -683.36059    135190.48   -35858.979    2647.4322   -38506.412    60.661973    238.23998 
   18950    135.39288   -785.08357    135295.75   -35865.647    2618.4301   -38484.077    60.730221     235.6301 
   19000     137.4013   -1006.6178    135324.05   -35816.229    2657.2718   -38473.501     60.92972    239.12544 
   19050    137.57289    -611.4066    135386.87   -35776.808    2660.5904   -38437.398     61.12232    239.42407 
   19100    140.90061   -866.58069    135425.69   -35798.207    2724.9467   -38523.154    61.285092    245.21544 
   19150    137.33973   -866.76043    135434.62   -35726.573    2656.0812   -38382.654    61.496666    239.01829 
   19200    139.52708   -697.24383    135298.58   -35691.307    2698.3833    -38389.69     61.48828    242.82502 
   19250    140.45617   -909.93314    135308.24   -35634.496    2716.3515   -38350.848    61.656116    244.44197 
   19300    142.36966   -993.52783    135251.79   -35601.016    2753.3575   -38354.374    61.751573     247.7721 
   19350    138.53843   -666.06227    135292.46   -35666.798    2679.2633   -38346.061    62.197414    241.10443 
   19400    142.41909   -666.27707    135345.52   -35669.455    2754.3133   -38423.769     62.33789    247.85811 
   19450    137.76121   -591.32156    135322.56   -35656.569    2664.2323   -38320.801    62.494026     239.7518 
   19500     139.9026   -619.55805    135358.59   -35666.203    2705.6457   -38371.848     62.77954    243.47855 
   19550    138.73688   -840.54683    135427.14   -35673.937    2683.1013   -38357.038    62.712667    241.44981 
   19600    138.65237   -604.54528    135443.41   -35647.085    2681.4669   -38328.552    62.641126    241.30273 
   19650    140.74211   -775.10588    135451.01   -35654.016    2721.8814   -38375.897    62.750045    244.93959 
   19700    137.77828   -787.07368    135463.22   -35712.327    2664.5625    -38376.89     62.92979    239.78151 
   19750     139.6172    -851.5399    135484.79   -35713.208    2700.1263   -38413.335     63.13781    242.98187 
   19800    136.80365   -830.84974    135519.19    -35737.52    2645.7136   -38383.233    63.477521    238.08532 
   19850    139.80372   -761.58663    135562.17   -35701.075    2703.7334   -38404.808    63.510732    243.30647 
   19900    140.51109   -690.86215    135560.93   -35707.519    2717.4137   -38424.933    63.535604    244.53755 
   19950    137.75383    -803.8282    135632.68   -35652.708    2664.0896   -38316.798    63.913892    239.73896 
   20000    142.14001   -780.83475    135674.03   -35657.305    2748.9161   -38406.221    64.041629    247.37242 
   20050     138.7494   -891.59649    135592.65   -35724.827    2683.3435    -38408.17    64.118316     241.4716 
   20100    139.85442   -658.56061    135552.07   -35693.258    2704.7139   -38397.972    64.391093    243.39471 
   20150    137.01781    -739.1829    135564.31    -35715.28    2649.8552   -38365.136     64.74847    238.45803 
   20200    137.68523   -532.25704    135603.32   -35741.359    2662.7628   -38404.122    64.907829    239.61957 
   20250    140.00182    -662.8201    135692.06   -35728.244    2707.5646   -38435.808    65.080558    243.65124 
   20300     140.1853   -678.18378    135724.74   -35701.705     2711.113   -38412.818    65.098291    243.97056 
   20350    138.31477   -674.24504    135758.49   -35724.401    2674.9379   -38399.339    65.151203    240.71519 
   20400    137.69397   -678.32349    135861.05   -35729.782    2662.9319   -38392.714    65.220139    239.63478 
   20450     135.2767   -837.41874    135779.82   -35765.256    2616.1831   -38381.439    65.401539     235.4279 
   20500    139.28875   -875.23368    135664.69   -35767.456    2693.7742    -38461.23      65.5769    242.41025 
   20550    138.65072   -663.54028    135681.12   -35780.172    2681.4351   -38461.607    65.807169    241.29986 
   20600     138.5027   -808.10474    135654.86   -35799.456    2678.5724   -38478.028    66.143025    241.04226 
   20650    136.04101   -645.20713    135686.13   -35779.965    2630.9644    -38410.93    66.545744    236.75806 
   20700    140.04302   -579.10799    135729.17   -35752.993    2708.3615   -38461.354    66.656946    243.72295 
   20750    136.11321   -673.37916    135734.26   -35731.113    2632.3607   -38363.474    66.799456    236.88371 
   20800    137.28177    -796.0569    135715.39   -35738.965    2654.9601   -38393.925    66.933244    238.91741 
   20850    139.52449   -416.50612    135718.66   -35744.384    2698.3332   -38442.717     67.13394    242.82052 
   20900    134.64742   -554.29992    135726.52   -35791.499    2604.0132   -38395.512    67.231503    234.33274 
   20950    136.02603    -870.0343    135682.29    -35802.14    2630.6748   -38432.815    67.357517      236.732 
   21000    136.01927   -908.97596     135631.2   -35832.298     2630.544   -38462.842    67.315078    236.72023 
   21050    138.58808    -645.4626    135638.78   -35866.478    2680.2235   -38546.702    67.490209    241.19084 
   21100    138.97122   -495.03692    135649.73    -35828.93    2687.6333   -38516.564    67.518251    241.85764 
   21150    138.42665    -655.9919    135661.45   -35807.993    2677.1015   -38485.094    67.974569     240.9099 
   21200    138.09089   -885.75832    135672.86   -35784.728    2670.6081   -38455.336    68.121712    240.32556 
   21250    137.57917   -736.38219     135681.6    -35745.59    2660.7118   -38406.302    68.036948      239.435 
   21300    135.73779   -945.17385    135632.43   -35737.126    2625.1005   -38362.227    67.965668    236.23037 
   21350    134.71062   -675.34279    135597.13   -35819.384    2605.2355   -38424.619    68.169259    234.44273 
   21400    136.01945   -1156.0966     135540.5   -35789.517    2630.5476   -38420.065    67.962588    236.72055 
   21450     137.6412   -870.40779     135431.4   -35805.892    2661.9113   -38467.803    67.949717    239.54294 
   21500    136.25178   -841.51661       135348   -35830.454    2635.0407   -38465.495    68.120132    237.12488 
   21550    139.14619   -664.99496    135435.69   -35817.217     2691.017   -38508.234    68.329723    242.16214 
   21600    137.42952   -694.29553     135490.2    -35853.29    2657.8176   -38511.107    68.418417    239.17455 
   21650    135.07449   -620.39707    135559.11   -35859.148    2612.2725    -38471.42    68.559939    235.07599 
   21700    137.54889   -845.22659    135544.41   -35845.976    2660.1261   -38506.102    68.558759    239.38229 
   21750    136.97348   -681.11106    135495.36   -35821.245     2648.998   -38470.243    68.606632    238.38089 
   21800     137.4338   -852.10933     135474.7   -35836.375    2657.9004   -38494.276    68.935215      239.182 
   21850    137.26836   -436.81292    135507.34   -35763.612    2654.7009   -38418.313    69.294756    238.89408 
   21900    136.64752    -656.5879    135523.57   -35783.115    2642.6941   -38425.809    69.480372     237.8136 
   21950    138.75291   -472.02692    135570.23   -35725.771    2683.4113   -38409.182    69.593125     241.4777 
   22000    141.80395   -601.78483    135593.55   -35705.534    2742.4168    -38447.95    69.711032    246.78755 
   22050    137.85663   -616.50772    135599.11   -35683.979    2666.0777   -38350.056    69.806589    239.91787 
   22100    140.90521   -716.30712    135679.46   -35672.185    2725.0357    -38397.22    70.123724    245.22344 
   22150    140.00206   -753.83792    135738.65   -35705.958    2707.5692   -38413.527    70.412744    243.65165 
   22200    137.86187   -405.82015    135721.68   -35752.918     2666.179   -38419.097    70.592726    239.92698 
   22250    136.91189   -633.75969    135766.23   -35838.135    2647.8068   -38485.942    70.913854    238.27369 
   22300    136.26621   -546.64156    135797.61   -35831.008    2635.3198   -38466.328    70.984458       237.15 
   22350     135.6528   -833.92427    135829.34   -35864.433    2623.4568    -38487.89    71.325165    236.08245 
   22400    137.03726   -739.10806    135761.87   -35898.709    2650.2315   -38548.941    71.565258    238.49188 
   22450    135.91796   -676.37991    135673.79   -35877.262    2628.5849   -38505.847    71.843362    236.54392 
   22500    136.72473    -634.4221     135662.1   -35864.363    2644.1874    -38508.55     71.82323    237.94798 
   22550    136.88612    -667.7555    135635.14     -35886.3    2647.3086   -38533.609    72.031156    238.22886 
   22600     134.2782   -761.07071    135617.27   -35890.842    2596.8726   -38487.714     72.32197    233.69017 
   22650    134.85976   -633.15021    135619.41    -35877.15    2608.1198    -38485.27    72.729888    234.70229 
   22700    136.94936   -605.82727    135558.36    -35866.79    2648.5315   -38515.322    72.839079     238.3389 
   22750    134.44632   -394.15708    135729.63   -35872.995     2600.124   -38473.119    72.907719    233.98276 
   22800    137.93263   -408.13159    135795.51   -35830.102    2667.5476    -38497.65    72.933213    240.05014 
   22850    135.78218   -623.91698    135829.51   -35851.584    2625.9589   -38477.543    73.037703    236.30762 
   22900    134.97801   -675.29766    135746.65   -35825.262    2610.4067   -38435.669    72.942444    234.90809 
   22950     137.1103   -633.73592    135706.68   -35836.036     2651.644    -38487.68     73.01278      238.619 
   23000    137.75112   -619.15344    135738.41   -35845.366    2664.0371   -38509.403    73.122396    239.73424 
   23050    135.40022   -576.70401     135658.1   -35870.608    2618.5719    -38489.18    73.327525    235.64287 
   23100    137.96447   -548.92935    135691.93   -35862.085    2668.1633   -38530.248    73.548489    240.10555 
   23150    136.57384   -711.49328    135643.94   -35850.688    2641.2691   -38491.957    73.986805    237.68537 
   23200    136.86344   -475.10921    135562.94   -35841.604    2646.8698   -38488.473    74.126746    238.18937 
   23250    135.75506   -362.37336    135603.99   -35800.834    2625.4344   -38426.269    74.037228    236.26042 
   23300    139.39488    -709.7052    135666.53    -35757.95    2695.8267   -38453.777    74.086815    242.59496 
   23350    137.96756   -731.59998    135586.71    -35738.69    2668.2231   -38406.913    73.985314    240.11093 
   23400    138.78487   -415.48427    135590.96   -35715.922    2684.0293   -38399.951    74.304245    241.53332 
   23450    136.29557    -516.0028    135585.25   -35755.829    2635.8876   -38391.717    74.425522    237.20109 
   23500    139.31065   -641.75765    135545.76   -35738.893    2694.1976   -38433.091    74.567126    242.44836 
   23550    139.65012   -528.02839    135592.74   -35743.657    2700.7628    -38444.42    74.748866    243.03915 
   23600    136.97059   -782.24556    135595.74    -35745.55     2648.942   -38394.492    75.007919    238.37585 
   23650     140.0732   -723.45332    135543.08   -35733.527    2708.9449   -38442.472    75.074046    243.77545 
   23700    136.81768   -844.14293     135501.9   -35786.281    2645.9849   -38432.266    74.926884    238.10974 
   23750    140.39169   -670.13974    135432.43   -35789.797    2715.1044   -38504.902    74.868555    244.32974 
   23800    138.62667   -613.38741    135487.24    -35775.06    2680.9699    -38456.03    75.060923    241.25801 
   23850    137.80831    -691.4574     135464.4   -35779.778    2665.1431   -38444.921    75.283101    239.83377 
   23900    138.44214   -977.75998    135419.77   -35750.994    2677.4011   -38428.395    75.130802    240.93685 
   23950    137.05209    -998.9142    135371.86   -35780.512    2650.5183    -38431.03    74.894186    238.51769 
   24000    134.53912   -791.74064    135383.32   -35790.357    2601.9188   -38392.275    74.759381    234.14427 
   24050    139.00904   -1101.6966    135297.45   -35758.824    2688.3647   -38447.189    74.770255    241.92346 
   24100    137.34814   -824.96577    135234.06   -35797.777    2656.2437   -38454.021    74.680843    239.03291 
   24150    138.04945   -659.11432    135206.83    -35770.97    2669.8066   -38440.777     74.86217    240.25343 
   24200     137.3245   -794.20941    135199.75   -35785.109    2655.7867   -38440.896    74.789145    238.99179 
   24250    134.89512   -730.55721    135143.19    -35837.33    2608.8037   -38446.133    75.051111    234.76383 
   24300     135.4137   -603.77633    135091.44   -35798.267    2618.8326     -38417.1      75.1983    235.66633 
   24350    133.86927   -838.09131    135144.95   -35790.657    2588.9641   -38379.621    75.360552    232.97849 
   24400    137.65647   -822.03027    135100.61   -35750.771    2662.2066   -38412.977    75.643308    239.56951 
   24450    138.84118   -595.15266    135177.16   -35744.297    2685.1183   -38429.416    75.905749    241.63132 
   24500    138.21527   -693.28906    135213.96   -35751.789    2673.0136   -38424.803    76.153557    240.54203 
   24550    136.70775    -676.5681    135426.46   -35734.188     2643.859   -38378.047    76.238712    237.91843 
   24600    134.91622   -747.17117    135468.07   -35749.546    2609.2117   -38358.758     76.15026    234.80055 
   24650    134.56113   -780.58482    135447.49   -35780.876    2602.3444   -38383.221    75.895062    234.18257 
   24700     138.8774   -786.59639     135426.3   -35762.143    2685.8188   -38447.962    75.843988    241.69435 
   24750    136.00959   -810.05714     135409.9   -35791.719    2630.3568   -38422.076    76.028451    236.70338 
   24800    137.79556   -988.96225    135348.63    -35772.77    2664.8966   -38437.667    76.182787    239.81159 
   24850    136.60635   -764.39402    135249.01   -35788.884     2641.898   -38430.782    76.488765    237.74196 
   24900    137.09786   -739.36854    135199.21   -35787.145    2651.4035   -38438.548    76.736747    238.59735 
   24950    137.29082   -875.71947     135192.7   -35754.205    2655.1352    -38409.34    76.969016    238.93316 
   25000    137.94373   -716.32485     135259.1   -35741.482    2667.7621   -38409.245    76.807362    240.06945 
   25050     135.1031   -742.19431    135274.24   -35744.642    2612.8259   -38357.468    76.939108    235.12579 
   25100    137.44799   -692.06021    135231.68   -35704.344    2658.1749   -38362.519    77.158547     239.2067 
   25150    135.54973   -600.87426    135265.41   -35721.018    2621.4634   -38342.481    77.328545    235.90307 
   25200    134.30038   -643.25733     135195.1   -35783.712    2597.3017   -38381.013     77.64519    233.72878 
   25250    135.72843   -863.77889    135130.81   -35750.771    2624.9194    -38375.69    77.622159    236.21408 
   25300    135.84991   -784.83971    135168.26    -35757.16    2627.2688   -38384.429    77.862376    236.42549 
   25350    136.03884    -619.8822    135090.06   -35683.679    2630.9226   -38314.602    78.150853    236.75429 
   25400    139.55753   -765.74249    135114.87   -35628.544    2698.9722   -38327.516    78.286128    242.87801 
   25450    139.04643   -790.39091    135076.98   -35608.248    2689.0878   -38297.335    78.613623    241.98853 
   25500    140.14838   -939.99347    135080.03   -35612.557     2710.399   -38322.956    78.853302    243.90631 
   25550    137.19502   -728.72538    135130.72   -35620.304    2653.2825   -38273.587    79.141268    238.76644 
   25600    134.80234   -809.61395    135139.04   -35650.792    2607.0092   -38257.801    79.274112    234.60235 
   25650    137.63822   -938.82288    135088.16   -35686.063    2661.8537   -38347.917    79.668167    239.53775 
   25700    133.93625   -458.86081    135019.97   -35705.959    2590.2596   -38296.219    79.620019    233.09507 
   25750    135.31697   -639.46239    135065.84   -35731.184     2616.962   -38348.146    79.787502    235.49799 
   25800    137.48367   -549.48045    135040.14   -35742.461    2658.8648   -38401.326    80.020651    239.26879 
   25850    136.46277   -418.68489    135106.27   -35741.039    2639.1211    -38380.16    80.327281    237.49207 
   25900    136.74219    -636.8224     135165.2   -35761.748    2644.5249   -38406.273    80.372191    237.97835 
   25950    135.29639   -677.28671    135153.41    -35828.19     2616.564   -38444.754    80.638409    235.46217 
   26000    134.42941   -640.73341    135112.52   -35839.834     2599.797   -38439.631    80.886246    233.95333 
   26050    132.85348   -688.10229    135112.38   -35800.364    2569.3193   -38369.683    81.032646    231.21067 
   26100     135.4951   -733.09758    135141.78   -35736.761     2620.407   -38357.168     81.51177      235.808 
   26150    136.60187   -595.39958    135062.35   -35722.527    2641.8112   -38364.338     81.86626    237.73415 
   26200    139.27373   -406.69472    135139.72   -35677.599    2693.4837   -38371.083    81.999963    242.38411 
   26250    136.94562   -512.13778    135235.15   -35652.825    2648.4592   -38301.284    82.282863     238.3324 
   26300    139.01762   -405.86217    135396.35   -35634.773    2688.5307   -38323.304    82.654626    241.93839 
   26350    143.45585   -550.28244    135496.11   -35599.474    2774.3639   -38373.837    82.834216    249.66244 
   26400    138.24483   -796.34507    135457.93   -35613.938    2673.5852   -38287.523    83.031766    240.59346 
   26450    139.67821   -570.78912    135505.16    -35655.84    2701.3062   -38357.146    83.084305    243.08805 
   26500    138.42981   -840.79023    135490.31   -35639.267    2677.1627    -38316.43    83.292273    240.91539 
   26550    138.07061   -694.22636    135508.98   -35691.028     2670.216   -38361.244    83.292088    240.29027 
   26600    139.13216   -926.38966    135418.61   -35724.264    2690.7459    -38415.01    83.341307    242.13774 
   26650    136.32739   -641.08926    135385.88   -35693.248     2636.503   -38329.751    83.453158    237.25647 
   26700    138.84163   -764.50233    135320.63   -35692.322    2685.1271   -38377.449    83.524609     241.6321 
   26750    139.19007    -902.6657     135239.9   -35698.656    2691.8658   -38390.522    83.556337    242.23852 
   26800    137.44899   -683.53112    135205.02   -35664.996    2658.1941    -38323.19    83.815678    239.20843 
   26850    137.50638   -872.10092    135141.27   -35683.704     2659.304   -38343.008    83.979898    239.30831 
   26900    138.99268   -685.98673    135138.68   -35690.078    2688.0484   -38378.126    84.076864    241.89499 
   26950    137.38354   -953.98465    135086.98   -35724.673    2656.9283   -38381.601    84.283715    239.09453 
   27000    136.80856   -784.05877    135022.22   -35734.578    2645.8085   -38380.386    84.624073    238.09386 
   27050    133.17036   -989.99545    134930.74   -35742.854    2575.4476   -38318.302    84.862958    231.76215 
   27100     134.7544   -593.53064    134826.69   -35668.318    2606.0822     -38274.4    84.650627    234.51893 
   27150    136.29126   -752.89304    134861.88   -35644.347    2635.8042   -38280.151    84.865808    237.19359 
   27200    137.88096   -733.87753    134925.08   -35582.935    2666.5482   -38249.484      85.0413    239.96021 
   27250    138.28395   -589.28376    135004.54   -35562.052    2674.3419   -38236.394    85.224357    240.66156 
   27300    139.83583   -933.39311    135091.04   -35548.975    2704.3543   -38253.329    85.394589    243.36235 
   27350    139.05433   -684.47278    135024.84   -35571.305    2689.2407   -38260.546     85.63087    242.00228 
   27400    138.77528   -708.07393    135028.19   -35607.691    2683.8439   -38291.535    85.855716    241.51663 
   27450    139.94702   -811.50773    135046.79   -35579.406    2706.5047   -38285.911    86.126995    243.55586 
   27500    141.44488   -483.01064    135013.97   -35605.336    2735.4726   -38340.809    86.298419    246.16265 
   27550     139.6362   -700.38961    134996.92   -35598.786    2700.4937    -38299.28    86.593189    243.01494 
   27600    140.65739   -636.14834    135013.04   -35582.695     2720.243   -38302.938    86.465533    244.79216 
   27650    140.45553   -710.79148    134901.09   -35636.444    2716.3391   -38352.784    86.484544    244.44085 
   27700    138.75278   -538.21928    134906.43   -35638.087    2683.4087   -38321.496    86.406299    241.47747 
   27750    141.32288    -620.5929    134944.66   -35636.089    2733.1132   -38369.203    86.653946    245.95033 
   27800    142.28173   -1062.4554    134919.35   -35595.567    2751.6569   -38347.224    86.999671    247.61906 
   27850    138.68017   -682.85206     134880.7   -35619.922    2682.0044   -38301.927    87.250839     241.3511 
   27900    139.90462   -958.06437    134671.61   -35638.853    2705.6847   -38344.538    87.418267    243.48207 
   27950    138.00839   -683.96456    134655.53   -35643.849    2669.0126   -38312.861    87.545249    240.18198 
   28000    138.38224   -563.69269    134632.37   -35655.763    2676.2427   -38332.006    87.808482    240.83261 
   28050    137.95555   -506.11385    134712.06   -35688.597    2667.9907   -38356.587    87.906291    240.09002 
   28100    138.59823   -702.66661    134708.66   -35670.291    2680.4198   -38350.711    88.045057     241.2085 
   28150    139.19923   -651.39854    134724.33   -35697.796     2692.043   -38389.839    88.056619    242.25446 
   28200    138.03666   -298.70922    134756.75   -35669.457    2669.5593   -38339.016    88.284876    240.23118 
   28250    135.98522   -642.03657    134749.96   -35657.096    2629.8855   -38286.982    88.440112    236.66097 
   28300    135.59663   -767.83003    134777.74   -35666.915    2622.3704   -38289.286    88.687411    235.98469 
   28350    137.82712   -501.87693    134720.39   -35644.611    2665.5069   -38310.118     89.03897     239.8665 
   28400    140.06735   -526.41802    134837.09   -35700.924    2708.8319   -38409.756    88.972046    243.76528 
   28450    138.22133   -589.54481    134890.62   -35696.835    2673.1309   -38369.966    89.283179    240.55258 
   28500    139.36881   -455.23164     134909.7   -35706.245    2695.3226   -38401.568    89.365652    242.54959 
   28550    136.99357    -821.3025    134924.04   -35755.292    2649.3865   -38404.679    89.537671    238.41584 
   28600    135.03394   -855.62096    134935.44   -35775.428    2611.4882   -38386.916    89.845976    235.00541 
   28650    138.02579   -920.38707     134816.4   -35737.297    2669.3492   -38406.646    89.889906    240.21227 
   28700    139.49418   -903.34591    134720.47   -35662.194    2697.7472   -38359.941    89.945455    242.76778 
   28750    138.61145   -609.93876    134663.61   -35675.382    2680.6756   -38356.058    90.050811    241.23152 
   28800    138.62729   -854.50107    134638.03   -35746.032    2680.9818   -38427.014     90.30327    241.25908 
   28850    136.28087   -806.52787    134600.91   -35790.442    2635.6032   -38426.046    90.500261     237.1755 
   28900     135.0846   -600.02495    134569.95   -35767.427     2612.468   -38379.896    90.726836    235.09359 
   28950    140.52932   -694.62301    134627.09   -35749.768    2717.7661   -38467.534    90.899269    244.56927 
   29000    135.55187    -649.7569    134581.86   -35748.074    2621.5049   -38369.579    90.935411     235.9068 
   29050    136.96287   -442.03986    134613.88   -35709.302    2648.7929   -38358.095    90.868158    238.36243 
   29100    139.16428   -496.60632    134686.37   -35735.716     2691.367   -38427.083    90.952762    242.19363 
   29150     136.0216   -591.84172    134761.15   -35761.324    2630.5891   -38391.913    91.305598    236.72428 
   29200    134.41276   -787.99294     134773.9   -35762.837    2599.4749   -38362.312    91.327311    233.92435 
   29250    136.97923   -891.73839    134761.32   -35752.971    2649.1091    -38402.08    91.434051    238.39088 
   29300    136.77014   -810.72445    134762.93   -35705.746    2645.0656   -38350.812    91.584774    238.02701 
   29350    139.65758   -619.58297    134725.09   -35720.116    2700.9071   -38421.023    91.971334    243.05214 
   29400    138.30345   -555.12411       134791   -35748.658    2674.7189   -38423.376    92.408863    240.69548 
   29450    140.01967   -571.00337    134827.41   -35730.339    2707.9099   -38438.249    92.341745    243.68231 
   29500    137.22337   -793.02615    134814.38   -35749.362    2653.8307   -38403.193    92.435628    238.81578 
   29550    138.28389   -741.11361    134803.11   -35731.211    2674.3407   -38405.552    92.868549    240.66145 
   29600    137.20916   -1055.8168    134745.57   -35773.124    2653.5559   -38426.679    93.003142    238.79104 
   29650    136.12553   -661.52244    134694.88   -35786.432    2632.5991   -38419.031    93.079641    236.90516 
   29700    137.01362   -673.15291    134624.62   -35730.856    2649.7742    -38380.63    92.999797    238.45074 
   29750    137.78329   -570.76506    134767.98   -35702.675    2664.6594   -38367.334     93.18531    239.79024 
   29800    139.18736   -832.18789    134744.06   -35680.457    2691.8134    -38372.27    93.511535     242.2338 
   29850    134.86421   -681.50126    134720.62   -35723.234    2608.2057   -38331.439    93.914003    234.71002 
   29900    137.49584   -440.16013    134713.38   -35724.572    2659.1002   -38383.673    94.104749    239.28997 
   29950    137.04094    -736.4738    134752.11   -35701.765    2650.3027   -38352.068    94.171153    238.49829 
   30000    139.00943   -736.71985    134746.85   -35696.688    2688.3724   -38385.061     94.33842    241.92414 
   30050    136.96387   -543.28277    134782.67   -35709.085    2648.8122   -38357.897    94.685747    238.36416 
   30100    136.31139    -345.8093    134911.65   -35698.389    2636.1935   -38334.582    94.591947    237.22862 
   30150    136.98346   -691.16351    134933.23   -35679.435     2649.191   -38328.626    94.704667    238.39825 
   30200    138.93356   -749.47463    134820.05   -35677.408    2686.9049   -38364.313     94.76494    241.79209 
   30250    141.28209   -597.84522    134775.58   -35650.851    2732.3243   -38383.175      94.9203    245.87934 
   30300    138.22148   -707.09758       134712   -35634.951    2673.1337   -38308.084     94.91775    240.55283 
   30350    140.37127   -617.98008    134668.21   -35632.116    2714.7095   -38346.825    94.845722     244.2942 
   30400    141.48914    -334.1739    134686.63   -35638.833    2736.3287   -38375.161    94.853471    246.23969 
   30450    140.12402   -842.29157    134740.43    -35645.18    2709.9279   -38355.107    95.184634     243.8639 
   30500    137.13797   -872.77168    134689.15    -35625.97    2652.1792   -38278.149    95.490228    238.66715 
   30550    136.43128    -737.7762    134632.92   -35660.931    2638.5122   -38299.444    95.660275    237.43728 
   30600     138.1684   -542.80124    134581.01   -35639.789    2672.1071   -38311.896    95.779441    240.46045 
   30650    138.45333   -609.93524    134637.01    -35599.41    2677.6177   -38277.028    95.990963    240.95634 
   30700    141.63624   -740.78886    134724.55   -35632.448    2739.1734   -38371.622    96.067626    246.49568 
   30750     139.4619   -790.97216     134650.7   -35667.214    2697.1227   -38364.337    96.204408    242.71158 
   30800    135.72741   -680.93199    134640.82   -35707.194    2624.8996   -38332.093    96.456413    236.21229 
   30850    136.40915   -863.41633    134594.96   -35725.773    2638.0842   -38363.857    96.652115    237.39876 
   30900    136.97102   -683.02085    134585.86   -35730.822    2648.9505   -38379.773    96.450738    238.37661 
   30950    136.38872   -729.69965    134565.01   -35716.413    2637.6891   -38354.102    96.453308     237.3632 
   31000    137.42814   -758.06748    134449.96   -35687.236    2657.7909   -38345.027     96.64151    239.17215 
   31050    137.37228   -580.08031    134442.67   -35690.664    2656.7105   -38347.375    96.718451    239.07493 
   31100    138.55099   -874.10521     134495.7    -35762.11    2679.5062   -38441.616    96.805707    241.12629 
   31150    138.00214   -785.41308    134504.06   -35712.739    2668.8918    -38381.63       97.064    240.17111 
   31200    138.63121   -747.25332    134474.55   -35684.108    2681.0577   -38365.166    96.947647     241.2659 
   31250    138.50971   -751.24818    134592.76   -35679.992    2678.7078     -38358.7    96.998884    241.05445 
   31300    136.38596   -708.92416       134529   -35700.742    2637.6357   -38338.377    97.109479     237.3584 
   31350    136.08802   -741.93602    134504.19    -35661.53    2631.8737   -38293.404    97.301703    236.83989 
   31400    135.20182   -546.38409    134539.71   -35689.402     2614.735   -38304.137    97.567768    235.29758 
   31450    136.80188   -351.03546    134623.26   -35629.152    2645.6794   -38274.832    97.759436    238.08224 
   31500    135.65913   -696.63432    134701.53   -35660.535    2623.5791   -38284.114    97.873477    236.09346 
   31550    139.75636    -891.0832    134691.04     -35650.3    2702.8176   -38353.118    97.793055    243.22406 
   31600    141.38182   -741.01103    134692.84   -35581.021    2734.2531   -38315.274    98.027914    246.05291 
   31650    140.25728   -637.02843    134751.81    -35610.12    2712.5051   -38322.625    98.271709    244.09583 
   31700    138.34673   -852.13102    134777.07   -35650.047     2675.556   -38325.603    98.439174    240.77082 
   31750    136.25966   -769.37503    134810.66   -35639.662     2635.193   -38274.855    98.669881    237.13859 
   31800    137.33789   -849.50904    134779.46   -35634.198    2656.0456   -38290.244    98.904866    239.01509 
   31850    138.16695   -662.25482    134801.42   -35639.588    2672.0791   -38311.667    98.806203    240.45793 
   31900     135.7048   -773.13394    134847.33   -35650.087    2624.4624    -38274.55    98.752009    236.17295 
   31950    138.12316   -564.98146    134860.05   -35638.581    2671.2322   -38309.814      98.8941    240.38172 
   32000    139.40074   -634.91491    134925.87   -35666.067    2695.9399   -38362.007    99.403742    242.60514 
   32050    139.52349   -782.21833    134866.25   -35644.137    2698.3139   -38342.451    99.516875    242.81878 
   32100    138.55006    -651.4687    134843.85   -35613.709    2679.4882   -38293.197    99.864729    241.12467 
   32150     139.4675   -624.83502    134951.89   -35555.389    2697.2311    -38252.62    100.15185    242.72133 
   32200    138.21798   -679.75655     135041.9   -35593.667     2673.066   -38266.733    100.38825    240.54674 
   32250    138.74329   -816.35579    135058.98   -35646.111    2683.2253   -38329.337     100.7266    241.46096 
   32300    136.54036   -613.48376    135071.46   -35653.895    2640.6217   -38294.517    100.86833    237.62711 
   32350    136.99857   -624.38201    135035.88   -35667.361    2649.4832   -38316.844    100.92602    238.42454 
   32400    136.41824   -614.58777    135040.63   -35670.383      2638.26   -38308.643    101.05768    237.41458 
   32450    135.93232   -816.65031     135055.7   -35591.122    2628.8626   -38219.984    101.32951    236.56892 
   32500    137.23478   -564.58904    135044.43   -35585.477    2654.0515   -38239.529    101.43132    238.83564 
   32550    137.04174   -697.28772    135080.61   -35583.014    2650.3181   -38233.332    101.64657    238.49967 
   32600    138.80553   -518.36108    135154.76   -35601.328     2684.429   -38285.757    101.72306    241.56928 
   32650    142.77017   -797.04442    135221.89   -35592.461    2761.1031   -38353.564    101.94828    248.46912 
   32700    138.62604   -917.71426    135262.91   -35564.663    2680.9576    -38245.62    102.20683     241.2569 
   32750     141.5902   -807.50455    135180.81   -35530.448     2738.283   -38268.731    102.56853    246.41556 
   32800     139.1425    -870.4829    135090.58   -35538.708    2690.9458   -38229.654     102.6719    242.15573 
   32850    137.81589   -833.89582    135008.07   -35568.987    2665.2898   -38234.277    102.89509    239.84697 
   32900    139.65095   -731.46321     134944.9   -35599.528    2700.7789   -38300.307    103.37448     243.0406 
   32950    136.49682   -678.51676    134967.42   -35615.914    2639.7797   -38255.693     103.7989    237.55133 
   33000    135.26248   -797.92212    134899.42   -35591.595    2615.9082   -38207.503    104.01816    235.40316 
   33050    136.95183   -713.41453    134850.28   -35569.285    2648.5794   -38217.864    104.32912    238.34321 
   33100    137.02188   -759.80947       134813   -35549.765    2649.9341     -38199.7    104.42231    238.46512 
   33150    140.62935   -973.48791    134796.88   -35535.894    2719.7006   -38255.594    104.65175    244.74335 
   33200    140.04247    -894.4825    134691.06   -35529.995    2708.3508   -38238.345    104.70176    243.72199 
   33250    138.10271   -408.14001    134668.13   -35545.319    2670.8367   -38216.156    105.00087    240.34613 
   33300     138.2783   -702.88226    134769.35   -35562.664    2674.2326   -38236.897    105.45193    240.65172 
   33350    140.19394   -608.67097    134819.32   -35556.033      2711.28   -38267.313    105.28083    243.98558 
   33400    136.40255   -831.17823    134795.46   -35590.777    2637.9565   -38228.733    105.56141    237.38727 
   33450    136.67542   -913.11516    134785.27   -35636.164    2643.2336   -38279.397    105.96482    237.86215 
   33500    135.34017   -705.75269    134805.17   -35617.934    2617.4105   -38235.345    106.03925    235.53836 
   33550    137.82414   -683.78295    134850.42   -35610.789    2665.4494   -38276.238    106.13253    239.86133 
   33600    138.26953    -754.9254    134832.89   -35603.633    2674.0631   -38277.696    106.38142    240.63646 
   33650      140.257   -683.36171    134857.83   -35540.344    2712.4997   -38252.844    106.54663    244.09534 
   33700     138.2395    -732.7878    134888.17   -35554.168    2673.4822    -38227.65    106.91636    240.58419 
   33750    138.96162   -672.10201    134894.09   -35526.776    2687.4476   -38214.224    107.03996    241.84093 
   33800    137.89323    -579.1552    134921.46    -35543.65    2666.7856   -38210.435    107.38066    239.98157 
   33850    139.37804   -776.58092    134944.46   -35593.485    2695.5009   -38288.985    107.49669    242.56564 
   33900    136.23129   -755.75734    134876.69   -35615.913    2634.6445   -38250.557    107.50479    237.08922 
   33950    137.25426   -900.16202    134855.72    -35612.35    2654.4281   -38266.778    107.76013    238.86953 
[...]
   92000    136.62136   -384.27623    135352.77   -35678.707    2642.1881   -38320.895    308.81854    237.76807 
   92050    139.30899   -743.07387    135363.88   -35675.619    2694.1656   -38369.785    308.66342    242.44548 
   92100    140.08649   -488.34107    135326.49   -35668.962     2709.202   -38378.164     309.1913    243.79859 
   92150    139.53147   -675.11045    135266.04   -35681.652    2698.4683   -38380.121    309.20143    242.83267 
   92200    135.37526   -664.87503     135167.8   -35748.527    2618.0892   -38366.616    309.01006    235.59943 
   92250    136.53316   -687.16615    135174.21    -35711.73    2640.4825   -38352.212    309.19322    237.61458 
   92300    136.35125   -329.47323    135221.85   -35700.413    2636.9644   -38337.378    308.83614    237.29799 
   92350    140.02084   -781.10463    135262.32   -35672.943    2707.9324   -38380.875    309.45593    243.68434 
   92400    138.13157   -878.03371    135215.05   -35680.835    2671.3949   -38352.229    309.87663    240.39636 
   92450    138.98001   -834.78816    135188.24   -35673.014    2687.8032   -38360.817    310.15301    241.87293 
   92500    140.54673   -643.55921    135212.88   -35666.559    2718.1028   -38384.661    310.11492    244.59956 
   92550    136.72676   -638.33773    135190.58   -35690.225    2644.2266   -38334.451    310.12997    237.95151 
   92600     138.0354   -583.70568    135182.98   -35689.237    2669.5351   -38358.773    310.19403    240.22899 
   92650    137.99484   -767.49088    135189.36   -35643.516    2668.7505   -38312.267    310.77815    240.15839 
   92700    138.59328   -618.57777    135247.92   -35627.611    2680.3241   -38307.935    310.94238    241.19989 
   92750    136.75863   -773.36745    135205.19   -35668.366    2644.8429   -38313.209    311.28623    238.00697 
   92800     137.0251   -497.86921    135278.83   -35688.902    2649.9963   -38338.898    311.10547    238.47072 
   92850     135.8619    -680.3633     135311.1   -35678.505    2627.5006   -38306.006    310.68581    236.44635 
   92900     137.3078   -661.33033    135275.82   -35699.375    2655.4635   -38354.839    311.33433    238.96271 
   92950    135.80165   -758.68596    135243.74    -35739.48    2626.3354   -38365.815    311.90223     236.3415 
   93000    139.44246   -895.96675    135150.37   -35750.402    2696.7469   -38447.149    312.36587    242.67776 
   93050     137.0621    -886.3262    135073.84   -35750.565    2650.7118   -38401.277    312.18324    238.53511 
   93100    138.57891   -1041.3581    134992.01   -35696.551    2680.0462   -38376.597    312.67387    241.17488 
   93150    140.77326   -692.41803    134992.33   -35716.424    2722.4839   -38438.908    312.93402    244.99381 
   93200    140.90921   -670.81806    135035.49     -35730.2     2725.113   -38455.313    313.09817     245.2304 
   93250    137.03358   -731.62472    135196.37   -35788.896    2650.1603   -38439.057     313.3399    238.48547 
   93300     137.8221   -751.23231    135273.93   -35779.965    2665.4098   -38445.375    313.68767    239.85777 
   93350    136.79195   -816.76667    135245.78   -35785.705    2645.4873   -38431.192    313.76612    238.06496 
   93400    138.81537   -773.33076    135293.27   -35782.635    2684.6191   -38467.254    313.60578     241.5864 
   93450    136.13864   -587.66682    135371.24   -35808.905    2632.8527   -38441.757     313.6864    236.92798 
   93500    134.91425   -543.87716    135420.18   -35797.269    2609.1735   -38406.443    313.77608    234.79712 
   93550    135.46151   -900.64678    135419.01   -35824.505    2619.7572   -38444.263    313.19534    235.74953 
   93600    135.68248   -870.55266    135407.65     -35774.5    2624.0306   -38398.531    312.90892    236.13409 
   93650    135.36065   -837.17574    135359.61   -35822.833    2617.8066    -38440.64    312.80738      235.574 
   93700    134.62601   -821.39693    135360.09   -35846.467    2603.5991   -38450.066    313.27509    234.29548 
   93750    133.23466   -706.60062       135318    -35854.99    2576.6911   -38431.681    313.67187    231.87405 
   93800    134.59965   -869.51865    135310.66   -35834.543    2603.0894   -38437.632    314.58162    234.24961 
   93850    137.32171   -781.72842     135376.2   -35832.895    2655.7327   -38488.628    314.49956    238.98693 
   93900    136.82976   -773.23119    135397.58   -35758.999    2646.2185   -38405.218    314.69209    238.13076 
   93950    139.23078   -771.17163    135409.76   -35774.389    2692.6531   -38467.042    314.92139    242.30936 
   94000    138.30803   -753.06299    135416.24   -35759.534    2674.8075   -38434.341    315.46181    240.70346 
   94050    138.27938   -1040.2393    135430.96    -35722.14    2674.2534   -38396.393    315.43672    240.65359 
   94100    135.92689   -732.35978    135326.93   -35720.811    2628.7575   -38349.569    315.82258    236.55946 
   94150    140.40391   -693.71949    135253.36   -35679.076    2715.3409   -38394.417    316.36891    244.35102 
   94200    136.72463    -585.2209    135233.01   -35722.807    2644.1854   -38366.993    316.90165     237.9478 
   94250    137.09502   -824.81313    135253.06   -35747.691    2651.3485    -38399.04      317.328     238.5924 
   94300    138.54176   -773.83504    135257.13   -35726.966    2679.3278   -38406.293    317.45844    241.11024 
   94350    138.47702   -572.55449    135324.66   -35733.618    2678.0757   -38411.694    317.21638    240.99755 
   94400    138.98224   -693.62898    135420.77   -35662.907    2687.8464   -38350.753    317.67656    241.87681 
   94450    135.98325   -851.06811    135453.63   -35708.855    2629.8475   -38338.702    317.95306    236.65755 
   94500    137.71913   -676.87103    135512.02   -35744.516    2663.4185   -38407.935    317.99084    239.67857 
   94550    135.44141   -604.16259    135587.49   -35745.665    2619.3685   -38365.034    318.01856    235.71456 
   94600    140.20817   -695.24934     135662.5   -35698.455    2711.5553    -38410.01    318.66948    244.01036 
   94650    136.50735   -813.54778    135655.47   -35716.049    2639.9833   -38356.033    318.76204    237.56966 
   94700    136.62177   -647.06104    135610.28   -35715.875    2642.1961   -38358.071    319.24632    237.76879 
   94750    137.04188   -609.11248    135590.42   -35691.741    2650.3209   -38342.062    319.68174    238.49993 
   94800    137.97659   -878.81259    135511.44   -35637.225    2668.3976   -38305.622    320.07794    240.12663 
   94850    139.57989   -666.87346     135439.2   -35641.502    2699.4046   -38340.907    319.85363    242.91693 
   94900    138.42972   -850.58477    135459.72   -35664.341     2677.161   -38341.502    320.14128    240.91525 
   94950    138.35798   -782.74102    135410.36   -35616.486    2675.7735   -38292.259    320.37789    240.79038 
   95000    139.89643   -756.36564    135424.78   -35610.942    2705.5264   -38316.468    320.30663    243.46782 
   95050    137.30387    -636.4588    135406.23   -35653.874    2655.3876   -38309.262    320.32029    238.95587 
   95100    134.51618   -685.15543    135455.54   -35667.282    2601.4751   -38268.757    320.67174    234.10434 
   95150    137.52582   -560.34392    135446.45   -35613.125    2659.6801   -38272.805    320.90351    239.34215 
   95200    138.26781   -447.84129    135490.69   -35598.114    2674.0296   -38272.144    321.11698    240.63346 
   95250    141.19027   -591.35883    135432.42   -35600.091    2730.5486   -38330.639    321.35532    245.71954 
   95300    138.86821   -563.48807     135459.4    -35594.58    2685.6411   -38280.221    321.52718    241.67837 
   95350    140.50942     -521.528    135470.28   -35623.957    2717.3814   -38341.338    321.65551    244.53464 
   95400    138.63356   -692.63387    135373.21   -35605.612    2681.1031   -38286.715    321.99456    241.26999 
   95450    142.08628   -775.21794    135422.54   -35563.328     2747.877   -38311.205    322.48251    247.27892 
   95500    140.47279   -850.88295    135406.44   -35542.546     2716.673   -38259.219    322.71844    244.47089 
   95550    139.40184   -661.25364     135357.6   -35550.689    2695.9613    -38246.65    322.61345    242.60707 
   95600    143.81995   -856.81328    135245.18   -35563.476    2781.4053   -38344.881    322.50132     250.2961 
   95650    142.80982   -681.31722    135168.04   -35529.251      2761.87   -38291.121    322.38165    248.53813 
   95700    139.98571   -622.45603    135144.49   -35553.858     2707.253   -38261.111    322.91207     243.6232 
   95750    136.52678   -748.27302    135153.83   -35593.303    2640.3591   -38233.662    323.01297    237.60347 
   95800    137.16765   -666.59645    135130.11   -35585.345    2652.7533   -38238.098    323.42396    238.71882 
   95850    138.35161   -628.37874    135211.87   -35586.502    2675.6504   -38262.153    323.75708     240.7793 
   95900    141.77664   -848.76097     135238.3   -35568.179    2741.8887   -38310.068    324.35608    246.74003 
   95950    136.59704   -875.34536    135139.14   -35646.494    2641.7178   -38288.212    324.54443    237.72574 
   96000     138.6603     -915.557       135112   -35634.924    2681.6203   -38316.544     325.1564    241.31653 
   96050    136.60483    -958.5108    135036.24   -35735.456    2641.8686   -38377.325    325.41311    237.73931 
   96100    138.73797   -851.96216     134908.3    -35689.03    2683.1224   -38372.153    325.62886    241.45171 
   96150    137.21894   -860.69085    134782.94   -35717.463    2653.7452   -38371.208    325.32779    238.80808 
   96200    139.40805   -680.37385    134704.46   -35701.933    2696.0814   -38398.015    325.70175    242.61788 
   96250    138.66513   -695.84895    134782.76   -35665.191    2681.7136   -38346.905    325.47591    241.32493 
   96300    138.67411   -478.85509    134922.19   -35663.293    2681.8874    -38345.18    325.98958    241.34057 
   96350    140.00791   -490.44525    135078.59   -35648.629    2707.6824   -38356.311    326.32008    243.66183 
   96400    137.32066   -632.22258    135079.11   -35660.712    2655.7124   -38316.424    326.43364    238.98511 
   96450    135.98619   -611.26786    135169.48   -35713.476    2629.9044    -38343.38    326.83348    236.66267 
   96500    141.95851   -567.97495    135217.88   -35665.392    2745.4059   -38410.798     327.1598    247.05654 
   96550     136.1291   -822.18099    135161.54   -35730.246    2632.6681   -38362.914    327.62396    236.91137 
   96600     137.6484   -749.83871    135197.77   -35723.695    2662.0507   -38385.746    328.28187    239.55548 
   96650    133.97662   -839.51949    135167.97   -35771.014    2591.0402   -38362.054    328.18389    233.16532 
   96700    137.43372   -600.58888    135202.04   -35683.916    2657.8987   -38341.815    328.18894    239.18185 
   96750    141.32439   -860.93085    135198.36   -35642.465    2733.1424   -38375.607    328.01978    245.95296 
   96800    137.50913   -806.63888    135172.37   -35692.516    2659.3571   -38351.873    328.52707    239.31309 
   96850    139.91779   -531.64637    135136.62   -35686.859    2705.9394   -38392.799    328.67546    243.50499 
   96900    139.24364   -485.23223    135214.55   -35615.228    2692.9017    -38308.13    328.81592    242.33174 
   96950    141.26773   -577.42196    135255.75   -35634.283    2732.0466   -38366.329    329.04204    245.85435 
   97000    140.10481   -669.79502    135317.94   -35641.223    2709.5564    -38350.78    329.28629    243.83048 
   97050    138.52357   -441.67368     135382.7   -35651.804    2678.9759    -38330.78    329.51211    241.07857 
   97100    139.53981   -563.87976    135384.95   -35662.149    2698.6296   -38360.779    329.61228    242.84719 
   97150    135.94228   -893.91468    135265.15   -35725.902    2629.0552   -38354.957    329.81101    236.58625 
   97200    141.26546   -740.07478    135244.89   -35673.143    2732.0028   -38405.146    330.57645    245.85041 
   97250    137.41276   -568.17222    135240.38   -35677.429    2657.4934   -38334.922    330.67686    239.14538 
   97300    138.27088   -738.23873    135183.09   -35676.799    2674.0891   -38350.888    330.39464    240.63881 
   97350    137.19685   -560.99125    135168.38   -35636.316    2653.3179   -38289.634    330.37548    238.76963 
   97400    139.59624   -711.98219    135193.83   -35581.271    2699.7208   -38280.992    330.32607    242.94538 
   97450    138.12394   -614.70807    135083.93   -35620.404    2671.2473   -38291.651    330.44248    240.38307 
   97500    137.10488   -610.69122    135081.33   -35673.413    2651.5392   -38324.953    330.50165    238.60956 
   97550    137.95431   -692.73033    135161.06   -35691.784    2667.9668   -38359.751    330.94558    240.08787 
   97600    138.19347   -880.72425    135183.82   -35682.658    2672.5919    -38355.25    330.71481    240.50408 
   97650    136.93289   -756.35118    135227.92   -35702.932     2648.213   -38351.145    330.07383    238.31025 
   97700    139.01664   -788.53469    135220.18   -35724.051    2688.5117   -38412.563    329.77291    241.93669 
   97750    136.95776   -769.50115    135268.22   -35710.463     2648.694   -38359.157    329.93844    238.35353 
   97800    134.47026   -565.18323    135272.45   -35697.629     2600.587   -38298.216    329.60468    234.02442 
   97850    139.09205   -725.81124    135270.73   -35687.261    2689.9701   -38377.231    329.67754    242.06792 
   97900    138.67671   -910.74749    135269.59   -35653.157    2681.9377   -38335.095    329.57043    241.34509 
   97950    139.24062   -542.98427     135336.5    -35694.15    2692.8434   -38386.993    329.85283    242.32649 
   98000    135.37659   -823.80631    135399.27   -35721.863     2618.115   -38339.978    329.85851    235.60175 
   98050    137.91005   -698.93365    135388.65   -35684.046    2667.1109   -38351.157    329.77903    240.01085 
   98100    139.47277   -685.06043    135392.75     -35653.6     2697.333   -38350.933    329.76589    242.73051 
   98150    139.70531   -578.72615    135444.92   -35643.943    2701.8303   -38345.774    330.19106    243.13521 
   98200    138.89311   -910.76032    135458.47    -35654.56    2686.1227   -38340.683    330.35981     241.7217 
   98250     137.8923   -696.80486    135467.63   -35677.975    2666.7675   -38344.742    330.34235    239.97994 
   98300    135.52913   -677.11317    135543.59    -35711.45     2621.065   -38332.515    330.80124    235.86722 
   98350    137.52642   -655.32554    135611.27   -35672.688    2659.6915   -38332.379    330.69901    239.34318 
   98400    136.15023   -481.54422    135611.15   -35742.311    2633.0769   -38375.388    330.87291    236.94816 
   98450    137.83736   -668.79899    135620.31   -35705.914     2665.705   -38371.619    331.20927    239.88433 
   98500    136.51307    -866.3068    135638.09   -35696.003     2640.094   -38336.097    331.70633    237.57962 
   98550    139.57068   -657.82014    135611.69   -35685.185    2699.2265   -38384.412    331.98235     242.9009 
   98600    139.08539   -720.63084    135734.11   -35632.654    2689.8413   -38322.495    332.01369    242.05633 
   98650    140.71258   -788.86259    135669.94   -35630.253    2721.3104   -38351.563    332.36428    244.88821 
   98700    139.95924   -600.12099    135727.83   -35668.991    2706.7412   -38375.732    332.58576    243.57714 
   98750    139.12563    -616.9386    135787.43   -35675.015    2690.6195   -38365.634    332.80498    242.12636 
   98800    136.53282   -825.27207    135774.91   -35661.822    2640.4759   -38302.298    333.21945    237.61399 
   98850    137.88067   -895.15196    135810.56   -35610.539    2666.5426   -38277.081    333.23866     239.9597 
   98900    140.49111   -738.61357    135746.91   -35580.448    2717.0272   -38297.475    333.43931    244.50277 
   98950    138.91873   -832.27258    135784.75   -35572.117    2686.6183   -38258.736    333.89588     241.7663 
   99000    140.56349   -753.53134    135830.23   -35591.632     2718.427   -38310.059    333.97005    244.62873 
   99050    140.79946   -605.45311    135860.93   -35567.484    2722.9905   -38290.475    333.85203     245.0394 
   99100    139.38004   -871.11018    135898.25   -35575.945    2695.5397   -38271.485    334.04305    242.56913 
   99150    139.46586   -810.44481     135803.5   -35627.052    2697.1994   -38324.251     333.9819    242.71849 
   99200    136.05626   -866.90583    135640.04   -35673.048    2631.2595   -38304.307    333.72348    236.78461 
   99250    137.86897   -773.40583    135631.67   -35681.946    2666.3164   -38348.263    333.40162    239.93935 
   99300    140.00141   -681.78239    135676.97   -35638.742    2707.5566   -38346.298    333.47903    243.65052 
   99350    140.02498   -866.23299    135659.16   -35703.638    2708.0125    -38411.65    333.93947    243.69154 
   99400    139.62681   -803.08357    135561.61   -35755.427     2700.312   -38455.739    334.12187    242.99858 
   99450    134.66791   -656.17802     135519.3   -35841.927    2604.4095   -38446.337    334.13729    234.36841 
   99500     134.0234   -699.48085    135579.72   -35813.465     2591.945    -38405.41    334.39349    233.24674 
   99550    133.86933   -902.85432    135559.65   -35818.113    2588.9654   -38407.078    334.39195    232.97861 
   99600    138.49576   -887.38804     135545.5   -35781.281    2678.4381   -38459.719    334.28032    241.03017 
   99650    136.58956   -861.54302    135464.82   -35794.778    2641.5731   -38436.351    333.79211    237.71273 
   99700    136.65085   -592.79695    135455.33   -35799.241    2642.7585       -38442    333.87167     237.8194 
   99750    138.45925   -612.58134    135554.82    -35761.68    2677.7321   -38439.412    334.07633    240.96664 
   99800    138.22116   -629.05944    135618.33   -35795.969    2673.1274   -38469.096    334.38716    240.55227 
   99850    139.58541   -580.94413    135725.75   -35772.597    2699.5114   -38472.109    334.90542    242.92653 
   99900    137.53547    -729.8344    135696.15   -35754.831    2659.8666   -38414.698    335.05156    239.35894 
   99950    136.04467   -666.39315    135722.02   -35800.241    2631.0353   -38431.276    335.18443    236.76444 
  100000    136.47165   -708.25244     135734.5   -35758.628    2639.2929   -38397.921    335.67017    237.50753 
Loop time of 50.2401 on 128 procs for 100000 steps with 6489 atoms

Performance: 859.872 ns/day, 0.028 hours/ns, 1990.444 timesteps/s
96.6% CPU use with 128 MPI tasks x no OpenMP threads

MPI task timing breakdown:
Section |  min time  |  avg time  |  max time  |%varavg| %total
---------------------------------------------------------------
Pair    | 5.5964     | 12.963     | 34.384     | 301.0 | 25.80
Neigh   | 0.4452     | 0.95035    | 2.8894     |  80.9 |  1.89
Comm    | 5.1925     | 14.73      | 37.935     | 303.4 | 29.32
Output  | 0.16412    | 0.16665    | 0.17634    |   0.4 |  0.33
Modify  | 3.6691     | 20.678     | 36.581     | 335.3 | 41.16
Other   |            | 0.7523     |            |       |  1.50

Nlocal:    50.6953 ave 136 max 27 min
Histogram: 88 8 0 4 12 0 0 0 2 14
Nghost:    572.672 ave 963 max 384 min
Histogram: 64 0 2 30 0 0 0 0 15 17
Neighs:    0 ave 0 max 0 min
Histogram: 128 0 0 0 0 0 0 0 0 0
FullNghs:  4059.03 ave 17274 max 1089 min
Histogram: 96 0 0 3 13 0 0 0 2 14

Total # of neighbors = 519556
Ave neighs/atom = 80.0672
Neighbor list builds = 5985
Dangerous builds = 0

write_data		${DIR}/data.eq-${NAME}-${TEMP}
write_data		run_16/data.eq-${NAME}-${TEMP}
write_data		run_16/data.eq-het_freeze_16-${TEMP}
write_data		run_16/data.eq-het_freeze_16-240
undump          1

reset_timestep  0

unfix           2
unfix           3
unfix           4


################################################
#######         Run Simulation         #########
################################################

log				${DIR}/log.run_${NAME}
log				run_16/log.run_${NAME}
log				run_16/log.run_het_freeze_16
