LAMMPS data file via write_data, version 16 Mar 2018, timestep = 8000000

4537 atoms
2 atom types

0.0000000000000000e+00 4.9219999999999999e+01 xlo xhi
0.0000000000000000e+00 4.9019635930410494e+01 ylo yhi
9.1577854933267844e-01 3.3024221450649051e+01 zlo zhi

Masses

1 18.015
2 12.01

Atoms # atomic

96 2 0.0000000000000000e+00 2.8417180249513345e+00 2.6439512626569046e+00 0 0 0
98 2 0.0000000000000000e+00 0.0000000000000000e+00 2.6439512626569046e+00 0 0 0
100 2 1.2305000000000001e+00 7.1042950623783474e-01 2.6439512626569046e+00 0 0 0
107 2 1.2305000000000001e+00 2.1312885187134998e+00 2.6439512626569046e+00 0 0 0
109 2 2.4610000000000003e+00 2.8417180249513345e+00 2.6439512626569046e+00 0 0 0
111 2 2.4610000000000003e+00 0.0000000000000000e+00 2.6439512626569046e+00 0 0 0
113 2 3.6915000000000004e+00 7.1042950623783474e-01 2.6439512626569046e+00 0 0 0
128 2 3.6914999999999996e+00 2.1312885187134998e+00 2.6439512626569046e+00 0 0 0
130 2 4.9220000000000006e+00 2.8417180249513332e+00 2.6439512626569046e+00 0 0 0
132 2 4.9220000000000006e+00 0.0000000000000000e+00 2.6439512626569046e+00 0 0 0
134 2 6.1524999999999999e+00 7.1042950623783407e-01 2.6439512626569046e+00 0 0 0
157 2 6.1524999999999999e+00 2.1312885187134989e+00 2.6439512626569046e+00 0 0 0
159 2 7.3829999999999991e+00 2.8417180249513345e+00 2.6439512626569046e+00 0 0 0
161 2 7.3829999999999991e+00 0.0000000000000000e+00 2.6439512626569046e+00 0 0 0
163 2 8.6134999999999984e+00 7.1042950623783407e-01 2.6439512626569046e+00 0 0 0
194 2 8.6134999999999984e+00 2.1312885187135002e+00 2.6439512626569046e+00 0 0 0
196 2 9.8440000000000012e+00 2.8417180249513332e+00 2.6439512626569046e+00 0 0 0
198 2 9.8440000000000012e+00 0.0000000000000000e+00 2.6439512626569046e+00 0 0 0
200 2 1.1074500000000002e+01 7.1042950623783330e-01 2.6439512626569046e+00 0 0 0
239 2 1.1074500000000002e+01 2.1312885187135002e+00 2.6439512626569046e+00 0 0 0
103 2 0.0000000000000000e+00 4.2625770374269996e+00 2.6439512626569046e+00 0 0 0
105 2 1.2305000000000001e+00 4.9730065436648339e+00 2.6439512626569046e+00 0 0 0
120 2 1.2305000000000001e+00 6.3938655561404980e+00 2.6439512626569046e+00 0 0 0
124 2 2.4610000000000003e+00 4.2625770374269996e+00 2.6439512626569046e+00 0 0 0
126 2 3.6914999999999996e+00 4.9730065436648339e+00 2.6439512626569046e+00 0 0 0
149 2 3.6914999999999996e+00 6.3938655561404980e+00 2.6439512626569046e+00 0 0 0
101 2 0.0000000000000000e+00 7.1042950623783341e+00 2.6439512626569046e+00 0 0 0
122 2 2.4610000000000003e+00 7.1042950623783341e+00 2.6439512626569046e+00 0 0 0
153 2 4.9220000000000006e+00 4.2625770374269978e+00 2.6439512626569046e+00 0 0 0
155 2 6.1524999999999999e+00 4.9730065436648339e+00 2.6439512626569046e+00 0 0 0
186 2 6.1524999999999999e+00 6.3938655561404980e+00 2.6439512626569046e+00 0 0 0
190 2 7.3829999999999991e+00 4.2625770374269996e+00 2.6439512626569046e+00 0 0 0
151 2 4.9220000000000006e+00 7.1042950623783341e+00 2.6439512626569046e+00 0 0 0
188 2 7.3830000000000009e+00 7.1042950623783341e+00 2.6439512626569046e+00 0 0 0
192 2 8.6135000000000002e+00 4.9730065436648339e+00 2.6439512626569046e+00 0 0 0
231 2 8.6135000000000002e+00 6.3938655561404980e+00 2.6439512626569046e+00 0 0 0
235 2 9.8440000000000012e+00 4.2625770374270004e+00 2.6439512626569046e+00 0 0 0
237 2 1.1074500000000002e+01 4.9730065436648339e+00 2.6439512626569046e+00 0 0 0
278 2 1.1074500000000002e+01 6.3938655561404980e+00 2.6439512626569046e+00 0 0 0
233 2 9.8440000000000012e+00 7.1042950623783341e+00 2.6439512626569046e+00 0 0 0
116 2 0.0000000000000000e+00 8.5251540748539991e+00 2.6439512626569046e+00 0 0 0
118 2 1.2305000000000001e+00 9.2355835810918343e+00 2.6439512626569046e+00 0 0 0
145 2 2.4610000000000003e+00 8.5251540748539991e+00 2.6439512626569046e+00 0 0 0
147 2 3.6915000000000004e+00 9.2355835810918343e+00 2.6439512626569046e+00 0 0 0
114 2 0.0000000000000000e+00 1.1366872099805333e+01 2.6439512626569046e+00 0 0 0
141 2 1.2305000000000001e+00 1.0656442593567498e+01 2.6439512626569046e+00 0 0 0
143 2 2.4610000000000003e+00 1.1366872099805333e+01 2.6439512626569046e+00 0 0 0
178 2 3.6914999999999996e+00 1.0656442593567499e+01 2.6439512626569046e+00 0 0 0
182 2 4.9220000000000006e+00 8.5251540748539991e+00 2.6439512626569046e+00 0 0 0
184 2 6.1524999999999999e+00 9.2355835810918343e+00 2.6439512626569046e+00 0 0 0
227 2 7.3830000000000009e+00 8.5251540748539991e+00 2.6439512626569046e+00 0 0 0
180 2 4.9220000000000006e+00 1.1366872099805333e+01 2.6439512626569046e+00 0 0 0
223 2 6.1524999999999999e+00 1.0656442593567499e+01 2.6439512626569046e+00 0 0 0
225 2 7.3829999999999991e+00 1.1366872099805333e+01 2.6439512626569046e+00 0 0 0
229 2 8.6134999999999984e+00 9.2355835810918343e+00 2.6439512626569046e+00 0 0 0
274 2 9.8440000000000012e+00 8.5251540748539956e+00 2.6439512626569046e+00 0 0 0
276 2 1.1074500000000002e+01 9.2355835810918343e+00 2.6439512626569046e+00 0 0 0
270 2 8.6134999999999984e+00 1.0656442593567498e+01 2.6439512626569046e+00 0 0 0
272 2 9.8440000000000012e+00 1.1366872099805333e+01 2.6439512626569046e+00 0 0 0
317 2 1.1074500000000002e+01 1.0656442593567498e+01 2.6439512626569046e+00 0 0 0
319 2 1.2304999999999998e+01 1.1366872099805333e+01 2.6439512626569046e+00 0 0 0
97 2 0.0000000000000000e+00 1.4208590124756650e+00 5.7858833534868284e+00 0 0 0
99 2 0.0000000000000000e+00 0.0000000000000000e+00 5.7858833534868284e+00 0 0 0
108 2 1.2305000000000001e+00 2.1312885187134998e+00 5.7858833534868284e+00 0 0 0
110 2 2.4610000000000003e+00 1.4208590124756650e+00 5.7858833534868284e+00 0 0 0
112 2 2.4610000000000003e+00 0.0000000000000000e+00 5.7858833534868284e+00 0 0 0
129 2 3.6914999999999996e+00 2.1312885187134998e+00 5.7858833534868284e+00 0 0 0
425 2 0.0000000000000000e+00 2.8417180249513345e+00 8.9278154443086404e+00 0 0 0
426 2 0.0000000000000000e+00 0.0000000000000000e+00 8.9278154443086404e+00 0 0 0
427 2 1.2305000000000001e+00 7.1042950623783474e-01 8.9278154443086404e+00 0 0 0
431 2 1.2305000000000001e+00 2.1312885187134998e+00 8.9278154443086404e+00 0 0 0
432 2 2.4610000000000003e+00 2.8417180249513345e+00 8.9278154443086404e+00 0 0 0
433 2 2.4610000000000003e+00 0.0000000000000000e+00 8.9278154443086404e+00 0 0 0
434 2 3.6915000000000004e+00 7.1042950623783474e-01 8.9278154443086404e+00 0 0 0
442 2 3.6914999999999996e+00 2.1312885187134998e+00 8.9278154443086404e+00 0 0 0
106 2 1.2305000000000001e+00 3.5521475311891644e+00 5.7858833534868284e+00 0 0 0
127 2 3.6914999999999996e+00 3.5521475311891644e+00 5.7858833534868284e+00 0 0 0
131 2 4.9220000000000006e+00 1.4208590124756650e+00 5.7858833534868284e+00 0 0 0
133 2 4.9220000000000006e+00 0.0000000000000000e+00 5.7858833534868284e+00 0 0 0
158 2 6.1524999999999999e+00 2.1312885187134989e+00 5.7858833534868284e+00 0 0 0
160 2 7.3829999999999991e+00 1.4208590124756659e+00 5.7858833534868284e+00 0 0 0
162 2 7.3829999999999991e+00 0.0000000000000000e+00 5.7858833534868284e+00 0 0 0
443 2 4.9220000000000006e+00 2.8417180249513332e+00 8.9278154443086404e+00 0 0 0
444 2 4.9220000000000006e+00 0.0000000000000000e+00 8.9278154443086404e+00 0 0 0
445 2 6.1524999999999999e+00 7.1042950623783407e-01 8.9278154443086404e+00 0 0 0
457 2 6.1524999999999999e+00 2.1312885187134989e+00 8.9278154443086404e+00 0 0 0
458 2 7.3829999999999991e+00 2.8417180249513345e+00 8.9278154443086404e+00 0 0 0
459 2 7.3829999999999991e+00 0.0000000000000000e+00 8.9278154443086404e+00 0 0 0
156 2 6.1524999999999999e+00 3.5521475311891644e+00 5.7858833534868284e+00 0 0 0
195 2 8.6134999999999984e+00 2.1312885187135002e+00 5.7858833534868284e+00 0 0 0
197 2 9.8440000000000012e+00 1.4208590124756659e+00 5.7858833534868284e+00 0 0 0
199 2 9.8440000000000012e+00 0.0000000000000000e+00 5.7858833534868284e+00 0 0 0
240 2 1.1074500000000002e+01 2.1312885187135002e+00 5.7858833534868284e+00 0 0 0
460 2 8.6134999999999984e+00 7.1042950623783407e-01 8.9278154443086404e+00 0 0 0
476 2 8.6134999999999984e+00 2.1312885187135002e+00 8.9278154443086404e+00 0 0 0
477 2 9.8440000000000012e+00 2.8417180249513332e+00 8.9278154443086404e+00 0 0 0
478 2 9.8440000000000012e+00 0.0000000000000000e+00 8.9278154443086404e+00 0 0 0
479 2 1.1074500000000002e+01 7.1042950623783330e-01 8.9278154443086404e+00 0 0 0
499 2 1.1074500000000002e+01 2.1312885187135002e+00 8.9278154443086404e+00 0 0 0
193 2 8.6134999999999984e+00 3.5521475311891657e+00 5.7858833534868284e+00 0 0 0
238 2 1.1074500000000002e+01 3.5521475311891644e+00 5.7858833534868284e+00 0 0 0
102 2 0.0000000000000000e+00 5.6834360499026637e+00 5.7858833534868284e+00 0 0 0
104 2 0.0000000000000000e+00 4.2625770374269996e+00 5.7858833534868284e+00 0 0 0
121 2 1.2305000000000001e+00 6.3938655561404980e+00 5.7858833534868284e+00 0 0 0
123 2 2.4610000000000003e+00 5.6834360499026637e+00 5.7858833534868284e+00 0 0 0
125 2 2.4610000000000003e+00 4.2625770374269996e+00 5.7858833534868284e+00 0 0 0
150 2 3.6914999999999996e+00 6.3938655561404980e+00 5.7858833534868284e+00 0 0 0
429 2 0.0000000000000000e+00 4.2625770374269996e+00 8.9278154443086404e+00 0 0 0
430 2 1.2305000000000001e+00 4.9730065436648339e+00 8.9278154443086404e+00 0 0 0
438 2 1.2305000000000001e+00 6.3938655561404980e+00 8.9278154443086404e+00 0 0 0
440 2 2.4610000000000003e+00 4.2625770374269996e+00 8.9278154443086404e+00 0 0 0
441 2 3.6914999999999996e+00 4.9730065436648339e+00 8.9278154443086404e+00 0 0 0
453 2 3.6914999999999996e+00 6.3938655561404980e+00 8.9278154443086404e+00 0 0 0
119 2 1.2305000000000001e+00 7.8147245686161639e+00 5.7858833534868284e+00 0 0 0
148 2 3.6914999999999996e+00 7.8147245686161639e+00 5.7858833534868284e+00 0 0 0
428 2 0.0000000000000000e+00 7.1042950623783341e+00 8.9278154443086404e+00 0 0 0
439 2 2.4610000000000003e+00 7.1042950623783341e+00 8.9278154443086404e+00 0 0 0
152 2 4.9220000000000006e+00 5.6834360499026637e+00 5.7858833534868284e+00 0 0 0
154 2 4.9220000000000006e+00 4.2625770374269978e+00 5.7858833534868284e+00 0 0 0
187 2 6.1524999999999999e+00 6.3938655561404980e+00 5.7858833534868284e+00 0 0 0
189 2 7.3829999999999991e+00 5.6834360499026637e+00 5.7858833534868284e+00 0 0 0
191 2 7.3829999999999991e+00 4.2625770374269996e+00 5.7858833534868284e+00 0 0 0
455 2 4.9220000000000006e+00 4.2625770374269978e+00 8.9278154443086404e+00 0 0 0
456 2 6.1524999999999999e+00 4.9730065436648339e+00 8.9278154443086404e+00 0 0 0
472 2 6.1524999999999999e+00 6.3938655561404980e+00 8.9278154443086404e+00 0 0 0
474 2 7.3829999999999991e+00 4.2625770374269996e+00 8.9278154443086404e+00 0 0 0
185 2 6.1524999999999999e+00 7.8147245686161639e+00 5.7858833534868284e+00 0 0 0
454 2 4.9220000000000006e+00 7.1042950623783341e+00 8.9278154443086404e+00 0 0 0
473 2 7.3830000000000009e+00 7.1042950623783341e+00 8.9278154443086404e+00 0 0 0
232 2 8.6135000000000002e+00 6.3938655561404980e+00 5.7858833534868284e+00 0 0 0
234 2 9.8440000000000012e+00 5.6834360499026637e+00 5.7858833534868284e+00 0 0 0
236 2 9.8440000000000012e+00 4.2625770374270004e+00 5.7858833534868284e+00 0 0 0
279 2 1.1074500000000002e+01 6.3938655561404980e+00 5.7858833534868284e+00 0 0 0
475 2 8.6135000000000002e+00 4.9730065436648339e+00 8.9278154443086404e+00 0 0 0
495 2 8.6135000000000002e+00 6.3938655561404980e+00 8.9278154443086404e+00 0 0 0
497 2 9.8440000000000012e+00 4.2625770374270004e+00 8.9278154443086404e+00 0 0 0
498 2 1.1074500000000002e+01 4.9730065436648339e+00 8.9278154443086404e+00 0 0 0
519 2 1.1074500000000002e+01 6.3938655561404980e+00 8.9278154443086404e+00 0 0 0
230 2 8.6135000000000002e+00 7.8147245686161639e+00 5.7858833534868284e+00 0 0 0
277 2 1.1074500000000002e+01 7.8147245686161639e+00 5.7858833534868284e+00 0 0 0
496 2 9.8440000000000012e+00 7.1042950623783341e+00 8.9278154443086404e+00 0 0 0
115 2 0.0000000000000000e+00 9.9460130873296642e+00 5.7858833534868284e+00 0 0 0
117 2 0.0000000000000000e+00 8.5251540748539991e+00 5.7858833534868284e+00 0 0 0
144 2 2.4610000000000003e+00 9.9460130873296642e+00 5.7858833534868284e+00 0 0 0
146 2 2.4610000000000003e+00 8.5251540748539991e+00 5.7858833534868284e+00 0 0 0
436 2 0.0000000000000000e+00 8.5251540748539991e+00 8.9278154443086404e+00 0 0 0
437 2 1.2305000000000001e+00 9.2355835810918343e+00 8.9278154443086404e+00 0 0 0
451 2 2.4610000000000003e+00 8.5251540748539991e+00 8.9278154443086404e+00 0 0 0
452 2 3.6915000000000004e+00 9.2355835810918343e+00 8.9278154443086404e+00 0 0 0
140 2 1.2305000000000001e+00 1.2077301606043163e+01 5.7858833534868284e+00 0 0 0
142 2 1.2305000000000001e+00 1.0656442593567498e+01 5.7858833534868284e+00 0 0 0
177 2 3.6914999999999996e+00 1.2077301606043163e+01 5.7858833534868284e+00 0 0 0
179 2 3.6914999999999996e+00 1.0656442593567499e+01 5.7858833534868284e+00 0 0 0
435 2 0.0000000000000000e+00 1.1366872099805333e+01 8.9278154443086404e+00 0 0 0
449 2 1.2305000000000001e+00 1.0656442593567498e+01 8.9278154443086404e+00 0 0 0
450 2 2.4610000000000003e+00 1.1366872099805333e+01 8.9278154443086404e+00 0 0 0
468 2 3.6914999999999996e+00 1.0656442593567499e+01 8.9278154443086404e+00 0 0 0
181 2 4.9220000000000006e+00 9.9460130873296642e+00 5.7858833534868284e+00 0 0 0
183 2 4.9220000000000006e+00 8.5251540748539991e+00 5.7858833534868284e+00 0 0 0
226 2 7.3830000000000009e+00 9.9460130873296642e+00 5.7858833534868284e+00 0 0 0
228 2 7.3830000000000009e+00 8.5251540748539991e+00 5.7858833534868284e+00 0 0 0
470 2 4.9220000000000006e+00 8.5251540748539991e+00 8.9278154443086404e+00 0 0 0
471 2 6.1524999999999999e+00 9.2355835810918343e+00 8.9278154443086404e+00 0 0 0
493 2 7.3830000000000009e+00 8.5251540748539991e+00 8.9278154443086404e+00 0 0 0
222 2 6.1524999999999999e+00 1.2077301606043163e+01 5.7858833534868284e+00 0 0 0
224 2 6.1524999999999999e+00 1.0656442593567499e+01 5.7858833534868284e+00 0 0 0
469 2 4.9220000000000006e+00 1.1366872099805333e+01 8.9278154443086404e+00 0 0 0
491 2 6.1524999999999999e+00 1.0656442593567499e+01 8.9278154443086404e+00 0 0 0
492 2 7.3829999999999991e+00 1.1366872099805333e+01 8.9278154443086404e+00 0 0 0
273 2 9.8440000000000012e+00 9.9460130873296642e+00 5.7858833534868284e+00 0 0 0
275 2 9.8440000000000012e+00 8.5251540748539956e+00 5.7858833534868284e+00 0 0 0
494 2 8.6134999999999984e+00 9.2355835810918343e+00 8.9278154443086404e+00 0 0 0
517 2 9.8440000000000012e+00 8.5251540748539956e+00 8.9278154443086404e+00 0 0 0
518 2 1.1074500000000002e+01 9.2355835810918343e+00 8.9278154443086404e+00 0 0 0
269 2 8.6135000000000002e+00 1.2077301606043163e+01 5.7858833534868284e+00 0 0 0
271 2 8.6134999999999984e+00 1.0656442593567498e+01 5.7858833534868284e+00 0 0 0
316 2 1.1074500000000002e+01 1.2077301606043163e+01 5.7858833534868284e+00 0 0 0
318 2 1.1074500000000002e+01 1.0656442593567498e+01 5.7858833534868284e+00 0 0 0
515 2 8.6134999999999984e+00 1.0656442593567498e+01 8.9278154443086404e+00 0 0 0
516 2 9.8440000000000012e+00 1.1366872099805333e+01 8.9278154443086404e+00 0 0 0
539 2 1.1074500000000002e+01 1.0656442593567498e+01 8.9278154443086404e+00 0 0 0
540 2 1.2304999999999998e+01 1.1366872099805333e+01 8.9278154443086404e+00 0 0 0
4459 1 2.1574107583599749e+00 8.5922813329676639e-01 1.1244026021869612e+01 -2 1 0
1616 1 2.6107786674573883e+00 3.5188895594913232e+00 1.1486550199002497e+01 2 1 0
3670 1 7.3338739181051213e+00 6.3303144171154480e-01 1.1610690708914078e+01 -1 1 0
23 1 7.3765276183968131e+00 3.5925720476966472e+00 1.1534686594543556e+01 -1 1 0
4470 1 7.1738702859382784e+00 1.1597783053955615e+01 1.4455421601663906e+01 1 2 -1
4321 1 7.3207983304263342e+00 8.7929594016431096e+00 1.4575907917890122e+01 0 0 0
855 1 2.2283934907485525e-01 5.1492193886134867e+00 1.1351148985183020e+01 3 1 1
2092 1 9.9180769248114427e+00 7.6651018859689373e+00 1.4314054786299035e+01 2 0 0
2828 1 4.8966200621856633e+00 4.5337766143431786e+00 1.0950701774126433e+01 -2 -1 0
1626 1 4.7326839633235105e+00 7.2295690761736804e+00 1.1684992998006781e+01 0 0 0
2344 1 9.6319863933096830e+00 5.0868827462506570e+00 1.1598767375930969e+01 1 3 0
4423 1 9.7819179552176951e+00 7.7877242495682300e+00 1.1614599056267139e+01 1 1 0
1400 1 2.3018212281392501e+00 9.0467602981023010e+00 1.1460389534321916e+01 4 3 0
1505 1 2.3198555666881862e+00 1.1813604232844668e+01 1.1787331533830894e+01 -1 0 0
730 1 1.2092000100186494e+01 1.1958887942837986e+01 1.4335220363344098e+01 3 1 -1
4389 1 7.1431727238995588e+00 8.9685547581257143e+00 1.1609988321220085e+01 1 1 0
1367 1 2.7351460692290441e+00 8.7585906500313015e+00 1.4352974751033143e+01 1 1 1
3106 1 9.9922562135447865e+00 5.0652940788894405e+00 1.4865271581125009e+01 1 -1 0
15 1 2.5070929783752209e+00 9.8178720090718286e-01 1.5507629048379108e+01 2 0 0
840 1 2.5936945346769291e+00 3.5082401267121499e+00 1.4365218396827650e+01 2 2 0
788 1 6.9939514389802016e+00 8.1684905105957817e-01 1.4593999085896284e+01 -1 0 0
2881 1 7.5499920049708766e+00 3.6259117482126135e+00 1.4230184150415916e+01 2 1 0
3653 1 5.0843892647790936e+00 7.1047743477378296e+00 1.4135558974928164e+01 0 1 0
1516 1 5.0223607886842210e+00 4.5835234985084341e+00 1.5179820405091705e+01 1 2 0
825 1 7.3033803812638656e+00 1.1762227708553562e+01 1.1760192138084914e+01 -1 0 1
4504 1 2.2135881900135064e+00 1.1525714225811326e+01 1.4415293232388407e+01 2 1 0
3058 1 1.2023442170989217e+01 1.1865959324275138e+01 1.1453967417613272e+01 -2 2 0
1476 1 9.8403674943643452e-02 4.8774074091283692e+00 1.4479602714298240e+01 2 -2 -1
2289 1 1.2224981370555593e+01 1.0791786770096272e+00 1.1623499825502039e+01 1 0 0
1547 1 1.2123932794762140e+01 9.1280840762293849e+00 1.1583911636434934e+01 -1 0 0
4473 1 1.2087955021223737e+01 8.7780108239445964e-01 1.4565444023308777e+01 0 0 0
3622 1 2.1384818057735439e-01 7.7824966038889523e+00 1.4125814426586736e+01 1 1 0
643 1 1.2271490964064746e+01 4.0727104612460883e+00 1.1570732577757960e+01 0 0 0
2156 1 2.8414859678887212e+00 3.5222964766128930e+00 1.8472718688327063e+01 0 3 1
1633 1 2.5785976662838865e+00 8.7754849785763112e-01 1.8005586775502341e+01 -1 -1 0
620 1 2.5290678715825590e+00 3.3214257509183649e+00 2.1328532885288734e+01 2 1 0
2961 1 7.1375517897940917e+00 2.6822649519751063e+00 1.8633304791283184e+01 0 0 0
2186 1 7.2303866266032815e+00 3.5547218987407808e-01 1.7469667495243726e+01 0 1 0
2941 1 7.1176080777113224e+00 2.9162817563080421e+00 2.1435951720959714e+01 -1 1 0
1628 1 1.1596743062678723e+01 5.2334101236966757e-01 1.7156984730662529e+01 0 0 0
2183 1 1.1646713723181248e+01 3.1949206381872597e+00 1.8239695283642568e+01 -2 0 -1
1638 1 4.6537851372363344e+00 1.8208941955862099e+00 2.4964064996409427e+01 -1 3 1
2338 1 9.4095302148167086e+00 9.8112878411915219e+00 2.2175007916546122e+01 2 0 0
2969 1 4.9000699956667093e+00 7.3182878416572130e+00 1.8261653931175925e+01 1 -1 0
1469 1 5.1836126399530462e+00 4.4887138354584550e+00 1.7751584256556061e+01 -1 0 0
838 1 4.7898575633892229e+00 7.5126812395018181e+00 2.0959513712337785e+01 0 0 1
4360 1 9.0684781728728154e+00 7.2596018302337750e+00 1.8229012186510566e+01 1 2 0
3688 1 9.2863425773417010e+00 4.4095725163446664e+00 1.7604788711106952e+01 0 -1 0
2882 1 9.0939239590942158e+00 7.4267145425258310e+00 2.1041469499068025e+01 -1 -1 0
3822 1 2.6999518985656255e+00 1.1275877095699201e+01 1.8205940056240696e+01 1 3 0
3758 1 2.7909012178313524e+00 8.6874050077191285e+00 1.7284862602346884e+01 0 -1 -1
3645 1 6.9590550205189237e+00 8.7864497279358762e+00 1.7474825222925265e+01 3 -2 0
1416 1 7.3085570999459009e+00 1.1286019367074653e+01 1.8292753926562138e+01 0 1 0
3778 1 7.3873653299465865e+00 1.1378060923668222e+01 2.1086615871912613e+01 1 2 -1
3808 1 2.5814333609141418e+00 6.0852041667090866e+00 2.4579613109779508e+01 0 2 1
876 1 1.1401876858386315e+01 8.5549305463641971e+00 1.7250088069611639e+01 0 -1 0
3727 1 6.9024995000560754e+00 6.2319563961065940e+00 2.4739117014497950e+01 1 1 -1
4494 1 3.9398206754019299e-01 1.0109182452983054e+01 2.1992133793002580e+01 0 0 0
3090 1 4.9573239705368177e+00 1.0183687246307136e+01 2.1794641549993397e+01 1 -1 0
2127 1 4.7189039150046694e+00 2.0024502673562021e+00 2.2292284938705691e+01 1 1 0
3839 1 1.1692985732643294e+01 3.1199762495214847e+00 2.1065165745532042e+01 1 1 0
3776 1 9.5672788104902402e+00 1.9223429219190729e+00 2.2124364529759561e+01 -1 -1 -1
3783 1 7.0174751361329779e-01 4.7150208691275708e+00 1.7236177461973920e+01 1 -1 0
3588 1 2.5385386788927744e+00 6.0972466460179939e+00 2.1833435371435186e+01 1 1 0
1483 1 1.1550081392007330e+01 1.1346969191932299e+01 1.8171615860851574e+01 -1 0 0
3001 1 2.6674897134041670e-01 7.5420694568036017e+00 2.0970710824216301e+01 2 -1 0
3628 1 6.9555730490164338e+00 5.9731960932197383e+00 2.1851792572495309e+01 2 0 0
3071 1 4.2165085587491541e-01 7.2149265445162198e+00 1.8186283682883033e+01 2 1 0
35 1 1.1377178696694376e+01 5.9292856889966403e+00 2.2069564058300152e+01 -1 0 0
4440 1 1.1445685648481655e+01 1.1551567247639378e+01 2.1078346230102312e+01 0 1 0
3745 1 2.7428046756368456e+00 1.1466162397541153e+01 2.1006135230538749e+01 1 2 -1
2237 1 1.1366865077092857e+01 6.0969454883509737e+00 2.4848849828249165e+01 0 0 0
3888 1 1.1832899059595935e-02 1.7455585008349055e+00 2.4931842147336095e+01 -1 1 0
2213 1 4.9544643178419756e+00 1.0027789795359221e+01 2.4626179239065600e+01 4 1 0
3837 1 9.2719539942893565e+00 2.0942725869519143e+00 2.4928694270752107e+01 -2 3 0
714 1 9.2068082997716942e+00 9.8866827997543574e+00 2.4994263285781656e+01 2 -1 0
3668 1 2.8108045481862831e-01 9.9598398318743353e+00 2.4669247707190625e+01 -1 3 0
2149 1 2.3344283390943352e+00 5.8226924938913760e-01 2.8515627741769062e+01 1 1 0
3829 1 2.2873616211721921e+00 4.9157153242834711e-01 2.5532330471426913e+01 0 1 0
3643 1 1.1318689299080431e+01 8.8307351360728781e+00 3.1460850346531569e+01 0 2 0
5 1 7.0288436317944623e+00 5.1333224077610495e-01 2.5548027956396904e+01 1 0 0
3801 1 7.0186238721913918e+00 4.8829663293902387e-01 2.8378984217797942e+01 -1 0 0
801 1 1.1527507858511020e+01 3.5287723148009792e-01 2.5738708997594848e+01 0 1 0
3679 1 1.1598685604932347e+01 1.0383468059010481e+00 2.8325908535476948e+01 -2 0 1
2097 1 9.1659409448019389e+00 2.0569054427143767e+00 2.9223834351561219e+01 2 2 0
2113 1 2.9989505902158470e-01 4.5646769399005658e+00 2.5497124821795403e+01 0 1 0
2349 1 9.3770511500227666e-02 4.9086729940935676e+00 2.8173556855303229e+01 -1 2 0
719 1 4.6429474794109877e+00 4.4075749444127679e+00 2.8211619707623925e+01 0 3 0
675 1 4.7176666265359399e+00 4.5650677627596048e+00 2.5354410718891359e+01 -3 -1 -1
841 1 9.1169160472300614e+00 4.8884156897212003e+00 2.5447648828254135e+01 0 0 0
3053 1 9.1644110317556411e+00 4.7097360537965276e+00 2.8072905900151749e+01 -3 1 0
4442 1 2.4887714713127691e+00 8.8045327846917800e+00 2.5483437585523529e+01 -1 -2 0
25 1 2.6414435189612777e+00 8.8673593235336075e+00 2.8060005780117560e+01 2 0 0
3646 1 6.9325840770086948e+00 8.7326534315392799e+00 2.5822444038944283e+01 0 1 0
3710 1 6.7660728395994045e+00 8.7776463892655698e+00 2.8444909116058092e+01 2 1 0
1381 1 1.1703548864629218e+01 8.6739901974851730e+00 2.5811057131650685e+01 1 1 0
2330 1 1.1330462832666898e+01 8.7159016948766990e+00 2.8816103067997375e+01 1 2 0
4523 1 1.2742553093067159e+00 1.3860589731722548e+00 3.2062212214677402e+01 1 1 -1
4531 1 3.7047705267002016e+00 2.6446228938546934e+00 3.1978824341141348e+01 0 0 0
2310 1 4.6299579709642238e+00 1.7370935206165856e+00 2.9265764313614905e+01 1 1 0
2274 1 6.2506312192660491e+00 1.1074929933786879e+00 3.2284821081666990e+01 2 1 0
4481 1 8.7298293496696164e+00 2.3760288736682234e+00 3.2027129065930204e+01 1 -1 0
648 1 1.1112114668676481e+01 7.7933635401234236e-01 3.2242495010676997e+01 0 3 0
4368 1 2.6383703476690519e+00 6.1178864198593477e+00 2.8908092078243900e+01 2 2 1
1438 1 1.4373744238159474e+00 7.1671921003964663e+00 3.2141193268410774e+01 -1 1 -1
1545 1 3.4747158022139986e+00 5.3230904068631943e+00 3.1319953318185807e+01 0 -1 0
2891 1 6.9873269540762433e+00 6.1008248324255607e+00 2.9199861726626768e+01 0 1 -1
4508 1 6.0859504537399527e+00 6.6252860131619178e+00 3.1994458753548702e+01 1 1 0
4328 1 1.1605130361209049e+01 5.8837570128250771e+00 2.9232303577566292e+01 1 0 0
684 1 1.1113104645303521e+01 6.2600575125617572e+00 3.1900447759105759e+01 -1 0 0
2842 1 8.3844568178172363e+00 5.0898567023590404e+00 3.2217305999024518e+01 1 -2 -1
2970 1 3.8890545232354521e+00 1.0897474620075272e+01 3.1574982505331274e+01 -1 1 0
2088 1 1.5093617504277705e+00 1.0021301109824829e+01 3.2029190254774200e+01 1 1 0
9 1 8.7599624028805501e+00 1.0487083433687571e+01 3.1737016963607498e+01 0 1 0
2390 1 6.4370189972295861e+00 9.3735659796493245e+00 3.2431264988743166e+01 0 0 0
746 1 4.6372318123365837e+00 1.0361152719872097e+01 2.9045939144966557e+01 -1 1 -1
1507 1 8.9936602075724217e+00 1.0431566319732031e+01 2.8981163145643276e+01 -3 -1 0
2146 1 2.5266804398760995e-01 2.1629426751043104e+00 2.9322529461757270e+01 0 1 0
4382 1 5.8964997128587859e-01 9.9627044113118384e+00 2.9378065547395046e+01 1 0 0
137 2 0.0000000000000000e+00 1.2787731112280996e+01 2.6439512626569046e+00 0 0 0
139 2 1.2305000000000001e+00 1.3498160618518829e+01 2.6439512626569046e+00 0 0 0
174 2 2.4610000000000003e+00 1.2787731112280996e+01 2.6439512626569046e+00 0 0 0
176 2 3.6915000000000004e+00 1.3498160618518829e+01 2.6439512626569046e+00 0 0 0
135 2 0.0000000000000000e+00 1.5629449137232333e+01 2.6439512626569046e+00 0 0 0
170 2 1.2305000000000001e+00 1.4919019630994494e+01 2.6439512626569046e+00 0 0 0
172 2 2.4610000000000003e+00 1.5629449137232328e+01 2.6439512626569046e+00 0 0 0
215 2 3.6915000000000004e+00 1.4919019630994494e+01 2.6439512626569046e+00 0 0 0
219 2 4.9220000000000006e+00 1.2787731112280996e+01 2.6439512626569046e+00 0 0 0
221 2 6.1524999999999990e+00 1.3498160618518829e+01 2.6439512626569046e+00 0 0 0
266 2 7.3829999999999991e+00 1.2787731112280996e+01 2.6439512626569046e+00 0 0 0
217 2 4.9220000000000006e+00 1.5629449137232333e+01 2.6439512626569046e+00 0 0 0
262 2 6.1524999999999990e+00 1.4919019630994494e+01 2.6439512626569046e+00 0 0 0
264 2 7.3829999999999991e+00 1.5629449137232333e+01 2.6439512626569046e+00 0 0 0
268 2 8.6135000000000002e+00 1.3498160618518835e+01 2.6439512626569046e+00 0 0 0
313 2 9.8440000000000012e+00 1.2787731112280996e+01 2.6439512626569046e+00 0 0 0
315 2 1.1074500000000002e+01 1.3498160618518829e+01 2.6439512626569046e+00 0 0 0
309 2 8.6135000000000002e+00 1.4919019630994494e+01 2.6439512626569046e+00 0 0 0
311 2 9.8440000000000012e+00 1.5629449137232328e+01 2.6439512626569046e+00 0 0 0
351 2 1.1074500000000002e+01 1.4919019630994494e+01 2.6439512626569046e+00 0 0 0
166 2 0.0000000000000000e+00 1.7050308149707998e+01 2.6439512626569046e+00 0 0 0
211 2 2.4610000000000003e+00 1.7050308149707998e+01 2.6439512626569046e+00 0 0 0
164 2 0.0000000000000000e+00 1.9892026174659328e+01 2.6439512626569046e+00 0 0 0
168 2 1.2305000000000001e+00 1.7760737655945832e+01 2.6439512626569046e+00 0 0 0
207 2 1.2305000000000001e+00 1.9181596668421495e+01 2.6439512626569046e+00 0 0 0
209 2 2.4610000000000003e+00 1.9892026174659328e+01 2.6439512626569046e+00 0 0 0
213 2 3.6914999999999996e+00 1.7760737655945832e+01 2.6439512626569046e+00 0 0 0
254 2 3.6914999999999996e+00 1.9181596668421495e+01 2.6439512626569046e+00 0 0 0
258 2 4.9220000000000006e+00 1.7050308149707998e+01 2.6439512626569046e+00 0 0 0
305 2 7.3830000000000009e+00 1.7050308149707998e+01 2.6439512626569046e+00 0 0 0
256 2 4.9220000000000006e+00 1.9892026174659328e+01 2.6439512626569046e+00 0 0 0
260 2 6.1524999999999999e+00 1.7760737655945832e+01 2.6439512626569046e+00 0 0 0
301 2 6.1524999999999999e+00 1.9181596668421495e+01 2.6439512626569046e+00 0 0 0
303 2 7.3829999999999991e+00 1.9892026174659328e+01 2.6439512626569046e+00 0 0 0
347 2 9.8440000000000012e+00 1.7050308149707998e+01 2.6439512626569046e+00 0 0 0
381 2 1.2304999999999998e+01 1.7050308149707998e+01 2.6439512626569046e+00 0 0 0
307 2 8.6134999999999984e+00 1.7760737655945832e+01 2.6439512626569046e+00 0 0 0
343 2 8.6135000000000002e+00 1.9181596668421495e+01 2.6439512626569046e+00 0 0 0
345 2 9.8440000000000012e+00 1.9892026174659335e+01 2.6439512626569046e+00 0 0 0
349 2 1.1074500000000002e+01 1.7760737655945835e+01 2.6439512626569046e+00 0 0 0
377 2 1.1074500000000002e+01 1.9181596668421495e+01 2.6439512626569046e+00 0 0 0
201 2 0.0000000000000000e+00 2.4154603212086325e+01 2.6439512626569046e+00 0 0 0
203 2 0.0000000000000000e+00 2.1312885187134999e+01 2.6439512626569046e+00 0 0 0
205 2 1.2304999999999993e+00 2.2023314693372832e+01 2.6439512626569046e+00 0 0 0
246 2 1.2304999999999993e+00 2.3444173705848499e+01 2.6439512626569046e+00 0 0 0
248 2 2.4610000000000003e+00 2.4154603212086325e+01 2.6439512626569046e+00 0 0 0
250 2 2.4610000000000003e+00 2.1312885187134995e+01 2.6439512626569046e+00 0 0 0
252 2 3.6914999999999996e+00 2.2023314693372832e+01 2.6439512626569046e+00 0 0 0
293 2 3.6915000000000004e+00 2.3444173705848499e+01 2.6439512626569046e+00 0 0 0
295 2 4.9220000000000006e+00 2.4154603212086325e+01 2.6439512626569046e+00 0 0 0
297 2 4.9220000000000006e+00 2.1312885187134995e+01 2.6439512626569046e+00 0 0 0
299 2 6.1524999999999990e+00 2.2023314693372832e+01 2.6439512626569046e+00 0 0 0
335 2 6.1524999999999999e+00 2.3444173705848499e+01 2.6439512626569046e+00 0 0 0
337 2 7.3830000000000009e+00 2.4154603212086336e+01 2.6439512626569046e+00 0 0 0
339 2 7.3829999999999991e+00 2.1312885187134999e+01 2.6439512626569046e+00 0 0 0
341 2 8.6135000000000002e+00 2.2023314693372832e+01 2.6439512626569046e+00 0 0 0
369 2 8.6134999999999984e+00 2.3444173705848499e+01 2.6439512626569046e+00 0 0 0
371 2 9.8440000000000012e+00 2.4154603212086336e+01 2.6439512626569046e+00 0 0 0
373 2 9.8440000000000012e+00 2.1312885187134999e+01 2.6439512626569046e+00 0 0 0
375 2 1.1074500000000002e+01 2.2023314693372832e+01 2.6439512626569046e+00 0 0 0
395 2 1.1074500000000002e+01 2.3444173705848499e+01 2.6439512626569046e+00 0 0 0
138 2 0.0000000000000000e+00 1.2787731112280996e+01 5.7858833534868284e+00 0 0 0
175 2 2.4610000000000003e+00 1.2787731112280996e+01 5.7858833534868284e+00 0 0 0