LAMMPS data file via write_data, version 16 Mar 2018, timestep = 100000

4537 atoms
2 atom types

0.0000000000000000e+00 4.9219999999999999e+01 xlo xhi
0.0000000000000000e+00 4.9019635930410494e+01 ylo yhi
1.5516730591409011e+00 3.2388326940858775e+01 zlo zhi

Masses

1 18.015
2 12.01

Atoms # atomic

96 2 0.0000000000000000e+00 2.8417180249513345e+00 3.2113942724178632e+00 0 0 0
98 2 0.0000000000000000e+00 0.0000000000000000e+00 3.2113942724178632e+00 0 0 0
100 2 1.2305000000000001e+00 7.1042950623783474e-01 3.2113942724178632e+00 0 0 0
107 2 1.2305000000000001e+00 2.1312885187134998e+00 3.2113942724178632e+00 0 0 0
109 2 2.4610000000000003e+00 2.8417180249513345e+00 3.2113942724178632e+00 0 0 0
111 2 2.4610000000000003e+00 0.0000000000000000e+00 3.2113942724178632e+00 0 0 0
113 2 3.6915000000000004e+00 7.1042950623783474e-01 3.2113942724178632e+00 0 0 0
128 2 3.6914999999999996e+00 2.1312885187134998e+00 3.2113942724178632e+00 0 0 0
130 2 4.9220000000000006e+00 2.8417180249513332e+00 3.2113942724178632e+00 0 0 0
132 2 4.9220000000000006e+00 0.0000000000000000e+00 3.2113942724178632e+00 0 0 0
134 2 6.1524999999999999e+00 7.1042950623783407e-01 3.2113942724178632e+00 0 0 0
157 2 6.1524999999999999e+00 2.1312885187134989e+00 3.2113942724178632e+00 0 0 0
159 2 7.3829999999999991e+00 2.8417180249513345e+00 3.2113942724178632e+00 0 0 0
161 2 7.3829999999999991e+00 0.0000000000000000e+00 3.2113942724178632e+00 0 0 0
163 2 8.6134999999999984e+00 7.1042950623783407e-01 3.2113942724178632e+00 0 0 0
194 2 8.6134999999999984e+00 2.1312885187135002e+00 3.2113942724178632e+00 0 0 0
196 2 9.8440000000000012e+00 2.8417180249513332e+00 3.2113942724178632e+00 0 0 0
198 2 9.8440000000000012e+00 0.0000000000000000e+00 3.2113942724178632e+00 0 0 0
200 2 1.1074500000000002e+01 7.1042950623783330e-01 3.2113942724178632e+00 0 0 0
239 2 1.1074500000000002e+01 2.1312885187135002e+00 3.2113942724178632e+00 0 0 0
103 2 0.0000000000000000e+00 4.2625770374269996e+00 3.2113942724178632e+00 0 0 0
105 2 1.2305000000000001e+00 4.9730065436648339e+00 3.2113942724178632e+00 0 0 0
120 2 1.2305000000000001e+00 6.3938655561404980e+00 3.2113942724178632e+00 0 0 0
124 2 2.4610000000000003e+00 4.2625770374269996e+00 3.2113942724178632e+00 0 0 0
126 2 3.6914999999999996e+00 4.9730065436648339e+00 3.2113942724178632e+00 0 0 0
149 2 3.6914999999999996e+00 6.3938655561404980e+00 3.2113942724178632e+00 0 0 0
101 2 0.0000000000000000e+00 7.1042950623783341e+00 3.2113942724178632e+00 0 0 0
122 2 2.4610000000000003e+00 7.1042950623783341e+00 3.2113942724178632e+00 0 0 0
153 2 4.9220000000000006e+00 4.2625770374269978e+00 3.2113942724178632e+00 0 0 0
155 2 6.1524999999999999e+00 4.9730065436648339e+00 3.2113942724178632e+00 0 0 0
186 2 6.1524999999999999e+00 6.3938655561404980e+00 3.2113942724178632e+00 0 0 0
190 2 7.3829999999999991e+00 4.2625770374269996e+00 3.2113942724178632e+00 0 0 0
151 2 4.9220000000000006e+00 7.1042950623783341e+00 3.2113942724178632e+00 0 0 0
188 2 7.3830000000000009e+00 7.1042950623783341e+00 3.2113942724178632e+00 0 0 0
192 2 8.6135000000000002e+00 4.9730065436648339e+00 3.2113942724178632e+00 0 0 0
231 2 8.6135000000000002e+00 6.3938655561404980e+00 3.2113942724178632e+00 0 0 0
235 2 9.8440000000000012e+00 4.2625770374270004e+00 3.2113942724178632e+00 0 0 0
237 2 1.1074500000000002e+01 4.9730065436648339e+00 3.2113942724178632e+00 0 0 0
278 2 1.1074500000000002e+01 6.3938655561404980e+00 3.2113942724178632e+00 0 0 0
233 2 9.8440000000000012e+00 7.1042950623783341e+00 3.2113942724178632e+00 0 0 0
116 2 0.0000000000000000e+00 8.5251540748539991e+00 3.2113942724178632e+00 0 0 0
118 2 1.2305000000000001e+00 9.2355835810918343e+00 3.2113942724178632e+00 0 0 0
145 2 2.4610000000000003e+00 8.5251540748539991e+00 3.2113942724178632e+00 0 0 0
147 2 3.6915000000000004e+00 9.2355835810918343e+00 3.2113942724178632e+00 0 0 0
114 2 0.0000000000000000e+00 1.1366872099805333e+01 3.2113942724178632e+00 0 0 0
141 2 1.2305000000000001e+00 1.0656442593567498e+01 3.2113942724178632e+00 0 0 0
143 2 2.4610000000000003e+00 1.1366872099805333e+01 3.2113942724178632e+00 0 0 0
178 2 3.6914999999999996e+00 1.0656442593567499e+01 3.2113942724178632e+00 0 0 0
182 2 4.9220000000000006e+00 8.5251540748539991e+00 3.2113942724178632e+00 0 0 0
184 2 6.1524999999999999e+00 9.2355835810918343e+00 3.2113942724178632e+00 0 0 0
227 2 7.3830000000000009e+00 8.5251540748539991e+00 3.2113942724178632e+00 0 0 0
180 2 4.9220000000000006e+00 1.1366872099805333e+01 3.2113942724178632e+00 0 0 0
223 2 6.1524999999999999e+00 1.0656442593567499e+01 3.2113942724178632e+00 0 0 0
225 2 7.3829999999999991e+00 1.1366872099805333e+01 3.2113942724178632e+00 0 0 0
229 2 8.6134999999999984e+00 9.2355835810918343e+00 3.2113942724178632e+00 0 0 0
274 2 9.8440000000000012e+00 8.5251540748539956e+00 3.2113942724178632e+00 0 0 0
276 2 1.1074500000000002e+01 9.2355835810918343e+00 3.2113942724178632e+00 0 0 0
270 2 8.6134999999999984e+00 1.0656442593567498e+01 3.2113942724178632e+00 0 0 0
272 2 9.8440000000000012e+00 1.1366872099805333e+01 3.2113942724178632e+00 0 0 0
317 2 1.1074500000000002e+01 1.0656442593567498e+01 3.2113942724178632e+00 0 0 0
319 2 1.2304999999999998e+01 1.1366872099805333e+01 3.2113942724178632e+00 0 0 0
97 2 0.0000000000000000e+00 1.4208590124756650e+00 6.2288770168312242e+00 0 0 0
99 2 0.0000000000000000e+00 0.0000000000000000e+00 6.2288770168312242e+00 0 0 0
108 2 1.2305000000000001e+00 2.1312885187134998e+00 6.2288770168312242e+00 0 0 0
110 2 2.4610000000000003e+00 1.4208590124756650e+00 6.2288770168312242e+00 0 0 0
112 2 2.4610000000000003e+00 0.0000000000000000e+00 6.2288770168312242e+00 0 0 0
129 2 3.6914999999999996e+00 2.1312885187134998e+00 6.2288770168312242e+00 0 0 0
425 2 0.0000000000000000e+00 2.8417180249513345e+00 9.2463597612444488e+00 0 0 0
426 2 0.0000000000000000e+00 0.0000000000000000e+00 9.2463597612444488e+00 0 0 0
427 2 1.2305000000000001e+00 7.1042950623783474e-01 9.2463597612444488e+00 0 0 0
431 2 1.2305000000000001e+00 2.1312885187134998e+00 9.2463597612444488e+00 0 0 0
432 2 2.4610000000000003e+00 2.8417180249513345e+00 9.2463597612444488e+00 0 0 0
433 2 2.4610000000000003e+00 0.0000000000000000e+00 9.2463597612444488e+00 0 0 0
434 2 3.6915000000000004e+00 7.1042950623783474e-01 9.2463597612444488e+00 0 0 0
442 2 3.6914999999999996e+00 2.1312885187134998e+00 9.2463597612444488e+00 0 0 0
106 2 1.2305000000000001e+00 3.5521475311891644e+00 6.2288770168312242e+00 0 0 0
127 2 3.6914999999999996e+00 3.5521475311891644e+00 6.2288770168312242e+00 0 0 0
131 2 4.9220000000000006e+00 1.4208590124756650e+00 6.2288770168312242e+00 0 0 0
133 2 4.9220000000000006e+00 0.0000000000000000e+00 6.2288770168312242e+00 0 0 0
158 2 6.1524999999999999e+00 2.1312885187134989e+00 6.2288770168312242e+00 0 0 0
160 2 7.3829999999999991e+00 1.4208590124756659e+00 6.2288770168312242e+00 0 0 0
162 2 7.3829999999999991e+00 0.0000000000000000e+00 6.2288770168312242e+00 0 0 0
443 2 4.9220000000000006e+00 2.8417180249513332e+00 9.2463597612444488e+00 0 0 0
444 2 4.9220000000000006e+00 0.0000000000000000e+00 9.2463597612444488e+00 0 0 0
445 2 6.1524999999999999e+00 7.1042950623783407e-01 9.2463597612444488e+00 0 0 0
457 2 6.1524999999999999e+00 2.1312885187134989e+00 9.2463597612444488e+00 0 0 0
458 2 7.3829999999999991e+00 2.8417180249513345e+00 9.2463597612444488e+00 0 0 0
459 2 7.3829999999999991e+00 0.0000000000000000e+00 9.2463597612444488e+00 0 0 0
156 2 6.1524999999999999e+00 3.5521475311891644e+00 6.2288770168312242e+00 0 0 0
195 2 8.6134999999999984e+00 2.1312885187135002e+00 6.2288770168312242e+00 0 0 0
197 2 9.8440000000000012e+00 1.4208590124756659e+00 6.2288770168312242e+00 0 0 0
199 2 9.8440000000000012e+00 0.0000000000000000e+00 6.2288770168312242e+00 0 0 0
240 2 1.1074500000000002e+01 2.1312885187135002e+00 6.2288770168312242e+00 0 0 0
460 2 8.6134999999999984e+00 7.1042950623783407e-01 9.2463597612444488e+00 0 0 0
476 2 8.6134999999999984e+00 2.1312885187135002e+00 9.2463597612444488e+00 0 0 0
477 2 9.8440000000000012e+00 2.8417180249513332e+00 9.2463597612444488e+00 0 0 0
478 2 9.8440000000000012e+00 0.0000000000000000e+00 9.2463597612444488e+00 0 0 0
479 2 1.1074500000000002e+01 7.1042950623783330e-01 9.2463597612444488e+00 0 0 0
499 2 1.1074500000000002e+01 2.1312885187135002e+00 9.2463597612444488e+00 0 0 0
193 2 8.6134999999999984e+00 3.5521475311891657e+00 6.2288770168312242e+00 0 0 0
238 2 1.1074500000000002e+01 3.5521475311891644e+00 6.2288770168312242e+00 0 0 0
102 2 0.0000000000000000e+00 5.6834360499026637e+00 6.2288770168312242e+00 0 0 0
104 2 0.0000000000000000e+00 4.2625770374269996e+00 6.2288770168312242e+00 0 0 0
121 2 1.2305000000000001e+00 6.3938655561404980e+00 6.2288770168312242e+00 0 0 0
123 2 2.4610000000000003e+00 5.6834360499026637e+00 6.2288770168312242e+00 0 0 0
125 2 2.4610000000000003e+00 4.2625770374269996e+00 6.2288770168312242e+00 0 0 0
150 2 3.6914999999999996e+00 6.3938655561404980e+00 6.2288770168312242e+00 0 0 0
429 2 0.0000000000000000e+00 4.2625770374269996e+00 9.2463597612444488e+00 0 0 0
430 2 1.2305000000000001e+00 4.9730065436648339e+00 9.2463597612444488e+00 0 0 0
438 2 1.2305000000000001e+00 6.3938655561404980e+00 9.2463597612444488e+00 0 0 0
440 2 2.4610000000000003e+00 4.2625770374269996e+00 9.2463597612444488e+00 0 0 0
441 2 3.6914999999999996e+00 4.9730065436648339e+00 9.2463597612444488e+00 0 0 0
453 2 3.6914999999999996e+00 6.3938655561404980e+00 9.2463597612444488e+00 0 0 0
119 2 1.2305000000000001e+00 7.8147245686161639e+00 6.2288770168312242e+00 0 0 0
148 2 3.6914999999999996e+00 7.8147245686161639e+00 6.2288770168312242e+00 0 0 0
428 2 0.0000000000000000e+00 7.1042950623783341e+00 9.2463597612444488e+00 0 0 0
439 2 2.4610000000000003e+00 7.1042950623783341e+00 9.2463597612444488e+00 0 0 0
152 2 4.9220000000000006e+00 5.6834360499026637e+00 6.2288770168312242e+00 0 0 0
154 2 4.9220000000000006e+00 4.2625770374269978e+00 6.2288770168312242e+00 0 0 0
187 2 6.1524999999999999e+00 6.3938655561404980e+00 6.2288770168312242e+00 0 0 0
189 2 7.3829999999999991e+00 5.6834360499026637e+00 6.2288770168312242e+00 0 0 0
191 2 7.3829999999999991e+00 4.2625770374269996e+00 6.2288770168312242e+00 0 0 0
455 2 4.9220000000000006e+00 4.2625770374269978e+00 9.2463597612444488e+00 0 0 0
456 2 6.1524999999999999e+00 4.9730065436648339e+00 9.2463597612444488e+00 0 0 0
472 2 6.1524999999999999e+00 6.3938655561404980e+00 9.2463597612444488e+00 0 0 0
474 2 7.3829999999999991e+00 4.2625770374269996e+00 9.2463597612444488e+00 0 0 0
185 2 6.1524999999999999e+00 7.8147245686161639e+00 6.2288770168312242e+00 0 0 0
454 2 4.9220000000000006e+00 7.1042950623783341e+00 9.2463597612444488e+00 0 0 0
473 2 7.3830000000000009e+00 7.1042950623783341e+00 9.2463597612444488e+00 0 0 0
232 2 8.6135000000000002e+00 6.3938655561404980e+00 6.2288770168312242e+00 0 0 0
234 2 9.8440000000000012e+00 5.6834360499026637e+00 6.2288770168312242e+00 0 0 0
236 2 9.8440000000000012e+00 4.2625770374270004e+00 6.2288770168312242e+00 0 0 0
279 2 1.1074500000000002e+01 6.3938655561404980e+00 6.2288770168312242e+00 0 0 0
475 2 8.6135000000000002e+00 4.9730065436648339e+00 9.2463597612444488e+00 0 0 0
495 2 8.6135000000000002e+00 6.3938655561404980e+00 9.2463597612444488e+00 0 0 0
497 2 9.8440000000000012e+00 4.2625770374270004e+00 9.2463597612444488e+00 0 0 0
498 2 1.1074500000000002e+01 4.9730065436648339e+00 9.2463597612444488e+00 0 0 0
519 2 1.1074500000000002e+01 6.3938655561404980e+00 9.2463597612444488e+00 0 0 0
230 2 8.6135000000000002e+00 7.8147245686161639e+00 6.2288770168312242e+00 0 0 0
277 2 1.1074500000000002e+01 7.8147245686161639e+00 6.2288770168312242e+00 0 0 0
496 2 9.8440000000000012e+00 7.1042950623783341e+00 9.2463597612444488e+00 0 0 0
115 2 0.0000000000000000e+00 9.9460130873296642e+00 6.2288770168312242e+00 0 0 0
117 2 0.0000000000000000e+00 8.5251540748539991e+00 6.2288770168312242e+00 0 0 0
144 2 2.4610000000000003e+00 9.9460130873296642e+00 6.2288770168312242e+00 0 0 0
146 2 2.4610000000000003e+00 8.5251540748539991e+00 6.2288770168312242e+00 0 0 0
436 2 0.0000000000000000e+00 8.5251540748539991e+00 9.2463597612444488e+00 0 0 0
437 2 1.2305000000000001e+00 9.2355835810918343e+00 9.2463597612444488e+00 0 0 0
451 2 2.4610000000000003e+00 8.5251540748539991e+00 9.2463597612444488e+00 0 0 0
452 2 3.6915000000000004e+00 9.2355835810918343e+00 9.2463597612444488e+00 0 0 0
140 2 1.2305000000000001e+00 1.2077301606043163e+01 6.2288770168312242e+00 0 0 0
142 2 1.2305000000000001e+00 1.0656442593567498e+01 6.2288770168312242e+00 0 0 0
177 2 3.6914999999999996e+00 1.2077301606043163e+01 6.2288770168312242e+00 0 0 0
179 2 3.6914999999999996e+00 1.0656442593567499e+01 6.2288770168312242e+00 0 0 0
435 2 0.0000000000000000e+00 1.1366872099805333e+01 9.2463597612444488e+00 0 0 0
449 2 1.2305000000000001e+00 1.0656442593567498e+01 9.2463597612444488e+00 0 0 0
450 2 2.4610000000000003e+00 1.1366872099805333e+01 9.2463597612444488e+00 0 0 0
468 2 3.6914999999999996e+00 1.0656442593567499e+01 9.2463597612444488e+00 0 0 0
181 2 4.9220000000000006e+00 9.9460130873296642e+00 6.2288770168312242e+00 0 0 0
183 2 4.9220000000000006e+00 8.5251540748539991e+00 6.2288770168312242e+00 0 0 0
226 2 7.3830000000000009e+00 9.9460130873296642e+00 6.2288770168312242e+00 0 0 0
228 2 7.3830000000000009e+00 8.5251540748539991e+00 6.2288770168312242e+00 0 0 0
470 2 4.9220000000000006e+00 8.5251540748539991e+00 9.2463597612444488e+00 0 0 0
471 2 6.1524999999999999e+00 9.2355835810918343e+00 9.2463597612444488e+00 0 0 0
493 2 7.3830000000000009e+00 8.5251540748539991e+00 9.2463597612444488e+00 0 0 0
222 2 6.1524999999999999e+00 1.2077301606043163e+01 6.2288770168312242e+00 0 0 0
224 2 6.1524999999999999e+00 1.0656442593567499e+01 6.2288770168312242e+00 0 0 0
469 2 4.9220000000000006e+00 1.1366872099805333e+01 9.2463597612444488e+00 0 0 0
491 2 6.1524999999999999e+00 1.0656442593567499e+01 9.2463597612444488e+00 0 0 0
492 2 7.3829999999999991e+00 1.1366872099805333e+01 9.2463597612444488e+00 0 0 0
273 2 9.8440000000000012e+00 9.9460130873296642e+00 6.2288770168312242e+00 0 0 0
275 2 9.8440000000000012e+00 8.5251540748539956e+00 6.2288770168312242e+00 0 0 0
494 2 8.6134999999999984e+00 9.2355835810918343e+00 9.2463597612444488e+00 0 0 0
517 2 9.8440000000000012e+00 8.5251540748539956e+00 9.2463597612444488e+00 0 0 0
518 2 1.1074500000000002e+01 9.2355835810918343e+00 9.2463597612444488e+00 0 0 0
269 2 8.6135000000000002e+00 1.2077301606043163e+01 6.2288770168312242e+00 0 0 0
271 2 8.6134999999999984e+00 1.0656442593567498e+01 6.2288770168312242e+00 0 0 0
316 2 1.1074500000000002e+01 1.2077301606043163e+01 6.2288770168312242e+00 0 0 0
318 2 1.1074500000000002e+01 1.0656442593567498e+01 6.2288770168312242e+00 0 0 0
515 2 8.6134999999999984e+00 1.0656442593567498e+01 9.2463597612444488e+00 0 0 0
516 2 9.8440000000000012e+00 1.1366872099805333e+01 9.2463597612444488e+00 0 0 0
539 2 1.1074500000000002e+01 1.0656442593567498e+01 9.2463597612444488e+00 0 0 0
540 2 1.2304999999999998e+01 1.1366872099805333e+01 9.2463597612444488e+00 0 0 0
2196 1 5.5868791136047014e+00 1.7544222768599527e+00 1.5624240726475813e+01 0 0 0
3689 1 1.0730780536344724e+00 2.5168915563133831e+00 1.2016546031746621e+01 0 1 0
3785 1 3.9324937901390049e+00 1.4865431377974920e+00 1.1745655907361481e+01 1 0 0
819 1 7.9052863803350499e+00 3.5294736128013757e+00 1.2287220433158497e+01 0 1 0
2263 1 1.0878223668904191e+01 2.0219153479586636e+00 1.1972811237389639e+01 1 0 0
3708 1 4.9024490355404735e+00 8.9647421713722633e+00 1.4793222357376614e+01 1 0 -1
3603 1 1.4679169563407184e+00 5.1790050984318050e+00 1.1920536921193305e+01 2 0 0
2913 1 4.2311579563316686e+00 6.1580717077905911e+00 1.2140432702108091e+01 0 0 0
3723 1 1.1538693359974030e+01 6.8142965686831243e+00 1.2794202177463083e+01 0 1 0
2904 1 5.3335984446688363e+00 3.7937201883179150e+00 1.1770581399260447e+01 0 1 0
2388 1 4.4083678106439814e+00 1.1896084849683344e+01 1.2068832161330178e+01 0 0 0
3805 1 1.3155563303415458e+00 1.0211197136387078e+01 1.2136519130353221e+01 0 1 1
1620 1 4.9932674328275448e+00 8.9697927186439728e+00 1.1863392896878718e+01 0 1 0
4343 1 7.7870977375228208e+00 8.9585737549077287e+00 1.1876184402741444e+01 -1 0 0
3845 1 9.5649319919955769e+00 1.1129823543017704e+01 1.1839632305600038e+01 1 1 0
2165 1 3.3334311601721285e+00 3.8232798133689387e+00 1.6339016360700391e+01 0 -1 0
2872 1 1.2897057706407153e+00 2.4460843546567221e+00 1.4871318224703641e+01 1 0 0
2204 1 8.1320524835803418e+00 2.9691503466471745e+00 1.5129432364093439e+01 1 0 0
4365 1 1.0880460972960943e+01 1.9556167366620081e+00 1.4780737791618527e+01 0 1 1
1602 1 1.1859002276216504e+01 9.5758165761569103e+00 1.1887538805400933e+01 1 0 0
2189 1 1.8028884465416355e+00 6.1501216786294570e+00 1.4739369681815504e+01 0 0 0
3611 1 1.0752196926466544e+01 1.2098385854114516e+01 1.4217927694701356e+01 1 1 0
2967 1 7.6293751550632489e+00 5.7864522913405789e+00 1.5017491135415348e+01 0 0 -1
1544 1 4.7452636042448049e+00 5.8299238995066274e+00 1.4813401694222829e+01 1 1 0
1360 1 8.7822234082130013e+00 6.4069053019145636e+00 1.2463159575858818e+01 -1 1 0
2295 1 9.1820707522548997e+00 9.2843846024180046e+00 1.6261043757999182e+01 0 1 0
1375 1 7.3573056076177261e+00 1.0454771119457632e+01 1.4432326911263951e+01 -1 1 0
683 1 2.6631582021454769e+00 1.0674615068731020e+01 1.4673355651725297e+01 0 1 -1
1424 1 9.8228019123087869e+00 6.5688823492423261e+00 1.6223080343706531e+01 1 0 0
4388 1 8.1571647238385676e+00 5.4128934719439825e-01 1.1883638624802769e+01 1 1 0
1460 1 2.8193518173714809e+00 3.1979337716667500e+00 1.9051388636967232e+01 0 0 0
3727 1 7.0765760025507918e-01 3.8676116983942461e+00 2.1207286476872042e+01 0 0 -1
3649 1 7.4681854337509881e+00 3.4785111069937265e+00 1.8287146240408333e+01 1 0 -1
654 1 8.9949578789725191e+00 1.0561080566633219e+01 2.1210072276032967e+01 0 0 0
710 1 1.1192124128412319e+01 1.0454485489551242e+00 1.7967231993366354e+01 -1 1 0
1459 1 9.0087072751183559e+00 1.7461639166300960e+00 1.9807852621297450e+01 0 0 0
1478 1 2.5304537073127293e+00 4.8211988882466617e-01 1.8132046766509852e+01 1 0 1
2179 1 2.0977836637556502e-01 1.0753994238552618e+01 2.0674244429548452e+01 0 -1 0
2930 1 4.4370276407607570e+00 6.2525501646184773e+00 1.8112175947744582e+01 0 1 0
3058 1 2.1513371642954029e+00 6.5919848335318436e+00 2.0371532697661664e+01 0 0 0
1426 1 8.9042651439340030e+00 6.0139516846066980e+00 1.8823014022435956e+01 0 0 0
1481 1 4.3508361251923189e+00 1.0710867358302115e+01 2.1354881312007393e+01 0 0 0
4394 1 8.0058982578993199e+00 7.5994203792117823e+00 2.2116769716607962e+01 0 0 0
3749 1 1.2097595992986202e+01 8.9778597068751953e+00 2.4372614091942651e+01 0 0 -1
4434 1 9.1388100655993423e+00 8.8679117646424839e+00 2.4241454862162236e+01 0 0 0
3841 1 9.8924384690491207e-01 5.1763386930524709e+00 1.7781333619443927e+01 0 0 1
778 1 6.9547025466115526e+00 7.9031776618040217e+00 1.9240836737963811e+01 0 -1 -1
2218 1 8.2813723789321401e+00 1.1237867489290783e+01 1.8688087269702628e+01 0 1 0
3860 1 1.1356771573111406e+01 9.8387685747603317e+00 1.9614533458933536e+01 1 1 0
3080 1 1.6752432229294698e+00 1.2952074610779649e+00 2.2112792794971156e+01 -1 1 -1
661 1 4.2366532909188948e+00 1.0435936125381902e+00 2.3576504028625067e+01 0 0 0
1430 1 5.4279565066453888e+00 3.8471263510620335e+00 1.9995050051465142e+01 0 1 1
2837 1 7.9510166886604265e+00 3.1293922806296228e+00 2.3244348803191606e+01 0 0 0
681 1 6.0924793291337940e+00 1.7513237499708734e+00 2.1788203766785863e+01 0 0 0
13 1 5.2520019057050291e+00 6.5427184183266798e+00 2.1397659999740242e+01 0 0 0
3779 1 9.8918407400708048e+00 3.3544409090239320e+00 2.1655118244805415e+01 1 1 0
3030 1 5.4304770934851048e+00 1.1018762711384074e+01 1.8746544665618167e+01 0 0 -1
3074 1 3.8462680935449653e+00 8.7771576882036477e+00 2.3674664521571707e+01 1 1 0
831 1 2.8193780594691115e-01 4.7900500982254002e+00 2.3647616403161052e+01 1 1 1
4333 1 6.6919674294841185e+00 5.2315336176596388e+00 2.3576980860174231e+01 1 1 0
1595 1 1.0489581285600211e+01 5.9979238453389456e+00 2.0996291350543245e+01 1 0 0
3112 1 4.0223867813652552e+00 8.8431857564263012e+00 1.7614516500215061e+01 0 1 0
2852 1 2.2127765695023816e+00 9.3630722004573421e+00 1.9894404825858736e+01 0 1 0
1452 1 6.4398258573301383e+00 1.0391732309973428e+01 2.3787002367223010e+01 1 0 0
725 1 8.4692083694419873e-01 1.0893964126873918e+01 2.3348484772803133e+01 0 1 0
3747 1 2.7018152142127514e+00 5.9510470183049069e+00 2.4262923443372344e+01 2 -1 -1
2173 1 1.1912849069889349e+01 1.9067923075956303e+00 2.2966980671070445e+01 0 0 0
837 1 5.5416210681536153e+00 6.4218289139525098e-02 1.7806617126551473e+01 1 0 0
3888 1 4.4021271747233168e+00 3.6868394253996604e+00 2.4676934562977955e+01 1 0 0
726 1 1.1388047638035092e+01 1.0683205975728630e+01 1.7057496406044748e+01 1 1 0
4386 1 1.3341034460802166e+00 9.7620805154479982e+00 1.7101899790283678e+01 1 0 1
3775 1 4.1557393910163825e+00 4.1176335461525486e+00 2.7480646712857379e+01 0 0 -1
2845 1 9.2104889282005065e+00 2.1896508910970720e+00 2.5726765923078368e+01 0 1 -1
3865 1 5.2294894593038634e+00 8.7315963859430017e+00 3.1575661059051349e+01 1 1 0
3822 1 2.0475894426176873e+00 4.0254748075138931e+00 2.9198450124280349e+01 1 1 0
4380 1 2.8017258267013925e+00 6.8865114382317785e+00 2.6829748031963199e+01 1 1 0
1466 1 1.5360610481694323e-01 2.0932672673135322e+00 2.8618255174393227e+01 0 1 0
1511 1 1.0817623585980217e+01 1.1509209656557772e+01 2.4908206460805538e+01 0 1 -1
15 1 1.0074736471442684e+01 3.8089188053984322e+00 2.8555625294636478e+01 1 0 0
1394 1 8.8349792869796371e+00 6.2190573342806088e+00 2.8411216198956666e+01 0 1 0
1629 1 7.6394211171767266e+00 6.8478112669259934e+00 2.5928007335447589e+01 0 0 0
2839 1 2.7769967036611183e+00 1.0906304414145996e+01 2.9008264082368470e+01 0 1 0
3879 1 3.3695612584001372e-01 9.3929305259260794e+00 2.8826939340678770e+01 0 0 0
3799 1 1.1420185183663749e+01 8.7186659507855975e+00 3.1239237972860018e+01 0 0 0
3733 1 6.5596508584734945e+00 9.4945182012608367e+00 2.6597428204342052e+01 1 1 0
843 1 3.9241120973552412e+00 1.0702207030776592e+01 2.6274225324487197e+01 0 0 0
3680 1 7.0549661730629118e+00 1.1472478457069457e+01 3.1458863252517432e+01 1 1 0
1490 1 8.1474301512713865e+00 8.8925677585342928e+00 3.1608421294707995e+01 1 1 0
686 1 1.0011240436088560e+01 1.0847602675482582e+01 2.7474830308637415e+01 0 0 0
2917 1 7.5596811677661808e+00 1.1340798979322139e+01 2.8795445249615149e+01 0 0 0
1494 1 4.8206198409252865e-01 6.1903360575336217e+00 2.8569779816638516e+01 0 1 0
2222 1 2.6043720145768385e+00 3.4220101003711725e+00 3.1719907953529223e+01 -1 1 -1
1396 1 5.4642427242041727e+00 1.8060078641450956e+00 2.8546484031144502e+01 1 1 0
2395 1 5.1779590178762191e+00 1.9102406246599402e+00 3.1183699474880640e+01 1 0 0
3020 1 8.2218150973820201e+00 1.1445446200822793e+00 2.8177780862778704e+01 0 0 1
2935 1 8.2458434624946371e+00 1.3273157080867128e+00 3.1173761842994551e+01 -1 0 0
1614 1 1.0226089387204848e+01 3.3916274939184841e+00 3.1376112018056197e+01 0 0 1
732 1 1.0643929202985265e+00 6.8882863670779146e+00 3.1383174291271757e+01 0 0 0
3073 1 6.2075381124587485e+00 5.7199831008747735e+00 2.8714282859688076e+01 2 0 -1
873 1 6.2244410709307498e+00 4.6806563112439390e+00 3.1479029978735468e+01 0 1 1
4483 1 3.8386776221463039e+00 6.2709877692493183e+00 3.1569979133740297e+01 1 0 0
740 1 5.0168985957884535e+00 8.0977171629123017e+00 2.8714250445354004e+01 1 0 -1
1344 1 8.5912968096557787e+00 5.9490368346007889e+00 3.1416609360780271e+01 0 1 0
1349 1 2.9770374215511586e+00 1.0854850628473081e+01 3.1793949841766306e+01 2 1 0
2331 1 1.0929594575683984e+01 8.4480700293056472e+00 2.8281069808415801e+01 0 0 0
2856 1 1.0934638376265612e+01 2.0328652593041704e-01 2.4726318542022916e+01 1 1 0
29 1 1.2379690113724042e+00 8.8283162056511770e+00 2.5615626347959591e+01 0 1 0
4378 1 1.1749813600524575e+01 1.1277428398124995e+01 3.1552858335733177e+01 -1 0 -1
137 2 0.0000000000000000e+00 1.2787731112280996e+01 3.2113942724178632e+00 0 0 0
139 2 1.2305000000000001e+00 1.3498160618518829e+01 3.2113942724178632e+00 0 0 0
174 2 2.4610000000000003e+00 1.2787731112280996e+01 3.2113942724178632e+00 0 0 0
176 2 3.6915000000000004e+00 1.3498160618518829e+01 3.2113942724178632e+00 0 0 0
135 2 0.0000000000000000e+00 1.5629449137232333e+01 3.2113942724178632e+00 0 0 0
170 2 1.2305000000000001e+00 1.4919019630994494e+01 3.2113942724178632e+00 0 0 0
172 2 2.4610000000000003e+00 1.5629449137232328e+01 3.2113942724178632e+00 0 0 0
215 2 3.6915000000000004e+00 1.4919019630994494e+01 3.2113942724178632e+00 0 0 0
219 2 4.9220000000000006e+00 1.2787731112280996e+01 3.2113942724178632e+00 0 0 0
221 2 6.1524999999999990e+00 1.3498160618518829e+01 3.2113942724178632e+00 0 0 0
266 2 7.3829999999999991e+00 1.2787731112280996e+01 3.2113942724178632e+00 0 0 0
217 2 4.9220000000000006e+00 1.5629449137232333e+01 3.2113942724178632e+00 0 0 0
262 2 6.1524999999999990e+00 1.4919019630994494e+01 3.2113942724178632e+00 0 0 0
264 2 7.3829999999999991e+00 1.5629449137232333e+01 3.2113942724178632e+00 0 0 0
268 2 8.6135000000000002e+00 1.3498160618518835e+01 3.2113942724178632e+00 0 0 0
313 2 9.8440000000000012e+00 1.2787731112280996e+01 3.2113942724178632e+00 0 0 0
315 2 1.1074500000000002e+01 1.3498160618518829e+01 3.2113942724178632e+00 0 0 0
309 2 8.6135000000000002e+00 1.4919019630994494e+01 3.2113942724178632e+00 0 0 0
311 2 9.8440000000000012e+00 1.5629449137232328e+01 3.2113942724178632e+00 0 0 0
351 2 1.1074500000000002e+01 1.4919019630994494e+01 3.2113942724178632e+00 0 0 0
166 2 0.0000000000000000e+00 1.7050308149707998e+01 3.2113942724178632e+00 0 0 0
211 2 2.4610000000000003e+00 1.7050308149707998e+01 3.2113942724178632e+00 0 0 0
164 2 0.0000000000000000e+00 1.9892026174659328e+01 3.2113942724178632e+00 0 0 0
168 2 1.2305000000000001e+00 1.7760737655945832e+01 3.2113942724178632e+00 0 0 0
207 2 1.2305000000000001e+00 1.9181596668421495e+01 3.2113942724178632e+00 0 0 0
209 2 2.4610000000000003e+00 1.9892026174659328e+01 3.2113942724178632e+00 0 0 0
213 2 3.6914999999999996e+00 1.7760737655945832e+01 3.2113942724178632e+00 0 0 0
254 2 3.6914999999999996e+00 1.9181596668421495e+01 3.2113942724178632e+00 0 0 0
258 2 4.9220000000000006e+00 1.7050308149707998e+01 3.2113942724178632e+00 0 0 0
305 2 7.3830000000000009e+00 1.7050308149707998e+01 3.2113942724178632e+00 0 0 0
256 2 4.9220000000000006e+00 1.9892026174659328e+01 3.2113942724178632e+00 0 0 0
260 2 6.1524999999999999e+00 1.7760737655945832e+01 3.2113942724178632e+00 0 0 0
301 2 6.1524999999999999e+00 1.9181596668421495e+01 3.2113942724178632e+00 0 0 0
303 2 7.3829999999999991e+00 1.9892026174659328e+01 3.2113942724178632e+00 0 0 0
347 2 9.8440000000000012e+00 1.7050308149707998e+01 3.2113942724178632e+00 0 0 0
381 2 1.2304999999999998e+01 1.7050308149707998e+01 3.2113942724178632e+00 0 0 0
307 2 8.6134999999999984e+00 1.7760737655945832e+01 3.2113942724178632e+00 0 0 0
343 2 8.6135000000000002e+00 1.9181596668421495e+01 3.2113942724178632e+00 0 0 0
345 2 9.8440000000000012e+00 1.9892026174659335e+01 3.2113942724178632e+00 0 0 0
349 2 1.1074500000000002e+01 1.7760737655945835e+01 3.2113942724178632e+00 0 0 0
377 2 1.1074500000000002e+01 1.9181596668421495e+01 3.2113942724178632e+00 0 0 0
201 2 0.0000000000000000e+00 2.4154603212086325e+01 3.2113942724178632e+00 0 0 0
203 2 0.0000000000000000e+00 2.1312885187134999e+01 3.2113942724178632e+00 0 0 0
205 2 1.2304999999999993e+00 2.2023314693372832e+01 3.2113942724178632e+00 0 0 0
246 2 1.2304999999999993e+00 2.3444173705848499e+01 3.2113942724178632e+00 0 0 0
248 2 2.4610000000000003e+00 2.4154603212086325e+01 3.2113942724178632e+00 0 0 0
250 2 2.4610000000000003e+00 2.1312885187134995e+01 3.2113942724178632e+00 0 0 0
252 2 3.6914999999999996e+00 2.2023314693372832e+01 3.2113942724178632e+00 0 0 0
293 2 3.6915000000000004e+00 2.3444173705848499e+01 3.2113942724178632e+00 0 0 0
295 2 4.9220000000000006e+00 2.4154603212086325e+01 3.2113942724178632e+00 0 0 0
297 2 4.9220000000000006e+00 2.1312885187134995e+01 3.2113942724178632e+00 0 0 0
299 2 6.1524999999999990e+00 2.2023314693372832e+01 3.2113942724178632e+00 0 0 0
335 2 6.1524999999999999e+00 2.3444173705848499e+01 3.2113942724178632e+00 0 0 0
337 2 7.3830000000000009e+00 2.4154603212086336e+01 3.2113942724178632e+00 0 0 0
339 2 7.3829999999999991e+00 2.1312885187134999e+01 3.2113942724178632e+00 0 0 0
341 2 8.6135000000000002e+00 2.2023314693372832e+01 3.2113942724178632e+00 0 0 0
369 2 8.6134999999999984e+00 2.3444173705848499e+01 3.2113942724178632e+00 0 0 0
371 2 9.8440000000000012e+00 2.4154603212086336e+01 3.2113942724178632e+00 0 0 0
373 2 9.8440000000000012e+00 2.1312885187134999e+01 3.2113942724178632e+00 0 0 0
375 2 1.1074500000000002e+01 2.2023314693372832e+01 3.2113942724178632e+00 0 0 0
395 2 1.1074500000000002e+01 2.3444173705848499e+01 3.2113942724178632e+00 0 0 0
138 2 0.0000000000000000e+00 1.2787731112280996e+01 6.2288770168312242e+00 0 0 0
175 2 2.4610000000000003e+00 1.2787731112280996e+01 6.2288770168312242e+00 0 0 0
447 2 0.0000000000000000e+00 1.2787731112280996e+01 9.2463597612444488e+00 0 0 0
448 2 1.2305000000000001e+00 1.3498160618518829e+01 9.2463597612444488e+00 0 0 0
466 2 2.4610000000000003e+00 1.2787731112280996e+01 9.2463597612444488e+00 0 0 0
467 2 3.6915000000000004e+00 1.3498160618518829e+01 9.2463597612444488e+00 0 0 0
136 2 0.0000000000000000e+00 1.4208590124756663e+01 6.2288770168312242e+00 0 0 0
171 2 1.2305000000000001e+00 1.4919019630994494e+01 6.2288770168312242e+00 0 0 0
173 2 2.4610000000000003e+00 1.4208590124756663e+01 6.2288770168312242e+00 0 0 0
216 2 3.6915000000000004e+00 1.4919019630994494e+01 6.2288770168312242e+00 0 0 0
446 2 0.0000000000000000e+00 1.5629449137232333e+01 9.2463597612444488e+00 0 0 0
464 2 1.2305000000000001e+00 1.4919019630994494e+01 9.2463597612444488e+00 0 0 0
465 2 2.4610000000000003e+00 1.5629449137232328e+01 9.2463597612444488e+00 0 0 0
487 2 3.6915000000000004e+00 1.4919019630994494e+01 9.2463597612444488e+00 0 0 0