LAMMPS data file via write_data, version 29 Oct 2020, timestep = 150000

6337 atoms
2 atom types

0.0 49.22 xlo xhi
0.0 49.019635930410494 ylo yhi
2.621946177874552 57.44005382212312 zlo zhi

Masses

1 18.015
2 12.01

Atoms # atomic

1721 1 19.049567414794712 17.575122299710294 18.928140033578128 0 0 1
3448 1 4.206730031405009 21.84995755553519 9.859073789026993 1 0 0
6043 1 4.362423575065747 23.131342995031172 19.869416930224247 1 -1 1
3295 1 6.976173716804909 1.9101441527417506 7.343398474929004 0 0 0
448 1 15.133573842133755 4.026194271966142 5.297890171553501 0 1 0
1601 1 0.9389547610549491 20.34543830334237 3.0471847702319232 0 0 0
315 1 15.628431157297882 20.472276107147533 3.4340850963224856 0 0 0
4991 1 19.65137407714796 0.5187228702640131 7.667947968657568 0 1 1
5089 1 22.222295126274034 22.465353734214403 16.36390805488496 0 0 0
1820 1 17.156357875763568 1.0644447265723358 4.051770055740276 0 0 0
399 1 9.371292781739458 2.977881211509863 4.592071615383145 0 0 0
6252 1 1.1916797048456325 1.202653363412088 6.627995309500677 0 1 1
137 1 5.48559045885419 4.1294057647031215 3.772787757980243 1 0 0
4894 1 7.693239590003394 0.5052953432470064 5.189508466844433 1 1 1
1296 1 18.978420505575542 13.909738384419887 3.6606210708151465 0 0 1
3139 1 9.720342554110923 6.899486683290941 5.676889786460522 1 1 1
4552 1 15.705885828089407 1.5930076265320965 7.208097601188022 1 1 1
3039 1 17.68286038614188 5.023949989499642 4.431834947499032 0 0 1
1825 1 16.272835527011182 22.47737697375585 16.720448749816832 0 0 0
1736 1 12.921216756397158 1.313780327431532 14.302207789049836 1 1 0
6047 1 22.05188342468647 1.3444210814752373 6.32626226009279 0 1 1
1277 1 24.58794532298718 14.756877323662026 8.95041619506927 1 0 1
1259 1 3.773144104813164 6.545249806555637 3.8017162151175734 0 1 1
5167 1 5.798334992964528 24.13474012868169 11.613830732152925 0 0 0
4903 1 24.586874925553197 18.98635638470554 16.484886580462742 1 1 1
2167 1 7.067470058705512 9.558359865154506 5.422153893382345 1 0 1
4949 1 11.798236306889857 8.660421288325516 4.460024290585983 1 0 0
2863 1 14.722434199708578 0.08235419027730728 16.11718284081272 1 0 1
4549 1 12.192267216932681 5.784800258772166 9.123772715259612 0 0 1
5053 1 13.635917604468787 10.277401777198902 5.968330754211378 0 1 0
1724 1 17.23422825705954 9.709208400658499 3.8641946096745503 0 0 0
5054 1 0.5807538641373082 7.921454603890119 9.806902608065606 1 1 0
5000 1 0.2050376846409923 17.56686065166498 3.466215826945634 1 -1 0
3620 1 9.212087020758581 23.70894675645109 14.065811537059744 1 0 0
1896 1 6.909791790933176 23.992352355532585 19.416160299992193 0 0 0
124 1 2.8144083440118512 9.410058415124874 3.6236416610474897 0 1 0
1878 1 9.70320604711061 22.484605727467233 5.5317036160690165 0 -1 0
4499 1 6.229643047343497 9.224066348188424 3.030927613818269 0 1 1
1525 1 8.726930031621565 11.736841735142761 5.530479091554426 0 0 0
3108 1 7.895169975224617 22.192310123573694 17.38142849389594 0 0 1
4791 1 10.258845150981292 10.415383167490242 3.2865585366761674 1 0 1
3741 1 7.042724756698464 4.062931968516777 20.036466363853886 -1 0 0
1257 1 15.219824180803442 11.397793750078197 4.173173287662227 0 1 1
1796 1 15.321300108025705 23.214792028777772 10.50257611868523 1 1 1
267 1 20.275947834585367 20.32178128236583 16.70321028054489 -1 -1 0
6180 1 3.2829778170687107 17.012935901533925 3.1567036554792747 1 0 1
435 1 8.031613650050788 15.551739442530275 7.38612139025601 0 0 0
1436 1 6.1071466701879045 15.955515471778234 2.912758403256908 1 0 1
3427 1 24.285077094425443 16.583676846003154 3.465427033713195 0 0 0
1713 1 11.184953484951722 16.036966358305328 7.580984856190554 0 0 0
5105 1 17.966588375612655 19.989198302415012 6.216331992233483 0 1 0
70 1 15.731266615452066 15.321084834129318 6.730743579616684 0 1 1
4561 1 19.857935686814937 16.572973291166996 3.5582722245526526 0 1 1
220 1 1.0553176616477642 12.955945308172366 16.758364509019835 0 1 1
5983 1 8.468464710719847 23.567463004048786 11.298801417824768 0 0 0
1654 1 6.765449406309512 19.074148832808795 5.80967512383396 1 0 0
5109 1 11.303475836716586 18.80704187979441 7.397307196624214 1 1 0
3669 1 7.330044810219005 22.83796200889024 4.139586522903162 0 1 1
1646 1 21.064650213159137 17.06847765810175 5.88239504424474 0 0 1
4937 1 18.09824587821835 23.117610041253872 7.2469460587376044 0 1 0
5230 1 19.006712771908973 0.7656051035923233 18.913487280438293 1 1 1
3261 1 1.793035026066597 24.150412992336495 4.623493153247613 1 0 1
512 1 20.625221977361125 20.152895797609986 5.872540543418408 0 1 1
3588 1 4.433856875732383 12.848735395931453 18.778729526361552 1 0 0
141 1 6.808225020296875 9.998119957246423 19.70791863060452 0 0 0
5200 1 0.5393224154548832 24.277160181124888 17.879938563802916 1 -1 0
2139 1 9.473250093044113 19.60172390015549 5.4987077052531355 0 0 1
5050 1 1.208253438172179 6.633851271323977 12.464098278514623 1 0 0
112 1 23.003690376724382 2.9195592666977253 8.385581125886635 0 0 1
3175 1 13.62394101529634 4.678015018802974 3.2023027809767295 1 0 1
370 1 24.527224839723083 21.317622754342448 3.6302255024803287 0 -1 1
286 1 5.25246005316524 3.0261058366730023 11.395056530616989 0 1 1
273 1 3.2411542618180205 23.311506103095812 17.455072088434285 0 -1 0
1355 1 16.99904539220897 23.399256439331708 19.68850440960487 0 -1 1
3499 1 12.696257425176162 2.4264978508441795 5.70133577451645 0 1 0
1672 1 10.354901340147029 1.1209630933228805 10.26120802134595 0 1 1
3397 1 0.2882528965406746 21.59112227865292 7.380213293588953 1 0 0
1719 1 18.06522951469646 2.5772196782207777 6.181869767413823 0 -1 0
2124 1 18.580726244373594 1.7615753867234392 9.920827599418725 0 1 0
5285 1 4.958672837853182 0.8567153366209689 17.840049306049135 -1 0 0
26 1 24.584177166744464 22.040191920974575 17.775996463152545 -1 0 1
2951 1 4.047566726254142 4.926310673373138 9.566866356118776 0 0 0
1750 1 6.665785461633008 6.321915182289807 9.271292653945883 0 0 0
319 1 5.2213951983410265 4.375638887773918 6.894583321850531 0 0 0
6153 1 8.753294439053597 5.2342482697409425 10.475722029288423 1 0 1
3490 1 10.901775224577149 4.393642947710717 6.718173003953531 0 0 0
1562 1 15.87066443026023 9.421560965437031 10.259069277597746 1 1 0
4899 1 15.425380917641748 8.962190870965602 7.44324985249566 0 0 0
1458 1 16.22155209871783 3.1506958396768874 9.584188471730126 1 1 1
3377 1 19.38754345135718 5.2104074614606635 7.310361474627816 0 1 1
1385 1 2.5896902131401744 3.824326406602308 6.064553085601309 0 0 1
1498 1 21.93877130315334 5.60887755938861 8.546332251534668 0 0 1
4707 1 0.7810370053984736 5.970773592596298 6.51356960496522 0 0 1
2111 1 4.844017205070166 7.01149842513124 6.29302059740051 0 0 0
3092 1 7.915918822223793 7.749793778122563 7.084539357606032 0 1 1
5116 1 9.011538606030634 9.38874397340075 9.081904808878114 1 1 0
1662 1 11.631713544415105 2.5223609984274313 2.811500216996019 0 1 0
3574 1 14.306425691460689 6.317597121083676 7.352712260258761 0 0 0
6082 1 22.084441421629368 8.005083701212078 6.842667686683806 0 0 1
402 1 2.8583303413489696 7.44222837999454 8.10551135084565 1 0 0
5122 1 0.659520592803832 12.131788480996375 6.80131557909048 1 1 0
1680 1 2.565532352206241 9.70089588886331 6.467132939830489 0 0 0
3208 1 8.85654525842985 13.694243085748743 9.358997288800591 0 1 0
3596 1 9.76396278688389 11.809067883963232 8.000231773182561 1 0 0
3141 1 12.377191112217707 12.376919543192123 7.57690210786056 0 0 0
3524 1 19.102113388725957 11.930951032356436 7.184896080911529 0 0 0
2943 1 17.83594507047633 9.488676812710075 6.478867383079276 -1 0 1
1895 1 20.91553069444587 12.182130315255868 4.755712394272438 0 1 0
5140 1 19.47949504556588 7.351379648655338 5.5689011055973285 0 1 0
3338 1 20.888982290909123 10.120411746253152 8.193395239517969 1 0 0
1832 1 4.946125888705631 13.229235966505964 4.66606062761866 1 0 0
5224 1 7.773264625403489 14.139168548464571 4.643266787601238 0 0 1
260 1 3.3682865723553417 15.253680669604954 5.660070907308441 0 0 0
208 1 8.19670722925625 16.698618591669458 12.079119278620185 0 1 0
3462 1 10.224971503255258 15.340198399147999 10.936821749121226 0 0 1
357 1 13.04022013236328 16.13854033192853 9.937799715042233 0 0 0
3450 1 17.04803387487784 17.458989000371687 7.521769465945528 -1 0 0
3494 1 17.183674090759162 13.040652105172242 5.400611859235349 0 0 0
11 1 15.967152219613446 20.50041136524949 20.153404813114342 0 1 0
1594 1 5.098491253222464 0.8538215743619343 9.440549960180427 0 0 1
1668 1 4.235997929331652 17.71806486194939 7.139772260493459 0 1 0
6307 1 3.1790422778155296 19.099282403815383 4.968329290958247 0 0 1
5113 1 6.834696445678494 17.9057249733995 8.545726006440823 1 0 0
333 1 5.768434585988645 16.423178350464994 10.58987755624445 0 -1 0
1319 1 12.368209802548854 20.14510950582166 11.796059224504049 0 0 1
1602 1 13.627545344122302 20.608584945105182 7.261977566250859 0 1 1
1480 1 19.574665791168176 16.432025315622713 8.075338992018086 0 0 0
6332 1 16.087379569198543 21.446164401730563 8.316369223946754 1 0 1
3159 1 21.906948589323736 22.047598869173548 7.448242744947641 0 0 1
86 1 12.657511494241458 22.701452212705796 5.7927298148688156 1 0 0
30 1 0.6376681842074895 8.5360573782875 16.62978685432815 0 0 0
1774 1 9.652839156768994 18.454220621185012 9.554259260270651 0 0 0
2913 1 9.179674800999162 22.387731165871667 8.513471452109318 0 0 1
3089 1 12.938431381965549 1.7602549735911543 11.620463080112476 0 0 1
2027 1 21.76513694892845 24.380063233226963 20.041598661985883 0 0 0
6331 1 20.15059478172326 23.923548507215767 9.090651288018439 0 1 1
5177 1 13.718702983951939 4.014016067186003 10.513923085736767 0 1 0
4453 1 24.377521934931057 12.90315204199673 4.750904050280576 0 0 1
3520 1 0.9114776268493704 15.636295479739653 14.942610609479404 1 0 0
5 1 21.811854134748156 2.5385730124290906 3.885540990443502 -1 0 1
5092 1 5.296695855838157 20.887704490939228 3.735594647257523 1 0 0
1424 1 4.029521089679093 23.545452050094834 3.289292376310758 1 0 0
5097 1 16.117762286805952 16.94425836978442 18.329463981415756 0 0 0
3304 1 24.435047393699644 22.011038299991622 11.59090732845575 0 0 1
206 1 22.713284500813273 1.7677107443243592 10.892410475292134 0 1 0
428 1 20.33492166948831 2.0507738712115513 11.930386884634453 0 0 0
55 1 19.42870047246878 12.097071251262152 19.454421489612383 1 0 0
1397 1 7.37618787754037 4.5318832744038255 12.636012959423155 0 0 0
3120 1 10.315643249885724 7.484099788293144 10.592773387831901 0 1 0
398 1 9.25730006651637 3.0492057378136743 8.460343793640021 0 0 0
3412 1 14.031109359655062 7.876817980130878 12.142283302970611 1 0 0
3202 1 17.930450943675158 7.398741755784441 10.34299473430081 0 1 0
135 1 16.87481242695268 5.590355391338617 8.657373575733985 0 1 0
4931 1 3.679998525143483 7.696734054017562 11.153896240156982 0 0 0
4709 1 23.147300757197712 7.661014257766809 17.315230187069456 0 0 1
5077 1 6.237143522487373 8.170048488547081 11.61372390723794 1 1 0
6250 1 6.638956070047165 6.879314851744174 14.072463155535008 0 1 1
3478 1 6.964244362073678 10.794735590580748 10.451154535536245 0 0 0
1543 1 11.435977153178955 8.032142236987148 12.912946893134231 0 0 1
263 1 16.87591444509738 11.217594389534524 12.014898644276785 0 1 0
85 1 19.603186027519715 10.582756628592298 12.226240199484936 1 0 1
5203 1 20.44152283641326 8.652681346379248 10.40809573441009 0 0 0
2121 1 22.859882910780435 7.066580693707839 10.816341717833827 0 0 0
1688 1 8.7108030881966 0.5692412603860474 12.66170266304222 0 0 0
3348 1 1.7514284847999293 12.27072706520025 10.671883292344079 0 0 0
118 1 4.875177348236481 11.16583816606977 6.743244198276136 0 0 0
172 1 4.394451940269846 12.351435577654929 9.140845477628751 1 0 1
2013 1 14.406142429272826 13.956003140246303 8.852968202011906 1 1 0
147 1 16.82635263398566 13.84079030701583 10.789714074532585 0 0 0
3356 1 18.609769149332024 13.599589034163373 13.544629014133388 -1 0 0
4778 1 21.899746817921177 13.30485951825812 7.963969698312918 1 0 1
3644 1 19.109456562527416 14.005472284509494 9.243540569614343 0 0 0
6321 1 0.28538595844793135 15.802887845646309 9.952831089147672 0 0 0
3493 1 1.9162595827487525 14.264315121080264 8.290298950037318 1 1 0
3553 1 2.4596637041157816 20.213916879564678 11.585034687976421 0 0 1
3131 1 4.528477453207637 12.854239330174693 13.301868786167184 0 0 1
4484 1 14.137762916556474 14.803070052833341 12.6121238652729 0 1 1
1526 1 14.213512297117195 17.52758734610917 13.472268543712156 0 1 1
419 1 21.181550640021513 16.125166911469496 12.27353474329916 0 0 0
3339 1 16.997442473978207 0.1780111255740735 13.877437696584776 1 0 0
6000 1 23.41458914156676 13.174905695689182 11.246199697046643 -1 1 0
1988 1 3.875560998246538 12.17123406145457 16.16512882433034 0 0 0
4996 1 0.05304795400682773 6.172701326322451 3.7597717036874294 1 -1 0
1500 1 12.792459886301232 24.380265712400163 9.78484610309641 0 1 0
1723 1 4.768751164783398 18.477851813005362 12.561883443400571 0 0 1
5070 1 14.408364541542456 18.436113998499934 10.959479919814893 1 1 0
5184 1 14.910325589251087 21.67735731914438 12.676191002845577 1 0 0
2073 1 11.851335927040289 22.20871461835268 14.147175736730704 1 0 0
3518 1 20.287052413228214 17.777553290053753 10.168608392638754 0 0 0
87 1 19.03838568532761 19.489884080788816 12.239851404145456 0 0 1
3451 1 21.894396312289544 19.967957325851966 9.589052598502747 0 0 0
4740 1 9.941587278804798 19.04961196397461 2.810381295152813 0 0 1
4795 1 1.5485711808092675 21.913886173668995 13.350515778787344 1 0 0
438 1 19.947764578478775 0.8466983238214579 3.068345994367001 0 0 1
2115 1 5.899660745318812 21.332033438161634 12.797802900649188 0 0 1
1515 1 7.505964201849189 20.76638603990392 10.277565471292395 1 1 1
1841 1 9.676580359128256 18.91446170661402 12.542643025067775 0 -1 0
100 1 12.601355468191658 19.579033385418118 18.589583854664134 0 0 0
1801 1 2.0681353147047914 12.200393598192694 4.056438214473792 0 1 0
5136 1 16.911685576992177 19.339041282104223 9.937701162452298 0 1 0
1897 1 11.260501504405335 22.163785924167616 20.34990659897168 0 -1 0
2083 1 17.937845873839617 22.00342129715739 12.790247637595765 0 1 0
2152 1 22.12567436680341 4.75639597067722 19.336278570400108 0 1 0
1913 1 4.809385901514553 0.617513108476253 2.7065887798627517 1 0 0
1475 1 15.138114331524445 18.714789926331996 5.524748318295334 0 0 1
1264 1 16.580173035974102 4.008477770728784 16.62850517591052 0 0 1
289 1 21.2707132823222 9.446306622776822 3.8293541987505715 0 0 0
1533 1 2.7164960885207017 20.34371285342809 8.018812637818812 0 0 0
4933 1 8.1405628265813 19.92708415738982 20.22737682590825 0 0 0
6026 1 14.910940530355164 5.301413232599966 13.009929160555124 0 1 1
2887 1 18.1219743660298 23.35384432535784 4.307682917707031 0 0 1
1754 1 2.9021103129740715 2.5082219935931747 3.83549545722793 0 0 0
330 1 20.372213516591604 1.241452764682777 16.37598634209284 0 1 0
1945 1 3.9334248758204433 6.731163570070181 14.192695654648283 0 0 0
2120 1 4.199539701500459 5.992792361220548 16.853212614695636 0 1 1
337 1 6.722086270461419 4.869324175339824 17.04085222715478 0 0 0
1815 1 9.369360387974446 6.212685203003888 17.087571463558447 0 0 0
4437 1 8.950672395883442 3.11418318591553 14.52106429640269 1 1 1
2040 1 12.753259394037904 3.1573041011643364 16.70494195516408 0 1 0
5161 1 17.693617733987796 6.1228305892732875 12.939171580921581 -1 0 0
4878 1 19.701615834522457 4.33678879093339 13.47614907320288 0 -1 1
1830 1 0.9194924493656655 10.826885927704236 15.254023244648247 0 1 1
3445 1 3.1900859373893913 9.370397480674015 14.396530736109508 0 1 0
3529 1 13.061985822135886 5.694050207078386 15.443588401130953 0 0 1
1833 1 10.527277004195483 5.793660513368569 14.467372115492212 0 1 0
3119 1 15.633755052109503 11.339424953898837 14.651785845169892 0 1 0
108 1 15.231402955419728 8.533186856085248 14.87993946560481 0 0 0
4689 1 19.96753397098027 9.640629329174052 14.80066594911467 1 0 1
5275 1 17.78085369525158 8.032299534067873 15.439807626920894 0 0 0
45 1 22.317834694246656 8.222460644629374 14.736522838290806 0 0 1
4908 1 21.892568995249995 5.943311768357141 13.477104464113475 0 0 0
5035 1 2.304620649926467 14.399380543612642 19.912751447381183 -1 0 0
4982 1 0.3526297692489194 6.100584951094171 15.48310464926179 1 0 0
4918 1 7.162394845356337 13.034168292665676 15.04924453476524 1 -1 0
5057 1 3.682838379286858 10.416718447801633 11.742350123375891 0 0 0
4972 1 11.131834441515956 10.27834780425945 14.729902545453704 0 0 0
3506 1 10.624672506387757 13.309130804934656 12.868069146739998 0 0 0
6268 1 10.369635572096648 12.38688904336749 17.28426737527382 0 0 0
1791 1 12.982504166602181 12.368159446914047 14.253571349645041 0 1 1
5155 1 19.83698289096257 12.2691775207346 15.688789248811164 0 -1 0
502 1 20.54885746406189 13.4240905498577 11.633637617273843 0 1 1
3130 1 23.54165233971151 11.205163456666998 8.950693470026787 -1 1 1
5091 1 1.541275259329446 0.8496015883531249 14.112151532609655 1 1 0
1927 1 23.14770694773871 23.224754932488274 13.641867615256078 0 0 0
282 1 1.2823850216130317 17.483014135650066 11.902158370151398 0 0 0
395 1 5.842782682882493 13.798734515449624 11.03017335861561 0 0 0
3658 1 3.4843300672657342 15.862992345967847 13.226668641115765 0 0 0
121 1 11.502739938421229 17.70831553795524 14.229299857033933 0 0 1
3241 1 7.539931069459571 14.38806263863563 18.535100977649435 1 0 0
5039 1 15.872042133521122 14.68661064842595 16.786362113352155 1 0 0
3352 1 13.346436452077972 13.872671245354848 16.768344644636844 1 0 0
5195 1 19.836717131763265 15.934405165646472 14.70804520052994 0 0 0
6275 1 21.160185459631492 16.52279481713146 17.22369299845078 0 0 1
3464 1 11.649772779010805 17.10222294016989 19.332884518746575 0 1 1
238 1 8.755070621427388 15.196064621676515 14.728176455323286 0 1 0
31 1 7.12521496656114 18.500603087526436 17.78993160643121 0 0 1
6322 1 8.50394138201223 20.723989435742133 14.430452250739974 1 0 0
2037 1 11.647874481657617 16.17603166539986 16.6107176854708 1 0 0
1970 1 17.661961511953017 17.78768764144872 14.311104423480112 0 0 0
3565 1 16.47218865382661 15.145309448457333 14.079596969611188 0 -1 0
227 1 17.609546421862454 19.03787876568153 16.602533402256682 0 -1 0
4665 1 21.245189318731665 18.565758756721248 14.553989840346887 0 0 1
2077 1 21.541292847690652 20.992305038134194 12.298509222347272 0 0 0
1935 1 0.6436814860781159 20.29088256828935 15.720911186389387 0 1 0
3247 1 4.541773932407974 17.35225452366041 18.467514265007356 0 0 1
355 1 15.577706228590547 2.7903031736164303 14.376457519661773 0 0 0
3554 1 3.484623907118909 20.83275505244073 15.845838268490153 1 -1 0
6046 1 6.178410530320462 16.922414597037193 14.693149571721591 0 0 0
4570 1 6.055089255816333 19.814424192875563 15.620743564707329 1 0 1
3018 1 11.449539013195778 20.08154267057147 15.829547497661432 0 0 1
1699 1 18.78146631544715 22.47023646877665 15.394718936068415 1 0 1
397 1 14.48522800550736 23.889897132674815 15.038904753445472 0 0 0
2014 1 15.1564853496161 20.102484404775602 17.489010905213597 0 -1 0
2011 1 20.518564961701482 20.297561228660115 19.62176213461022 0 0 0
129 1 0.02927630203335443 6.0080395556321005 20.434084341275387 1 1 1
1429 1 8.095532918624144 5.418867713984994 3.871515735284081 0 0 0
92 1 0.680266241379489 15.839518360866709 17.931593952070294 0 0 1
223 1 23.173087310063615 12.021003737892201 19.10216054253522 1 1 0
2101 1 4.591321675251903 2.8641290926716505 19.68832256887898 1 0 0
1968 1 13.683933485552258 2.626387569746779 19.299975134711712 0 1 0
2009 1 23.294612491700143 15.204181938593287 6.110837048148946 0 0 0
148 1 16.245618108282667 1.566165797493421 18.203406514762563 0 1 0
5188 1 1.6014809128225582 13.277626038746254 13.268100559743651 1 1 0
5245 1 21.798774909815133 20.880617261651132 3.372537321723245 0 -1 1
1762 1 12.198395821584171 14.149239602859753 5.335137258516359 0 0 0
1942 1 21.672687035748176 1.9065853240541135 19.575581197331974 0 1 0
4850 1 11.897089055629836 12.567092807487436 2.99156611352648 1 1 0
264 1 19.645548068109335 22.859106664750964 20.546876507921528 0 0 0
3177 1 2.87033130683734 3.4417202617410974 17.561388946410617 -1 1 0
2008 1 7.759322235186987 9.192072097858667 15.625299196617704 1 0 0
217 1 10.093120341057329 2.3784535639389213 16.943462983156877 0 0 1
1873 1 9.634807153454835 4.248921714379694 18.99490009761354 1 0 1
1926 1 13.282525764804415 7.96975711427141 17.094815007940014 0 1 0
3150 1 3.9889100612482045 23.479313168797674 14.126929722114578 1 0 0
4983 1 20.36208505103892 6.236254423689798 17.647651219564757 0 0 0
1822 1 19.364553550471644 4.063882567753304 16.219544846722442 0 0 0
1929 1 11.790052461639508 21.658311286203155 9.394206460269515 0 0 0
3072 1 17.675567019574324 17.753437379215782 3.2643346394834323 1 0 1
3512 1 8.713832011211606 11.182990126868143 13.168202515586817 1 0 0
4965 1 24.116762181781407 14.993298898525717 13.343248233752734 0 1 0
1268 1 0.5356614864333865 16.29317520972682 5.8931186010943275 0 0 1
294 1 10.438433439811202 8.95706425130702 17.13679089800189 -1 1 0
6256 1 15.037247484716259 10.574328140857101 18.09860885248224 0 1 1
2170 1 10.547842983828618 22.64867586450037 17.463600465203974 -1 0 0
253 1 17.970527678989633 7.572776366319381 18.205253255857976 0 1 0
2981 1 15.444203031491531 6.451285307224533 17.94931086504178 0 0 1
73 1 18.6006008669821 9.492597779399736 20.079557228577244 0 0 0
4577 1 20.73584761980477 5.259305136192942 3.985956140595272 0 1 1
404 1 1.3818820750861687 4.447960677694478 11.145231392055491 0 0 0
5127 1 3.1895219920650217 8.232324663720519 18.275774580925813 0 0 0
212 1 4.996936842260366 9.694597172584668 16.632519066058308 0 0 0
6335 1 7.558006352438003 11.72681556918007 17.567914135154318 0 0 1
52 1 23.84937533935649 17.91210376455788 13.737725270097158 0 1 1
4856 1 15.650717170983071 10.079918913684377 20.571554638219524 1 0 1
6003 1 17.243209837694707 12.29867290728078 17.285399702406817 0 0 1
354 1 21.29920823570307 13.559597204384394 17.573058070174646 -1 0 0
5062 1 11.549197143044148 6.166231201783842 20.079853163143053 1 1 0
1875 1 23.874875599882138 13.574288734243785 15.90421816497439 0 0 0
1697 1 5.4724529820453744 15.20739771298108 16.90092758095143 1 0 1
3504 1 8.701780927216157 16.209596501675083 17.17187450278454 0 1 0
6317 1 12.677772758075662 12.307943735859078 19.37134746198199 1 0 1
4971 1 6.468833487157998 2.3025057559059587 15.716043478891017 1 0 1
1284 1 0.6372347232840203 24.161489901523762 8.254987840526848 1 -1 0
343 1 14.111178937916899 16.189097905211337 4.542223455038664 0 1 0
3469 1 23.80829697683944 16.89016355190029 18.012343862257605 0 -1 1
288 1 19.23972438863556 24.324851566967947 11.542558894127378 0 0 0
1947 1 2.1174775686611094 18.527847919440813 17.83829556611505 0 0 0
396 1 11.486851939689295 9.432882117971257 19.75930896591804 -1 -1 0
4482 1 14.871208416494353 23.33478156347314 4.048527197833773 0 1 1
3282 1 23.822284390536396 22.933315479866067 5.713873270184449 0 0 0
418 1 4.162558986573394 2.0365644497033593 14.071659380020588 1 0 0
3355 1 1.7573801509536129 0.9958557419312563 16.940405964054833 0 1 0
69 1 23.891665973703077 10.863881423286943 14.830354417728351 -1 0 0
1886 1 24.142701974233674 18.890561196946532 11.044225630416317 0 0 0
1597 1 0.26110623962809976 4.729299756701571 17.9684515041009 0 0 0
3326 1 0.16271058496268706 10.650518004821388 9.17539373992381 1 1 0
4848 1 24.603253371663673 9.66257342330678 18.816995914121804 0 0 0
417 1 4.834649196101031 8.103528461747725 20.63104315357019 0 0 0
415 1 24.45738201717568 20.165419843827937 20.004065444005015 0 0 0
1740 1 19.608917453335977 5.15199930156217 20.842596721502655 0 0 0
127 1 23.423812301137172 11.362368857266375 2.6959123605096096 0 0 0
1373 1 3.5640874717692186 4.150200781436082 38.36674223102028 0 1 0
1903 1 2.5658648177107723 2.148324506647666 24.518893470310168 1 1 0
103 1 14.062401622908075 19.026623172321766 21.35960901753336 -1 0 1
1989 1 7.575289395509874 1.917142726263331 23.897445627861767 1 1 0
176 1 23.4509736407932 14.606281202457739 21.04446676227096 0 0 0
4981 1 12.251184353809451 1.6096578655496123 23.75610568488076 0 0 0
156 1 2.4625526297262588 7.135458244935435 22.181408834243285 0 1 0
4599 1 21.217827410882453 16.58227781651754 21.139287661398882 0 0 1
4973 1 17.983461725911354 3.348298612855835 24.170723431516887 0 0 1
6224 1 9.528855836208706 7.437748753417835 21.800718651499903 1 -1 1
3036 1 17.448086288357924 0.674881642341449 24.023622417129356 0 1 1
1470 1 9.307086030905 18.11149416801286 37.66005992283078 0 1 -1
5321 1 23.437147971653623 22.275947931043213 24.06418439459807 0 0 1
444 1 2.6899389840180383 4.7696349080270775 24.251462387702524 0 1 0
341 1 18.206908374136013 19.572542180343206 21.30437918302931 0 0 0
57 1 4.767571060360022 6.091064215264019 25.06616503435484 0 0 0
114 1 22.983489806541055 6.583025311382113 21.236810633275052 1 1 0
138 1 7.535007591400023 5.12070979154473 24.13592816503756 0 1 0
1679 1 10.392504153570579 5.843661438901341 24.41425061362867 0 1 1
6217 1 4.526510922683106 1.5369181011464657 38.434673337307856 1 1 0
5004 1 12.924532568625107 4.139408091610321 23.979394368237166 0 1 1
2939 1 0.755485883357818 8.285046733513742 38.944967275317936 0 1 0
1857 1 20.464359108800284 8.192582679682765 21.727264120475514 0 1 0
3382 1 4.704135004412503 0.3188327353518947 24.160120471847073 1 0 1
352 1 10.789464280830913 12.628062426833017 21.308758011998542 0 0 1
1636 1 22.986042323217216 6.433317042806699 24.142063115382847 1 1 0
71 1 2.6596284811759228 9.961695675348158 24.419940812681148 0 -1 1
3265 1 23.334133232180314 21.022875504038193 38.541978777981285 0 1 0
3650 1 6.644741989490145 10.711005432265226 24.031410969590848 0 0 0
2050 1 11.346757935009618 8.636874912303691 24.07391325121625 1 0 0
3430 1 14.210765186964492 9.496248256189155 24.133638909168525 0 0 0
157 1 1.1515705060909522 20.611666922162602 21.448740051499936 0 1 0
5190 1 16.263464780007606 7.690012933240162 24.018391171158594 0 1 0
101 1 21.9046115921866 10.429040476769726 21.19960833521227 -1 0 0
1893 1 19.028540025352726 8.418306604787976 24.022771977903535 1 -1 0
224 1 13.609957671326898 8.4930049019384 21.356490825477753 0 1 0
1325 1 8.039868024480155 1.4701090182377785 36.05578684363033 0 1 -1
4655 1 15.771891574612223 24.299334460565838 35.48686981541104 0 0 0
5106 1 2.8594699751946866 12.667791190677319 23.672406510908797 1 0 0
5148 1 5.809237998615471 14.481600792598213 21.484857952167054 1 0 0
3293 1 5.279983347984452 13.706454489631913 24.29291802504206 -1 0 0
2837 1 8.483732271055407 14.779729699338622 24.0358179664206 0 0 1
1986 1 7.023017468679087 6.265586228687823 21.55034352734879 1 1 0
493 1 9.344258657368533 10.521387081965145 24.225942896318976 0 1 1
6150 1 14.973463057797053 12.17908189832023 24.48684836360078 1 0 0
6084 1 2.2311824038054584 22.701728112380327 38.240856897171184 1 1 0
1592 1 12.159374429910889 24.41138209796122 23.90276777354445 1 0 1
27 1 17.566707753927876 12.80872364798884 24.161934562174377 0 -1 0
3160 1 19.74435180353848 11.209099989174168 24.536071268871382 1 1 1
1554 1 8.737219419004639 14.423133193876861 21.16136502600802 0 0 0
6308 1 17.67026065763846 13.337504629178566 21.210199368492408 0 -1 0
5103 1 22.37452512884314 11.327590015934959 24.16007909169886 0 -1 0
1842 1 15.541573201688449 16.767902574949446 21.11591219805832 0 0 0
4497 1 13.254006739703907 14.92989800474296 21.27689873834371 -1 0 1
3135 1 4.656422096760702 0.4449232160155895 21.221737610280297 0 1 1
1606 1 1.8515289797431937 1.2077044085911328 37.994997077371124 0 0 -1
5037 1 4.308761610491263 16.332025936493153 24.17490061415516 -1 1 0
1687 1 18.002463014128676 11.196591565709312 38.29349579675167 0 0 0
1997 1 6.101236566497256 18.37399430076516 23.978495296600798 0 0 0
5133 1 8.651731013573247 17.3654102134467 24.004402045526792 0 1 0
95 1 9.895760442533637 0.48597337771017507 24.46660147735849 0 0 0
2989 1 10.628012640970482 12.938512544219194 24.039534505968362 0 1 1
4974 1 11.024693246583059 18.86815549675921 24.47681240166049 0 1 1
408 1 18.432244287045226 15.444662882316385 24.15098763212515 0 0 0
5291 1 18.33911566742894 16.366345265615504 21.538178845380585 0 0 0
1460 1 23.195228975622793 14.156608006289229 23.917731710232747 0 0 1
233 1 23.954513009573432 2.0827186370226287 23.752929443912063 0 0 0
410 1 2.648942279520092 4.002056139156102 21.272148286708887 0 1 0
6024 1 17.700788040595572 0.3929145409852569 35.732848947051465 0 0 0
1874 1 6.612330496387378 21.198990297616106 24.773404167725296 0 0 0
2941 1 1.9503889650918416 7.975045956727293 36.12223488320929 0 1 0
4667 1 13.191167194095343 14.492591220591303 24.013667758374524 0 1 1
5280 1 9.325939286887161 17.255555454651304 21.181281214786804 1 1 0
4527 1 11.466000103778567 21.552159015457175 24.29990351930621 0 0 1
236 1 14.52366700414549 20.899130841504505 23.959804109378602 0 0 0
420 1 9.12776327204176 10.067930693411727 21.131057310055738 0 0 0
3676 1 22.917990932071593 6.225314131038612 38.74270162415142 0 0 0
297 1 13.470657152782268 17.741938997692483 24.308168972270682 -1 0 0
344 1 5.959452052625105 18.949686109595472 21.276953720355735 0 1 1
1931 1 16.336276463802776 17.449051280574547 24.2970419741053 0 0 1
3627 1 21.096847154235363 16.1297076878144 23.90513957789899 0 0 1
4834 1 2.08751418538575 21.639914810847795 24.67531332424395 1 -1 0
361 1 1.811544557045636 1.482724604901905 21.763819297385595 0 0 0
3063 1 13.353057549357379 22.65830679408702 36.39478324534372 0 1 0
1930 1 2.6196042676078193 20.795960348945005 35.73029709815769 0 -1 -1
1780 1 0.6059024597346729 19.36468382822093 24.09868605824131 1 0 0
3712 1 13.199854400527153 0.47755891772270276 35.57631318332122 0 0 0
5134 1 9.072358779853317 22.640771308501076 24.219685527639783 0 0 0
3416 1 4.592313416539971 22.091802279098456 23.68238525418471 0 0 1
1718 1 19.86306089652803 2.4134037348382034 21.82493609637027 1 1 0
1725 1 22.299482136209715 18.90657004737485 21.55079341945068 0 -1 0
1303 1 19.267779748998716 18.676414541199993 38.71318718934384 0 0 0
6154 1 19.521475240859722 23.391487227408824 23.4010515895297 0 -1 1
1686 1 17.964046470257713 19.68293747698143 24.02209308352212 -1 0 0