LAMMPS data file via write_data, version 16 Mar 2018, timestep = 8000000

6368 atoms
2 atom types

0.0000000000000000e+00 4.9219999999999999e+01 xlo xhi
0.0000000000000000e+00 4.9019635930410494e+01 ylo yhi
1.5698416480418729e+00 5.8492158351957556e+01 zlo zhi

Masses

1 18.015
2 12.01

Atoms # atomic

2848 1 1.5825178672139282e+00 3.7086715452539600e+00 5.0103222020388083e+00 1 1 1
5089 1 1.3547989584948150e+00 3.3863404922550044e+00 2.3183935637707793e+00 1 1 0
6111 1 1.0721010637179250e+01 1.2794476899636031e+01 8.6587317166953373e+00 2 0 1
1522 1 7.5296283334711864e+00 1.6237844428257453e+01 8.7399532390082086e+00 2 1 1
6102 1 4.0878286625657516e+00 3.2372769685196503e+00 6.0177756311224453e+00 0 2 1
1303 1 4.4154413777179941e-01 1.5318634889050893e+01 2.2497830101601983e+00 1 2 1
1404 1 9.3607357380158493e+00 1.5278908304078824e+00 4.9807076130466328e+00 -2 0 1
5024 1 9.0959052900573099e+00 1.5800000341175953e+00 2.1548179048735046e+00 0 1 0
281 1 1.1750340698923548e+01 8.0014792932290546e-01 6.0052352942487710e+00 0 1 0
3340 1 8.6284178941407177e+00 3.9101202573657772e+00 6.0601600998213350e+00 0 0 0
329 1 6.7864145534700826e-01 6.2656278140883988e+00 6.0534530007690730e+00 -1 1 0
3685 1 2.2790898314521604e+00 7.4141928837092967e+00 2.4509800510119439e+00 -1 0 1
6226 1 2.7163796410041465e+00 7.7527119046071871e+00 5.1008731616619949e+00 2 2 1
5310 1 5.7853725821956106e+00 4.2463883042412220e+00 2.4148861811200946e+00 0 -3 1
6253 1 6.2143887220689660e+00 4.8340589871430364e+00 5.0769063635601004e+00 0 1 0
1615 1 5.2319240913529637e+00 7.3312025279711088e+00 6.0619442246352238e+00 -1 1 1
2048 1 1.0621925277704282e+01 5.9778788444281625e+00 4.9288468784456434e+00 -1 1 0
2972 1 1.0483515021549350e+01 5.8614340759437944e+00 2.1275128004506483e+00 0 1 1
4997 1 9.8150133126815877e+00 8.5338421381236120e+00 5.9250896148506156e+00 2 -2 0
3396 1 2.0131124270553089e+00 1.0343592032193783e+01 6.0004372511916211e+00 -2 1 0
6230 1 3.7759062423912733e+00 1.2092004982135439e+01 4.8504100008668178e+00 0 1 1
6257 1 3.4351186298882213e+00 1.1995877036045394e+01 2.0549637912666765e+00 -2 1 1
6030 1 7.1398163455745367e+00 9.1689546272816127e+00 4.8024488721405802e+00 0 2 1
484 1 6.4090023190346734e+00 1.1625346968437443e+01 5.7218017139106285e+00 2 2 0
1467 1 6.8809464602642763e+00 9.0019740372064216e+00 1.9886036698682128e+00 -1 -1 1
4901 1 1.1559854863994795e+01 1.0329330408804418e+01 4.7558635612580744e+00 3 0 0
1383 1 1.1726150980612053e+01 1.0162668471274774e+01 2.2477666093204411e+00 0 1 1
3625 1 3.2946277298764726e-01 1.5625007463225462e+01 4.9765525741506131e+00 -2 -1 1
421 1 2.7878206294513443e+00 1.4585465330203203e+01 5.4155200412786311e+00 2 0 0
4843 1 4.6394034558684583e+00 5.8313940328464864e-01 5.1299176487550966e+00 0 4 0
24 1 7.3307331127056976e+00 1.5691761516335310e+01 6.1486095262948250e+00 0 1 0
4898 1 8.2490775396068017e+00 1.3439318257277714e+01 5.0332831548347485e+00 1 1 0
5233 1 7.6947553625518506e+00 1.3072328740592507e+01 2.1368391189832212e+00 1 2 0
1946 1 8.1647322018419253e+00 1.3705943060462944e+01 9.6122275359376861e+00 -2 1 0
3283 1 5.5459699186470379e-01 1.5338191626232074e+01 9.4003096731491489e+00 0 1 1
370 1 1.0510211797775799e+01 1.2420787873877652e+01 6.0372319494107582e+00 0 -1 0
6064 1 1.7311026964777338e+00 3.4882136056881508e+00 1.2449550450124958e+01 3 -1 1
1973 1 1.6822027256346528e+00 3.4995814472448639e+00 9.5858411003322459e+00 0 1 0
4943 1 8.4926464753431503e+00 1.3475154621685627e+01 1.2343502066014368e+01 0 0 0
5150 1 4.0901398345994195e+00 2.7778816696069932e+00 8.6806732442078207e+00 0 2 0
1928 1 3.1133108089233135e+00 1.4658144498772137e+01 8.3368451181048613e+00 1 0 0
1327 1 3.6983166598351156e+00 1.2020392315342605e+01 1.2236367708060381e+01 2 2 1
4862 1 4.9129113078362252e+00 2.6192099174065636e-01 1.2635174913315936e+01 2 1 0
6109 1 9.2959302858239461e+00 1.4004773484914987e+00 9.7727153777715436e+00 -1 1 1
3243 1 9.2623946060094635e+00 1.1131729871998932e+00 1.2587840581945800e+01 0 0 0
3203 1 9.0350688855708927e-01 6.1850366449281040e+00 8.9079441148706593e+00 1 -2 0
3241 1 2.8876272246182708e+00 7.8078390011379071e+00 9.8420230823775796e+00 -2 1 0
1558 1 1.1891779538817429e+01 5.2399164582390956e-01 8.6215430268488813e+00 -1 0 1
508 1 5.7648017124839841e+00 4.7187886010820899e+00 1.2397726827274917e+01 1 -1 1
3655 1 6.1571082644880883e+00 4.8424596672446825e+00 9.4213765105633485e+00 1 -1 0
4448 1 5.4724652985564868e+00 7.3014766902282640e+00 8.7812640616611581e+00 0 1 1
4610 1 8.7604931654433145e+00 3.7727838807673648e+00 8.7391529656079303e+00 1 0 1
1883 1 1.0217783328321925e+01 5.4829590051324049e+00 1.2668836282703612e+01 2 2 0
3011 1 1.0429856663785294e+01 5.8354387024012366e+00 9.7138817598121872e+00 -1 -1 1
2920 1 4.1594427281519160e+00 1.2315980990041911e+01 9.2736030287313831e+00 -1 2 1
6352 1 2.8444407033454300e+00 8.1090931618906303e+00 1.2450942878041840e+01 1 0 0
409 1 1.9675530901662039e+00 1.0425111045978220e+01 8.7049934609986881e+00 -2 -1 0
1292 1 7.6910856851192770e+00 9.1115386050490503e+00 1.2547153548396846e+01 -1 2 1
4837 1 6.6272293853016180e+00 1.1573512634350692e+01 8.5186191765639236e+00 1 -1 1
3622 1 7.5022245357925454e+00 9.0498836246871672e+00 9.7316917179966111e+00 1 1 0
381 1 9.8499522219245552e+00 8.1315350384556080e+00 8.6250429758790776e+00 0 -1 0
1322 1 1.1709177592625567e+01 1.0211961623067719e+01 1.2480398212919500e+01 -2 1 1
287 1 1.1436370934088117e+01 1.0301387175320768e+01 9.4624387171987792e+00 2 0 0
5263 1 7.2771048005186301e-01 1.5217305531998122e+01 1.2233619642398077e+01 0 -1 1
4932 1 4.6275289011304857e+00 1.9010351665313341e-01 2.3759824287431339e+00 -2 0 0
2158 1 4.8733354889833711e+00 9.4761731566145299e-02 9.6730272165177684e+00 1 2 1
227 1 3.2103649039074235e-02 1.4297991642264445e+00 8.8916292212954637e+00 -1 -1 0
3599 1 8.1691285490004525e-02 1.7620014680034584e+00 6.1721165887930312e+00 -1 1 0
1908 1 1.2238349461132001e+01 1.4320131815009377e+01 2.6851596607727855e+00 -1 1 0
3671 1 4.9464485945003291e+00 1.6306070565222036e+01 2.5301319723040732e+00 2 0 1
1537 1 4.7705057291530935e+00 1.6210137365287355e+01 1.2164849441296635e+01 0 0 1
4991 1 2.6666990066771029e-01 5.7906230968599806e+00 1.7208956898514784e+00 1 1 0
3212 1 7.2328570513402504e+00 1.5681282908501787e+01 1.7671700362793856e+00 1 0 0
2909 1 4.8741431580800176e+00 7.0906542097816967e+00 1.6473291121206950e+00 1 0 1
6262 1 1.0373279647692836e+01 1.2489753589666282e+01 1.7309559221447322e+00 0 1 1
18 1 2.1407533955034568e+00 9.8955109555943932e-01 1.6455191551329236e+01 0 -2 1
6207 1 1.4242191980060268e+00 3.5079651931699480e+00 1.7098921143232047e+01 1 0 1
3003 1 1.2745180124805897e+00 1.2867751275220677e+01 1.3299222008362909e+01 -2 3 1
4528 1 6.4431263305923805e+00 2.0123505023964268e+00 1.6092333232980227e+01 0 0 1
184 1 2.9193334553759831e-01 8.6919137046022446e+00 1.6216434073516950e+01 3 0 0
2868 1 4.8573214374612528e+00 4.2222088733750418e-01 1.9957346027330392e+01 3 1 1
1651 1 4.9623473431933878e+00 9.8159451857048587e+00 1.3161468740492197e+01 -1 2 0
6193 1 8.9725874245908575e+00 1.1440919093584558e+00 1.7082839056929828e+01 -3 -1 1
5152 1 1.0810027052664122e+01 2.8604408616210324e+00 1.6116333678019281e+01 -2 -1 0
3105 1 2.9488141755962154e+00 5.2525478345563483e+00 1.6163900016793761e+01 0 3 1
2843 1 2.7681110494324255e+00 8.0761848765388358e+00 1.7207078024969036e+01 -1 -1 1
2121 1 5.8788778450254346e+00 4.4057806771058985e+00 1.7178571029575060e+01 0 0 1
5109 1 7.9158287922508457e+00 6.4346381182616383e+00 1.6194418122965544e+01 0 1 0
5149 1 9.3684182001609404e+00 1.1166679006761965e+01 1.3259485726846830e+01 -2 0 0
4824 1 1.0518766895650584e+01 5.3870373290913331e+00 1.6969732008291636e+01 2 -1 0
4655 1 1.0323230349026646e+01 1.2652699857873316e+01 2.3085829572307805e+01 2 -2 1
3221 1 7.8442201235642379e+00 1.2967273997911340e+01 2.4244561596037258e+01 -1 2 0
2979 1 2.2037385217032057e-01 8.4375562950230147e+00 1.3478510900038582e+01 -1 1 1
6035 1 4.8903535439890140e+00 9.7827803248655218e+00 1.6148652311553960e+01 -2 0 1
1972 1 7.4496272594381416e+00 9.0839695069832853e+00 1.6909280914727958e+01 1 2 0
3646 1 1.0919595281528675e+01 3.0390146890844534e+00 1.3623263797667974e+01 1 1 1
1328 1 6.6943672379585024e+00 2.1083021988949868e+00 1.3357846460934232e+01 1 1 1
171 1 8.9248668862119480e+00 1.1055259860750667e+01 1.5940684763293909e+01 0 -1 0
6147 1 1.1195292472547324e+01 1.0572057178629088e+01 1.7010523226301899e+01 0 0 1
3222 1 3.7820059262071637e+00 1.2091476953023610e+01 1.6980206581274935e+01 1 -2 0
328 1 1.1010433525073968e+00 1.2646972916363060e+01 1.5982014526221022e+01 1 1 0
3292 1 3.5141244503119295e-01 1.5274192749752313e+01 1.6899820517994023e+01 0 1 0
1535 1 7.3394057890784046e+00 1.5572236756242059e+01 2.3385578047168195e+01 0 0 1
6310 1 5.4209776851598086e+00 1.4062762659281917e+01 1.5759846447392507e+01 -1 1 0
4427 1 8.0315001034095985e+00 1.3504198342169074e+01 1.6638162138847214e+01 1 1 1
6151 1 7.2296889298446998e-01 1.5492320431915889e+01 2.4225407772713446e+01 3 -1 1
3592 1 9.9882554303750126e+00 1.5467348554084984e+01 1.6023748842656076e+01 2 -2 0
1258 1 7.8330197842096654e+00 1.3298283986307080e+01 1.9539109710289754e+01 0 1 0
275 1 1.4955257800945061e+00 3.4780186310283665e+00 2.0003855434474769e+01 -1 0 0
1247 1 4.2928323011040259e+00 3.0456452821444184e+00 2.0344804564081048e+01 1 1 1
3370 1 4.1417608456623700e+00 2.8288764528356216e+00 2.3067781724993072e+01 -1 2 0
2943 1 1.1806413285778772e+01 3.3321306824962932e-01 2.0847535500669625e+01 1 1 1
5093 1 7.7419551198044019e+00 6.3524552454039345e+00 1.3542784441782441e+01 1 1 0
1597 1 8.6959358922141181e+00 3.7329419990212904e+00 2.3308984780096644e+01 -1 0 1
2087 1 9.2321488616443226e+00 1.2402627652910792e+00 1.9964356672813402e+01 -1 0 0
5090 1 1.1981116343187480e+01 7.3098391986201294e-01 2.3651628299200055e+01 -2 1 0
1519 1 1.0098150616987329e+01 1.5360122954097527e+01 1.3098118662142934e+01 1 1 1
3008 1 3.0845401860274988e+00 1.4455989586158223e+01 2.2927249700122431e+01 1 2 1
3446 1 1.0362434530726670e+00 6.2116135089534739e+00 2.3427840162314794e+01 2 0 0
271 1 8.5604610427146199e-01 5.8422622224205085e+00 2.0799989252973702e+01 2 3 0
4467 1 2.6413339167289926e+00 7.7432590811746520e+00 1.9981709557537059e+01 1 0 1
3641 1 1.0362351705574758e+01 1.2907254656411846e+01 2.0436741245577366e+01 2 0 1
6275 1 6.1636914506145741e+00 4.8719152071792937e+00 1.9784308544077412e+01 -1 -1 1
5346 1 5.1286389262065120e+00 7.0567518900490622e+00 2.0723527631746588e+01 -1 1 1
3021 1 5.3925241717691215e+00 7.0269687842142883e+00 2.3324081600517498e+01 1 4 1
222 1 3.5635716538309508e+00 1.2215888737379512e+01 2.4184744451733586e+01 0 -2 0
4769 1 8.6042844670631009e+00 3.9144446152826426e+00 2.0493057242406447e+01 1 1 0
1802 1 1.0820791129396072e+01 5.6474492189830849e+00 1.9655988575751131e+01 0 1 0
1692 1 3.9073031430719256e+00 1.2267744744186604e+01 1.9710549514402452e+01 -1 0 0
1805 1 1.9917636662470131e+00 1.0468747172109655e+01 2.3397311349348165e+01 0 0 0
4780 1 1.9055473504722058e+00 1.0393191697411204e+01 2.0384404681444405e+01 2 0 0
4490 1 9.3682316524107279e+00 1.4619749683357259e+00 2.4186676899581983e+01 1 1 1
32 1 5.9350804221271671e+00 1.1292797413344584e+01 2.3230692226983926e+01 0 1 0
2948 1 6.3864009364986822e+00 1.1417695570196431e+01 2.0604721316030080e+01 2 2 1
1572 1 7.1047800420245206e+00 8.9004328432238484e+00 1.9820339799553157e+01 1 1 1
3104 1 7.2354583806019770e+00 1.5850909259353200e+01 2.0501674425403486e+01 1 2 1
3036 1 1.9835106594261729e+00 3.8731309964037317e+00 2.4285775302408993e+01 1 -1 1
3488 1 9.5942938719260678e+00 8.0030376905020955e+00 2.0543266279557482e+01 1 -2 0
3200 1 1.0146445702299779e+01 8.2055675965168309e+00 2.3307684850776962e+01 -1 0 0
6359 1 1.1376380794315093e+01 1.0319256611211385e+01 1.9754002443548362e+01 0 -1 0
2851 1 2.9970122527253835e+00 1.4763027834786666e+01 2.0206487244733676e+01 -1 0 1
2932 1 4.1031326671435964e-01 1.5297256891190381e+01 1.9683509896113691e+01 -1 1 1
1971 1 3.3255612370700720e+00 5.4460958176140890e+00 1.3579581126683921e+01 0 -1 0
1951 1 5.7858922728206696e+00 1.3814765666028967e+01 1.3117322248127222e+01 1 0 0
4545 1 6.1224973528151203e+00 4.4288678598955933e+00 2.4184924920789303e+01 1 0 1
3128 1 1.2010202060995171e+01 7.8900475233954275e+00 1.5967120718517206e+01 -1 -2 0
1723 1 2.3729417388066052e+00 1.1168431850823461e+00 1.3749835229908639e+01 0 -1 1
22 1 1.0638376426196341e+01 5.3695807846463666e+00 2.3977637302871212e+01 -1 0 0
3504 1 4.6980531238339438e+00 2.6615398539554586e-01 1.7248349428880196e+01 1 2 0
208 1 1.1417514033588116e+01 1.0383683527370977e+01 2.4132458252447297e+01 1 -2 0
206 1 1.1954837142323855e+01 7.4775644815092202e+00 1.3440448675647151e+01 0 0 0
4982 1 4.8955071453732897e+00 6.6120285025619940e-01 2.4236629016950776e+01 1 1 0
6045 1 2.0394585208441143e-01 1.9680249778703733e+00 2.3628918993905437e+01 2 -1 1
5037 1 4.7423360043598581e+00 1.6312878664815351e+01 2.3949730306499823e+01 2 0 0
1565 1 7.3072171155080428e+00 8.7693062846907814e+00 2.3971429216036857e+01 0 0 0
556 2 0.0000000000000000e+00 2.8417180249513345e+00 2.6812207172908327e+01 0 0 0
558 2 0.0000000000000000e+00 0.0000000000000000e+00 2.6812207172908327e+01 0 0 0
560 2 1.2305000000000001e+00 7.1042950623783474e-01 2.6812207172908327e+01 0 0 0
567 2 1.2305000000000001e+00 2.1312885187134998e+00 2.6812207172908327e+01 0 0 0
569 2 2.4610000000000003e+00 2.8417180249513345e+00 2.6812207172908327e+01 0 0 0
571 2 2.4610000000000003e+00 0.0000000000000000e+00 2.6812207172908327e+01 0 0 0
573 2 3.6915000000000004e+00 7.1042950623783474e-01 2.6812207172908327e+01 0 0 0
588 2 3.6914999999999996e+00 2.1312885187134998e+00 2.6812207172908327e+01 0 0 0
557 2 0.0000000000000000e+00 1.4208590124756650e+00 3.0030999999999700e+01 0 0 0
559 2 0.0000000000000000e+00 0.0000000000000000e+00 3.0030999999999700e+01 0 0 0
566 2 1.2305000000000001e+00 3.5521475311891644e+00 3.0030999999999700e+01 0 0 0
568 2 1.2305000000000001e+00 2.1312885187134998e+00 3.0030999999999700e+01 0 0 0
570 2 2.4610000000000003e+00 1.4208590124756650e+00 3.0030999999999700e+01 0 0 0
572 2 2.4610000000000003e+00 0.0000000000000000e+00 3.0030999999999700e+01 0 0 0
587 2 3.6914999999999996e+00 3.5521475311891644e+00 3.0030999999999700e+01 0 0 0
589 2 3.6914999999999996e+00 2.1312885187134998e+00 3.0030999999999700e+01 0 0 0
590 2 4.9220000000000006e+00 2.8417180249513332e+00 2.6812207172908327e+01 0 0 0
592 2 4.9220000000000006e+00 0.0000000000000000e+00 2.6812207172908327e+01 0 0 0
594 2 6.1524999999999999e+00 7.1042950623783407e-01 2.6812207172908327e+01 0 0 0
617 2 6.1524999999999999e+00 2.1312885187134989e+00 2.6812207172908327e+01 0 0 0
619 2 7.3829999999999991e+00 2.8417180249513345e+00 2.6812207172908327e+01 0 0 0
621 2 7.3829999999999991e+00 0.0000000000000000e+00 2.6812207172908327e+01 0 0 0
591 2 4.9220000000000006e+00 1.4208590124756650e+00 3.0030999999999700e+01 0 0 0
593 2 4.9220000000000006e+00 0.0000000000000000e+00 3.0030999999999700e+01 0 0 0
616 2 6.1524999999999999e+00 3.5521475311891644e+00 3.0030999999999700e+01 0 0 0
618 2 6.1524999999999999e+00 2.1312885187134989e+00 3.0030999999999700e+01 0 0 0
620 2 7.3829999999999991e+00 1.4208590124756659e+00 3.0030999999999700e+01 0 0 0
622 2 7.3829999999999991e+00 0.0000000000000000e+00 3.0030999999999700e+01 0 0 0
996 2 9.8440000000000012e+00 1.5629449137232328e+01 3.3249792827075964e+01 0 0 0
623 2 8.6134999999999984e+00 7.1042950623783407e-01 2.6812207172908327e+01 0 0 0
654 2 8.6134999999999984e+00 2.1312885187135002e+00 2.6812207172908327e+01 0 0 0
656 2 9.8440000000000012e+00 2.8417180249513332e+00 2.6812207172908327e+01 0 0 0
658 2 9.8440000000000012e+00 0.0000000000000000e+00 2.6812207172908327e+01 0 0 0
660 2 1.1074500000000002e+01 7.1042950623783330e-01 2.6812207172908327e+01 0 0 0
699 2 1.1074500000000002e+01 2.1312885187135002e+00 2.6812207172908327e+01 0 0 0
653 2 8.6134999999999984e+00 3.5521475311891657e+00 3.0030999999999700e+01 0 0 0
655 2 8.6134999999999984e+00 2.1312885187135002e+00 3.0030999999999700e+01 0 0 0
657 2 9.8440000000000012e+00 1.4208590124756659e+00 3.0030999999999700e+01 0 0 0
659 2 9.8440000000000012e+00 0.0000000000000000e+00 3.0030999999999700e+01 0 0 0
698 2 1.1074500000000002e+01 3.5521475311891644e+00 3.0030999999999700e+01 0 0 0
700 2 1.1074500000000002e+01 2.1312885187135002e+00 3.0030999999999700e+01 0 0 0
997 2 9.8440000000000012e+00 1.2787731112280996e+01 3.3249792827075964e+01 0 0 0
561 2 0.0000000000000000e+00 7.1042950623783341e+00 2.6812207172908327e+01 0 0 0
563 2 0.0000000000000000e+00 4.2625770374269996e+00 2.6812207172908327e+01 0 0 0
565 2 1.2305000000000001e+00 4.9730065436648339e+00 2.6812207172908327e+01 0 0 0
580 2 1.2305000000000001e+00 6.3938655561404980e+00 2.6812207172908327e+01 0 0 0
582 2 2.4610000000000003e+00 7.1042950623783341e+00 2.6812207172908327e+01 0 0 0
584 2 2.4610000000000003e+00 4.2625770374269996e+00 2.6812207172908327e+01 0 0 0
586 2 3.6914999999999996e+00 4.9730065436648339e+00 2.6812207172908327e+01 0 0 0
609 2 3.6914999999999996e+00 6.3938655561404980e+00 2.6812207172908327e+01 0 0 0
562 2 0.0000000000000000e+00 5.6834360499026637e+00 3.0030999999999700e+01 0 0 0
564 2 0.0000000000000000e+00 4.2625770374269996e+00 3.0030999999999700e+01 0 0 0
579 2 1.2305000000000001e+00 7.8147245686161639e+00 3.0030999999999700e+01 0 0 0
581 2 1.2305000000000001e+00 6.3938655561404980e+00 3.0030999999999700e+01 0 0 0
583 2 2.4610000000000003e+00 5.6834360499026637e+00 3.0030999999999700e+01 0 0 0
585 2 2.4610000000000003e+00 4.2625770374269996e+00 3.0030999999999700e+01 0 0 0
608 2 3.6914999999999996e+00 7.8147245686161639e+00 3.0030999999999700e+01 0 0 0
610 2 3.6914999999999996e+00 6.3938655561404980e+00 3.0030999999999700e+01 0 0 0
611 2 4.9220000000000006e+00 7.1042950623783341e+00 2.6812207172908327e+01 0 0 0
613 2 4.9220000000000006e+00 4.2625770374269978e+00 2.6812207172908327e+01 0 0 0
615 2 6.1524999999999999e+00 4.9730065436648339e+00 2.6812207172908327e+01 0 0 0
646 2 6.1524999999999999e+00 6.3938655561404980e+00 2.6812207172908327e+01 0 0 0
648 2 7.3830000000000009e+00 7.1042950623783341e+00 2.6812207172908327e+01 0 0 0
650 2 7.3829999999999991e+00 4.2625770374269996e+00 2.6812207172908327e+01 0 0 0
612 2 4.9220000000000006e+00 5.6834360499026637e+00 3.0030999999999700e+01 0 0 0
614 2 4.9220000000000006e+00 4.2625770374269978e+00 3.0030999999999700e+01 0 0 0
645 2 6.1524999999999999e+00 7.8147245686161639e+00 3.0030999999999700e+01 0 0 0
647 2 6.1524999999999999e+00 6.3938655561404980e+00 3.0030999999999700e+01 0 0 0
649 2 7.3829999999999991e+00 5.6834360499026637e+00 3.0030999999999700e+01 0 0 0
651 2 7.3829999999999991e+00 4.2625770374269996e+00 3.0030999999999700e+01 0 0 0
652 2 8.6135000000000002e+00 4.9730065436648339e+00 2.6812207172908327e+01 0 0 0
691 2 8.6135000000000002e+00 6.3938655561404980e+00 2.6812207172908327e+01 0 0 0
693 2 9.8440000000000012e+00 7.1042950623783341e+00 2.6812207172908327e+01 0 0 0
695 2 9.8440000000000012e+00 4.2625770374270004e+00 2.6812207172908327e+01 0 0 0
697 2 1.1074500000000002e+01 4.9730065436648339e+00 2.6812207172908327e+01 0 0 0
738 2 1.1074500000000002e+01 6.3938655561404980e+00 2.6812207172908327e+01 0 0 0
690 2 8.6135000000000002e+00 7.8147245686161639e+00 3.0030999999999700e+01 0 0 0
692 2 8.6135000000000002e+00 6.3938655561404980e+00 3.0030999999999700e+01 0 0 0
694 2 9.8440000000000012e+00 5.6834360499026637e+00 3.0030999999999700e+01 0 0 0
696 2 9.8440000000000012e+00 4.2625770374270004e+00 3.0030999999999700e+01 0 0 0
737 2 1.1074500000000002e+01 7.8147245686161639e+00 3.0030999999999700e+01 0 0 0
739 2 1.1074500000000002e+01 6.3938655561404980e+00 3.0030999999999700e+01 0 0 0
574 2 0.0000000000000000e+00 1.1366872099805333e+01 2.6812207172908327e+01 0 0 0
576 2 0.0000000000000000e+00 8.5251540748539991e+00 2.6812207172908327e+01 0 0 0
578 2 1.2305000000000001e+00 9.2355835810918343e+00 2.6812207172908327e+01 0 0 0
601 2 1.2305000000000001e+00 1.0656442593567498e+01 2.6812207172908327e+01 0 0 0
603 2 2.4610000000000003e+00 1.1366872099805333e+01 2.6812207172908327e+01 0 0 0
605 2 2.4610000000000003e+00 8.5251540748539991e+00 2.6812207172908327e+01 0 0 0
607 2 3.6915000000000004e+00 9.2355835810918343e+00 2.6812207172908327e+01 0 0 0
638 2 3.6914999999999996e+00 1.0656442593567499e+01 2.6812207172908327e+01 0 0 0
575 2 0.0000000000000000e+00 9.9460130873296642e+00 3.0030999999999700e+01 0 0 0
577 2 0.0000000000000000e+00 8.5251540748539991e+00 3.0030999999999700e+01 0 0 0
600 2 1.2305000000000001e+00 1.2077301606043163e+01 3.0030999999999700e+01 0 0 0
602 2 1.2305000000000001e+00 1.0656442593567498e+01 3.0030999999999700e+01 0 0 0
604 2 2.4610000000000003e+00 9.9460130873296642e+00 3.0030999999999700e+01 0 0 0
606 2 2.4610000000000003e+00 8.5251540748539991e+00 3.0030999999999700e+01 0 0 0
637 2 3.6914999999999996e+00 1.2077301606043163e+01 3.0030999999999700e+01 0 0 0
639 2 3.6914999999999996e+00 1.0656442593567499e+01 3.0030999999999700e+01 0 0 0
640 2 4.9220000000000006e+00 1.1366872099805333e+01 2.6812207172908327e+01 0 0 0
642 2 4.9220000000000006e+00 8.5251540748539991e+00 2.6812207172908327e+01 0 0 0
644 2 6.1524999999999999e+00 9.2355835810918343e+00 2.6812207172908327e+01 0 0 0
683 2 6.1524999999999999e+00 1.0656442593567499e+01 2.6812207172908327e+01 0 0 0
685 2 7.3829999999999991e+00 1.1366872099805333e+01 2.6812207172908327e+01 0 0 0
687 2 7.3830000000000009e+00 8.5251540748539991e+00 2.6812207172908327e+01 0 0 0
641 2 4.9220000000000006e+00 9.9460130873296642e+00 3.0030999999999700e+01 0 0 0
643 2 4.9220000000000006e+00 8.5251540748539991e+00 3.0030999999999700e+01 0 0 0
682 2 6.1524999999999999e+00 1.2077301606043163e+01 3.0030999999999700e+01 0 0 0
684 2 6.1524999999999999e+00 1.0656442593567499e+01 3.0030999999999700e+01 0 0 0
686 2 7.3830000000000009e+00 9.9460130873296642e+00 3.0030999999999700e+01 0 0 0
688 2 7.3830000000000009e+00 8.5251540748539991e+00 3.0030999999999700e+01 0 0 0
689 2 8.6134999999999984e+00 9.2355835810918343e+00 2.6812207172908327e+01 0 0 0
730 2 8.6134999999999984e+00 1.0656442593567498e+01 2.6812207172908327e+01 0 0 0
732 2 9.8440000000000012e+00 1.1366872099805333e+01 2.6812207172908327e+01 0 0 0
734 2 9.8440000000000012e+00 8.5251540748539956e+00 2.6812207172908327e+01 0 0 0
736 2 1.1074500000000002e+01 9.2355835810918343e+00 2.6812207172908327e+01 0 0 0
777 2 1.1074500000000002e+01 1.0656442593567498e+01 2.6812207172908327e+01 0 0 0
779 2 1.2304999999999998e+01 1.1366872099805333e+01 2.6812207172908327e+01 0 0 0
729 2 8.6135000000000002e+00 1.2077301606043163e+01 3.0030999999999700e+01 0 0 0
731 2 8.6134999999999984e+00 1.0656442593567498e+01 3.0030999999999700e+01 0 0 0
733 2 9.8440000000000012e+00 9.9460130873296642e+00 3.0030999999999700e+01 0 0 0
735 2 9.8440000000000012e+00 8.5251540748539956e+00 3.0030999999999700e+01 0 0 0
776 2 1.1074500000000002e+01 1.2077301606043163e+01 3.0030999999999700e+01 0 0 0
778 2 1.1074500000000002e+01 1.0656442593567498e+01 3.0030999999999700e+01 0 0 0
595 2 0.0000000000000000e+00 1.5629449137232333e+01 2.6812207172908327e+01 0 0 0
597 2 0.0000000000000000e+00 1.2787731112280996e+01 2.6812207172908327e+01 0 0 0
599 2 1.2305000000000001e+00 1.3498160618518829e+01 2.6812207172908327e+01 0 0 0
630 2 1.2305000000000001e+00 1.4919019630994494e+01 2.6812207172908327e+01 0 0 0
632 2 2.4610000000000003e+00 1.5629449137232328e+01 2.6812207172908327e+01 0 0 0
634 2 2.4610000000000003e+00 1.2787731112280996e+01 2.6812207172908327e+01 0 0 0
636 2 3.6915000000000004e+00 1.3498160618518829e+01 2.6812207172908327e+01 0 0 0
675 2 3.6915000000000004e+00 1.4919019630994494e+01 2.6812207172908327e+01 0 0 0
596 2 0.0000000000000000e+00 1.4208590124756663e+01 3.0030999999999700e+01 0 0 0
598 2 0.0000000000000000e+00 1.2787731112280996e+01 3.0030999999999700e+01 0 0 0
631 2 1.2305000000000001e+00 1.4919019630994494e+01 3.0030999999999700e+01 0 0 0
633 2 2.4610000000000003e+00 1.4208590124756663e+01 3.0030999999999700e+01 0 0 0
635 2 2.4610000000000003e+00 1.2787731112280996e+01 3.0030999999999700e+01 0 0 0
676 2 3.6915000000000004e+00 1.4919019630994494e+01 3.0030999999999700e+01 0 0 0
677 2 4.9220000000000006e+00 1.5629449137232333e+01 2.6812207172908327e+01 0 0 0
679 2 4.9220000000000006e+00 1.2787731112280996e+01 2.6812207172908327e+01 0 0 0
681 2 6.1524999999999990e+00 1.3498160618518829e+01 2.6812207172908327e+01 0 0 0
722 2 6.1524999999999990e+00 1.4919019630994494e+01 2.6812207172908327e+01 0 0 0
724 2 7.3829999999999991e+00 1.5629449137232333e+01 2.6812207172908327e+01 0 0 0
726 2 7.3829999999999991e+00 1.2787731112280996e+01 2.6812207172908327e+01 0 0 0
678 2 4.9220000000000006e+00 1.4208590124756663e+01 3.0030999999999700e+01 0 0 0
680 2 4.9220000000000006e+00 1.2787731112280996e+01 3.0030999999999700e+01 0 0 0
723 2 6.1524999999999990e+00 1.4919019630994494e+01 3.0030999999999700e+01 0 0 0
725 2 7.3830000000000009e+00 1.4208590124756663e+01 3.0030999999999700e+01 0 0 0
727 2 7.3829999999999991e+00 1.2787731112280996e+01 3.0030999999999700e+01 0 0 0
728 2 8.6135000000000002e+00 1.3498160618518835e+01 2.6812207172908327e+01 0 0 0
769 2 8.6135000000000002e+00 1.4919019630994494e+01 2.6812207172908327e+01 0 0 0
771 2 9.8440000000000012e+00 1.5629449137232328e+01 2.6812207172908327e+01 0 0 0
773 2 9.8440000000000012e+00 1.2787731112280996e+01 2.6812207172908327e+01 0 0 0
775 2 1.1074500000000002e+01 1.3498160618518829e+01 2.6812207172908327e+01 0 0 0
811 2 1.1074500000000002e+01 1.4919019630994494e+01 2.6812207172908327e+01 0 0 0
770 2 8.6135000000000002e+00 1.4919019630994494e+01 3.0030999999999700e+01 0 0 0
772 2 9.8440000000000012e+00 1.4208590124756663e+01 3.0030999999999700e+01 0 0 0
774 2 9.8440000000000012e+00 1.2787731112280996e+01 3.0030999999999700e+01 0 0 0
810 2 1.1074500000000002e+01 1.6339878643470161e+01 3.0030999999999700e+01 0 0 0
812 2 1.1074500000000002e+01 1.4919019630994494e+01 3.0030999999999700e+01 0 0 0
814 2 1.2304999999999998e+01 1.4208590124756658e+01 3.0030999999999700e+01 0 0 0
885 2 0.0000000000000000e+00 2.8417180249513345e+00 3.3249792827075964e+01 0 0 0
886 2 0.0000000000000000e+00 0.0000000000000000e+00 3.3249792827075964e+01 0 0 0
887 2 1.2305000000000001e+00 7.1042950623783474e-01 3.3249792827075964e+01 0 0 0
891 2 1.2305000000000001e+00 2.1312885187134998e+00 3.3249792827075964e+01 0 0 0
892 2 2.4610000000000003e+00 2.8417180249513345e+00 3.3249792827075964e+01 0 0 0
893 2 2.4610000000000003e+00 0.0000000000000000e+00 3.3249792827075964e+01 0 0 0
894 2 3.6915000000000004e+00 7.1042950623783474e-01 3.3249792827075964e+01 0 0 0
902 2 3.6914999999999996e+00 2.1312885187134998e+00 3.3249792827075964e+01 0 0 0
903 2 4.9220000000000006e+00 2.8417180249513332e+00 3.3249792827075964e+01 0 0 0
904 2 4.9220000000000006e+00 0.0000000000000000e+00 3.3249792827075964e+01 0 0 0
905 2 6.1524999999999999e+00 7.1042950623783407e-01 3.3249792827075964e+01 0 0 0
917 2 6.1524999999999999e+00 2.1312885187134989e+00 3.3249792827075964e+01 0 0 0
918 2 7.3829999999999991e+00 2.8417180249513345e+00 3.3249792827075964e+01 0 0 0
919 2 7.3829999999999991e+00 0.0000000000000000e+00 3.3249792827075964e+01 0 0 0
920 2 8.6134999999999984e+00 7.1042950623783407e-01 3.3249792827075964e+01 0 0 0
936 2 8.6134999999999984e+00 2.1312885187135002e+00 3.3249792827075964e+01 0 0 0
937 2 9.8440000000000012e+00 2.8417180249513332e+00 3.3249792827075964e+01 0 0 0
938 2 9.8440000000000012e+00 0.0000000000000000e+00 3.3249792827075964e+01 0 0 0
939 2 1.1074500000000002e+01 7.1042950623783330e-01 3.3249792827075964e+01 0 0 0
959 2 1.1074500000000002e+01 2.1312885187135002e+00 3.3249792827075964e+01 0 0 0
995 2 8.6135000000000002e+00 1.4919019630994494e+01 3.3249792827075964e+01 0 0 0
888 2 0.0000000000000000e+00 7.1042950623783341e+00 3.3249792827075964e+01 0 0 0
889 2 0.0000000000000000e+00 4.2625770374269996e+00 3.3249792827075964e+01 0 0 0
890 2 1.2305000000000001e+00 4.9730065436648339e+00 3.3249792827075964e+01 0 0 0
898 2 1.2305000000000001e+00 6.3938655561404980e+00 3.3249792827075964e+01 0 0 0
899 2 2.4610000000000003e+00 7.1042950623783341e+00 3.3249792827075964e+01 0 0 0
900 2 2.4610000000000003e+00 4.2625770374269996e+00 3.3249792827075964e+01 0 0 0
901 2 3.6914999999999996e+00 4.9730065436648339e+00 3.3249792827075964e+01 0 0 0
913 2 3.6914999999999996e+00 6.3938655561404980e+00 3.3249792827075964e+01 0 0 0
914 2 4.9220000000000006e+00 7.1042950623783341e+00 3.3249792827075964e+01 0 0 0
915 2 4.9220000000000006e+00 4.2625770374269978e+00 3.3249792827075964e+01 0 0 0
916 2 6.1524999999999999e+00 4.9730065436648339e+00 3.3249792827075964e+01 0 0 0
932 2 6.1524999999999999e+00 6.3938655561404980e+00 3.3249792827075964e+01 0 0 0
933 2 7.3830000000000009e+00 7.1042950623783341e+00 3.3249792827075964e+01 0 0 0
934 2 7.3829999999999991e+00 4.2625770374269996e+00 3.3249792827075964e+01 0 0 0
998 2 1.1074500000000002e+01 1.3498160618518829e+01 3.3249792827075964e+01 0 0 0
935 2 8.6135000000000002e+00 4.9730065436648339e+00 3.3249792827075964e+01 0 0 0
955 2 8.6135000000000002e+00 6.3938655561404980e+00 3.3249792827075964e+01 0 0 0
956 2 9.8440000000000012e+00 7.1042950623783341e+00 3.3249792827075964e+01 0 0 0
957 2 9.8440000000000012e+00 4.2625770374270004e+00 3.3249792827075964e+01 0 0 0
958 2 1.1074500000000002e+01 4.9730065436648339e+00 3.3249792827075964e+01 0 0 0
979 2 1.1074500000000002e+01 6.3938655561404980e+00 3.3249792827075964e+01 0 0 0
895 2 0.0000000000000000e+00 1.1366872099805333e+01 3.3249792827075964e+01 0 0 0
896 2 0.0000000000000000e+00 8.5251540748539991e+00 3.3249792827075964e+01 0 0 0
897 2 1.2305000000000001e+00 9.2355835810918343e+00 3.3249792827075964e+01 0 0 0
909 2 1.2305000000000001e+00 1.0656442593567498e+01 3.3249792827075964e+01 0 0 0
910 2 2.4610000000000003e+00 1.1366872099805333e+01 3.3249792827075964e+01 0 0 0
911 2 2.4610000000000003e+00 8.5251540748539991e+00 3.3249792827075964e+01 0 0 0
912 2 3.6915000000000004e+00 9.2355835810918343e+00 3.3249792827075964e+01 0 0 0