LAMMPS data file via write_data, version 16 Mar 2018, timestep = 100000

6368 atoms
2 atom types

0.0000000000000000e+00 4.9219999999999999e+01 xlo xhi
0.0000000000000000e+00 4.9019635930410494e+01 ylo yhi
1.9408835090179934e+00 5.8121116490982466e+01 zlo zhi

Masses

1 18.015
2 12.01

Atoms # atomic

3135 1 1.0682075684465535e+00 1.9858457481874510e+00 8.4383437121664926e+00 1 -1 0
5094 1 7.9943664478979137e+00 1.2654967361914233e+01 9.4939804375239287e+00 0 0 0
1923 1 2.3099078633914454e+00 9.1508163089975914e-01 5.1396006385198065e+00 -1 0 0
3574 1 6.4915443753096209e+00 1.5254096961892289e+00 7.0757475417327251e+00 0 -2 0
1519 1 1.0425130878174594e+01 1.6128714627702475e+01 1.0334321665050577e+01 1 0 1
6227 1 1.6243084721797221e+00 2.8164564949397315e+00 2.7604509781671851e+00 1 1 1
1291 1 9.1807237688538770e+00 1.1917185197720503e+00 6.3490073392940234e+00 -1 -2 1
1 1 9.4874471185466547e+00 8.9850173499872610e-01 3.7237115743367770e+00 2 0 0
6132 1 1.0813562647661191e+01 3.2960401878839840e+00 7.1143795343700438e+00 1 0 1
156 1 2.3019814086189285e+00 3.7327230951127714e+00 6.0266538135173908e+00 1 2 0
4669 1 3.9266858998713881e+00 1.0979986190421451e+01 8.2732772641079340e+00 0 0 1
1287 1 8.5494065885403059e-01 1.3612166162026050e+01 8.2297753386088530e+00 -1 0 1
3308 1 6.6460770897741623e+00 3.8333369270908522e+00 5.4429585813686217e+00 1 1 0
200 1 4.2681586592894236e+00 4.8264543792067451e+00 4.5343356085804540e+00 1 0 0
3575 1 1.0303972218823274e+01 6.3120374658442628e+00 3.4135202891522463e+00 -1 1 0
2076 1 8.1173473061311121e+00 6.3055498929291662e+00 5.3749948777409156e+00 0 1 0
4598 1 9.4899586015194508e+00 5.6749434749492202e+00 7.7107776150491141e+00 1 1 1
6318 1 1.2302066962996849e+00 1.6079148475588759e+01 6.6593392817007242e+00 0 0 1
251 1 5.9747042940280382e-01 9.0784659513524826e+00 8.3866224792024049e+00 1 2 0
3027 1 1.8321288732146763e+00 8.9290206564391248e+00 4.3647401463884954e+00 -2 0 0
1731 1 1.3234300437697666e+00 1.0149113736234817e+01 1.1099593899176190e+01 3 1 0
4979 1 4.1659163997366457e+00 7.6349175077123981e+00 4.2116636397272416e+00 0 1 0
1754 1 6.5097146760792981e+00 8.2837133279412249e+00 5.6610504803246506e+00 0 0 0
1645 1 7.2222363304028612e+00 1.0833356010014890e+01 5.9139497707520663e+00 0 0 0
3514 1 8.4260025418001785e+00 1.2023539978367177e+01 3.3739912188937504e+00 2 0 0
3 1 1.0025158857384982e+01 1.2096516450309357e+01 7.8629870885405504e+00 0 1 1
4975 1 1.0817142466783388e+01 8.9063194501490663e+00 3.2954919154892020e+00 0 2 0
1590 1 9.9741242224669495e+00 1.0042662669445138e+01 5.9096543536898558e+00 0 -1 1
3231 1 2.2493943900067865e+00 1.1451155758647499e+01 2.8643337560986573e+00 0 -1 0
6055 1 7.6568039357915474e+00 1.0352252703967638e+01 1.1098101647943702e+01 1 2 1
6183 1 9.9749039647839037e+00 9.0434778256367192e+00 1.0884730762164089e+01 2 2 0
451 1 2.8838114938501014e-01 2.7975247423522309e-01 1.0277048456370611e+01 -1 1 1
64 1 8.0510289316042165e+00 3.2407322398604741e+00 3.1958463814614984e+00 1 1 0
3540 1 3.8733417854198313e+00 1.3301398932495307e+01 3.7699076001248923e+00 -1 -1 0
3123 1 5.0998530049032382e+00 1.2470234514502673e+01 6.4985396162003459e+00 0 0 1
3418 1 1.1809207011410878e+01 1.0180133127730350e+01 1.2835155561537208e+01 1 -2 0
3140 1 1.0278756336288446e+01 1.4352193721741175e+01 6.4458430765699655e+00 -1 2 0
5349 1 1.0152369574448727e+01 1.4120339352446578e+01 3.7495951059886941e+00 1 1 1
5302 1 5.4928715011150793e+00 9.3802320274802113e+00 9.9030506845769821e+00 0 -1 1
3609 1 9.2612190199203894e+00 1.3956427789640614e+01 1.1588324563621509e+01 -1 1 1
3577 1 3.3920723298595705e+00 3.4315873014338902e+00 9.3786648535109673e+00 0 1 1
4570 1 2.1112971525310420e+00 2.2589525175482681e+00 1.1908149263697059e+01 2 0 1
3450 1 6.8924334328969969e+00 6.2294341038602861e+00 1.2405232473441242e+01 1 -1 0
3461 1 6.0955741529567264e+00 2.6606392651557305e+00 9.5533460624942776e+00 1 1 0
5126 1 1.0843556161704305e+01 8.4522340156090188e+00 7.9836249800831229e+00 -1 2 0
1250 1 1.0584079198469700e+01 3.8573941565973620e+00 1.1844030415631575e+01 0 0 1
4834 1 6.2032343105144152e+00 9.4237830694821700e-01 1.1798424879774190e+01 1 1 0
1878 1 5.8878158769447166e+00 2.0026508860771250e+00 2.0527857437105177e+00 0 2 0
6341 1 1.3417472350492728e-02 1.3256137408586088e+01 3.3683186865779096e+00 1 1 1
1742 1 2.6467128998796046e+00 6.0888107293127156e+00 1.0811686702356560e+01 -1 0 0
2838 1 4.6234997302643954e+00 7.7218636410975474e+00 1.1915877997026342e+01 2 -1 1
6224 1 6.3658646118861251e+00 1.4306986908227454e+01 8.0557761633127072e+00 0 0 0
6060 1 7.3903561713325203e+00 5.4356509130122790e+00 9.5603938103086854e+00 -1 -1 1
394 1 8.1618302845775652e+00 1.5909006308223177e+01 6.8494822791326779e+00 3 2 0
3690 1 9.4754650364091084e+00 6.5139815712748312e+00 1.1726033290616341e+01 0 -1 1
1314 1 7.8627674940116812e+00 3.4465158320342675e+00 1.2192619664057059e+01 -1 0 1
5259 1 2.7659332537958354e+00 8.9545774237392877e+00 7.0581318033178659e+00 2 1 1
3546 1 2.7749322360598256e+00 1.2536514608257022e+01 1.0138629046663324e+01 1 0 0
4814 1 2.8926083348202978e+00 6.0608071163211816e+00 7.8389718090819871e+00 1 1 1
1447 1 2.7192497858650273e+00 1.5407897588438711e+01 1.0511200710070218e+01 0 -1 1
1323 1 5.7630646449349596e+00 7.1987168433344442e+00 8.1373021747010785e+00 1 2 1
1753 1 1.9661310435221562e+00 1.4603445507433038e+01 1.3064936695490326e+01 0 0 0
6304 1 6.3393162751055323e+00 1.3417208594129722e+01 2.4309728145264620e+00 1 0 1
389 1 5.0271204372895149e+00 1.6238979326552805e+01 3.7826066109723886e+00 2 -1 0
5265 1 1.1880415597662507e+01 1.2613452583706144e+00 2.4720488237150922e+00 1 3 0
4860 1 1.1822316633933001e+01 2.7708104100881119e+00 9.5310134772024959e+00 0 -1 1
1801 1 1.1450208384752759e+01 1.3010658521760577e+01 1.2988512854878199e+01 -1 1 0
5300 1 1.6335294663069466e+00 1.1452352897017763e+00 1.7327696599566472e+01 -2 1 1
4475 1 6.6747002632037651e+00 2.1843650729893760e+00 1.6823086520046267e+01 0 0 1
6027 1 4.2004567768349546e+00 2.2566676519859907e+00 1.5732811879064274e+01 1 0 1
1785 1 3.9482158917206465e+00 1.0099640506538594e+00 1.3195892494471115e+01 1 0 0
4646 1 1.1707778873337600e+00 1.3416724619699107e+01 2.4340524596511127e+01 1 0 1
4754 1 1.1052830219384905e+01 1.4249667915785766e+01 2.4027728768075470e+01 1 1 0
1357 1 1.6794119731198760e+00 5.0061958986328454e+00 2.1345058977477994e+01 0 0 1
6241 1 7.5962713682506502e+00 1.5896885391256163e+01 2.2221250896248765e+01 1 0 0
6249 1 1.1387440102856671e+01 1.5618134050741288e+00 1.3418848241723669e+01 2 1 1
6035 1 9.7133142539496955e+00 1.2599692535648259e+01 2.0119450998069770e+01 -2 0 1
6042 1 2.3990240174482547e+00 5.7789453363673706e+00 1.7881657385777814e+01 0 2 1
347 1 8.7071020464510918e-01 3.7012145469921576e+00 1.8677155460301208e+01 -1 0 0
3498 1 1.1865890986127516e+01 8.0798009993566993e+00 2.1302212686282022e+01 0 -1 0
2980 1 3.3723490034759647e+00 4.8986258818684965e+00 1.5435690769236473e+01 1 -1 1
408 1 6.9874168724153334e+00 4.8365053652080086e+00 1.7788070301445138e+01 -1 -1 0
5167 1 1.0311130682494106e+01 4.0103796352945462e+00 1.5412872562936045e+01 0 0 0
3472 1 1.0280311364683925e+01 7.0105276351685850e+00 1.4484271454141970e+01 2 0 0
6271 1 3.3170446397051281e+00 1.2322128321788584e+01 1.4078775464193033e+01 2 0 1
4900 1 9.7818007551400434e+00 8.1541410350599879e+00 1.9448212542293764e+01 0 1 0
5096 1 1.5282787789733867e+00 8.3679893162115135e+00 1.6650872800314854e+01 1 0 0
5174 1 5.8823743451098078e+00 8.7673210357727669e+00 1.5302005532658141e+01 0 0 0
2900 1 9.8996958919875020e+00 9.8763410231974493e+00 1.5393607638563665e+01 0 1 1
1952 1 6.2271279603664684e+00 1.0226187567028985e+01 1.8013763858152011e+01 1 1 0
2074 1 1.0751126742232897e+01 1.2898538351368153e+01 1.5925848921484802e+01 2 0 0
3440 1 7.5197110096588888e+00 1.0474122971152619e+01 1.3881593841627149e+01 0 3 0
386 1 1.1339283829893903e+01 6.1110824144532705e+00 1.8385126489745524e+01 2 2 0
5139 1 1.4696445226771870e+00 1.1714494285056986e+01 1.6319456640006852e+01 1 2 0
3655 1 3.0513881281682544e+00 1.3671990014885379e+01 1.7978087092453858e+01 1 -1 0
5993 1 4.1191480576458952e+00 9.7083831491346295e+00 2.3776432706213821e+01 0 1 1
3600 1 9.2550408270274858e+00 1.6341047973077685e+00 2.3497484234178241e+01 1 1 0
1271 1 6.1365186317037734e+00 1.2691753205912752e+01 1.4709431655221238e+01 0 1 1
1908 1 5.5921664000186002e+00 1.3025913784243999e+01 1.7523827565066824e+01 -1 1 0
3302 1 7.1757957395997449e+00 1.5358057585406749e+01 1.8027530887731778e+01 1 -1 0
63 1 7.6983070734854673e+00 3.8943744716507451e+00 2.4182680690613523e+01 2 -1 0
5230 1 9.1395765095611647e+00 1.5498958591354052e+01 1.5921048440155060e+01 2 -1 0
253 1 1.6450843808037476e+00 1.9881082999636770e+00 2.1102980801747794e+01 1 0 0
3706 1 4.3823694238759749e+00 2.6696187060665384e+00 2.0711951784221299e+01 1 1 1
5997 1 1.1753122976779919e+01 2.8078567627746538e+00 1.7920000845961496e+01 0 1 0
2916 1 6.6293776096121659e+00 8.0268743398611742e-01 1.9517902112551329e+01 0 0 1
5083 1 8.5290987223009811e+00 1.3898647279850611e+01 2.3703826845096934e+01 1 2 0
5991 1 5.2255190041385031e+00 2.8284875133404781e+00 2.3915686373532719e+01 0 1 1
3503 1 2.6617314639477407e-01 1.1557186277576687e+01 2.0641967253534403e+01 1 1 0
4657 1 3.4282636134387436e+00 4.8369066541637888e+00 2.3798593587380690e+01 1 1 1
6114 1 9.0072818074169589e+00 1.6980549671785925e+00 2.0787167474068376e+01 -2 1 1
3153 1 1.1990126603335543e+01 2.6513886889718532e+00 2.1029083320496408e+01 -2 0 0
1981 1 3.3492841554849213e+00 9.4023687212008138e+00 1.4340699247699940e+01 0 1 0
4980 1 5.1417192899652120e-01 1.0264357591941040e+00 2.3587199584413884e+01 0 1 0
1451 1 5.0083633345229153e+00 7.1555624303017549e+00 2.3520088257323522e+01 0 0 1
5045 1 5.2673248951645668e+00 7.3726260115011080e+00 2.0931164057138076e+01 2 2 0
1898 1 9.3720247896601201e+00 4.1548811274396558e+00 1.9083622965931017e+01 0 1 0
4995 1 4.7041559880815100e+00 5.2049370016246614e+00 1.9419895580190019e+01 0 1 0
3676 1 1.1422834203725953e+01 5.6046146516938133e+00 2.3967854261633601e+01 2 0 0
6064 1 9.3546221736326309e+00 5.0505465794148350e+00 2.1875583415367558e+01 3 0 1
2950 1 7.5252888322140219e+00 1.4767371261623719e+01 1.3786207675786375e+01 1 -2 1
330 1 8.5732762344780351e+00 1.8215771942420353e+00 1.4535373757101469e+01 0 -1 0
5995 1 1.0502022403651792e+00 7.8939847954285911e+00 2.1091232581886047e+01 1 0 1
1687 1 1.7704775182004100e+00 9.9143913606200371e+00 1.8969065047925969e+01 2 -2 1
1901 1 1.4037736209069505e+00 9.4301316806658644e+00 2.3439490758691250e+01 0 0 0
4760 1 5.2542370966184713e+00 1.1469574164662871e+01 2.2365095104786956e+01 1 0 0
128 1 4.3794970816538417e+00 9.9228728860983519e+00 2.0163468358086202e+01 0 1 0
5310 1 7.9203335762830767e+00 7.2721762805654189e+00 2.1257381545765302e+01 0 -2 1
4978 1 8.5660362366279639e+00 9.2730301577907266e+00 2.3359662700776060e+01 -1 0 0
4437 1 8.2026520076645824e+00 1.1865405069374665e+01 2.2086269447637068e+01 0 0 1
341 1 9.1012642501757757e+00 1.0553783753653041e+01 1.8087855288970431e+01 0 1 0
5074 1 1.1846016866421923e+01 1.7224428150367588e+00 2.4014603299468941e+01 1 1 0
1347 1 3.6922193581123617e+00 1.3775885354558435e+01 2.2672070901600705e+01 2 1 1
5306 1 1.8857117138837893e+00 1.4011106945864194e+01 2.0501182471428042e+01 1 0 1
3420 1 9.0811414908685695e+00 1.5329075577952025e+01 1.9906360201258209e+01 1 1 0
4842 1 5.8916217973838174e+00 5.9972353165377239e+00 1.5286612595052926e+01 0 2 0
370 1 1.1358831729221128e+01 8.2031547222537213e+00 2.3821817939932604e+01 -1 -1 0
362 1 1.2186126707476882e+01 8.9133602371089982e+00 1.7142808128689346e+01 0 -1 0
3076 1 6.4763906092949775e-01 3.9951156461543231e+00 2.4411089358534465e+01 0 1 1
3478 1 1.5511061450296872e+00 4.9176155164752515e+00 1.3287518924200807e+01 1 1 0
1320 1 9.2726364336902567e-01 7.8076277731555166e+00 1.3251486323417684e+01 -1 -1 1
556 2 0.0000000000000000e+00 2.8417180249513345e+00 2.6854169866980911e+01 0 0 0
558 2 0.0000000000000000e+00 0.0000000000000000e+00 2.6854169866980911e+01 0 0 0
560 2 1.2305000000000001e+00 7.1042950623783474e-01 2.6854169866980911e+01 0 0 0
567 2 1.2305000000000001e+00 2.1312885187134998e+00 2.6854169866980911e+01 0 0 0
569 2 2.4610000000000003e+00 2.8417180249513345e+00 2.6854169866980911e+01 0 0 0
571 2 2.4610000000000003e+00 0.0000000000000000e+00 2.6854169866980911e+01 0 0 0
573 2 3.6915000000000004e+00 7.1042950623783474e-01 2.6854169866980911e+01 0 0 0
588 2 3.6914999999999996e+00 2.1312885187134998e+00 2.6854169866980911e+01 0 0 0
557 2 0.0000000000000000e+00 1.4208590124756650e+00 3.0031000000000216e+01 0 0 0
559 2 0.0000000000000000e+00 0.0000000000000000e+00 3.0031000000000216e+01 0 0 0
566 2 1.2305000000000001e+00 3.5521475311891644e+00 3.0031000000000216e+01 0 0 0
568 2 1.2305000000000001e+00 2.1312885187134998e+00 3.0031000000000216e+01 0 0 0
570 2 2.4610000000000003e+00 1.4208590124756650e+00 3.0031000000000216e+01 0 0 0
572 2 2.4610000000000003e+00 0.0000000000000000e+00 3.0031000000000216e+01 0 0 0
587 2 3.6914999999999996e+00 3.5521475311891644e+00 3.0031000000000216e+01 0 0 0
589 2 3.6914999999999996e+00 2.1312885187134998e+00 3.0031000000000216e+01 0 0 0
590 2 4.9220000000000006e+00 2.8417180249513332e+00 2.6854169866980911e+01 0 0 0
592 2 4.9220000000000006e+00 0.0000000000000000e+00 2.6854169866980911e+01 0 0 0
594 2 6.1524999999999999e+00 7.1042950623783407e-01 2.6854169866980911e+01 0 0 0
617 2 6.1524999999999999e+00 2.1312885187134989e+00 2.6854169866980911e+01 0 0 0
619 2 7.3829999999999991e+00 2.8417180249513345e+00 2.6854169866980911e+01 0 0 0
621 2 7.3829999999999991e+00 0.0000000000000000e+00 2.6854169866980911e+01 0 0 0
591 2 4.9220000000000006e+00 1.4208590124756650e+00 3.0031000000000216e+01 0 0 0
593 2 4.9220000000000006e+00 0.0000000000000000e+00 3.0031000000000216e+01 0 0 0
616 2 6.1524999999999999e+00 3.5521475311891644e+00 3.0031000000000216e+01 0 0 0
618 2 6.1524999999999999e+00 2.1312885187134989e+00 3.0031000000000216e+01 0 0 0
620 2 7.3829999999999991e+00 1.4208590124756659e+00 3.0031000000000216e+01 0 0 0
622 2 7.3829999999999991e+00 0.0000000000000000e+00 3.0031000000000216e+01 0 0 0
996 2 9.8440000000000012e+00 1.5629449137232328e+01 3.3207830133016230e+01 0 0 0
623 2 8.6134999999999984e+00 7.1042950623783407e-01 2.6854169866980911e+01 0 0 0
654 2 8.6134999999999984e+00 2.1312885187135002e+00 2.6854169866980911e+01 0 0 0
656 2 9.8440000000000012e+00 2.8417180249513332e+00 2.6854169866980911e+01 0 0 0
658 2 9.8440000000000012e+00 0.0000000000000000e+00 2.6854169866980911e+01 0 0 0
660 2 1.1074500000000002e+01 7.1042950623783330e-01 2.6854169866980911e+01 0 0 0
699 2 1.1074500000000002e+01 2.1312885187135002e+00 2.6854169866980911e+01 0 0 0
653 2 8.6134999999999984e+00 3.5521475311891657e+00 3.0031000000000216e+01 0 0 0
655 2 8.6134999999999984e+00 2.1312885187135002e+00 3.0031000000000216e+01 0 0 0
657 2 9.8440000000000012e+00 1.4208590124756659e+00 3.0031000000000216e+01 0 0 0
659 2 9.8440000000000012e+00 0.0000000000000000e+00 3.0031000000000216e+01 0 0 0
698 2 1.1074500000000002e+01 3.5521475311891644e+00 3.0031000000000216e+01 0 0 0
700 2 1.1074500000000002e+01 2.1312885187135002e+00 3.0031000000000216e+01 0 0 0
561 2 0.0000000000000000e+00 7.1042950623783341e+00 2.6854169866980911e+01 0 0 0
563 2 0.0000000000000000e+00 4.2625770374269996e+00 2.6854169866980911e+01 0 0 0
565 2 1.2305000000000001e+00 4.9730065436648339e+00 2.6854169866980911e+01 0 0 0
580 2 1.2305000000000001e+00 6.3938655561404980e+00 2.6854169866980911e+01 0 0 0
582 2 2.4610000000000003e+00 7.1042950623783341e+00 2.6854169866980911e+01 0 0 0
584 2 2.4610000000000003e+00 4.2625770374269996e+00 2.6854169866980911e+01 0 0 0
586 2 3.6914999999999996e+00 4.9730065436648339e+00 2.6854169866980911e+01 0 0 0
609 2 3.6914999999999996e+00 6.3938655561404980e+00 2.6854169866980911e+01 0 0 0
562 2 0.0000000000000000e+00 5.6834360499026637e+00 3.0031000000000216e+01 0 0 0
564 2 0.0000000000000000e+00 4.2625770374269996e+00 3.0031000000000216e+01 0 0 0
579 2 1.2305000000000001e+00 7.8147245686161639e+00 3.0031000000000216e+01 0 0 0
581 2 1.2305000000000001e+00 6.3938655561404980e+00 3.0031000000000216e+01 0 0 0
583 2 2.4610000000000003e+00 5.6834360499026637e+00 3.0031000000000216e+01 0 0 0
585 2 2.4610000000000003e+00 4.2625770374269996e+00 3.0031000000000216e+01 0 0 0
608 2 3.6914999999999996e+00 7.8147245686161639e+00 3.0031000000000216e+01 0 0 0
610 2 3.6914999999999996e+00 6.3938655561404980e+00 3.0031000000000216e+01 0 0 0
997 2 9.8440000000000012e+00 1.2787731112280996e+01 3.3207830133016230e+01 0 0 0
611 2 4.9220000000000006e+00 7.1042950623783341e+00 2.6854169866980911e+01 0 0 0
613 2 4.9220000000000006e+00 4.2625770374269978e+00 2.6854169866980911e+01 0 0 0
615 2 6.1524999999999999e+00 4.9730065436648339e+00 2.6854169866980911e+01 0 0 0
646 2 6.1524999999999999e+00 6.3938655561404980e+00 2.6854169866980911e+01 0 0 0
648 2 7.3830000000000009e+00 7.1042950623783341e+00 2.6854169866980911e+01 0 0 0
650 2 7.3829999999999991e+00 4.2625770374269996e+00 2.6854169866980911e+01 0 0 0
612 2 4.9220000000000006e+00 5.6834360499026637e+00 3.0031000000000216e+01 0 0 0
614 2 4.9220000000000006e+00 4.2625770374269978e+00 3.0031000000000216e+01 0 0 0
645 2 6.1524999999999999e+00 7.8147245686161639e+00 3.0031000000000216e+01 0 0 0
647 2 6.1524999999999999e+00 6.3938655561404980e+00 3.0031000000000216e+01 0 0 0
649 2 7.3829999999999991e+00 5.6834360499026637e+00 3.0031000000000216e+01 0 0 0
651 2 7.3829999999999991e+00 4.2625770374269996e+00 3.0031000000000216e+01 0 0 0
972 2 7.3829999999999991e+00 1.5629449137232333e+01 3.3207830133016230e+01 0 0 0
652 2 8.6135000000000002e+00 4.9730065436648339e+00 2.6854169866980911e+01 0 0 0
691 2 8.6135000000000002e+00 6.3938655561404980e+00 2.6854169866980911e+01 0 0 0
693 2 9.8440000000000012e+00 7.1042950623783341e+00 2.6854169866980911e+01 0 0 0
695 2 9.8440000000000012e+00 4.2625770374270004e+00 2.6854169866980911e+01 0 0 0
697 2 1.1074500000000002e+01 4.9730065436648339e+00 2.6854169866980911e+01 0 0 0
738 2 1.1074500000000002e+01 6.3938655561404980e+00 2.6854169866980911e+01 0 0 0
690 2 8.6135000000000002e+00 7.8147245686161639e+00 3.0031000000000216e+01 0 0 0
692 2 8.6135000000000002e+00 6.3938655561404980e+00 3.0031000000000216e+01 0 0 0
694 2 9.8440000000000012e+00 5.6834360499026637e+00 3.0031000000000216e+01 0 0 0
696 2 9.8440000000000012e+00 4.2625770374270004e+00 3.0031000000000216e+01 0 0 0
737 2 1.1074500000000002e+01 7.8147245686161639e+00 3.0031000000000216e+01 0 0 0
739 2 1.1074500000000002e+01 6.3938655561404980e+00 3.0031000000000216e+01 0 0 0
574 2 0.0000000000000000e+00 1.1366872099805333e+01 2.6854169866980911e+01 0 0 0
576 2 0.0000000000000000e+00 8.5251540748539991e+00 2.6854169866980911e+01 0 0 0
578 2 1.2305000000000001e+00 9.2355835810918343e+00 2.6854169866980911e+01 0 0 0
601 2 1.2305000000000001e+00 1.0656442593567498e+01 2.6854169866980911e+01 0 0 0
603 2 2.4610000000000003e+00 1.1366872099805333e+01 2.6854169866980911e+01 0 0 0
605 2 2.4610000000000003e+00 8.5251540748539991e+00 2.6854169866980911e+01 0 0 0
607 2 3.6915000000000004e+00 9.2355835810918343e+00 2.6854169866980911e+01 0 0 0
638 2 3.6914999999999996e+00 1.0656442593567499e+01 2.6854169866980911e+01 0 0 0
575 2 0.0000000000000000e+00 9.9460130873296642e+00 3.0031000000000216e+01 0 0 0
577 2 0.0000000000000000e+00 8.5251540748539991e+00 3.0031000000000216e+01 0 0 0
600 2 1.2305000000000001e+00 1.2077301606043163e+01 3.0031000000000216e+01 0 0 0
602 2 1.2305000000000001e+00 1.0656442593567498e+01 3.0031000000000216e+01 0 0 0
604 2 2.4610000000000003e+00 9.9460130873296642e+00 3.0031000000000216e+01 0 0 0
606 2 2.4610000000000003e+00 8.5251540748539991e+00 3.0031000000000216e+01 0 0 0
637 2 3.6914999999999996e+00 1.2077301606043163e+01 3.0031000000000216e+01 0 0 0
639 2 3.6914999999999996e+00 1.0656442593567499e+01 3.0031000000000216e+01 0 0 0
974 2 8.6135000000000002e+00 1.3498160618518835e+01 3.3207830133016230e+01 0 0 0
640 2 4.9220000000000006e+00 1.1366872099805333e+01 2.6854169866980911e+01 0 0 0
642 2 4.9220000000000006e+00 8.5251540748539991e+00 2.6854169866980911e+01 0 0 0
644 2 6.1524999999999999e+00 9.2355835810918343e+00 2.6854169866980911e+01 0 0 0
683 2 6.1524999999999999e+00 1.0656442593567499e+01 2.6854169866980911e+01 0 0 0
685 2 7.3829999999999991e+00 1.1366872099805333e+01 2.6854169866980911e+01 0 0 0
687 2 7.3830000000000009e+00 8.5251540748539991e+00 2.6854169866980911e+01 0 0 0
641 2 4.9220000000000006e+00 9.9460130873296642e+00 3.0031000000000216e+01 0 0 0
643 2 4.9220000000000006e+00 8.5251540748539991e+00 3.0031000000000216e+01 0 0 0
682 2 6.1524999999999999e+00 1.2077301606043163e+01 3.0031000000000216e+01 0 0 0
684 2 6.1524999999999999e+00 1.0656442593567499e+01 3.0031000000000216e+01 0 0 0
686 2 7.3830000000000009e+00 9.9460130873296642e+00 3.0031000000000216e+01 0 0 0
688 2 7.3830000000000009e+00 8.5251540748539991e+00 3.0031000000000216e+01 0 0 0
689 2 8.6134999999999984e+00 9.2355835810918343e+00 2.6854169866980911e+01 0 0 0
730 2 8.6134999999999984e+00 1.0656442593567498e+01 2.6854169866980911e+01 0 0 0
732 2 9.8440000000000012e+00 1.1366872099805333e+01 2.6854169866980911e+01 0 0 0
734 2 9.8440000000000012e+00 8.5251540748539956e+00 2.6854169866980911e+01 0 0 0
736 2 1.1074500000000002e+01 9.2355835810918343e+00 2.6854169866980911e+01 0 0 0
777 2 1.1074500000000002e+01 1.0656442593567498e+01 2.6854169866980911e+01 0 0 0
779 2 1.2304999999999998e+01 1.1366872099805333e+01 2.6854169866980911e+01 0 0 0
729 2 8.6135000000000002e+00 1.2077301606043163e+01 3.0031000000000216e+01 0 0 0
731 2 8.6134999999999984e+00 1.0656442593567498e+01 3.0031000000000216e+01 0 0 0
733 2 9.8440000000000012e+00 9.9460130873296642e+00 3.0031000000000216e+01 0 0 0
735 2 9.8440000000000012e+00 8.5251540748539956e+00 3.0031000000000216e+01 0 0 0
776 2 1.1074500000000002e+01 1.2077301606043163e+01 3.0031000000000216e+01 0 0 0
778 2 1.1074500000000002e+01 1.0656442593567498e+01 3.0031000000000216e+01 0 0 0
595 2 0.0000000000000000e+00 1.5629449137232333e+01 2.6854169866980911e+01 0 0 0
597 2 0.0000000000000000e+00 1.2787731112280996e+01 2.6854169866980911e+01 0 0 0
599 2 1.2305000000000001e+00 1.3498160618518829e+01 2.6854169866980911e+01 0 0 0
630 2 1.2305000000000001e+00 1.4919019630994494e+01 2.6854169866980911e+01 0 0 0
632 2 2.4610000000000003e+00 1.5629449137232328e+01 2.6854169866980911e+01 0 0 0
634 2 2.4610000000000003e+00 1.2787731112280996e+01 2.6854169866980911e+01 0 0 0
636 2 3.6915000000000004e+00 1.3498160618518829e+01 2.6854169866980911e+01 0 0 0
675 2 3.6915000000000004e+00 1.4919019630994494e+01 2.6854169866980911e+01 0 0 0
596 2 0.0000000000000000e+00 1.4208590124756663e+01 3.0031000000000216e+01 0 0 0
598 2 0.0000000000000000e+00 1.2787731112280996e+01 3.0031000000000216e+01 0 0 0
631 2 1.2305000000000001e+00 1.4919019630994494e+01 3.0031000000000216e+01 0 0 0
633 2 2.4610000000000003e+00 1.4208590124756663e+01 3.0031000000000216e+01 0 0 0
635 2 2.4610000000000003e+00 1.2787731112280996e+01 3.0031000000000216e+01 0 0 0
676 2 3.6915000000000004e+00 1.4919019630994494e+01 3.0031000000000216e+01 0 0 0
677 2 4.9220000000000006e+00 1.5629449137232333e+01 2.6854169866980911e+01 0 0 0
679 2 4.9220000000000006e+00 1.2787731112280996e+01 2.6854169866980911e+01 0 0 0
681 2 6.1524999999999990e+00 1.3498160618518829e+01 2.6854169866980911e+01 0 0 0
722 2 6.1524999999999990e+00 1.4919019630994494e+01 2.6854169866980911e+01 0 0 0
724 2 7.3829999999999991e+00 1.5629449137232333e+01 2.6854169866980911e+01 0 0 0
726 2 7.3829999999999991e+00 1.2787731112280996e+01 2.6854169866980911e+01 0 0 0
678 2 4.9220000000000006e+00 1.4208590124756663e+01 3.0031000000000216e+01 0 0 0
680 2 4.9220000000000006e+00 1.2787731112280996e+01 3.0031000000000216e+01 0 0 0
723 2 6.1524999999999990e+00 1.4919019630994494e+01 3.0031000000000216e+01 0 0 0
725 2 7.3830000000000009e+00 1.4208590124756663e+01 3.0031000000000216e+01 0 0 0
727 2 7.3829999999999991e+00 1.2787731112280996e+01 3.0031000000000216e+01 0 0 0
728 2 8.6135000000000002e+00 1.3498160618518835e+01 2.6854169866980911e+01 0 0 0
769 2 8.6135000000000002e+00 1.4919019630994494e+01 2.6854169866980911e+01 0 0 0
771 2 9.8440000000000012e+00 1.5629449137232328e+01 2.6854169866980911e+01 0 0 0
773 2 9.8440000000000012e+00 1.2787731112280996e+01 2.6854169866980911e+01 0 0 0
775 2 1.1074500000000002e+01 1.3498160618518829e+01 2.6854169866980911e+01 0 0 0
811 2 1.1074500000000002e+01 1.4919019630994494e+01 2.6854169866980911e+01 0 0 0
770 2 8.6135000000000002e+00 1.4919019630994494e+01 3.0031000000000216e+01 0 0 0
772 2 9.8440000000000012e+00 1.4208590124756663e+01 3.0031000000000216e+01 0 0 0
774 2 9.8440000000000012e+00 1.2787731112280996e+01 3.0031000000000216e+01 0 0 0
810 2 1.1074500000000002e+01 1.6339878643470161e+01 3.0031000000000216e+01 0 0 0
812 2 1.1074500000000002e+01 1.4919019630994494e+01 3.0031000000000216e+01 0 0 0
814 2 1.2304999999999998e+01 1.4208590124756658e+01 3.0031000000000216e+01 0 0 0
995 2 8.6135000000000002e+00 1.4919019630994494e+01 3.3207830133016230e+01 0 0 0
885 2 0.0000000000000000e+00 2.8417180249513345e+00 3.3207830133016230e+01 0 0 0
886 2 0.0000000000000000e+00 0.0000000000000000e+00 3.3207830133016230e+01 0 0 0
887 2 1.2305000000000001e+00 7.1042950623783474e-01 3.3207830133016230e+01 0 0 0
891 2 1.2305000000000001e+00 2.1312885187134998e+00 3.3207830133016230e+01 0 0 0
892 2 2.4610000000000003e+00 2.8417180249513345e+00 3.3207830133016230e+01 0 0 0
893 2 2.4610000000000003e+00 0.0000000000000000e+00 3.3207830133016230e+01 0 0 0
894 2 3.6915000000000004e+00 7.1042950623783474e-01 3.3207830133016230e+01 0 0 0
902 2 3.6914999999999996e+00 2.1312885187134998e+00 3.3207830133016230e+01 0 0 0
903 2 4.9220000000000006e+00 2.8417180249513332e+00 3.3207830133016230e+01 0 0 0
904 2 4.9220000000000006e+00 0.0000000000000000e+00 3.3207830133016230e+01 0 0 0
905 2 6.1524999999999999e+00 7.1042950623783407e-01 3.3207830133016230e+01 0 0 0
917 2 6.1524999999999999e+00 2.1312885187134989e+00 3.3207830133016230e+01 0 0 0
918 2 7.3829999999999991e+00 2.8417180249513345e+00 3.3207830133016230e+01 0 0 0
919 2 7.3829999999999991e+00 0.0000000000000000e+00 3.3207830133016230e+01 0 0 0
1016 2 1.1074500000000002e+01 1.4919019630994494e+01 3.3207830133016230e+01 0 0 0
920 2 8.6134999999999984e+00 7.1042950623783407e-01 3.3207830133016230e+01 0 0 0
936 2 8.6134999999999984e+00 2.1312885187135002e+00 3.3207830133016230e+01 0 0 0
937 2 9.8440000000000012e+00 2.8417180249513332e+00 3.3207830133016230e+01 0 0 0
938 2 9.8440000000000012e+00 0.0000000000000000e+00 3.3207830133016230e+01 0 0 0
939 2 1.1074500000000002e+01 7.1042950623783330e-01 3.3207830133016230e+01 0 0 0
959 2 1.1074500000000002e+01 2.1312885187135002e+00 3.3207830133016230e+01 0 0 0
888 2 0.0000000000000000e+00 7.1042950623783341e+00 3.3207830133016230e+01 0 0 0
889 2 0.0000000000000000e+00 4.2625770374269996e+00 3.3207830133016230e+01 0 0 0
890 2 1.2305000000000001e+00 4.9730065436648339e+00 3.3207830133016230e+01 0 0 0
898 2 1.2305000000000001e+00 6.3938655561404980e+00 3.3207830133016230e+01 0 0 0
899 2 2.4610000000000003e+00 7.1042950623783341e+00 3.3207830133016230e+01 0 0 0
900 2 2.4610000000000003e+00 4.2625770374269996e+00 3.3207830133016230e+01 0 0 0
901 2 3.6914999999999996e+00 4.9730065436648339e+00 3.3207830133016230e+01 0 0 0
913 2 3.6914999999999996e+00 6.3938655561404980e+00 3.3207830133016230e+01 0 0 0
914 2 4.9220000000000006e+00 7.1042950623783341e+00 3.3207830133016230e+01 0 0 0
915 2 4.9220000000000006e+00 4.2625770374269978e+00 3.3207830133016230e+01 0 0 0
916 2 6.1524999999999999e+00 4.9730065436648339e+00 3.3207830133016230e+01 0 0 0
932 2 6.1524999999999999e+00 6.3938655561404980e+00 3.3207830133016230e+01 0 0 0
933 2 7.3830000000000009e+00 7.1042950623783341e+00 3.3207830133016230e+01 0 0 0
934 2 7.3829999999999991e+00 4.2625770374269996e+00 3.3207830133016230e+01 0 0 0
935 2 8.6135000000000002e+00 4.9730065436648339e+00 3.3207830133016230e+01 0 0 0
955 2 8.6135000000000002e+00 6.3938655561404980e+00 3.3207830133016230e+01 0 0 0
956 2 9.8440000000000012e+00 7.1042950623783341e+00 3.3207830133016230e+01 0 0 0
957 2 9.8440000000000012e+00 4.2625770374270004e+00 3.3207830133016230e+01 0 0 0
958 2 1.1074500000000002e+01 4.9730065436648339e+00 3.3207830133016230e+01 0 0 0
979 2 1.1074500000000002e+01 6.3938655561404980e+00 3.3207830133016230e+01 0 0 0
895 2 0.0000000000000000e+00 1.1366872099805333e+01 3.3207830133016230e+01 0 0 0
896 2 0.0000000000000000e+00 8.5251540748539991e+00 3.3207830133016230e+01 0 0 0
897 2 1.2305000000000001e+00 9.2355835810918343e+00 3.3207830133016230e+01 0 0 0
909 2 1.2305000000000001e+00 1.0656442593567498e+01 3.3207830133016230e+01 0 0 0
910 2 2.4610000000000003e+00 1.1366872099805333e+01 3.3207830133016230e+01 0 0 0
911 2 2.4610000000000003e+00 8.5251540748539991e+00 3.3207830133016230e+01 0 0 0
912 2 3.6915000000000004e+00 9.2355835810918343e+00 3.3207830133016230e+01 0 0 0
928 2 3.6914999999999996e+00 1.0656442593567499e+01 3.3207830133016230e+01 0 0 0
998 2 1.1074500000000002e+01 1.3498160618518829e+01 3.3207830133016230e+01 0 0 0
929 2 4.9220000000000006e+00 1.1366872099805333e+01 3.3207830133016230e+01 0 0 0
930 2 4.9220000000000006e+00 8.5251540748539991e+00 3.3207830133016230e+01 0 0 0
931 2 6.1524999999999999e+00 9.2355835810918343e+00 3.3207830133016230e+01 0 0 0
951 2 6.1524999999999999e+00 1.0656442593567499e+01 3.3207830133016230e+01 0 0 0
952 2 7.3829999999999991e+00 1.1366872099805333e+01 3.3207830133016230e+01 0 0 0
953 2 7.3830000000000009e+00 8.5251540748539991e+00 3.3207830133016230e+01 0 0 0
954 2 8.6134999999999984e+00 9.2355835810918343e+00 3.3207830133016230e+01 0 0 0
975 2 8.6134999999999984e+00 1.0656442593567498e+01 3.3207830133016230e+01 0 0 0
976 2 9.8440000000000012e+00 1.1366872099805333e+01 3.3207830133016230e+01 0 0 0
977 2 9.8440000000000012e+00 8.5251540748539956e+00 3.3207830133016230e+01 0 0 0