
# Create simulation box and atoms

read_data data.graphite_ML_1000atm_e
  orthogonal box = (0 0 1.14504) to (49.22 49.0196 58.917)
  4 by 3 by 5 MPI processor grid
  reading atoms ...
  6368 atoms
  reading velocities ...
  6368 velocities
group water type 1
3608 atoms in group water
group graphite type 2
2760 atoms in group graphite

# Define potential

pair_style sw
pair_coeff * * MLC_e.sw mW C


# Fix graphite atoms in place

fix 5 graphite setforce 0.0 0.0 0.0
velocity graphite set 0.0 0.0 0.0


# Equilibration of molecular water

# Add velocity/set timestep

velocity	    water create ${TEMP} ${SEED} rot yes dist gaussian
velocity	    water create 240 ${SEED} rot yes dist gaussian
velocity	    water create 240 18046 rot yes dist gaussian
timestep	    5.0

# Define output

compute			1 water msd
compute			3 water temp
thermo	    	50
thermo_style	custom step temp press vol etotal ke pe c_1[4] c_3

# Neighbor lists

neigh_modify    delay 0 every 1 check yes

# Set fixes

fix             1 water momentum 10 linear 1 1 1 rescale
fix             2 water nve
fix             3 water temp/csvr ${TEMP} ${TEMP} 500.0 ${SEED}
fix             3 water temp/csvr 240 ${TEMP} 500.0 ${SEED}
fix             3 water temp/csvr 240 240 500.0 ${SEED}
fix             3 water temp/csvr 240 240 500.0 18046
fix             4 water press/berendsen z ${PRES} ${PRES} 1000.0 modulus 20000
fix             4 water press/berendsen z -1000 ${PRES} 1000.0 modulus 20000
fix             4 water press/berendsen z -1000 -1000 1000.0 modulus 20000

# Run 0.5 ns equilibration

dump		    1 all atom 2000 ${DIR}/eq.${NAME}-${TEMP}.dump
dump		    1 all atom 2000 run_1/eq.${NAME}-${TEMP}.dump
dump		    1 all atom 2000 run_1/eq.het_freeze_1-${TEMP}.dump
dump		    1 all atom 2000 run_1/eq.het_freeze_1-240.dump

reset_timestep  0

run	            100000
Neighbor list info ...
  update every 1 steps, delay 0 steps, check yes
  max neighbors/atom: 2000, page size: 100000
  master list distance cutoff = 7.76
  ghost atom cutoff = 7.76
  binsize = 3.88, bins = 13 13 15
  1 neighbor lists, perpetual/occasional/extra = 1 0 0
  (1) pair sw, perpetual
      attributes: full, newton on
      pair build: full/bin/atomonly
      stencil: full/bin/3d
      bin: standard
Per MPI rank memory allocation (min/avg/max) = 4.089 | 4.19 | 4.511 Mbytes
Step Temp Press Volume TotEng KinEng PotEng c_1[4] c_3 
       0    135.96356    -1535.679    139389.01    -30592.68    2580.4276   -33173.107            0          240 
      50    184.55431   -1513.8102    139046.66   -31015.271    3502.6226   -34517.894   0.82795925    325.77136 
     100    175.23941   -1906.6485    138677.67   -31422.149    3325.8369   -34747.986    1.8472225     309.3289 
     150    167.34424   -2086.6619    138277.03    -31832.64    3175.9958   -35008.635    2.6227259    295.39251 
     200    162.86412   -2035.2441    137753.05   -32177.305    3090.9684   -35268.274    3.3404324    287.48429 
     250    161.13051   -1917.0699    137406.56   -32397.828    3058.0665   -35455.895    3.9983685    284.42416 
     300    158.12122   -1713.3671    137125.72   -32587.506    3000.9538    -35588.46    4.6172186    279.11223 
     350    157.49834   -1688.2926    136926.71    -32809.28    2989.1322   -35798.412    5.0976418    278.01273 
     400    154.54463   -1663.4499    136691.85   -32951.918    2933.0743   -35884.992    5.4785295    272.79891 
     450    152.59006   -1675.9484     136528.4   -33130.383    2895.9789   -36026.362    5.8930794    269.34874 
     500    149.24677   -1574.3339     136316.7   -33289.016    2832.5272   -36121.543    6.3527984    263.44723 
     550    147.24179   -1588.2523    136078.79   -33451.555    2794.4751    -36246.03    6.7487407    259.90809 
     600    148.68506   -1619.0347    135879.39   -33548.363    2821.8667    -36370.23     7.069058    262.45572 
     650    144.61435   -1563.0735     135625.9   -33693.225    2744.6093   -36437.834    7.4795101    255.27018 
     700    143.42094   -1196.8765    135507.77   -33819.802    2721.9598   -36541.762    7.8410101     253.1636 
     750    140.37283   -1236.6644    135430.02   -33917.408    2664.1103   -36581.518    8.1423448    247.78314 
     800    139.43866   -1460.1757    135286.04   -34021.385    2646.3809   -36667.766    8.4206318    246.13417 
     850    138.76431   -1377.6657    135067.41   -34060.771    2633.5825   -36694.354    8.8468587    244.94382 
     900      138.735   -1648.8224     134838.5   -34162.081    2633.0263   -36795.107    9.1936163    244.89208 
     950    139.25654   -1373.2822    134774.57   -34206.575    2642.9244     -36849.5    9.4383736    245.81269 
    1000    137.33821   -1210.5155    134640.26   -34242.709    2606.5169   -36849.226    9.8788257    242.42651 
    1050    137.99638   -1294.7453    134651.63   -34237.431    2619.0081   -36856.439    10.241082    243.58828 
    1100    139.63832   -1363.1903    134528.96   -34232.365    2650.1702   -36882.535    10.506938     246.4866 
    1150    136.24595   -1188.3687     134520.3   -34287.394     2585.787   -36873.181    10.597846    240.49847 
    1200    138.62414   -1222.3609       134426   -34275.081    2630.9222   -36906.004    10.847732    244.69639 
    1250    137.41508   -1464.5222    134279.73   -34252.559    2607.9757   -36860.535    11.288362    242.56218 
    1300    138.25152   -1343.9492    134127.58   -34250.723    2623.8505   -36874.573    11.603333    244.03866 
    1350    135.95207   -1403.0308    134068.31   -34265.107    2580.2096   -36845.316    11.935648    239.97972 
    1400    137.64857   -1276.2286    134053.46   -34328.919    2612.4072   -36941.326    12.072982    242.97435 
    1450    133.91251   -1074.6186    134048.62   -34368.768    2541.5011    -36910.27    12.259973    236.37953 
    1500    134.66139    -1194.342    134057.51   -34435.643     2555.714   -36991.357    12.513798    237.70143 
    1550     134.9423   -1287.3557    134062.96    -34426.46    2561.0453   -36987.506    12.663821    238.19729 
    1600    136.04997   -1414.0326     134054.1   -34427.435    2582.0675   -37009.503    12.939156    240.15252 
    1650    132.76855   -1204.0729    134046.55   -34467.705    2519.7901   -36987.495    13.133934    234.36024 
    1700     134.5203   -1168.1316    134061.41   -34434.035    2553.0363   -36987.072    13.263011    237.45239 
    1750    137.95352   -1116.5211    134071.75   -34487.303    2618.1947   -37105.498    13.411583    243.51263 
    1800    134.60097     -761.742    134161.74   -34474.405    2554.5673   -37028.972    13.492141    237.59478 
    1850    138.44028   -1149.3563    134266.56   -34497.013    2627.4328   -37124.446    13.720136    244.37185 
    1900    137.64299   -964.11767    134294.42   -34509.703    2612.3012   -37122.005    13.904464     242.9645 
    1950    134.81382   -1194.9575    134266.94    -34570.89    2558.6068   -37129.496    14.012911    237.97049 
    2000    135.71022   -1274.1006    134204.37   -34545.695    2575.6195   -37121.315    14.160595    239.55281 
    2050    136.13452   -1177.6858    134213.82   -34569.683    2583.6723   -37153.355      14.3647    240.30178 
    2100    137.03286   -1158.6387    134199.47   -34571.344    2600.7217   -37172.066    14.602904    241.88751 
    2150    137.25781   -1645.2276    134144.69   -34582.473    2604.9909   -37187.464    14.691344    242.28458 
    2200     134.4249   -1221.5078    134077.81   -34606.689    2551.2256   -37157.915    14.647055    237.28398 
    2250    137.36316   -1216.1761    134091.32   -34592.176    2606.9904   -37199.166    14.817292    242.47054 
    2300    136.10677    -1226.716    134062.57    -34579.44    2583.1456   -37162.586     15.08234    240.25279 
    2350    135.52521   -1290.0522    134091.82   -34560.538    2572.1083   -37132.646     15.18145    239.22623 
    2400    134.04841   -1307.7835    134102.78   -34648.359    2544.0804   -37192.439    15.354074    236.61942 
    2450    139.09735   -1207.2676    134212.01   -34603.732    2639.9031   -37243.635    15.491851    245.53169 
    2500    137.35686   -1316.0509    134253.13   -34604.153    2606.8708   -37211.024    15.714011    242.45942 
    2550    137.97042   -1283.8143    134233.67   -34639.002    2618.5154   -37257.517    15.800298    243.54246 
    2600    137.64912    -1086.348    134123.49   -34630.968    2612.4176   -37243.386     15.98394    242.97531 
    2650    136.34855   -1166.8594    134148.65   -34624.935    2587.7343    -37212.67    16.104923    240.67958 
    2700    139.58787   -1063.9278    134166.57   -34630.236    2649.2128   -37279.449    16.226136    246.39756 
    2750    136.31412   -1362.0074     134321.5   -34650.825    2587.0808   -37237.906    16.210204     240.6188 
    2800    136.15478   -1189.2134    134386.77   -34615.159    2584.0568   -37199.216    16.381915    240.33754 
    2850     137.8847   -1209.8201    134420.87   -34594.724    2616.8885   -37211.613    16.493659    243.39115 
    2900    137.10973   -1292.3085    134365.89   -34673.998    2602.1805   -37276.178    16.665802    242.02319 
    2950    136.30834   -1176.3899    134327.49   -34716.674    2586.9711   -37303.645    16.838984    240.60859 
    3000    135.88433   -1305.1456    134359.15   -34716.642     2578.924   -37295.566    16.908932    239.86015 
    3050     135.8288   -1148.5706    134364.04   -34762.002      2577.87   -37339.872    17.088617    239.76212 
    3100    131.90069   -1197.5459    134437.73   -34753.234    2503.3192   -37256.553    17.108167    232.82831 
    3150    135.77944   -1089.9109    134429.71   -34722.289    2576.9333   -37299.222    17.238947      239.675 
    3200    134.65024    -1402.349    134502.61   -34706.239    2555.5023   -37261.741    17.321749    237.68175 
    3250    131.94733    -1258.336    134376.87   -34724.821    2504.2044   -37229.025    17.478539    232.91064 
    3300    131.55891   -1376.1779    134305.63   -34729.727    2496.8325   -37226.559    17.662006      232.225 
    3350    135.20602   -1470.6105    134268.45   -34738.529    2566.0504   -37304.579    17.774967     238.6628 
    3400    136.11144   -949.31631    134233.57   -34677.351    2583.2342   -37260.585    17.854093    240.26103 
    3450     135.9343   -1142.9371    134209.53   -34699.211    2579.8724   -37279.083    18.033098    239.94836 
    3500    137.12624   -1119.4326    134198.12   -34691.475    2602.4939   -37293.969     18.16403    242.05234 
    3550    136.66935   -980.84359    134279.92   -34693.385    2593.8227   -37287.208    18.313203    241.24585 
    3600    139.47049   -1113.4226    134299.05   -34657.174     2646.985   -37304.159    18.532153    246.19036 
    3650    136.74489   -1140.4121    134286.95   -34683.159    2595.2563   -37278.415    18.760132    241.37918 
    3700    136.09524   -1219.2904    134341.65   -34626.129    2582.9268   -37209.056    18.889373    240.23244 
    3750    138.17736   -1207.2692    134378.37   -34652.817    2622.4429    -37275.26    19.004007    243.90775 
    3800    138.36056   -1387.8731    134344.32   -34648.582    2625.9199   -37274.502    19.189654    244.23113 
    3850    137.43591   -1218.3287    134309.88   -34654.243    2608.3711   -37262.614    19.355155    242.59896 
    3900    136.50888   -1106.3327    134330.19   -34662.024    2590.7771   -37252.801    19.571963    240.96258 
    3950    132.98348   -1299.5978    134301.14   -34653.171    2523.8692    -37177.04    19.776517    234.73962 
    4000     134.8867   -1033.9458    134345.39   -34644.647    2559.9901   -37204.637    19.922728    238.09915 
    4050    138.54802   -1339.2676       134493    -34624.14    2629.4776   -37253.618    20.061669    244.56203 
    4100    138.56991   -1205.4392    134572.35   -34649.346    2629.8931   -37279.239    20.104997    244.60068 
    4150    136.28758   -1252.2435    134594.42   -34677.861     2586.577   -37264.438    20.164928    240.57194 
    4200    138.21913   -1212.3376    134633.64   -34661.011    2623.2357   -37284.247    20.359764    243.98149 
    4250    137.17337   -1192.7257    134622.66   -34686.176    2603.3883   -37289.564    20.649666    242.13552 
    4300    135.97915   -901.83151    134614.52   -34723.125    2580.7236   -37303.849    20.763394    240.02752 
    4350    136.09572   -1023.1845    134604.67   -34727.073    2582.9359   -37310.009    20.844429    240.23329 
    4400    136.78552   -1182.0414     134628.6   -34720.653    2596.0274   -37316.681    20.942024     241.4509 
    4450    135.35508   -1054.0375    134605.69   -34701.244    2568.8793   -37270.123    21.131217    238.92591 
    4500    136.61413   -1108.7167    134605.77   -34712.969    2592.7746   -37305.744    21.149657    241.14837 
    4550    137.81738   -827.42474    134600.24   -34724.841     2615.611   -37340.452    21.352832    243.27233 
    4600    136.41787   -1125.4928     134663.2   -34728.509    2589.0498   -37317.558    21.439423    240.80193 
    4650    135.42916   -1197.7314    134717.67   -34684.935    2570.2853   -37255.221    21.484182    239.05669 
    4700    134.50423   -1413.7679     134769.4    -34730.25    2552.7312   -37282.981    21.666845    237.42401 
    4750    137.06395   -1107.3645    134732.65    -34778.43    2601.3117   -37379.742    21.810645    241.94238 
    4800    139.16206   -1342.9224    134693.21   -34715.649    2641.1313   -37356.781    22.036802    245.64592 
    4850    137.46005   -1260.0841    134642.82   -34696.363    2608.8292   -37305.192    22.227933    242.64157 
    4900    135.12731   -1170.0738     134692.5   -34707.465    2564.5565   -37272.022    22.289314    238.52386 
    4950    137.11738   -1288.4425    134658.56   -34689.269    2602.3258   -37291.595     22.30895     242.0367 
    5000    132.15819   -914.19367    134611.11   -34688.553    2508.2062   -37196.759    22.538759    233.28284 
    5050     134.3064    -1101.334    134602.12   -34662.168    2548.9767   -37211.145    22.779404    237.07482 
    5100     136.0676   -1155.2446    134655.14   -34649.661    2582.4021   -37232.063    22.812904    240.18364 
    5150    135.64119   -1086.4046    134696.81   -34618.606    2574.3094   -37192.915    22.850766    239.43095 
    5200    137.11372   -1192.6197    134767.74   -34683.835    2602.2564   -37286.091    22.976452    242.03024 
    5250    134.98579   -1594.6272     134696.3   -34703.512    2561.8707   -37265.383    23.147189    238.27406 
    5300    137.05302   -1306.4454    134630.73   -34666.448    2601.1042   -37267.552    23.333227    241.92308 
    5350     136.4052   -1218.1151    134500.12   -34619.912    2588.8095   -37208.721    23.649104    240.77958 
    5400    137.11776   -1282.4663    134472.19   -34629.671     2602.333   -37232.004    23.890361    242.03737 
    5450    135.70397   -1120.9131    134476.92   -34651.419     2575.501    -37226.92    24.049757    239.54178 
    5500    137.33934   -1335.8414    134381.66   -34635.822    2606.5383    -37242.36    24.253398     242.4285 
    5550    132.92875   -1444.0718    134312.32   -34650.465    2522.8304   -37173.296    24.313814    234.64301 
    5600    135.19201   -1367.3133    134229.19   -34603.007    2565.7844   -37168.792    24.478532    238.63807 
    5650     135.5404   -1477.6512    134146.41   -34618.571    2572.3965   -37190.967    24.869843    239.25305 
    5700    136.86752   -1350.4929    134180.95   -34597.619    2597.5836   -37195.203    25.138154    241.59564 
    5750    136.94019   -1304.6739    134182.11   -34629.791     2598.963   -37228.754    25.274844    241.72393 
    5800    134.56592   -1426.4506    134143.61     -34640.9    2553.9021   -37194.802    25.511732    237.53292 
    5850    137.11234    -1007.428    134172.78   -34626.839    2602.2301   -37229.069    25.647157     242.0278 
    5900    138.33925   -1118.0443    134199.93   -34662.981    2625.5154   -37288.496    25.666105    244.19352 
    5950    133.55655   -1088.1081    134338.09   -34657.871    2534.7454   -37192.617    25.767655    235.75119 
    6000    135.32891   -999.80124    134418.42   -34674.127    2568.3828    -37242.51    25.651698    238.87973 
    6050    135.42452   -1062.2881     134530.7   -34676.298    2570.1973   -37246.495    25.833462     239.0485 
    6100    137.45827   -989.23833    134624.22   -34691.462    2608.7955   -37300.258    25.706184    242.63843 
    6150    133.83297   -1149.4445    134702.66    -34730.01    2539.9915   -37270.001     25.90476    236.23912 
    6200    137.57764   -1144.7557    134761.37   -34725.219    2611.0609   -37336.279    26.084935    242.84913 
    6250    135.20046   -1043.2639    134816.85   -34714.341    2565.9448   -37280.286    26.202993    238.65298 
    6300    134.83343   -1043.8631    134870.26   -34722.244     2558.979   -37281.223    26.363198    238.00511 
    6350    135.28386   -1094.3524    135018.07   -34773.448    2567.5277   -37340.975    26.385613     238.8002 
    6400    134.83901   -1312.0276    135133.21   -34709.815    2559.0849     -37268.9    26.507855    238.01496 
    6450    132.30949   -1454.7986    135170.29   -34759.811    2511.0776   -37270.888    26.797451     233.5499 
    6500    131.35153   -1383.1214    135116.82   -34813.721    2492.8968   -37306.618    27.060418    231.85894 
    6550     135.3414    -1172.225    135143.79   -34786.411    2568.6198    -37355.03     27.23291    238.90178 
    6600    131.77853   -1337.0834     135157.9   -34783.894    2501.0007   -37284.895    27.416423    232.61267 
    6650    138.60999   -1412.5697       135023   -34756.985    2630.6537   -37387.639    27.537727    244.67141 
    6700    136.55614   -1073.3796    134989.33   -34756.444    2591.6741   -37348.118    27.722182    241.04601 
    6750    134.43042   -1078.1441    134933.33   -34800.871    2551.3304   -37352.201    27.961829    237.29373 
    6800    136.67131   -1354.5937     134932.2    -34767.67    2593.8598   -37361.529    28.165775    241.24929 
    6850    136.71642   -880.23984    135046.16   -34764.848    2594.7159   -37359.564    28.209488    241.32892 
    6900     136.6041    -1089.409    135057.89   -34763.858    2592.5844   -37356.443    28.216334    241.13067 
    6950    136.62242   -1149.0401    135013.87   -34780.044     2592.932   -37372.976    28.325333    241.16301 
    7000    133.61563   -1227.7988    134999.68   -34783.385    2535.8667   -37319.252    28.452481    235.85548 
    7050     135.2632   -1403.4972    134968.65    -34738.37    2567.1356   -37305.505    28.616641    238.76374 
    7100     134.4806   -1192.4562     134980.7   -34749.393    2552.2827   -37301.676    28.772075     237.3823 
    7150    139.19688   -1045.2459    135040.25   -34707.701    2641.7922   -37349.493     28.81588    245.70738 
    7200    137.84531   -882.95553    135127.52   -34716.681    2616.1409   -37332.822    28.896224    243.32162 
    7250     135.7561   -1078.2247    135158.41   -34737.386    2576.4902   -37313.877    29.086482    239.63379 
    7300    134.85872   -1083.4407    135142.58   -34811.296    2559.4591   -37370.755    29.288464    238.04976 
    7350    136.65622   -879.33914    135177.78   -34775.414    2593.5735   -37368.987    29.443103    241.22267 
    7400    135.99603   -981.85449    135182.44    -34776.63    2581.0438   -37357.674    29.551448    240.05731 
    7450    134.68692   -1150.3226       135232   -34740.988    2556.1985   -37297.187    29.695654     237.7465 
    7500     135.0481   -1252.9713    135201.55   -34782.087    2563.0533    -37345.14    29.864102    238.38405 
    7550    136.73258    -1353.945    135176.06   -34793.493    2595.0226   -37388.516    29.925283    241.35745 
    7600    133.74927   -1159.4055    135210.98   -34808.021     2538.403   -37346.424    29.980222    236.09138 
    7650    136.53958   -1339.0336       135274   -34761.559    2591.3598   -37352.919    30.103504    241.01678 
    7700     136.3316   -1471.6184    135212.54   -34728.807    2587.4126    -37316.22    30.453169    240.64965 
    7750    136.67277   -1249.6116    135144.13   -34741.749    2593.8877   -37335.637    30.620824    241.25189 
    7800    136.47766   -1193.4533    135109.25   -34749.865    2590.1846    -37340.05    30.866813    240.90747 
    7850     134.9605   -1260.5028    135121.88   -34756.276    2561.3907   -37317.667     30.95128    238.22941 
    7900    139.31793   -1176.6891    135096.33   -34759.923    2644.0896   -37404.013    31.021539    245.92106 
    7950    134.94297   -1286.5256    135128.87   -34797.934    2561.0581   -37358.992    31.024959    238.19848 
    8000    134.06959   -1069.9111    135196.24   -34765.336    2544.4823   -37309.818    31.196243     236.6568 
    8050    136.76043    -1240.473    135237.78   -34747.483    2595.5512   -37343.034    31.339903    241.40661 
    8100    135.28769   -1210.4734    135236.57   -34819.498    2567.6004   -37387.098    31.314909    238.80696 
    8150    133.41709   -1189.2073    135248.85   -34857.143    2532.0986   -37389.242    31.392656    235.50502 
    8200    134.76928   -1201.6858    135245.63   -34817.212    2557.7616   -37374.973    31.549542    237.89188 
    8250    135.69227   -1167.1935    135296.01   -34809.654    2575.2789   -37384.933    31.742042    239.52112 
    8300    135.34815   -1055.8812    135274.44   -34787.361    2568.7479   -37356.109    31.983626    238.91369 
    8350    135.84131   -1032.4895    135229.68   -34773.819    2578.1074   -37351.926    32.252387     239.7842 
    8400    136.48061    -1067.138    135243.21   -34751.919    2590.2407    -37342.16    32.343098    240.91269 
    8450    136.98957   -1341.1088    135329.36   -34749.357    2599.9001   -37349.257    32.276622     241.8111 
    8500     137.5435   -1484.8655    135263.56   -34791.191    2610.4129   -37401.604    32.410719    242.78887 
    8550    136.63359   -1159.1207    135238.98   -34816.262     2593.144   -37409.406    32.664234    241.18272 
    8600    135.76766   -1372.7921    135251.28   -34818.037    2576.7096   -37394.747    32.605334    239.65419 
    8650    136.95697   -1158.9952     135244.5   -34850.998    2599.2813   -37450.279    32.786819    241.75354 
    8700    133.64547   -965.40845       135257   -34862.672     2536.433   -37399.105    33.004731    235.90816 
    8750    133.92247   -1125.3784    135280.64   -34781.759    2541.6901   -37323.449    33.177381     236.3971 
    8800    134.61471   -1267.5352    135269.27   -34838.152     2554.828    -37392.98    33.139571    237.61903 
    8850    136.16831   -1186.9544    135241.12   -34855.944    2584.3135   -37440.258    33.205253    240.36141 
    8900    132.80157   -1371.8327    135165.45   -34860.298    2520.4167   -37380.715    33.350441    234.41851 
    8950    133.83379   -1378.0996    135087.18   -34882.905    2540.0071   -37422.912    33.493872    236.24057 
    9000    132.62781   -1316.2006    135044.28   -34909.287    2517.1189   -37426.406    33.444808    234.11179 
    9050    131.54958   -1366.0404    134977.32   -34936.646    2496.6555   -37433.301    33.501507    232.20854 
    9100    137.58483   -933.01742     134978.3    -34919.05    2611.1973   -37530.247    33.484356    242.86182 
    9150    137.81264   -898.70597    135057.13   -34870.291    2615.5209   -37485.812     33.49325    243.26395 
    9200    134.74064   -1219.0439    135054.12   -34910.032     2557.218    -37467.25    33.480597    237.84132 
    9250    133.89761   -1175.7115    135127.43   -34895.578    2541.2183   -37436.796    33.568869    236.35323 
    9300    136.96435   -1232.2019    135193.46   -34859.525    2599.4215   -37458.947      33.7502    241.76657 
    9350    136.03038   -1321.8635     135258.5   -34883.086    2581.6957   -37464.782    33.848572    240.11794 
    9400    135.51593   -1129.9405    135296.77   -34904.002    2571.9322   -37475.934    33.951703    239.20986 
    9450    136.42045   -1095.4198    135344.28   -34849.998    2589.0988   -37439.097    33.983602    240.80648 
    9500    138.38486   -1198.3761    135264.25   -34803.584     2626.381   -37429.965    34.100038    244.27402 
    9550    135.92071   -1346.3505    135343.32   -34813.144    2579.6144   -37392.759    34.264778    239.92437 
    9600    137.02024   -1369.2461    135304.43    -34857.19    2600.4822   -37457.672    34.448607    241.86523 
    9650    136.05569     -980.782    135427.05   -34819.778    2582.1762   -37401.954    34.482117    240.16263 
    9700    140.28457     -1302.76    135470.39    -34826.84    2662.4352   -37489.276    34.480856    247.62734 
    9750    138.04227   -1091.6555    135489.91   -34857.902     2619.879   -37477.781    34.581843    243.66928 
    9800    135.12145   -1351.8884    135515.54   -34894.077    2564.4454   -37458.523    34.750843    238.51352 
    9850       133.73   -1361.4412    135487.83   -34917.987    2538.0373   -37456.025    34.875409    236.05737 
    9900    136.72512   -1176.3852    135452.09   -34890.353    2594.8811   -37485.234    34.903731    241.34428 
    9950    133.52587   -1148.0947    135427.57   -34885.886    2534.1632   -37420.049    34.892199    235.69704 
   10000    135.88378    -1095.598     135434.9   -34862.815    2578.9135   -37441.728    34.984074    239.85917 
   10050    137.15327   -1134.2302    135482.43   -34866.794     2603.007   -37469.801    35.118864    242.10005 
   10100    136.33559   -1127.4098    135488.08   -34888.507    2587.4882   -37475.995    35.049275    240.65669 
   10150     138.0496   -1390.5417    135561.15   -34805.899    2620.0183   -37425.917    35.035691    243.68224 
   10200    140.69616   -1043.8625    135585.36   -34786.581    2670.2468   -37456.828     35.18517    248.35388 
   10250    135.41204   -1138.7867    135572.63   -34838.418    2569.9604   -37408.379    35.344035    239.02646 
   10300    137.22474    -1272.149    135504.44   -34875.889    2604.3633   -37480.252    35.546293     242.2262 
   10350    133.06376   -1354.5296    135473.03   -34845.766    2525.3929   -37371.159    35.698781    234.88133 
   10400    138.41564   -1243.8536    135414.97    -34824.25    2626.9651   -37451.215    35.842774    244.32835 
   10450    133.79315   -1302.3675     135351.1   -34812.424    2539.2358    -37351.66    35.737677    236.16883 
   10500    134.96846    -1305.796    135290.87    -34839.06    2561.5417   -37400.602    36.012827    238.24346 
   10550    135.96774   -1177.8996     135191.7   -34823.292    2580.5069   -37403.799    36.256149    240.00738 
   10600    135.19489   -1234.0191     135148.1   -34782.586    2565.8392   -37348.425    36.382048    238.64316 
   10650    136.50523   -1247.4876    135103.72   -34779.446    2590.7078   -37370.154    36.533871    240.95613 
   10700    136.78271   -1447.1103    135055.32   -34803.467     2595.974   -37399.441    36.715292    241.44593 
   10750    134.05828   -1500.2408       134956   -34837.386    2544.2677   -37381.653    36.948723    236.63684 
   10800    134.53654   -1391.7282    134856.31   -34865.023    2553.3445   -37418.367    37.174587    237.48106 
   10850    136.75016    -1017.984    134897.67   -34827.802    2595.3564   -37423.158    37.443473    241.38849 
   10900     137.3505   -1139.8648    134867.96    -34809.33    2606.7501    -37416.08    37.600838     242.4482 
   10950    135.58736   -1038.7811    134870.56     -34838.4    2573.2877   -37411.688    37.889445    239.33593 
   11000    134.06808   -964.19909    134934.46    -34890.61    2544.4537   -37435.064    38.066221    236.65414 
   11050      134.272   -876.46412    135104.16   -34887.907    2548.3238   -37436.231    38.174807    237.01409 
   11100    133.53595   -1126.0128     135247.2   -34880.869    2534.3544   -37415.223    38.316324    235.71482 
   11150    134.24339   -1331.1671    135305.88   -34904.855    2547.7807   -37452.635    38.342131    236.96358 
   11200    132.53112   -1164.5782    135285.97   -34856.397     2515.284   -37371.681    38.386793    233.94113 
   11250    137.14502   -1092.4145     135382.8   -34808.845    2602.8503   -37411.696    38.402276    242.08549 
   11300    135.97315    -1237.905    135415.57   -34811.625    2580.6095   -37392.234    38.354056    240.01692 
   11350    132.85077   -1331.9463    135405.75   -34816.154    2521.3506   -37337.504    38.187445    234.50537 
   11400     137.4543   -1250.0086    135405.45   -34793.085      2608.72   -37401.805    38.097604    242.63141 
   11450    136.45118   -1030.4603    135417.34   -34823.887    2589.6821   -37413.569    38.133162    240.86074 
   11500    138.15919     -1292.19    135462.33   -34822.822    2622.0981    -37444.92    38.322563    243.87568 
   11550    136.83317   -1105.5422    135473.26   -34817.473    2596.9318   -37414.404    38.447131    241.53501 
   11600    136.35773   -1119.9388    135480.31   -34854.489    2587.9085   -37442.398     38.55133    240.69578 
   11650    138.49288   -1094.0847    135471.34   -34854.942    2628.4312   -37483.374    38.604914    244.46471 
   11700     134.8462   -1168.0365    135397.41    -34851.02    2559.2215   -37410.242    38.797369    238.02766 
   11750    134.92358   -1062.0481    135370.11   -34840.029      2560.69   -37400.719    38.991953    238.16424 
   11800    136.47427   -1141.8262     135354.1   -34875.295    2590.1203   -37465.416    39.008198    240.90149 
   11850    135.09678   -1406.6736    135354.18   -34816.475    2563.9771   -37380.452    39.166423    238.46997 
   11900    135.40044   -1172.8181    135217.43   -34840.613    2569.7402   -37410.353    39.381885    239.00598 
   11950    136.79579   -1128.9268    135212.15    -34845.45    2596.2223   -37441.672    39.393729    241.46903 
   12000    135.52736   -1238.2013    135135.85   -34802.835    2572.1491   -37374.984    39.605852    239.23003 
   12050    133.22559   -1073.7692    135215.21   -34831.741    2528.4642   -37360.205    39.857064    235.16699 
   12100    137.32432   -1292.2916    135244.97    -34817.94    2606.2533   -37424.193     39.87937    242.40199 
   12150    135.49306   -1084.3323    135244.74   -34841.142    2571.4981   -37412.641    40.057877    239.16948 
   12200    134.39227   -1241.6815    135239.73   -34828.701    2550.6064   -37379.308    40.214666    237.22639 
   12250    135.34493   -1083.9912    135171.84   -34845.672    2568.6868   -37414.359    40.274488    238.90801 
   12300    135.44669   -1180.3491    135259.99   -34864.169     2570.618   -37434.787    40.444199    239.08763 
   12350    135.28152    -1061.515    135259.91   -34869.297    2567.4833   -37436.781    40.584329    238.79607 
   12400    135.99856   -1161.2261    135262.93    -34850.36    2581.0919   -37431.452    40.705434    240.06178 
   12450    136.91716   -1323.9287    135301.78   -34780.262    2598.5258   -37378.788    40.891992    241.68327 
   12500    138.02061   -1242.3125    135278.37   -34758.377     2619.468   -37377.845    41.070683    243.63106 
   12550    138.35956   -1268.7178    135195.05   -34753.971    2625.9009   -37379.872    41.184737    244.22937 
   12600    137.83717   -950.30813    135104.55   -34735.006    2615.9866   -37350.993    41.522005    243.30726 
   12650     134.1578   -1187.4748    135113.58   -34780.788    2546.1565   -37326.944    41.679536    236.81251 
   12700    137.31687   -1250.4585    135128.93   -34741.018    2606.1119    -37347.13    41.748242    242.38884 
   12750    138.55533   -1146.1135    135173.45   -34695.316    2629.6164   -37324.932    41.783764    244.57494 
   12800    137.45077    -1280.938    135202.86   -34681.571     2608.653   -37290.224    41.996013    242.62518 
   12850    139.98209   -1208.8008    135287.12   -34701.127    2656.6945   -37357.822    41.997289    247.09342 
   12900    135.87458   -1278.8647    135208.88   -34694.127    2578.7388   -37272.866    41.996445    239.84292 
   12950    139.79406   -1166.5134    135156.03    -34675.77     2653.126   -37328.896    42.128086    246.76152 
   13000    137.30169   -1180.5036    135232.07   -34727.433    2605.8238   -37333.257    42.353003    242.36204 
   13050    138.31051   -1274.4416    135241.79   -34730.454    2624.9699   -37355.424    42.388399    244.14278 
   13100     139.5462   -1123.1119    135268.08   -34694.357    2648.4218   -37342.779    42.334254    246.32399 
   13150    138.45928   -1222.2827    135282.74   -34712.098    2627.7935   -37339.892    42.404496     244.4054 
   13200    138.01709    -1213.016    135339.64   -34754.662    2619.4011   -37374.063    42.543559    243.62484 
   13250    136.69912   -1386.9457    135212.61   -34779.171    2594.3877   -37373.559    42.797181    241.29839 
   13300    134.78884   -1061.9749    135148.11   -34767.172    2558.1328   -37325.305    42.968673     237.9264 
   13350    136.40048   -1073.7173    135090.44   -34798.156    2588.7199   -37386.876    43.305896    240.77124 
   13400    138.28137   -1273.7743    135090.44   -34753.992    2624.4169   -37378.409    43.460337    244.09135 
   13450    132.54513    -1367.973    135049.23   -34751.889    2515.5499   -37267.439     43.60394    233.96586 
   13500    135.99793   -1185.4291    135143.97   -34723.747    2581.0799   -37304.827    43.887611    240.06066 
   13550     140.5617    -1338.992    135133.97   -34663.538    2667.6948   -37331.233    44.076744    248.11653 
   13600    138.76599   -1096.5844    135143.96   -34674.999    2633.6143   -37308.613     44.23583    244.94678 
   13650    135.02791   -1261.5523    135142.25   -34673.983    2562.6701   -37236.654    44.340682    238.34841 
   13700    135.50128   -1235.4754    135073.12   -34699.315    2571.6541   -37270.969    44.580686    239.18399 
   13750    136.06477   -1091.6134    135015.35   -34673.668    2582.3484   -37256.016    44.813948    240.17865 
   13800    138.42646   -1186.1366    134982.19   -34745.893    2627.1705   -37373.063    45.145797    244.34745 
   13850    135.19354   -1163.2448    134974.91   -34786.549    2565.8135   -37352.363    45.314158    238.64077 
   13900    135.59384   -1216.8561    135036.78   -34733.064    2573.4108   -37306.475    45.417256    239.34738 
   13950     136.5589   -1056.3148    135016.27   -34775.014    2591.7264    -37366.74    45.590308    241.05087 
   14000    135.63634   -1135.7703    135017.45   -34757.902    2574.2173   -37332.119    45.889168    239.42239 
   14050    137.45065   -1322.3997    135017.16    -34762.49    2608.6507    -37371.14    46.172179    242.62497 
   14100    137.98512   -1252.1556    135065.35   -34774.637    2618.7944   -37393.431    46.338772     243.5684 
   14150    137.97683   -1163.3107     135169.1   -34778.574     2618.637   -37397.211    46.309624    243.55377 
   14200    136.86102   -1314.4384    135136.38   -34774.768    2597.4603   -37372.228    46.432716    241.58417 
   14250    135.01029   -1190.5173    135073.93   -34816.227    2562.3356   -37378.563    46.508785     238.3173 
   14300     134.1396   -1262.7784    135078.12   -34800.938    2545.8109   -37346.749    46.691945    236.78037 
   14350    134.81768   -1349.7529    135028.29   -34752.347    2558.6801   -37311.027    47.022292    237.97731 
   14400    138.08111   -1114.7884    134969.02   -34794.297    2620.6162   -37414.914    47.045695    243.73785 
   14450    135.99235   -977.78621    135060.06   -34811.826     2580.974   -37392.801    47.079042    240.05082 
   14500    136.27871   -997.27859    135070.62   -34812.525    2586.4088   -37398.934    47.124441     240.5563 
   14550    136.41649   -1103.3118    135189.59   -34804.824    2589.0236   -37393.848     47.12699     240.7995 
   14600    135.17781   -1373.7012    135172.84   -34851.798     2565.515   -37417.313     47.37631    238.61301 
   14650    132.88283    -1357.392    135085.31   -34836.788    2521.9589   -37358.747    47.621096    234.56195 
   14700    134.89518   -1026.2229    135070.48   -34873.237    2560.1509   -37433.388    47.708085    238.11411 
   14750    135.99717   -1164.0126    135109.07   -34879.285    2581.0655    -37460.35    47.901764    240.05932 
   14800     133.4576   -996.01002    135103.35   -34860.973    2532.8674    -37393.84    47.934743    235.57653 
   14850    134.55483   -1138.6452    135124.33   -34843.861    2553.6915   -37397.553    47.966021    237.51333 
   14900    139.26898   -1184.4318       135038   -34803.363    2643.1606   -37446.524    48.072382    245.83466 
   14950    136.87451   -1173.7158    134996.33    -34821.05    2597.7163   -37418.766    48.377581    241.60798 
   15000    138.59993   -1028.7813     135043.5    -34767.57    2630.4628   -37398.033    48.747804    244.65367 
   15050    136.21542   -1040.7414    135152.55   -34756.336    2585.2076   -37341.544    49.033888    240.44457 
   15100    136.60066   -1164.7264    135233.23   -34731.311    2592.5191    -37323.83    49.070049     241.1246 
   15150    133.81491   -1093.2876    135297.06    -34734.77    2539.6489   -37274.419    49.182811    236.20725 
   15200    136.66335   -1171.4209    135339.74   -34755.389    2593.7089   -37349.098    49.064607    241.23526 
   15250    137.68954   -1200.7689    135348.19   -34762.094    2613.1847   -37375.278    49.046607    243.04666 
   15300    135.59085   -1414.2222    135283.99   -34787.205    2573.3539   -37360.559    49.281986    239.34209 
   15350    138.88928   -1107.0858    135332.79   -34772.617    2635.9544   -37408.572    49.386431    245.16442 
   15400    135.24078   -1230.3439    135328.03   -34741.736    2566.7101   -37308.446    49.656752    238.72416 
   15450    132.99575    -1222.997    135205.29   -34786.924    2524.1021   -37311.026    49.826386    234.76129 
   15500    134.64758   -1187.2554    135282.92   -34806.419    2555.4519   -37361.871    49.843661    237.67706 
   15550    137.01028   -1517.9031    135214.06   -34792.564    2600.2931   -37392.857    49.984676    241.84764 
   15600    136.82523   -1164.6512    135169.44   -34796.894    2596.7811   -37393.675    50.269306      241.521 
   15650    136.61888   -1251.3987    135142.26   -34779.886    2592.8648    -37372.75    50.464405    241.15675 
   15700    134.87334   -1402.3412    135085.54   -34807.647    2559.7365   -37367.384    50.601349    238.07556 
   15750    134.20576   -1395.3096    134993.82   -34855.639    2547.0666   -37402.705    50.828457    236.89716 
   15800    136.12348   -1256.0751    134938.88   -34774.691    2583.4627   -37358.154    50.996631    240.28228 
   15850    137.12896    -1098.813    134873.34   -34814.299    2602.5455   -37416.845    51.266049    242.05713 
   15900    137.03671    -1425.793    134793.15   -34834.483    2600.7947   -37435.278    51.518501     241.8943 
   15950    135.51506    -1152.347    134732.89   -34786.429    2571.9156   -37358.344    51.834547    239.20831 
   16000    136.02499   -1403.4688    134663.18   -34838.479    2581.5935   -37420.073    52.015217    240.10844 
   16050    135.99048   -1261.7839    134591.28    -34857.55    2580.9386   -37438.488    52.123127    240.04752 
   16100    137.29055   -1318.2986    134607.09   -34875.798    2605.6123   -37481.411    52.157679    242.34237 
   16150    135.00508   -1162.4336    134531.96   -34892.843    2562.2369    -37455.08     52.24751    238.30812 
   16200    137.61219   -1120.3335    134555.49   -34823.223    2611.7166   -37434.939    52.627156    242.91012 
   16250     136.7287   -1161.3585    134545.62   -34834.188     2594.949   -37429.137    52.658155     241.3506 
   16300    135.56088   -1160.8893    134555.65   -34881.978    2572.7853   -37454.763    52.546342     239.2892 
   16350    136.04656   -1027.9718    134592.17    -34884.36    2582.0028   -37466.363    52.494082     240.1465 
   16400    134.23785   -1112.8701    134583.71   -34882.821    2547.6756   -37430.497    52.459084     236.9538 
   16450    136.39024   -1269.0473     134639.9   -34888.389    2588.5255   -37476.915    52.648819    240.75317 
   16500     137.6702   -1098.0578    134715.07   -34783.494    2612.8176   -37396.311    52.854707    243.01252 
   16550    136.05915   -1307.5235    134855.85   -34808.175    2582.2418   -37390.417    52.709127    240.16873 
   16600    137.30117    -1245.463    134840.93   -34812.992    2605.8139   -37418.806    52.623422    242.36112 
   16650    136.08729   -1088.3929     134904.4   -34803.472    2582.7758   -37386.248    52.914867     240.2184 
   16700    137.84736   -1288.1311    134879.21   -34827.076    2616.1799   -37443.256    53.008015    243.32524 
   16750    134.66588    -1262.203    134776.07   -34844.806    2555.7991   -37400.605    53.125765    237.70935 
   16800    135.80911   -1159.0833    134712.59   -34850.712    2577.4964   -37428.209    53.347232    239.72737 
   16850    135.24184   -1260.0953    134708.34   -34822.104    2566.7303   -37388.834    53.448447    238.72604 
   16900    136.57217   -941.02259    134736.71   -34806.868    2591.9783   -37398.847    53.537516     241.0743 
   16950    137.07011   -1181.2119    134778.64   -34776.157    2601.4286   -37377.585    53.494622    241.95325 
   17000    136.23447   -1035.0018    134817.68   -34826.743    2585.5692   -37412.313    53.461277    240.47821 
   17050     135.4169   -1272.0944    134873.16   -34894.411    2570.0526   -37464.463    53.593288    239.03504 
   17100    136.22222   -1057.3969    134892.27   -34920.741    2585.3366   -37506.078    53.697244    240.45657 
   17150    133.23147    -1214.592     134893.9   -34896.721    2528.5757   -37425.296    53.783317    235.17736 
   17200    133.56273   -1230.9829    134898.49   -34898.504    2534.8626   -37433.367    53.681712    235.76209 
   17250    136.28988   -1184.8932    134787.43   -34900.614    2586.6208   -37487.235    53.711929    240.57601 
   17300    135.16565    -1058.789    134951.64    -34892.25    2565.2841   -37457.534    53.844983    238.59154 
   17350    136.36686   -1351.1627    134930.85   -34882.808    2588.0817    -37470.89    53.969987    240.71188 
   17400    135.19288   -1302.1234    134850.77   -34868.621     2565.801   -37434.422    54.136892    238.63961 
   17450    137.45605   -1158.0995    134786.72   -34858.991    2608.7534   -37467.744    54.208911    242.63452 
   17500    132.23772   -1142.6522    134814.59     -34863.9    2509.7156   -37373.616    54.323165    233.42323 
   17550    136.89393   -1017.3319    134899.48   -34842.351    2598.0849   -37440.436    54.512499    241.64227 
   17600    134.17852   -1081.0239    134942.91   -34779.825    2546.5496   -37326.375    54.776864    236.84908 
   17650     137.0594   -1283.3895    134868.39   -34842.931    2601.2254   -37444.156    54.881269    241.93435 
   17700    136.40784   -1267.3734    134817.22   -34803.809    2588.8596   -37392.668    54.971873    240.78424 
   17750     137.1208   -1300.8385    134812.69   -34759.249    2602.3907    -37361.64    55.189511    242.04274 
   17800    138.16676   -1018.7674    134816.17    -34785.05    2622.2417   -37407.292    55.334045    243.88903 
   17850    138.13338   -1296.6451    134803.83    -34791.58    2621.6082   -37413.188    55.290565    243.83012 
   17900    134.95735   -1024.1131    134788.16   -34822.762     2561.331   -37384.093    55.464687    238.22386 
   17950    136.22935   -1355.0957    134778.98   -34859.303    2585.4721   -37444.775    55.633072    240.46917 
   18000    136.64123   -961.66117    134830.55   -34861.061     2593.289    -37454.35    55.908738    241.19621 
   18050    136.07641   -1348.6329    134818.47   -34794.282    2582.5693   -37376.852    55.785438    240.19919 
   18100    135.77601   -928.81777    134887.22   -34795.464    2576.8681   -37372.332    56.044237    239.66894 
   18150    135.90509   -959.48249    134998.83   -34799.249    2579.3179   -37378.567    56.024482    239.89679 
   18200    135.40833   -1073.3928    135103.19   -34780.376    2569.8899   -37350.266    55.898712    239.01991 
   18250    136.35014   -1165.9092    135161.24   -34813.104    2587.7644   -37400.869    56.008459    240.68238 
   18300    135.61953   -1078.7203    135250.64   -34810.885    2573.8984   -37384.784    56.023294    239.39273 
   18350    137.29879   -1110.3228    135224.66   -34846.366    2605.7686   -37452.135    56.139922    242.35691 
   18400    133.56573   -1210.5847    135251.79   -34877.869    2534.9196   -37412.788    56.397352     235.7674 
   18450    135.01677   -1166.7381    135293.09   -34894.857    2562.4586   -37457.316     56.44812    238.32873 
   18500    134.93806    -1249.164    135265.37   -34857.189    2560.9648   -37418.154    56.675676    238.18981 
   18550    137.68617   -1180.4753    135268.65   -34846.748    2613.1207   -37459.869    56.895483    243.04071 
   18600    135.68749   -1224.9503    135191.19   -34871.615    2575.1882   -37446.803    57.145966    239.51269 
   18650    135.93448   -1274.1337    135223.59   -34803.413    2579.8757   -37383.289    57.320888    239.94866 
   18700    134.25042   -1180.4398    135185.09   -34828.051    2547.9141   -37375.966    57.279867    236.97599 
   18750    136.63081   -1187.8359    135084.41   -34801.492    2593.0913   -37394.583    57.428491    241.17782 
   18800    136.28333   -1046.1433    135084.73   -34758.795    2586.4965   -37345.291    57.379741    240.56445 
   18850    137.90733   -1226.9064    135183.46   -34749.953    2617.3181   -37367.272    57.329272     243.4311 
   18900    139.40837   -1196.7485    135305.81   -34748.867     2645.806   -37394.673     57.43989     246.0807 
   18950    135.59565   -1250.8217     135330.8   -34772.348     2573.445   -37345.793    57.472023    239.35056 
   19000    137.36111   -1201.6308    135308.55   -34743.037    2606.9514   -37349.989    57.537576    242.46692 
   19050     135.3847   -930.01516    135260.64   -34707.222    2569.4415   -37276.664     57.63518     238.9782 
   19100    135.47903   -1276.9922    135241.23   -34742.277    2571.2318   -37313.509    57.543201    239.14472 
   19150    136.62423   -1047.7306    135229.65   -34709.462    2592.9664   -37302.428    57.638394     241.1662 
   19200    137.53575    -1066.986    135202.39   -34711.251     2610.266   -37321.517    57.787311     242.7752 
   19250    136.87254   -1349.5989    135234.86   -34753.654     2597.679   -37351.333    57.982794    241.60451 
   19300    138.82115   -1210.2319     135239.2   -34774.557    2634.6613   -37409.218    57.981398    245.04416 
   19350    135.12151   -1163.7054    135223.51   -34732.938    2564.4464   -37297.385    58.227574    238.51362 
   19400    136.37726   -1030.8271    135238.11   -34763.338    2588.2791   -37351.617     58.34918    240.73024 
   19450    138.00412   -861.63147    135409.79   -34727.092     2619.155   -37346.247    58.534247    243.60195 
   19500    138.96195   -1253.1061    135459.71   -34712.513    2637.3335   -37349.846    58.708973    245.29269 
   19550    137.58189   -1110.0803    135474.77   -34700.183    2611.1416   -37311.325    58.765951    242.85664 
   19600    139.98604   -1106.4659    135456.02   -34672.245    2656.7695   -37329.015    58.897072    247.10039 
   19650    137.46191   -1038.2882    135406.32   -34715.877    2608.8645   -37324.741    59.219763    242.64485 
   19700    134.79148   -1218.6957    135522.71   -34775.741    2558.1829   -37333.924    59.290737    237.93106 
   19750    134.88135   -963.22852    135564.67   -34799.989    2559.8886   -37359.877    59.367602     238.0897 
   19800    138.60347   -1140.1016    135582.22    -34776.17    2630.5299     -37406.7     59.66574    244.65991 
   19850     136.8665    -1208.266    135497.51   -34811.771    2597.5643   -37409.335    59.809541    241.59384 
   19900    136.39409   -1081.2861    135390.29    -34855.31    2588.5986   -37443.909    60.054088    240.75996 
   19950    134.60295   -1380.7423    135300.39   -34888.981    2554.6049   -37443.586    60.152516    237.59828 
   20000    135.16394   -966.47254    135179.46   -34849.273    2565.2517   -37414.525    60.286335    238.58852 
   20050    136.80446   -1081.7848     135242.3   -34787.431    2596.3869   -37383.818    60.649393    241.48433 
   20100    138.87213   -1236.4917    135210.83   -34821.879    2635.6289   -37457.508    60.810296    245.13415 
   20150    137.42372   -1192.3055    135246.64   -34861.241    2608.1397   -37469.381    60.838004    242.57744 
   20200    136.86083   -1096.4764    135220.18   -34876.795    2597.4566   -37474.251    61.113115    241.58383 
   20250    135.34702   -1200.9609    135307.96   -34882.115    2568.7264   -37450.842    61.115848    238.91169 
   20300    134.24414   -1171.9779    135231.45   -34921.173    2547.7951   -37468.969    61.205542    236.96492 
   20350    135.55031   -1157.4007    135239.26   -34935.382    2572.5845   -37507.967    61.248399    239.27053 
   20400    134.73799   -1322.3057    135223.86   -34955.449    2557.1678   -37512.616    61.354913    237.83665 
   20450     134.3411   -1116.3663    135175.45   -34983.681    2549.6353   -37533.316    61.430597    237.13607 
   20500    136.49159   -1193.5189    135169.66   -34991.904     2590.449   -37582.353    61.484104    240.93206 
   20550    135.06192    -1201.975     135150.5   -34962.935    2563.3156   -37526.251    61.596526    238.40845 
   20600    133.81115   -1065.4835     135132.1   -34934.133    2539.5774    -37473.71    61.655868    236.20061 
   20650     136.9654   -1048.6577    135143.55   -34936.798    2599.4413    -37536.24    61.667634    241.76842 
   20700    135.98111   -1158.4112    135173.57   -34899.022    2580.7606   -37479.783    61.713408    240.03097 
   20750    133.94401   -1185.8521    135113.36   -34901.754     2542.099   -37443.853    61.884434    236.43513 
   20800    138.00955   -1146.4297    135133.79   -34899.358     2619.258   -37518.616    62.271069    243.61153 
   20850     135.5375   -1332.7967    135143.11   -34935.222    2572.3414   -37507.564    62.630834    239.24792 
   20900    138.33389   -1236.8337    135145.62    -34927.75    2625.4136   -37553.164    62.650754    244.18405 
   20950    136.88998   -1395.0734    135138.83   -34930.504    2598.0099   -37528.514    62.727649    241.63529 
   21000    137.68096   -1129.3037    135157.44   -34909.384    2613.0218   -37522.406    62.995001    243.03151 
   21050    137.26074   -1238.6923    135137.77   -34914.202    2605.0465   -37519.249    63.343806    242.28975 
   21100    134.71682   -1012.4917    135171.72   -34939.758    2556.7659   -37496.524    63.519166    237.79927 
   21150    134.27364   -1107.0483    135143.35   -35008.285    2548.3549    -37556.64    63.579584    237.01698 
   21200    135.41113   -921.21811    135177.98   -35025.625    2569.9431   -37595.568    63.819137    239.02485 
   21250    134.08365   -1226.2408    135147.55   -34957.321    2544.7492    -37502.07     63.66443    236.68162 
   21300    138.58325   -1013.1452     135177.7   -34964.351    2630.1463   -37594.497    63.899359    244.62422 
   21350    134.33523    -1019.342    135211.22   -34942.608    2549.5239   -37492.132    64.096759    237.12571 
   21400    135.64702   -1190.8086    135346.11   -34921.203    2574.4201   -37495.623    64.506481    239.44126 
   21450    135.74202   -1442.1184    135318.24    -34949.12     2576.223   -37525.343    64.677715    239.60893 
   21500    135.13922    -1403.534    135278.03   -34944.728    2564.7825    -37509.51    64.756703    238.54488 
   21550    137.87965   -1158.5862    135306.38   -34948.121    2616.7927   -37564.913    64.961413    243.38224 
   21600    137.12414   -1355.0661    135291.36   -34915.969     2602.454   -37518.423    65.124307    242.04862 
   21650    134.67379   -1362.8587    135206.13   -34955.829    2555.9492   -37511.778    65.325967    237.72331 
   21700    134.21454   -1073.2562    135186.02   -34975.117    2547.2333    -37522.35     65.57053    236.91267 
   21750    135.86304   -1191.6139    135151.84   -34947.628    2578.5198   -37526.148    65.616225    239.82256 
   21800    135.75942    -1019.258    135242.68   -34938.439    2576.5533   -37514.993    65.526627    239.63965 
   21850      134.593   -1230.0361    135276.38   -34976.964    2554.4161    -37531.38    65.632084    237.58072 
   21900    136.04946   -1121.0715    135205.86   -34928.088    2582.0579   -37510.146    65.829049    240.15163 
   21950    138.57529     -1083.85    135320.14   -34872.369    2629.9952   -37502.364    65.712194    244.61017 
   22000    137.50016   -1155.1619    135341.96   -34869.532    2609.5904   -37479.123    65.682251    242.71236 
   22050    140.91533   -1066.4795     135369.5   -34879.102    2674.4063   -37553.508    65.588984    248.74076 
   22100    139.53265   -1192.5486    135457.62   -34873.872    2648.1646   -37522.037    65.510834    246.30007 
   22150    138.07504   -1118.7461    135495.39   -34860.065     2620.501   -37480.566    65.373913    243.72714 
   22200    138.56091   -1318.6669    135556.85   -34841.147    2629.7223   -37470.869    65.398152    244.58479 
   22250    137.47511   -1168.9074     135583.1    -34895.48     2609.115   -37504.595    65.762254    242.66815 
   22300    137.16969    -1049.642    135700.73   -34879.806    2603.3186   -37483.125    65.792273    242.12904 
   22350    137.37944   -1002.7969    135724.89   -34912.609    2607.2993   -37519.908    65.863578    242.49928 
   22400    137.82215    -1140.633    135781.43   -34922.192    2615.7014   -37537.893    66.026437    243.28073 
   22450    137.89998   -1166.3979    135748.94   -34882.713    2617.1786   -37499.892    66.094021    243.41812 
   22500    134.80483   -1341.1568    135744.89   -34916.915    2558.4363   -37475.351    65.876557    237.95463 
   22550    137.32076   -1153.9515     135693.4   -34898.092    2606.1856   -37504.278    66.148793    242.39569 
   22600    138.03846   -1202.9028    135652.24   -34939.568    2619.8068   -37559.375     66.11765    243.66257 
   22650    135.09344   -1040.1523    135623.68   -34980.339    2563.9137   -37544.252    66.212615    238.46407 
   22700    133.50497   -1370.9921    135551.44   -34964.933    2533.7665     -37498.7    66.353061    235.66015 
   22750    135.98854   -1118.2755    135533.54    -34962.38    2580.9016   -37543.281    66.368879    240.04408 
   22800    136.27444   -1110.5505     135470.8   -35040.867    2586.3278   -37627.195    66.804793    240.54876 
   22850    135.35731   -1098.3668     135440.8   -35000.586    2568.9216   -37569.508    67.091121    238.92985 
   22900    134.42422   -1331.9756    135445.27   -34957.891    2551.2127   -37509.104    67.252367    237.28278 
   22950    135.02008     -978.218    135403.48   -34949.443    2562.5214   -37511.965     67.38071    238.33458 
   23000    133.54415   -1229.1597    135382.26   -34992.524      2534.51   -37527.034    67.293795     235.7293 
   23050    135.90952   -1186.5651    135486.58   -34936.756    2579.4019   -37516.158    67.283443     239.9046 
   23100    135.14346   -1045.1366    135526.74   -34958.606     2564.863   -37523.469    67.475828    238.55237 
   23150    135.06001   -1315.8948    135534.51   -34925.479    2563.2793   -37488.758    67.695433    238.40507 
   23200    135.81163   -1406.9225    135506.96   -34895.918    2577.5441   -37473.462    67.821358    239.73181 
   23250    135.70549   -1079.1556    135574.22   -34940.743    2575.5297   -37516.273    67.863786    239.54445 
   23300    134.38755   -1130.8523    135630.93    -34931.89    2550.5168   -37482.407    68.129021    237.21806 
   23350     135.6524   -746.23584    135737.72   -34947.347    2574.5221   -37521.869    68.087795    239.45074 
   23400    135.99502   -1341.3902    135764.82   -34947.592    2581.0247   -37528.616    68.070075    240.05553 
   23450    137.88673   -1068.1734    135834.03   -34918.013    2616.9272    -37534.94    68.132168    243.39474 
   23500    134.95297   -1143.5872    135833.94   -34925.472    2561.2479    -37486.72    68.227276    238.21613 
   23550    135.04707   -1137.8522    135818.68   -34951.874    2563.0337   -37514.908    68.137556    238.38223 
   23600    134.76259   -908.34163    135862.79   -34974.797    2557.6347   -37532.432    68.081057    237.88007 
   23650    134.85222   -1079.5071    135870.07   -34936.892    2559.3356   -37496.228    68.035957    238.03828 
   23700    137.41109   -1150.8618    135888.44   -34942.127       2607.9   -37550.027    68.029881    242.55515 
   23750    136.76475   -1251.4915    135893.14   -34898.055    2595.6333   -37493.688    68.118745    241.41424 
   23800    138.35291   -1186.0665    135913.11   -34949.683    2625.7747   -37575.458    68.063356    244.21763 
   23850    133.33508   -1182.8975    135947.31   -34995.101    2530.5421   -37525.643    68.308188    235.36025 
   23900    133.53574   -1308.4935    135924.27    -35037.39    2534.3504   -37571.741    68.469042    235.71445 
   23950    135.27079   -1292.5327    135871.49   -35009.209    2567.2796   -37576.489     68.47316    238.77713 
   24000    135.43443   -1188.2841    135931.48   -35030.292    2570.3854   -37600.677    68.508557    239.06599 
   24050     137.0954   -1310.9332    135949.35   -34914.791    2601.9085   -37516.699     68.50992    241.99789 
   24100    135.69549   -1336.7675    135949.24   -34954.655      2575.34   -37529.995    68.846505    239.52681 
   24150    136.57172   -1259.4931    135951.17   -34916.841    2591.9697   -37508.811    68.961394     241.0735 
   24200    135.57158    -1310.929    135895.72   -34921.732    2572.9883    -37494.72     68.99605    239.30808 
   24250    135.85884   -890.98065    135905.43   -34920.248    2578.4402   -37498.688    69.079332    239.81515 
   24300    138.00732   -1077.9012    136017.17   -34885.328    2619.2158   -37504.544    68.987943     243.6076 
   24350    136.57841    -990.7302     136097.4   -34923.035    2592.0968   -37515.131    69.114707    241.08532 
   24400    132.78235   -1480.6578    136050.46   -34969.471     2520.052   -37489.523    69.035302    234.38459 
   24450    135.13031   -1110.4339    135984.15   -34997.061    2564.6136   -37561.674    68.991936    238.52917 
   24500    133.57897   -1111.5785    135987.84   -34982.222    2535.1709   -37517.393    69.124637    235.79076 
   24550    136.19275   -1196.0992     135961.9   -34958.474    2584.7773   -37543.251    69.097281    240.40455 
   24600    136.35342   -1139.8021    135998.35   -34981.369    2587.8267   -37569.196    69.328844    240.68817 
   24650    136.65239   -1158.3869    135925.44   -34963.378    2593.5009   -37556.879    69.606286    241.21591 
   24700    137.64395   -1079.9781    135887.59   -34982.015    2612.3194   -37594.335    69.494306    242.96618 
   24750    133.88283   -1099.0649       135906   -35002.554    2540.9377   -37543.491    69.541913    236.32713 
   24800    136.90657   -1047.2966     135899.2    -35006.67    2598.3248   -37604.994     69.57899    241.66458 
   24850     134.1827   -1375.7238    135919.81   -34994.946     2546.629   -37541.575    69.461563    236.85646 
   24900    137.14592   -886.74053    135945.82   -35022.502    2602.8674    -37625.37    69.525902    242.08707 
   24950    133.07009   -1047.4266    136025.99   -35014.792     2525.513   -37540.305    69.700291     234.8925 
   25000     137.2518   -1126.7778    136053.04   -34962.019     2604.877   -37566.896    69.630417    242.27398 
   25050    136.56095    -1161.776    136083.59   -34953.552    2591.7653   -37545.317    69.699012    241.05449 
   25100    138.52106   -1194.8054    136055.71   -34915.544     2628.966    -37544.51    69.688354    244.51445 
   25150    136.39808   -1355.4381    136003.76   -34966.155    2588.6743   -37554.829    69.660237      240.767 
   25200    137.11039   -1218.3318    135987.37   -34939.569    2602.1931   -37541.762    69.824541    242.02436 
   25250    133.80896   -1243.8173    136000.77   -34935.671    2539.5359   -37475.207    69.778983    236.19675 
   25300    137.59328    -1269.561    135999.97   -34934.313    2611.3577   -37545.671    69.929762    242.87674 
   25350    135.45858    -1350.272    135987.08   -34995.849    2570.8437   -37566.692    70.066725    239.10862 
   25400    135.25433   -1138.7562     136012.3   -34934.175    2566.9672   -37501.143    70.481112    238.74807 
   25450    138.73197   -1290.6802    136021.65   -34921.774    2632.9687   -37554.743    70.624982    244.88673 
   25500    137.22551   -1254.3004    135963.49   -34898.486    2604.3779   -37502.864    70.669795    242.22756 
   25550    135.09788    -1275.486    135915.34   -34924.697     2563.998   -37488.695    70.707299    238.47191 
   25600     135.0755   -1293.4707    135948.42   -34879.824    2563.5732   -37443.397    70.810249    238.43241 
   25650    135.47757   -1072.5896    135914.27   -34900.084     2571.204   -37471.288    70.944064    239.14213 
   25700    134.61279   -1366.6287    135970.85   -34851.659    2554.7916    -37406.45    71.141964    237.61564 
   25750    139.08641   -1134.7935    136007.47   -34811.072    2639.6956   -37450.768    71.195953    245.51239 
   25800    134.87829   -1502.5925    136020.63   -34830.184    2559.8305   -37390.014    71.230117     238.0843 
   25850    137.99348   -1271.7955    135988.79   -34812.566    2618.9532    -37431.52    71.410219    243.58318 
   25900    134.76455   -1360.4278     136056.7   -34871.608    2557.6717    -37429.28    71.625821    237.88352 
   25950    139.16675    -1405.186    136005.33   -34841.476    2641.2204   -37482.696     71.81286    245.65421 
   26000    138.43668   -1297.2793    135942.46   -34833.458    2627.3645   -37460.822    72.090989     244.3655 
   26050    138.83124   -1321.9039    135924.37   -34833.078    2634.8527    -37467.93    72.231723    245.06196 
   26100    137.04261   -1400.9498    135826.48   -34898.341    2600.9067   -37499.248    72.438067    241.90472 
   26150    135.89965    -1257.209    135771.01   -34902.603    2579.2147   -37481.817    72.782206    239.88718 
   26200    136.13968   -1177.5796     135793.2   -34957.015    2583.7701   -37540.785    72.752566    240.31088 
   26250    134.50078   -1698.1624    135712.24   -34934.758    2552.6658   -37487.423    72.529816    237.41793 
   26300    136.94222   -1262.0476     135631.1   -34867.319    2599.0015    -37466.32    72.778376    241.72751 
   26350    136.76636    -1272.557    135604.61   -34854.632    2595.6637   -37450.296    72.797562    241.41708 
   26400    134.52756   -1300.6266    135586.86   -34850.179    2553.1739   -37403.353    72.793499    237.46519 
   26450    139.63757   -1161.9423     135522.5   -34860.668    2650.1561   -37510.824    72.847383    246.48529 
   26500    138.25494   -1032.8049    135487.84   -34848.909    2623.9152   -37472.825    72.918372    244.04469 
   26550    137.44003   -1122.0955    135508.04   -34910.563    2608.4493   -37519.012    72.657971    242.60623 
   26600    135.44254   -1269.7164     135482.3     -34941.2    2570.5393   -37511.739    72.563355     239.0803 
   26650    134.58709   -1212.9501     135458.7   -34950.854    2554.3038   -37505.158    72.584177    237.57028 
   26700    138.66757   -904.57212    135451.78   -34916.912    2631.7465   -37548.659    72.884465    244.77306 
   26750    134.65718   -897.59379    135431.72   -34932.026     2555.634    -37487.66     73.13388    237.69399 
   26800    135.90081   -1135.0018    135408.79   -34942.304    2579.2368   -37521.541    73.402133    239.88924 
   26850    136.02249   -1185.0966    135438.94   -34927.013    2581.5459   -37508.559    73.377627    240.10401 
   26900    135.89912   -1054.7442    135416.64    -34922.24    2579.2046   -37501.445    73.246311    239.88625 
   26950    135.22658   -1146.9506    135375.92   -34865.557    2566.4407   -37431.998    73.443436     238.6991 
   27000    134.97654   -1242.2722    135374.58   -34861.197    2561.6952   -37422.892    73.563036    238.25774 
   27050      135.938   -1052.1888    135357.24   -34861.504    2579.9425   -37441.447    73.639251    239.95488 
   27100    138.45266   -1192.7914    135425.08   -34865.267    2627.6677   -37492.934     73.53445     244.3937 
   27150    136.44164   -1132.5285    135422.64   -34824.614     2589.501   -37414.115    73.764916    240.84389 
   27200    135.58833    -981.5912    135487.93   -34847.238    2573.3062   -37420.544    73.776629    239.33765 
   27250    138.40215   -1128.5786    135596.95   -34870.046    2626.7092   -37496.755    73.908097    244.30455 
   27300    140.48371    -903.3234    135635.53   -34896.084    2666.2148   -37562.299    74.014515    247.97888 
   27350    136.74573   -1353.4773    135687.63   -34878.603    2595.2722   -37473.875    74.204383    241.38066 
   27400    139.15251   -1080.2853    135700.49   -34869.768    2640.9501   -37510.718    74.335312    245.62907 
   27450    136.98005   -1199.0344    135671.01   -34883.164    2599.7193   -37482.884    74.586437    241.79428 
   27500    136.83438    -1137.863    135651.01   -34884.802    2596.9547   -37481.756    74.617105    241.53715 
   27550     136.7748   -1340.6042    135552.25   -34923.986     2595.824    -37519.81    74.788935    241.43198 
   27600     137.3461   -1006.6771    135442.77   -34919.702    2606.6665   -37526.368    74.981358    242.44042 
   27650    137.35792   -1311.9377    135343.06    -34902.43     2606.891   -37509.321    75.357467     242.4613 
   27700    135.61249   -963.11709    135331.74   -34975.504    2573.7648   -37549.269    75.465484     239.3803 
   27750    132.92623   -1135.2303    135349.92   -34966.286    2522.7826   -37489.068     75.64613    234.63856 
   27800    135.34353   -1083.3497    135307.66   -34912.008    2568.6601   -37480.668     75.52786    238.90553 
   27850    134.48377   -1134.0838    135274.03   -34929.433    2552.3429   -37481.776    75.560766     237.3879 
   27900    133.45763   -927.09927    135312.05   -34995.977    2532.8679   -37528.844    75.445952    235.57657 
   27950    132.01693   -961.65359    135416.97    -35015.77    2505.5253   -37521.295    75.518959    233.03349 
   28000    133.68399   -1199.9754    135409.28   -35061.768     2537.164   -37598.932    75.579108    235.97614 
   28050    134.14027   -1076.5989    135508.68   -35057.951    2545.8238   -37603.775     75.90764    236.78157 
   28100    134.36704   -1020.2017    135584.75   -35044.281    2550.1275   -37594.408    76.025318    237.18185 
   28150    133.44314   -1131.4397    135666.91    -35036.76     2532.593   -37569.353    75.955026    235.55101 
   28200    134.77173   -1357.0216     135687.8   -34992.179     2557.808   -37549.987    76.310012     237.8962 
   28250    134.69518   -1247.2065     135566.7   -34974.032    2556.3553   -37530.388    76.379534    237.76109 
   28300    134.65107   -1118.4077    135621.13   -34962.358     2555.518   -37517.876    76.328373    237.68321 
   28350    134.90547   -1155.1906    135591.39   -34939.618    2560.3463   -37499.964    76.585749    238.13228 
   28400    135.80742   -1088.9256    135572.37   -34892.203    2577.4643   -37469.668    76.616057    239.72439 
   28450    137.60812    -1295.709    135594.23   -34861.063    2611.6394   -37472.702    76.900714    242.90293 
   28500    134.39073   -1221.3868    135565.98   -34917.283    2550.5772    -37467.86      77.0864    237.22368 
   28550    135.25687   -1239.8361    135445.22    -34899.89    2567.0155   -37466.906    77.250385    238.75257 
   28600    137.39358   -1230.5027    135381.66    -34931.13    2607.5676   -37538.698    77.278405    242.52423 
   28650    135.74532   -1239.7173    135308.84   -34901.339    2576.2856   -37477.625    77.461958    239.61476 
   28700    135.47697   -1174.1071    135310.11    -34872.99    2571.1926   -37444.183     77.31309    239.14107 
   28750    136.36893   -1321.3367    135280.61    -34842.98    2588.1211   -37431.101    77.694426    240.71555 
   28800    136.09975    -1016.764    135299.44   -34855.418    2583.0124    -37438.43    77.895166     240.2404 
   28850    135.75183   -1219.0046     135357.1   -34802.883    2576.4093   -37379.292    78.031479    239.62626 
   28900    135.29021   -1084.9857    135370.89   -34875.298    2567.6481   -37442.946    78.239399     238.8114 
   28950    136.56581   -1154.4565    135340.16   -34859.777    2591.8575   -37451.634    78.256989    241.06307 
   29000    138.28044   -1184.8037     135356.7   -34887.535    2624.3993   -37511.935    78.333978    244.08971 
   29050    134.87716     -1107.48    135352.74   -34996.436    2559.8089   -37556.245    78.378667     238.0823 
   29100    137.13384   -1176.0985    135355.78   -34964.948    2602.6381   -37567.587    78.523455    242.06575 
   29150    133.38699   -1003.4116    135337.28   -35003.705    2531.5274   -37535.233    78.497603    235.45189 
   29200    132.80485   -1341.9748    135321.79   -35048.663     2520.479   -37569.142    78.676508     234.4243 
   29250    135.09502   -1230.8942    135358.96   -35083.723    2563.9436   -37647.667    78.866634    238.46686 
   29300    134.15448   -1020.7458    135377.12    -35008.63    2546.0934   -37554.724    78.882512    236.80664 
   29350    135.13483   -1081.1085    135434.98   -34980.071    2564.6994   -37544.771    78.933114    238.53715 
   29400     136.0042   -1230.1361    135509.23   -34979.137     2581.199   -37560.336    79.007708    240.07174 
   29450    138.98997   -1079.2068    135523.74   -34909.093    2637.8652   -37546.958    79.347376    245.34214 
   29500    138.40736   -989.26966    135578.97   -34932.666    2626.8081   -37559.474    79.465521    244.31374 
   29550    138.83926   -1185.0407    135620.74   -34965.227     2635.005   -37600.232    79.716044    245.07613 
   29600    135.48007   -1255.8488     135690.5   -34961.293    2571.2516   -37532.545    79.973199    239.14656 
   29650    136.08512   -1184.2277     135694.4   -35036.998    2582.7347   -37619.732    79.964214    240.21457 
   29700    135.96133    -1091.203    135664.23    -35016.16    2580.3853   -37596.545    80.149577    239.99606 
   29750    135.24405   -1222.4823    135625.29   -35026.117    2566.7721   -37592.889    79.938687    238.72993 
   29800    136.32551   -991.48147    135613.84   -34977.227     2587.297   -37564.524    80.042904    240.63891 
   29850    139.19797   -1169.5246    135594.97   -34954.271    2641.8128   -37596.083    80.135834     245.7093 
   29900    135.48728   -1395.4453    135553.48   -35009.091    2571.3884    -37580.48    80.154921    239.15928 
   29950    135.84548    -1125.224    135468.27    -34973.03    2578.1867   -37551.217    80.112424    239.79157 
   30000    134.88598   -1290.2878    135503.21   -35039.292    2559.9763   -37599.268    80.323656    238.09787 
   30050    134.63827    -1184.117    135487.25   -35022.437    2555.2751   -37577.712    80.425913    237.66061 
   30100    134.83323   -1217.9953    135418.08    -35025.48    2558.9753   -37584.456    80.519825    238.00477 
   30150    133.90167   -1180.1035    135430.22   -35007.201    2541.2953   -37548.497    80.442036    236.36039 
   30200    133.41386   -1315.7675    135427.33   -35044.098    2532.0374   -37576.136    80.463938    235.49933 
   30250    133.91653   -1200.4629    135455.35   -35042.706    2541.5774   -37584.284    80.286459    236.38663 
   30300    134.65102   -1284.0751    135470.62   -35020.043    2555.5171    -37575.56     80.51467    237.68312 
   30350     133.4785   -1202.8166    135473.94   -35013.319    2533.2642   -37546.583     80.53668    235.61343 
   30400    135.64294   -1087.5659    135469.23   -34984.732    2574.3427   -37559.074    80.434613    239.43405 
   30450    135.37922   -1369.3581    135502.65   -35005.224    2569.3374   -37574.562    80.486286    238.96852 
   30500    140.40573   -1096.2424    135464.54   -34949.153    2664.7347   -37613.888    80.413812    247.84122 
   30550    135.33311   -1239.4695    135494.26   -35016.044    2568.4624   -37584.506    80.416693    238.88714 
   30600     134.9801   -1238.2228    135473.28   -35041.826    2561.7626   -37603.589     80.57861    238.26401 
   30650    134.67498   -1133.0185     135535.6   -35016.335    2555.9719   -37572.306    80.580392    237.72542 
   30700    133.23315    -1174.125    135598.38   -35037.345    2528.6077   -37565.953    80.881715    235.18034 
   30750    134.69339   -1255.9582    135594.88     -35037.8    2556.3213   -37594.122     81.34468    237.75792 
   30800    134.28893   -1180.9209    135548.26   -35007.876     2548.645   -37556.521    81.267421    237.04397 
   30850    137.91543   -1315.4624    135579.88   -34997.041    2617.4718   -37614.513    81.305936     243.4454 
   30900    134.66255   -1287.7406     135543.2   -35026.993    2555.7359   -37582.729    81.444473    237.70348 
   30950    135.63299    -1160.572    135589.09   -35005.274    2574.1537   -37579.428    81.527023    239.41647 
   31000    135.53509   -1228.0543    135615.72   -35003.398    2572.2958   -37575.694    81.697059    239.24367 
   31050    133.94341   -1241.7311    135552.25   -34998.005    2542.0875   -37540.092    81.877839    236.43406 
   31100    137.49963   -1025.8929    135566.82   -34981.959    2609.5803   -37591.539    81.869677    242.71143 
   31150    133.18544   -1052.5095    135591.05     -35019.7    2527.7021   -37547.402    82.015835    235.09611 
   31200    135.06212   -1010.1726    135546.05   -35013.885    2563.3193   -37577.205    82.022703    238.40879 
   31250    135.27376   -1274.6591    135590.76    -35023.33    2567.3361   -37590.666    81.933573    238.78238 
   31300    134.42088    -1292.494    135550.62   -34984.542    2551.1493   -37535.691    82.039689    237.27688 
   31350    134.35141   -1137.9128    135500.46   -34976.751     2549.831   -37526.582    82.404974    237.15427 
   31400    133.76878   -964.08551    135512.36   -34993.686    2538.7733   -37532.459    82.530164    236.12582 
   31450    136.45983   -1343.7699    135535.77   -34915.683    2589.8462    -37505.53    82.329278      240.876 
   31500    139.09006   -1296.0464     135501.9   -34918.687    2639.7649   -37558.452    82.212671    245.51883 
   31550    134.28115   -1195.6519    135497.01   -34926.062    2548.4974    -37474.56    82.394644    237.03024 
   31600    134.99719   -1314.0245    135456.08   -34933.302    2562.0871   -37495.389    82.575217    238.29419 
   31650    137.68669   -1194.6674    135398.27   -34940.937    2613.1306   -37554.067    82.786378    243.04163 
   31700    137.64653   -1098.3452    135359.64   -34947.859    2612.3685   -37560.227    82.920815    242.97075 
   31750    135.67181   -1056.0374    135328.82   -34941.472    2574.8906   -37516.362    83.009082    239.48501 
   31800     135.8221   -1028.4302    135343.09   -34932.243    2577.7429   -37509.986    82.991709     239.7503 
   31850     135.2128   -1104.0767    135324.25   -34940.776    2566.1791   -37506.955    83.071309    238.67477 
   31900    135.52751   -1092.3746    135337.29   -34934.831     2572.152   -37506.983    83.256034     239.2303 
   31950    137.51501   -1127.2891    135328.72   -34890.489    2609.8722   -37500.361    83.330283    242.73858 
   32000    135.12651   -1097.4392    135368.04   -34935.902    2564.5414   -37500.443    83.431532    238.52245 
   32050    137.15718   -1224.6149    135378.86   -34913.037    2603.0811   -37516.118    83.245356    242.10695 
   32100     135.5099   -1136.8377    135351.75   -34909.152    2571.8177    -37480.97     83.44635    239.19921 
   32150    137.56588   -1183.8998    135329.15   -34868.058    2610.8377   -37478.896     83.64648    242.82837 
   32200    138.80777   -1288.3807       135325   -34885.197    2634.4073   -37519.605    83.673591    245.02053 
   32250    136.74594   -1121.6363    135329.15   -34900.046    2595.2763   -37495.323    83.630368    241.38104 
   32300    139.07078   -911.24812    135434.96    -34848.01    2639.3989   -37487.409     83.64128    245.48479 
   32350     134.7218   -1091.5714    135495.53   -34875.314    2556.8605   -37432.175    83.742324    237.80807 
   32400    136.15419    -1413.493    135454.39    -34858.65    2584.0456   -37442.696    83.929888    240.33649 
   32450    135.20624   -1177.6431    135413.08   -34900.969    2566.0545   -37467.024    84.329566    238.66318 
   32500     136.2566    -1208.167    135415.06   -34906.176    2585.9891   -37492.166    84.202581    240.51726 
   32550     136.3338   -1133.7407    135410.52   -34908.966    2587.4544    -37496.42    84.297464    240.65354 
   32600    134.36697   -1381.6123    135477.17   -34912.915    2550.1262   -37463.042    84.397074    237.18173 
   32650      137.503   -1032.1064    135519.84   -34927.842    2609.6443   -37537.487    84.426384    242.71738 
   32700    135.76632   -1364.9335    135493.86   -34898.428    2576.6843   -37475.112    84.395536    239.65184 
   32750    133.48906   -1106.9102    135469.33   -34945.031    2533.4645   -37478.496    84.723725    235.63206 
   32800    135.87495   -1059.3387       135485   -34919.032    2578.7459   -37497.777    84.735465    239.84358 
   32850    137.00617   -1285.2977    135483.73    -34933.51    2600.2151   -37533.725    84.818261    241.84038 
   32900    136.82126   -1298.8656     135492.2   -34929.877    2596.7058   -37526.582    85.083514    241.51399 
   32950    134.07394   -1269.7599    135409.32   -34937.145    2544.5649    -37481.71    85.279725    236.66448 
   33000     138.3562   -916.21479     135513.5   -34929.494    2625.8371   -37555.331    85.016503    244.22344 
   33050    132.90404   -1094.4572    135611.15   -34944.353    2522.3616   -37466.714    84.817133     234.5994 
   33100    136.10206   -1186.0471    135622.21   -34934.193    2583.0561    -37517.25    84.729725    240.24447 
   33150    138.78477   -1103.9942    135675.86   -34817.447    2633.9709   -37451.418    84.630955    244.97994 
   33200    138.75392    -1166.961    135690.37   -34842.049    2633.3853   -37475.434    85.113152    244.92547 
   33250    135.62846   -1197.5178    135647.14   -34885.959    2574.0678   -37460.027    85.135052    239.40848 
   33300    138.29202   -1043.2228    135641.47   -34908.205     2624.619   -37532.824    85.043259    244.11014 
   33350     136.5177   -1013.0734    135580.61   -34927.805    2590.9445   -37518.749    85.419489    240.97815 
   33400    134.24235   -1213.7283    135646.09   -34912.586     2547.761   -37460.347    85.528507    236.96175 
   33450    134.57251    -1035.857    135697.95   -34936.846    2554.0271   -37490.873    85.521669    237.54454 
   33500    136.20267   -1493.7006    135700.99   -34967.324    2584.9656    -37552.29    85.738682    240.42207 
   33550    137.04129   -1061.5138    135711.97   -34959.281    2600.8816   -37560.163    85.789537    241.90237 
   33600    134.79182   -1176.3962    135725.14   -34949.161    2558.1894    -37507.35    86.053737    237.93167 
   33650    137.23029   -1206.3178    135625.79   -34910.921    2604.4687    -37515.39    86.278972      242.236 
   33700     139.1339   -1347.8782    135644.08   -34921.253    2640.5969    -37561.85    86.242426    245.59621 
   33750     136.2171   -1285.6206    135621.99   -34920.029    2585.2395   -37505.268    86.369814    240.44754 
   33800    138.75691   -1255.5871    135595.02   -34917.216    2633.4421   -37550.658    85.979712    244.93076 
   33850    136.74783   -1462.6543       135620   -34924.069    2595.3121   -37519.381    86.157295    241.38437 
   33900    134.94256   -1279.8283    135669.14   -34951.046    2561.0503   -37512.096    86.163308    238.19776 
   33950    136.01573   -1251.8583    135707.24   -34935.824    2581.4178   -37517.242     86.38555    240.09209 
[...]
   92000    134.06127   -1097.6358    136567.05   -35025.501    2544.3244   -37569.826     186.9441    236.64211 
   92050    135.86514   -1332.9576    136537.29   -35006.433    2578.5596   -37584.993    187.22274    239.82626 
   92100    135.39012   -1135.4403    136526.05   -35023.624    2569.5445   -37593.168    187.26473    238.98778 
   92150    136.28818    -1112.525    136523.59   -35038.818    2586.5886   -37625.407    187.45641    240.57301 
   92200    132.04967   -1183.7893    136578.75   -35041.975    2506.1466   -37548.121    187.79281    233.09128 
   92250    135.01186   -1363.8749    136581.69   -35034.808    2562.3655   -37597.174    188.20428    238.32008 
   92300    133.01311   -1207.7729    136482.97   -35075.753    2524.4315   -37600.185    188.27201    234.79192 
   92350    136.33057    -1196.037    136521.42   -35030.915     2587.393   -37618.308    188.14567    240.64783 
   92400    135.29439   -1267.6613    136454.42   -35019.924    2567.7275   -37587.651    188.78722    238.81879 
   92450    133.67482    -1208.418    136453.93   -35001.161    2536.9901   -37538.151     189.0898    235.95996 
   92500    134.06796   -1281.3022    136391.94    -34998.91    2544.4513   -37543.362    189.29733    236.65392 
   92550    133.84795   -1210.3358    136382.49   -35037.454    2540.2759   -37577.729    189.29563    236.26557 
   92600    133.38222   -1128.7897    136306.71   -35092.627    2531.4367   -37624.064    189.82717    235.44346 
   92650    133.01899   -1065.4064    136336.06   -35091.441    2524.5432   -37615.984     189.7098    234.80231 
   92700    134.90291    -1077.841    136356.27   -35114.632    2560.2977    -37674.93    189.28758    238.12775 
   92750    132.63129   -1117.5366    136335.58   -35122.263     2517.185   -37639.448    189.32028    234.11794 
   92800    131.29169   -1292.8922    136327.39   -35102.737    2491.7611   -37594.498    189.44498    231.75331 
   92850    133.75124   -1444.2411     136218.9   -35115.954    2538.4403   -37654.395    189.12068    236.09485 
   92900    136.11897   -1089.4964    136191.64   -35194.048    2583.3771   -37777.425    188.58556    240.27432 
   92950    133.68167   -917.02245    136267.43    -35227.86      2537.12    -37764.98    188.65523    235.97205 
   93000    132.15763   -929.23245    136371.74   -35248.866    2508.1956   -37757.062    188.38975    233.28186 
   93050    132.98405   -1253.1011    136413.77   -35151.749      2523.88   -37675.629    188.62809    234.74062 
   93100    135.61605   -1234.3485    136314.65   -35129.015    2573.8323   -37702.848    188.29086    239.38658 
   93150    135.90714   -962.56878    136266.53   -35092.775    2579.3568   -37672.132    188.26712    239.90041 
   93200    133.48452   -1070.9669    136272.93   -35097.916    2533.3784   -37631.294    188.07451    235.62405 
   93250    134.53056    -1091.472    136288.68   -35101.187    2553.2309   -37654.418    187.93996    237.47049 
   93300    135.83011   -1087.3354    136311.15    -35070.69    2577.8949   -37648.585     187.8199    239.76444 
   93350     134.3617    -1062.412    136235.58   -35107.335    2550.0262   -37657.361    187.81213    237.17243 
   93400    134.93533   -1161.9722    136179.95   -35108.386    2560.9131     -37669.3     188.3826      238.185 
   93450    135.40906   -1062.1438    136121.21   -35077.354    2569.9038   -37647.257    188.29951     239.0212 
   93500    134.37296    -1290.498    136106.98   -35045.379    2550.2399   -37595.619    188.36351     237.1923 
   93550    137.11168   -1025.0263    136068.27   -34996.583    2602.2176   -37598.801    188.61493    242.02664 
   93600    137.62602   -1024.7338     136041.2   -35005.276    2611.9791   -37617.255    189.00142    242.93453 
   93650    137.12572    -1046.616    136073.49   -34990.669    2602.4841   -37593.153    188.49127    242.05142 
   93700    136.11456   -1220.7299    136040.17   -34995.136    2583.2933    -37578.43     188.2154    240.26653 
   93750    135.61432   -1001.7601    136060.63   -34970.869    2573.7994   -37544.668     188.4958    239.38352 
   93800    138.29734    -1214.274    136012.87   -34927.492      2624.72   -37552.212    188.60793    244.11954 
   93850    139.03892    -1154.374    135953.45   -34892.452    2638.7944   -37531.246    188.90298    245.42856 
   93900    138.82719   -1046.4131    135903.91   -34860.972     2634.776   -37495.748    189.10605    245.05482 
   93950    139.15478   -958.84683    135911.52    -34911.94    2640.9932   -37552.933    188.90652    245.63307 
   94000    136.73034   -1049.3765    135858.34    -34886.19    2594.9801   -37481.171    189.08274    241.35349 
   94050    140.54763    -1350.377    135847.61   -34874.282    2667.4279    -37541.71    189.40689     248.0917 
   94100    137.60266   -1144.0292    135746.25   -34955.975    2611.5358   -37567.511     189.7536    242.89331 
   94150    136.44312   -1174.7696    135675.06   -34927.379    2589.5291   -37516.908    190.00851     240.8465 
   94200    137.39563   -1317.4505    135686.76   -34933.289    2607.6065   -37540.896    190.24375    242.52785 
   94250    137.77714   -1018.3782    135698.25   -34941.885    2614.8472   -37556.732     190.3121    243.20129 
   94300    136.72668   -930.79588    135766.18   -34893.074    2594.9106   -37487.985    190.58237    241.34703 
   94350    139.17862   -1145.9519    135821.16   -34929.143    2641.4457   -37570.588    190.70537    245.67516 
   94400    136.85629   -1019.5341    135850.89   -34929.831    2597.3705   -37527.202    190.43455    241.57582 
   94450    136.94042   -1026.9045    135884.98   -34970.202    2598.9672   -37569.169     190.5062    241.72432 
   94500    135.40677   -1026.5675    135879.73   -34978.194    2569.8604   -37548.055    190.39411    239.01717 
   94550    135.91765   -1155.5962    135850.21   -35034.303    2579.5563   -37613.859    190.74025    239.91895 
   94600     132.5601   -1178.9137    135855.02   -35013.126     2515.834    -37528.96    190.89372    233.99228 
   94650    133.20056   -1245.2764    135877.14   -35023.394    2527.9892   -37551.383    190.80942    235.12281 
   94700    133.74134   -1114.4241    135781.41   -35043.129    2538.2526   -37581.382    190.91576    236.07739 
   94750    133.11674     -1061.51     135738.3   -35012.974    2526.3983   -37539.373    191.51121    234.97485 
   94800    139.58737   -996.75145    135807.58   -35008.189    2649.2033   -37657.392    191.42528    246.39668 
   94850    137.83505   -1194.8482    135817.04   -35017.591    2615.9462   -37633.537    191.51424    243.30351 
   94900    135.70322   -1133.0352    135785.27   -34972.392    2575.4866   -37547.879    191.57892    239.54044 
   94950    136.27162    -737.5147    135772.73   -34876.272    2586.2742   -37462.546    191.56862    240.54378 
   95000    138.67268   -941.32115    135815.84   -34916.835    2631.8436   -37548.678    191.59387    244.78208 
   95050    136.36197   -1165.9022    135766.81   -34927.852    2587.9889   -37515.841    191.87788    240.70326 
   95100    135.47908   -1050.8364    135713.57   -34917.826    2571.2328   -37489.058    191.86115     239.1448 
   95150    137.81175   -1138.7465    135622.54   -34929.411     2615.504   -37544.915    191.62552    243.26237 
   95200    136.83831    -1006.559    135632.32   -34935.148    2597.0294   -37532.177    191.72935    241.54409 
   95250    136.94489   -1173.8003     135685.1   -34870.491    2599.0521   -37469.543    191.99481    241.73222 
   95300    139.67155    -889.9588    135665.54   -34862.662    2650.8009   -37513.463    192.37626    246.54527 
   95350    136.28807   -1010.4096    135785.99   -34900.719    2586.5864   -37487.306    192.46786    240.57281 
   95400    137.45731   -1054.2031    135715.98   -34971.001    2608.7773   -37579.779    192.31338    242.63674 
   95450    137.05389   -1166.1252    135627.68   -34949.997    2601.1207   -37551.117    192.33951    241.92462 
   95500     136.7081   -1252.3723    135633.58   -34935.074    2594.5582   -37529.632     192.4318    241.31425 
   95550    135.38753   -1097.5048    135495.33   -34969.265    2569.4953    -37538.76     192.2846    238.98321 
   95600    135.52853   -1179.7072    135372.64   -34964.046    2572.1713   -37536.218    192.48741     239.2321 
   95650    135.04124   -1184.0658    135368.03   -34972.293    2562.9231   -37535.216    192.58173    238.37194 
   95700    135.85368   -1028.7491    135343.19   -34983.798    2578.3423    -37562.14    192.54446    239.80604 
   95750    133.15781   -1157.9134    135403.86   -35007.727    2527.1777   -37534.905    192.69101    235.04734 
   95800    134.84248   -1286.1897    135421.73   -34991.869    2559.1508    -37551.02    193.23848    238.02108 
   95850    134.13425   -1118.0155    135374.95   -35005.462    2545.7094   -37551.171    193.05125    236.77093 
   95900    135.98394   -1128.8267    135379.59   -34942.086    2580.8144     -37522.9    193.20621    240.03597 
   95950    137.21463   -1191.1641    135327.34   -34934.286    2604.1715   -37538.458    193.46068    242.20837 
   96000    137.31323   -933.91708    135409.46   -34906.008    2606.0428   -37512.051    193.63338    242.38241 
   96050    139.30377   -1113.2151    135484.96   -34910.237    2643.8209   -37554.057    193.44964    245.89607 
   96100      135.626    -1206.249    135459.15   -34912.053    2574.0211   -37486.074    193.78844    239.40414 
   96150    135.72081   -1205.1068    135441.86   -34948.211    2575.8206   -37524.031    193.59801    239.57151 
   96200    133.96111   -1272.3526    135503.63   -34996.819    2542.4234   -37539.242    193.74839    236.46531 
   96250    131.09738   -1440.1422    135499.49    -35007.62    2488.0733   -37495.693    194.29287    231.41033 
   96300    135.46738   -1278.3784    135416.08   -35005.662    2571.0108   -37576.673    194.21759    239.12416 
   96350     132.8317   -1231.6138    135320.48   -34994.576    2520.9885   -37515.565    194.41455     234.4717 
   96400    135.37148   -1278.7023    135237.22   -34988.348    2569.1905   -37557.539    194.47704    238.95486 
   96450    134.46237   -1185.2041    135185.78   -34946.174    2551.9368   -37498.111    194.48949    237.35013 
   96500    135.23875   -1054.8653    135139.54    -34971.38    2566.6716   -37538.051     194.7155    238.72058 
   96550    135.34378   -1010.9767    135199.05   -34963.963    2568.6649   -37532.628    194.35628    238.90597 
   96600    133.69781   -895.79068    135245.87   -34946.598    2537.4264   -37484.024    194.41341    236.00055 
   96650    137.72684   -1156.3195    135308.67   -34907.266    2613.8926   -37521.159     194.4631    243.11251 
   96700    136.82159   -1131.9638    135284.07   -34907.696     2596.712   -37504.408    193.98574    241.51457 
   96750    135.96288   -834.73413    135304.01    -34918.45    2580.4148   -37498.864    193.84541     239.9988 
   96800     135.7727   -1047.9235    135397.66   -34947.652    2576.8052   -37524.458    193.51282    239.66309 
   96850    137.79315   -1029.4495    135433.88   -34967.068    2615.1511   -37582.219    193.88832    243.22955 
   96900    134.71868   -967.89302    135517.63   -34992.926    2556.8012   -37549.727    193.90253    237.80256 
   96950     134.3172   -1330.7342    135544.24   -34983.182    2549.1817   -37532.364    193.71223    237.09388 
   97000    135.48967   -1287.6859    135482.72   -35002.876    2571.4337    -37574.31    193.56052    239.16349 
   97050    136.85382   -1118.5385    135511.53   -34960.987    2597.3236   -37558.311     193.3302    241.57146 
   97100    133.12628   -1311.2174    135515.17   -34979.746    2526.5794   -37506.325     193.5558    234.99169 
   97150     135.4699   -1118.9377    135513.04    -34959.39    2571.0586   -37530.448    193.49325     239.1286 
   97200    137.24814   -1091.6354    135495.92   -34975.736    2604.8075   -37580.544    193.36197    242.26751 
   97250     134.3716   -1116.9639    135590.33   -34967.393    2550.2141   -37517.607    193.50597     237.1899 
   97300    138.19707   -1035.2009    135757.61    -34979.52     2622.817   -37602.337    193.76217    243.94254 
   97350    135.54199   -874.53958    135824.18   -34977.562    2572.4267   -37549.989    193.81874    239.25585 
   97400    133.45358   -1109.2395    135818.94   -35001.718    2532.7912   -37534.509    193.92088    235.56944 
   97450    134.08952   -1266.0488    135863.73   -34973.289    2544.8605    -37518.15    194.15148    236.69198 
   97500    133.14478   -1391.9492    135799.43   -34989.376    2526.9305   -37516.307    194.28299    235.02435 
   97550    134.30613   -1212.1626    135783.91   -34993.092    2548.9715   -37542.063     194.7206    237.07434 
   97600    135.36347   -1180.0193    135778.15   -34996.188    2569.0387   -37565.227    194.48287    238.94074 
   97650    135.74577   -1491.2034    135753.51   -35017.822    2576.2943   -37594.117     194.7733    239.61556 
   97700    134.01894   -1430.0995    135770.21   -35069.719     2543.521    -37613.24    195.18167     236.5674 
   97750    133.34177   -1133.1857    135724.46   -35073.014    2530.6692   -37603.683    195.41435    235.37207 
   97800    131.77852   -1127.6109    135801.77   -35115.418    2501.0005   -37616.419    195.27221    232.61265 
   97850    133.35088   -1279.3517    135734.97   -35076.984     2530.842   -37607.826    195.35606    235.38815 
   97900    133.35719   -1125.1872    135712.56   -35048.338    2530.9618     -37579.3    195.74177    235.39929 
   97950     134.3902   -1241.9166    135699.65   -35016.796    2550.5671   -37567.363    195.99835    237.22273 
   98000    135.13752   -1276.2832    135657.32   -34996.798    2564.7504   -37561.549    196.27038    238.54189 
   98050    134.81558   -1216.7225    135737.75   -35011.686    2558.6403   -37570.326     196.3329     237.9736 
   98100    133.12569   -1217.4758     135680.2   -35004.499    2526.5682   -37531.067     196.6004    234.99065 
   98150    137.21835    -1277.949    135635.23   -34992.472     2604.242   -37596.714    196.72817    242.21492 
   98200    134.31757   -1276.2458    135614.53   -35001.174    2549.1887   -37550.363    197.07231    237.09454 
   98250    134.21423   -1283.4168     135595.5   -35025.084    2547.2273   -37572.312    197.12331    236.91211 
   98300    134.66261   -1170.5671    135615.78   -35068.681    2555.7371   -37624.418    197.56522    237.70359 
   98350    134.50804   -1273.3458    135621.16   -35029.178    2552.8036   -37581.982    197.34214    237.43075 
   98400    131.59011   -934.78851    135623.95   -35052.598    2497.4247   -37550.023    197.66272    232.28008 
   98450    137.09089   -1270.1683    135564.35   -35012.316    2601.8229   -37614.139     198.1016    241.98993 
   98500    134.37674   -992.48155    135708.22   -35046.469    2550.3117   -37596.781    198.33311    237.19898 
   98550    133.60246   -1323.3271    135771.91   -35004.752    2535.6167   -37540.369    197.79485    235.83223 
   98600    135.74546   -1407.4084    135775.84   -34994.521    2576.2883   -37570.809    198.15713    239.61501 
   98650    133.96264   -1249.5053    135846.47   -35024.011    2542.4524   -37566.463    198.49168    236.46801 
   98700    133.24129   -1267.3735    135781.94   -35011.647    2528.7621   -37540.409    198.55733     235.1947 
   98750    133.25229   -1139.1558    135734.47   -34985.893    2528.9708   -37514.863    198.78647    235.21411 
   98800    133.02547   -1188.7013    135798.26   -34990.586    2524.6661   -37515.252    198.93615    234.81374 
   98850    134.19015   -1317.9053    135753.34   -34990.994    2546.7703   -37537.764    198.88789     236.8696 
   98900    134.73996   -1439.1418     135821.9     -34955.9    2557.2051   -37513.105    198.85502    237.84012 
   98950    134.90116   -1430.3435    135894.29   -34903.946    2560.2645    -37464.21    198.55586    238.12467 
   99000    137.00627   -1185.9304    135820.17   -34897.275    2600.2171   -37497.492    198.44297    241.84057 
   99050     135.4774   -1107.4127    135859.81   -34882.252    2571.2008   -37453.453    198.70441    239.14183 
   99100     134.3319   -1344.8243    135878.41   -34925.559    2549.4607    -37475.02    199.00492    237.11983 
   99150    134.34833   -1292.7043    135843.35   -34897.271    2549.7725   -37447.043    198.83157    237.14883 
   99200    137.93376   -1181.4824    135847.69   -34913.163    2617.8197   -37530.983    199.17735    243.47775 
   99250    136.80261   -1195.0735    135874.08   -34922.501    2596.3518   -37518.853    199.31286    241.48107 
   99300    133.71243   -1458.0247    135870.19    -34904.29    2537.7039   -37441.993    199.60472    236.02636 
   99350    135.34354   -1345.6896    135784.49   -34948.124    2568.6603   -37516.784    199.68176    238.90555 
   99400    135.01915    -1098.378    135849.92    -34923.19    2562.5039   -37485.694    199.85881    238.33295 
   99450    133.33225   -1431.3387    135898.02   -34931.298    2530.4885   -37461.786    200.27262    235.35526 
   99500    134.46016   -1459.8769     135844.9   -34898.395    2551.8948    -37450.29    200.37603    237.34622 
   99550    135.73879   -1051.2806    135815.06   -34895.897    2576.1617   -37472.059    199.89135    239.60324 
   99600    136.39501   -1086.3695    135920.59   -34921.806     2588.616   -37510.422    200.22224    240.76158 
   99650    134.57407   -1332.9819    135940.57   -34943.557    2554.0567   -37497.614    200.53485     237.5473 
   99700    135.26424   -1412.4888    135900.47   -34949.683    2567.1553   -37516.838    200.08989    238.76557 
   99750    134.54105   -1530.2923    135768.34   -34970.966      2553.43   -37524.396    200.06532      237.489 
   99800    137.97678   -1346.2013    135710.79   -34949.616    2618.6361   -37568.252    200.22971    243.55369 
   99850    132.91746   -1284.7101    135743.38   -34993.526    2522.6162   -37516.143    200.13756    234.62308 
   99900    131.68702   -1155.3133    135695.41   -35068.144    2499.2639   -37567.408     199.7909    232.45114 
   99950    134.83809   -1320.1394    135626.29   -35039.335    2559.0675   -37598.402    199.91584    238.01334 
  100000    134.33441   -1133.8751    135548.66   -34981.008    2549.5082   -37530.516    199.85008    237.12425 
Loop time of 168.244 on 60 procs for 100000 steps with 6368 atoms

Performance: 256.771 ns/day, 0.093 hours/ns, 594.376 timesteps/s
99.5% CPU use with 60 MPI tasks x no OpenMP threads

MPI task timing breakdown:
Section |  min time  |  avg time  |  max time  |%varavg| %total
---------------------------------------------------------------
Pair    | 15.674     | 73.934     | 117.66     | 546.5 | 43.94
Neigh   | 1.1536     | 2.5097     | 7.5482     | 136.5 |  1.49
Comm    | 34.016     | 73.696     | 125.93     | 489.4 | 43.80
Output  | 0.20474    | 0.20846    | 0.22407    |   0.5 |  0.12
Modify  | 8.8526     | 16.503     | 25.472     | 151.8 |  9.81
Other   |            | 1.392      |            |       |  0.83

Nlocal:    106.133 ave 246 max 63 min
Histogram: 46 2 0 0 0 0 0 0 2 10
Nghost:    994.483 ave 1309 max 667 min
Histogram: 24 0 0 0 0 0 0 24 0 12
Neighs:    0 ave 0 max 0 min
Histogram: 60 0 0 0 0 0 0 0 0 0
FullNghs:  12873.8 ave 45351 max 3730 min
Histogram: 48 0 0 0 0 0 0 0 1 11

Total # of neighbors = 772428
Ave neighs/atom = 121.298
Neighbor list builds = 5958
Dangerous builds = 0

write_data		${DIR}/data.eq-${NAME}-${TEMP}
write_data		run_1/data.eq-${NAME}-${TEMP}
write_data		run_1/data.eq-het_freeze_1-${TEMP}
write_data		run_1/data.eq-het_freeze_1-240
undump          1

reset_timestep  0

unfix           2
unfix           3
unfix           4


################################################
#######         Run Simulation         #########
################################################

log				${DIR}/log.run_${NAME}
log				run_1/log.run_${NAME}
log				run_1/log.run_het_freeze_1
