LAMMPS data file via write_data, version 16 Mar 2018, timestep = 6000000

5021 atoms
2 atom types

0.0000000000000000e+00 4.9219999999999999e+01 xlo xhi
0.0000000000000000e+00 4.9019635930410494e+01 ylo yhi
1.0524224008908192e+00 3.8947577599110090e+01 zlo zhi

Masses

1 18.015
2 12.01

Atoms # atomic

201 2 0.0000000000000000e+00 2.8417180249513345e+00 2.7742656017771683e+00 0 0 0
203 2 0.0000000000000000e+00 0.0000000000000000e+00 2.7742656017771683e+00 0 0 0
205 2 1.2305000000000001e+00 7.1042950623783474e-01 2.7742656017771683e+00 0 0 0
212 2 1.2305000000000001e+00 2.1312885187134998e+00 2.7742656017771683e+00 0 0 0
214 2 2.4610000000000003e+00 2.8417180249513345e+00 2.7742656017771683e+00 0 0 0
216 2 2.4610000000000003e+00 0.0000000000000000e+00 2.7742656017771683e+00 0 0 0
218 2 3.6915000000000004e+00 7.1042950623783474e-01 2.7742656017771683e+00 0 0 0
233 2 3.6914999999999996e+00 2.1312885187134998e+00 2.7742656017771683e+00 0 0 0
235 2 4.9220000000000006e+00 2.8417180249513332e+00 2.7742656017771683e+00 0 0 0
237 2 4.9220000000000006e+00 0.0000000000000000e+00 2.7742656017771683e+00 0 0 0
239 2 6.1524999999999999e+00 7.1042950623783407e-01 2.7742656017771683e+00 0 0 0
262 2 6.1524999999999999e+00 2.1312885187134989e+00 2.7742656017771683e+00 0 0 0
264 2 7.3829999999999991e+00 2.8417180249513345e+00 2.7742656017771683e+00 0 0 0
266 2 7.3829999999999991e+00 0.0000000000000000e+00 2.7742656017771683e+00 0 0 0
268 2 8.6134999999999984e+00 7.1042950623783407e-01 2.7742656017771683e+00 0 0 0
299 2 8.6134999999999984e+00 2.1312885187135002e+00 2.7742656017771683e+00 0 0 0
208 2 0.0000000000000000e+00 4.2625770374269996e+00 2.7742656017771683e+00 0 0 0
210 2 1.2305000000000001e+00 4.9730065436648339e+00 2.7742656017771683e+00 0 0 0
225 2 1.2305000000000001e+00 6.3938655561404980e+00 2.7742656017771683e+00 0 0 0
229 2 2.4610000000000003e+00 4.2625770374269996e+00 2.7742656017771683e+00 0 0 0
231 2 3.6914999999999996e+00 4.9730065436648339e+00 2.7742656017771683e+00 0 0 0
254 2 3.6914999999999996e+00 6.3938655561404980e+00 2.7742656017771683e+00 0 0 0
206 2 0.0000000000000000e+00 7.1042950623783341e+00 2.7742656017771683e+00 0 0 0
227 2 2.4610000000000003e+00 7.1042950623783341e+00 2.7742656017771683e+00 0 0 0
258 2 4.9220000000000006e+00 4.2625770374269978e+00 2.7742656017771683e+00 0 0 0
260 2 6.1524999999999999e+00 4.9730065436648339e+00 2.7742656017771683e+00 0 0 0
291 2 6.1524999999999999e+00 6.3938655561404980e+00 2.7742656017771683e+00 0 0 0
295 2 7.3829999999999991e+00 4.2625770374269996e+00 2.7742656017771683e+00 0 0 0
297 2 8.6135000000000002e+00 4.9730065436648339e+00 2.7742656017771683e+00 0 0 0
336 2 8.6135000000000002e+00 6.3938655561404980e+00 2.7742656017771683e+00 0 0 0
256 2 4.9220000000000006e+00 7.1042950623783341e+00 2.7742656017771683e+00 0 0 0
293 2 7.3830000000000009e+00 7.1042950623783341e+00 2.7742656017771683e+00 0 0 0
221 2 0.0000000000000000e+00 8.5251540748539991e+00 2.7742656017771683e+00 0 0 0
223 2 1.2305000000000001e+00 9.2355835810918343e+00 2.7742656017771683e+00 0 0 0
250 2 2.4610000000000003e+00 8.5251540748539991e+00 2.7742656017771683e+00 0 0 0
252 2 3.6915000000000004e+00 9.2355835810918343e+00 2.7742656017771683e+00 0 0 0
219 2 0.0000000000000000e+00 1.1366872099805333e+01 2.7742656017771683e+00 0 0 0
246 2 1.2305000000000001e+00 1.0656442593567498e+01 2.7742656017771683e+00 0 0 0
248 2 2.4610000000000003e+00 1.1366872099805333e+01 2.7742656017771683e+00 0 0 0
283 2 3.6914999999999996e+00 1.0656442593567499e+01 2.7742656017771683e+00 0 0 0
287 2 4.9220000000000006e+00 8.5251540748539991e+00 2.7742656017771683e+00 0 0 0
289 2 6.1524999999999999e+00 9.2355835810918343e+00 2.7742656017771683e+00 0 0 0
332 2 7.3830000000000009e+00 8.5251540748539991e+00 2.7742656017771683e+00 0 0 0
334 2 8.6134999999999984e+00 9.2355835810918343e+00 2.7742656017771683e+00 0 0 0
285 2 4.9220000000000006e+00 1.1366872099805333e+01 2.7742656017771683e+00 0 0 0
328 2 6.1524999999999999e+00 1.0656442593567499e+01 2.7742656017771683e+00 0 0 0
330 2 7.3829999999999991e+00 1.1366872099805333e+01 2.7742656017771683e+00 0 0 0
375 2 8.6134999999999984e+00 1.0656442593567498e+01 2.7742656017771683e+00 0 0 0
202 2 0.0000000000000000e+00 1.4208590124756650e+00 5.9274126394687254e+00 0 0 0
204 2 0.0000000000000000e+00 0.0000000000000000e+00 5.9274126394687254e+00 0 0 0
213 2 1.2305000000000001e+00 2.1312885187134998e+00 5.9274126394687254e+00 0 0 0
215 2 2.4610000000000003e+00 1.4208590124756650e+00 5.9274126394687254e+00 0 0 0
217 2 2.4610000000000003e+00 0.0000000000000000e+00 5.9274126394687254e+00 0 0 0
234 2 3.6914999999999996e+00 2.1312885187134998e+00 5.9274126394687254e+00 0 0 0
211 2 1.2305000000000001e+00 3.5521475311891644e+00 5.9274126394687254e+00 0 0 0
232 2 3.6914999999999996e+00 3.5521475311891644e+00 5.9274126394687254e+00 0 0 0
530 2 0.0000000000000000e+00 2.8417180249513345e+00 9.0805596771622756e+00 0 0 0
531 2 0.0000000000000000e+00 0.0000000000000000e+00 9.0805596771622756e+00 0 0 0
532 2 1.2305000000000001e+00 7.1042950623783474e-01 9.0805596771622756e+00 0 0 0
536 2 1.2305000000000001e+00 2.1312885187134998e+00 9.0805596771622756e+00 0 0 0
537 2 2.4610000000000003e+00 2.8417180249513345e+00 9.0805596771622756e+00 0 0 0
538 2 2.4610000000000003e+00 0.0000000000000000e+00 9.0805596771622756e+00 0 0 0
539 2 3.6915000000000004e+00 7.1042950623783474e-01 9.0805596771622756e+00 0 0 0
547 2 3.6914999999999996e+00 2.1312885187134998e+00 9.0805596771622756e+00 0 0 0
236 2 4.9220000000000006e+00 1.4208590124756650e+00 5.9274126394687254e+00 0 0 0
238 2 4.9220000000000006e+00 0.0000000000000000e+00 5.9274126394687254e+00 0 0 0
263 2 6.1524999999999999e+00 2.1312885187134989e+00 5.9274126394687254e+00 0 0 0
265 2 7.3829999999999991e+00 1.4208590124756659e+00 5.9274126394687254e+00 0 0 0
267 2 7.3829999999999991e+00 0.0000000000000000e+00 5.9274126394687254e+00 0 0 0
300 2 8.6134999999999984e+00 2.1312885187135002e+00 5.9274126394687254e+00 0 0 0
261 2 6.1524999999999999e+00 3.5521475311891644e+00 5.9274126394687254e+00 0 0 0
298 2 8.6134999999999984e+00 3.5521475311891657e+00 5.9274126394687254e+00 0 0 0
548 2 4.9220000000000006e+00 2.8417180249513332e+00 9.0805596771622756e+00 0 0 0
549 2 4.9220000000000006e+00 0.0000000000000000e+00 9.0805596771622756e+00 0 0 0
550 2 6.1524999999999999e+00 7.1042950623783407e-01 9.0805596771622756e+00 0 0 0
562 2 6.1524999999999999e+00 2.1312885187134989e+00 9.0805596771622756e+00 0 0 0
563 2 7.3829999999999991e+00 2.8417180249513345e+00 9.0805596771622756e+00 0 0 0
564 2 7.3829999999999991e+00 0.0000000000000000e+00 9.0805596771622756e+00 0 0 0
565 2 8.6134999999999984e+00 7.1042950623783407e-01 9.0805596771622756e+00 0 0 0
581 2 8.6134999999999984e+00 2.1312885187135002e+00 9.0805596771622756e+00 0 0 0
207 2 0.0000000000000000e+00 5.6834360499026637e+00 5.9274126394687254e+00 0 0 0
209 2 0.0000000000000000e+00 4.2625770374269996e+00 5.9274126394687254e+00 0 0 0
226 2 1.2305000000000001e+00 6.3938655561404980e+00 5.9274126394687254e+00 0 0 0
228 2 2.4610000000000003e+00 5.6834360499026637e+00 5.9274126394687254e+00 0 0 0
230 2 2.4610000000000003e+00 4.2625770374269996e+00 5.9274126394687254e+00 0 0 0
255 2 3.6914999999999996e+00 6.3938655561404980e+00 5.9274126394687254e+00 0 0 0
224 2 1.2305000000000001e+00 7.8147245686161639e+00 5.9274126394687254e+00 0 0 0
253 2 3.6914999999999996e+00 7.8147245686161639e+00 5.9274126394687254e+00 0 0 0
534 2 0.0000000000000000e+00 4.2625770374269996e+00 9.0805596771622756e+00 0 0 0
535 2 1.2305000000000001e+00 4.9730065436648339e+00 9.0805596771622756e+00 0 0 0
543 2 1.2305000000000001e+00 6.3938655561404980e+00 9.0805596771622756e+00 0 0 0
545 2 2.4610000000000003e+00 4.2625770374269996e+00 9.0805596771622756e+00 0 0 0
546 2 3.6914999999999996e+00 4.9730065436648339e+00 9.0805596771622756e+00 0 0 0
558 2 3.6914999999999996e+00 6.3938655561404980e+00 9.0805596771622756e+00 0 0 0
533 2 0.0000000000000000e+00 7.1042950623783341e+00 9.0805596771622756e+00 0 0 0
544 2 2.4610000000000003e+00 7.1042950623783341e+00 9.0805596771622756e+00 0 0 0
257 2 4.9220000000000006e+00 5.6834360499026637e+00 5.9274126394687254e+00 0 0 0
259 2 4.9220000000000006e+00 4.2625770374269978e+00 5.9274126394687254e+00 0 0 0
292 2 6.1524999999999999e+00 6.3938655561404980e+00 5.9274126394687254e+00 0 0 0
294 2 7.3829999999999991e+00 5.6834360499026637e+00 5.9274126394687254e+00 0 0 0
296 2 7.3829999999999991e+00 4.2625770374269996e+00 5.9274126394687254e+00 0 0 0
337 2 8.6135000000000002e+00 6.3938655561404980e+00 5.9274126394687254e+00 0 0 0
290 2 6.1524999999999999e+00 7.8147245686161639e+00 5.9274126394687254e+00 0 0 0
335 2 8.6135000000000002e+00 7.8147245686161639e+00 5.9274126394687254e+00 0 0 0
560 2 4.9220000000000006e+00 4.2625770374269978e+00 9.0805596771622756e+00 0 0 0
561 2 6.1524999999999999e+00 4.9730065436648339e+00 9.0805596771622756e+00 0 0 0
577 2 6.1524999999999999e+00 6.3938655561404980e+00 9.0805596771622756e+00 0 0 0
579 2 7.3829999999999991e+00 4.2625770374269996e+00 9.0805596771622756e+00 0 0 0
580 2 8.6135000000000002e+00 4.9730065436648339e+00 9.0805596771622756e+00 0 0 0
600 2 8.6135000000000002e+00 6.3938655561404980e+00 9.0805596771622756e+00 0 0 0
559 2 4.9220000000000006e+00 7.1042950623783341e+00 9.0805596771622756e+00 0 0 0
578 2 7.3830000000000009e+00 7.1042950623783341e+00 9.0805596771622756e+00 0 0 0
220 2 0.0000000000000000e+00 9.9460130873296642e+00 5.9274126394687254e+00 0 0 0
222 2 0.0000000000000000e+00 8.5251540748539991e+00 5.9274126394687254e+00 0 0 0
249 2 2.4610000000000003e+00 9.9460130873296642e+00 5.9274126394687254e+00 0 0 0
251 2 2.4610000000000003e+00 8.5251540748539991e+00 5.9274126394687254e+00 0 0 0
245 2 1.2305000000000001e+00 1.2077301606043163e+01 5.9274126394687254e+00 0 0 0
247 2 1.2305000000000001e+00 1.0656442593567498e+01 5.9274126394687254e+00 0 0 0
282 2 3.6914999999999996e+00 1.2077301606043163e+01 5.9274126394687254e+00 0 0 0
284 2 3.6914999999999996e+00 1.0656442593567499e+01 5.9274126394687254e+00 0 0 0
541 2 0.0000000000000000e+00 8.5251540748539991e+00 9.0805596771622756e+00 0 0 0
542 2 1.2305000000000001e+00 9.2355835810918343e+00 9.0805596771622756e+00 0 0 0
556 2 2.4610000000000003e+00 8.5251540748539991e+00 9.0805596771622756e+00 0 0 0
557 2 3.6915000000000004e+00 9.2355835810918343e+00 9.0805596771622756e+00 0 0 0
540 2 0.0000000000000000e+00 1.1366872099805333e+01 9.0805596771622756e+00 0 0 0
554 2 1.2305000000000001e+00 1.0656442593567498e+01 9.0805596771622756e+00 0 0 0
555 2 2.4610000000000003e+00 1.1366872099805333e+01 9.0805596771622756e+00 0 0 0
573 2 3.6914999999999996e+00 1.0656442593567499e+01 9.0805596771622756e+00 0 0 0
286 2 4.9220000000000006e+00 9.9460130873296642e+00 5.9274126394687254e+00 0 0 0
288 2 4.9220000000000006e+00 8.5251540748539991e+00 5.9274126394687254e+00 0 0 0
331 2 7.3830000000000009e+00 9.9460130873296642e+00 5.9274126394687254e+00 0 0 0
333 2 7.3830000000000009e+00 8.5251540748539991e+00 5.9274126394687254e+00 0 0 0
327 2 6.1524999999999999e+00 1.2077301606043163e+01 5.9274126394687254e+00 0 0 0
329 2 6.1524999999999999e+00 1.0656442593567499e+01 5.9274126394687254e+00 0 0 0
374 2 8.6135000000000002e+00 1.2077301606043163e+01 5.9274126394687254e+00 0 0 0
376 2 8.6134999999999984e+00 1.0656442593567498e+01 5.9274126394687254e+00 0 0 0
575 2 4.9220000000000006e+00 8.5251540748539991e+00 9.0805596771622756e+00 0 0 0
576 2 6.1524999999999999e+00 9.2355835810918343e+00 9.0805596771622756e+00 0 0 0
598 2 7.3830000000000009e+00 8.5251540748539991e+00 9.0805596771622756e+00 0 0 0
599 2 8.6134999999999984e+00 9.2355835810918343e+00 9.0805596771622756e+00 0 0 0
574 2 4.9220000000000006e+00 1.1366872099805333e+01 9.0805596771622756e+00 0 0 0
596 2 6.1524999999999999e+00 1.0656442593567499e+01 9.0805596771622756e+00 0 0 0
597 2 7.3829999999999991e+00 1.1366872099805333e+01 9.0805596771622756e+00 0 0 0
620 2 8.6134999999999984e+00 1.0656442593567498e+01 9.0805596771622756e+00 0 0 0
3584 1 3.9874593505729283e+00 1.6581691619052252e+00 1.2437824980854012e+01 1 1 0
1025 1 4.5458157508275745e+00 1.5053531258590040e+00 1.5164497961105306e+01 -1 0 0
4876 1 6.5524344008895277e+00 5.9071941806702677e-01 1.1489600946654003e+01 1 2 0
2674 1 6.3850328629753150e+00 1.0646087896751029e+01 1.5641103103680230e+01 1 3 0
3772 1 8.8522061833936210e+00 1.4120177138027392e+00 1.2695712231828493e+01 -1 -2 0
1325 1 8.8933992221677602e+00 3.9430881998243925e+00 1.1829457596148389e+01 1 -1 0
1069 1 8.8418632469046639e+00 1.6465737293727751e+00 1.5393213628821673e+01 0 1 0
978 1 3.9155087858815962e+00 1.1779058547968045e+01 1.1361453785934687e+01 1 1 -1
4662 1 4.1538350169869585e+00 4.1942174890427886e+00 1.1428528821409408e+01 1 1 0
3635 1 1.9879305027309404e+00 5.1272441753931366e+00 1.2632022669326725e+01 2 0 0
2663 1 1.5772471514104565e+00 7.7051858803732918e+00 1.1564693465644291e+01 0 2 0
3535 1 2.0780823986509440e+00 5.4040715790646834e+00 1.5356603076474045e+01 0 2 0
4910 1 6.5058944119533200e+00 5.3060163380344569e+00 1.2234672650086964e+01 0 1 0
2216 1 6.5547419065938843e+00 5.4050882382029410e+00 1.5100264131382904e+01 0 1 0
4636 1 6.1088238120088043e+00 7.9613354003029162e+00 1.1548632050278554e+01 0 0 -1
40 1 7.9933858607111317e+00 1.1851502332508414e+01 1.1596433207244397e+01 -1 1 0
2234 1 3.7835698366041459e+00 9.1638609343456370e+00 1.2343420715131925e+01 0 -1 0
1336 1 4.1135841202597936e+00 9.0728481682253488e+00 1.5155294989566515e+01 0 2 0
3910 1 8.7818792087137787e+00 9.1652481722947439e+00 1.9851581642361040e+01 0 2 0
4945 1 8.3948932714635962e+00 9.1998527800625371e+00 1.2233650387859822e+01 4 2 0
4972 1 8.7440299549353426e+00 9.3265054182115144e+00 1.5062259081563484e+01 0 0 -1
2273 1 2.1949431643306232e+00 2.5933332988718010e+00 1.9044893099686924e+01 0 -1 0
1047 1 2.2421091770816997e+00 2.7343584623155350e+00 1.6196347652127365e+01 1 0 0
3856 1 1.7729878971085475e+00 9.9264587640903219e+00 1.8746851450149762e+01 1 -1 0
2484 1 6.5758045466192527e+00 2.9103466094213473e+00 1.6192899216101296e+01 2 1 -1
3425 1 7.0726997545167833e+00 2.9483451713983237e+00 1.8863382460799624e+01 0 0 -1
1382 1 4.2803711471475534e+00 6.6680150215390839e+00 1.8953474822594103e+01 1 2 0
4818 1 4.4012804018031337e+00 6.5541905839284489e+00 1.6167677734733903e+01 -2 0 0
3598 1 1.8599595215447220e+00 1.0302491185838271e+01 1.6034482187499357e+01 1 -1 -1
4906 1 6.4071121505122806e+00 1.0456298504185318e+01 1.8658754882371813e+01 -1 0 0
1114 1 9.2127681986666836e+00 6.7196504621409829e+00 1.8869411704428448e+01 0 0 -1
2549 1 8.6603034563727324e+00 6.8514870739667426e+00 1.6160703451209010e+01 2 -2 0
2235 1 1.0592451700670717e-01 1.4923510370697743e+00 1.4925255613060875e+01 0 0 0
1476 1 2.2004295189804202e+00 1.5110617471635113e-01 1.1347678176242123e+01 0 1 0
199 1 2.1110383494103067e+00 5.1720876712940003e+00 1.9801970233572565e+01 -1 1 0
1332 1 4.2923974195473100e+00 9.2146971145485956e+00 1.9664424032776196e+01 1 -1 0
3532 1 6.8954730287872605e+00 5.4390077056492947e+00 1.9677475083211423e+01 1 1 0
3883 1 9.1516889834933917e+00 1.6639272762059154e+00 1.9991890021567205e+01 1 2 0
4907 1 4.3154067782946672e+00 1.4146163470326569e+00 2.2837569810018639e+01 1 1 0
2494 1 4.3581309779982904e+00 4.1967358501665268e+00 2.3168333174136492e+01 2 0 0
3542 1 1.8955550819818436e+00 3.6891321397551152e-01 2.6561396742293994e+01 2 0 0
1204 1 8.4023564111312190e+00 1.1624853277929740e+01 2.6461204785708748e+01 0 0 0
2653 1 6.2961968534830879e+00 1.0140299493981320e+01 2.7532100357637837e+01 1 0 0
2453 1 8.8223694019282206e+00 1.4901544921929775e+00 2.2759729386379917e+01 2 0 0
2656 1 8.7080841717379798e+00 4.1584609364263576e+00 2.3709483109050105e+01 1 0 1
2304 1 6.3677052234771532e+00 2.9999927042542013e-01 2.6634590594945628e+01 -1 -2 0
4860 1 1.9030034169499701e+00 1.0443673565253100e+01 2.7412607672628777e+01 -2 3 0
2572 1 1.8668945160225479e+00 5.1296285285057746e+00 2.2435280273019909e+01 1 0 0
1019 1 1.8321678446999832e+00 7.9194012003743461e+00 2.3464466273363076e+01 0 0 0
2159 1 6.7007163882837002e+00 5.3295183974120688e+00 2.2321059481383102e+01 1 1 0
71 1 6.5087017573187493e+00 7.7962384341788216e+00 2.3526074145450988e+01 2 0 0
1094 1 4.2228536205388192e+00 8.9170917126144662e+00 2.2407794096003119e+01 -1 3 -1
922 1 3.8609106130197235e+00 1.1396629871526226e+01 2.3543042901034660e+01 1 1 0
4873 1 8.7672994450213153e+00 9.4807038033449729e+00 2.2639953609873750e+01 0 2 0
2145 1 8.4953754653266831e+00 1.1874204237358134e+01 2.3719643812486090e+01 1 -1 1
2615 1 8.5174941203412864e+00 6.2651409704706573e+00 2.7279237802839365e+01 0 0 0
983 1 1.8111427002489238e+00 3.0031772352196473e+00 2.7171073134743512e+01 -1 0 0
1315 1 4.0414894642335835e+00 4.3985304065458308e+00 2.6012469740007923e+01 2 1 0
3545 1 4.2030758552334930e+00 1.1477708466281392e+01 2.6557924528048257e+01 1 0 0
4965 1 6.2029496892571601e+00 7.6506775021468094e+00 2.6311543374924828e+01 0 1 0
2269 1 6.1685014608372368e+00 2.9326769995873647e+00 2.7179686709184121e+01 0 1 0
2300 1 8.8617010978963560e+00 3.9410576783349156e+00 2.6495876912180353e+01 0 1 0
2375 1 1.9523426708706946e+00 7.9257437978156497e+00 2.6215080441313763e+01 1 -1 0
169 1 4.0218007643868861e+00 6.6988604342006788e+00 2.7218813189339382e+01 -2 1 0
2492 1 1.8974903054328034e+00 4.1966959345088961e-01 2.3648527118217125e+01 -1 -1 0
4722 1 6.4850512220424141e+00 1.6174011713819011e-01 2.3827586272186561e+01 2 3 -1
2655 1 4.7765210819763722e+00 1.7472910603096921e+00 2.0035056631768850e+01 1 1 0
4859 1 4.0963090644852356e+00 1.6452399989074529e+00 3.1222759622530948e+01 1 1 0
1389 1 4.3926825878334537e+00 1.3901173425851718e+00 3.3809877894434557e+01 -2 0 0
3957 1 1.6775070366058358e+00 2.7432193923548582e+00 2.9941987383146905e+01 -2 0 0
3670 1 5.9699553979306117e+00 9.3976094000593093e+00 3.8529328199944160e+01 1 -2 -1
2692 1 8.5835559529486840e+00 1.4610412501718124e+00 3.1121713771239548e+01 -2 -1 0
133 1 6.3633684423841199e+00 2.5057796839214603e+00 2.9819231621153659e+01 0 0 0
3621 1 8.9591394672058282e+00 1.6808794179545807e+00 3.3889944596355924e+01 1 1 -1
947 1 1.7798181587660582e+00 5.2808488320398697e+00 3.1265985732665420e+01 -2 0 0
4839 1 4.0098594252594939e+00 6.0138527074756345e+00 2.9973933782297109e+01 0 2 0
3709 1 2.3952829908017010e+00 5.0736357239517300e+00 3.3984999815699311e+01 -1 0 -1
3967 1 6.3233502690465011e+00 5.0005897055482071e+00 3.0971292552695804e+01 0 0 1
1249 1 8.5237263361487159e+00 6.3801905186901946e+00 3.0113909628759981e+01 -1 1 0
2411 1 6.6595959702335765e+00 5.0151941227196675e+00 3.3654937056356047e+01 1 -1 0
3643 1 4.0613516607798115e+00 8.6676132386415645e+00 3.0784216703368465e+01 1 1 -1
1371 1 1.8376541926150771e+00 1.0224652256544321e+01 3.0054361452012863e+01 3 1 0
1309 1 4.3324457685565969e+00 8.6567698910657622e+00 3.3720189710285439e+01 1 1 0
4782 1 8.3477524478888387e+00 8.9383713058339467e+00 3.1048391930402747e+01 -1 0 0
4717 1 6.1798099131861806e+00 1.0256381726734167e+01 3.0295830204536568e+01 -1 2 0
2299 1 8.7630398339275377e+00 8.3738134896931236e+00 3.3723331596640229e+01 0 2 0
5021 1 4.3989559796944331e+00 2.0986625440979925e+00 3.8270229997645721e+01 0 -1 0
3665 1 2.1132083338444736e+00 1.0948646713702579e+00 3.7467726448288069e+01 2 0 0
1149 1 2.1873223287533365e+00 3.1521008752392110e-01 3.4763420402584366e+01 1 1 -1
2285 1 8.9330851380316503e+00 1.9055351611613935e+00 3.8315292862336868e+01 1 1 -1
1328 1 6.6006098838262020e+00 6.6777150808500774e-01 3.7699602819249009e+01 -1 -1 0
1056 1 6.5427464895950989e+00 3.1558304728664321e-01 3.4921438564497862e+01 0 -1 0
4982 1 4.6491720239045824e+00 3.8050207720208959e+00 3.5037925579299561e+01 0 1 -1
2419 1 4.3625676217911451e+00 5.0643673129900924e+00 3.8145694514655645e+01 0 2 0
2688 1 1.8226752233296124e+00 6.4958327365119883e+00 3.7724199959720579e+01 -1 2 0
3693 1 2.1143730427210601e+00 7.5889344132446768e+00 3.4991161090741699e+01 0 0 0
3481 1 8.9193479868544028e+00 4.1795179054419078e+00 3.4837337041572255e+01 1 0 0
3675 1 6.7103579220384084e+00 6.8506647849556828e+00 3.7904781855544819e+01 0 1 0
2432 1 8.6346241515830062e+00 4.6041040710728254e+00 3.7907179011340361e+01 2 0 0
191 1 6.4834082194859617e+00 7.4361786034062822e+00 3.5025373961635431e+01 0 0 1
2301 1 1.6260799382737881e+00 9.4229290576859768e+00 3.8068442027381842e+01 -1 0 0
1044 1 3.8757601612308314e+00 1.0900678176989196e+01 3.7596451811765562e+01 1 -1 -1
939 1 3.5216461386314077e+00 1.1137551101451290e+01 3.4886959253822205e+01 0 -1 0
3778 1 8.3391850535379906e+00 1.0743226684277497e+01 3.7848119053811857e+01 2 2 -1
192 1 7.9372377309134778e+00 1.0849437869902790e+01 3.5063128676756861e+01 2 0 0
242 2 0.0000000000000000e+00 1.2787731112280996e+01 2.7742656017771683e+00 0 0 0
244 2 1.2305000000000001e+00 1.3498160618518829e+01 2.7742656017771683e+00 0 0 0
279 2 2.4610000000000003e+00 1.2787731112280996e+01 2.7742656017771683e+00 0 0 0
281 2 3.6915000000000004e+00 1.3498160618518829e+01 2.7742656017771683e+00 0 0 0
240 2 0.0000000000000000e+00 1.5629449137232333e+01 2.7742656017771683e+00 0 0 0
275 2 1.2305000000000001e+00 1.4919019630994494e+01 2.7742656017771683e+00 0 0 0
277 2 2.4610000000000003e+00 1.5629449137232328e+01 2.7742656017771683e+00 0 0 0
320 2 3.6915000000000004e+00 1.4919019630994494e+01 2.7742656017771683e+00 0 0 0
324 2 4.9220000000000006e+00 1.2787731112280996e+01 2.7742656017771683e+00 0 0 0
326 2 6.1524999999999990e+00 1.3498160618518829e+01 2.7742656017771683e+00 0 0 0
371 2 7.3829999999999991e+00 1.2787731112280996e+01 2.7742656017771683e+00 0 0 0
373 2 8.6135000000000002e+00 1.3498160618518835e+01 2.7742656017771683e+00 0 0 0
322 2 4.9220000000000006e+00 1.5629449137232333e+01 2.7742656017771683e+00 0 0 0
367 2 6.1524999999999990e+00 1.4919019630994494e+01 2.7742656017771683e+00 0 0 0
369 2 7.3829999999999991e+00 1.5629449137232333e+01 2.7742656017771683e+00 0 0 0
414 2 8.6135000000000002e+00 1.4919019630994494e+01 2.7742656017771683e+00 0 0 0
271 2 0.0000000000000000e+00 1.7050308149707998e+01 2.7742656017771683e+00 0 0 0
316 2 2.4610000000000003e+00 1.7050308149707998e+01 2.7742656017771683e+00 0 0 0
269 2 0.0000000000000000e+00 1.9892026174659328e+01 2.7742656017771683e+00 0 0 0
273 2 1.2305000000000001e+00 1.7760737655945832e+01 2.7742656017771683e+00 0 0 0
312 2 1.2305000000000001e+00 1.9181596668421495e+01 2.7742656017771683e+00 0 0 0
314 2 2.4610000000000003e+00 1.9892026174659328e+01 2.7742656017771683e+00 0 0 0
318 2 3.6914999999999996e+00 1.7760737655945832e+01 2.7742656017771683e+00 0 0 0
359 2 3.6914999999999996e+00 1.9181596668421495e+01 2.7742656017771683e+00 0 0 0
363 2 4.9220000000000006e+00 1.7050308149707998e+01 2.7742656017771683e+00 0 0 0
410 2 7.3830000000000009e+00 1.7050308149707998e+01 2.7742656017771683e+00 0 0 0
361 2 4.9220000000000006e+00 1.9892026174659328e+01 2.7742656017771683e+00 0 0 0
365 2 6.1524999999999999e+00 1.7760737655945832e+01 2.7742656017771683e+00 0 0 0
406 2 6.1524999999999999e+00 1.9181596668421495e+01 2.7742656017771683e+00 0 0 0
408 2 7.3829999999999991e+00 1.9892026174659328e+01 2.7742656017771683e+00 0 0 0
412 2 8.6134999999999984e+00 1.7760737655945832e+01 2.7742656017771683e+00 0 0 0
448 2 8.6135000000000002e+00 1.9181596668421495e+01 2.7742656017771683e+00 0 0 0
306 2 0.0000000000000000e+00 2.4154603212086325e+01 2.7742656017771683e+00 0 0 0
308 2 0.0000000000000000e+00 2.1312885187134999e+01 2.7742656017771683e+00 0 0 0
310 2 1.2304999999999993e+00 2.2023314693372832e+01 2.7742656017771683e+00 0 0 0
351 2 1.2304999999999993e+00 2.3444173705848499e+01 2.7742656017771683e+00 0 0 0
353 2 2.4610000000000003e+00 2.4154603212086325e+01 2.7742656017771683e+00 0 0 0
355 2 2.4610000000000003e+00 2.1312885187134995e+01 2.7742656017771683e+00 0 0 0
357 2 3.6914999999999996e+00 2.2023314693372832e+01 2.7742656017771683e+00 0 0 0
398 2 3.6915000000000004e+00 2.3444173705848499e+01 2.7742656017771683e+00 0 0 0
400 2 4.9220000000000006e+00 2.4154603212086325e+01 2.7742656017771683e+00 0 0 0
402 2 4.9220000000000006e+00 2.1312885187134995e+01 2.7742656017771683e+00 0 0 0
404 2 6.1524999999999990e+00 2.2023314693372832e+01 2.7742656017771683e+00 0 0 0
440 2 6.1524999999999999e+00 2.3444173705848499e+01 2.7742656017771683e+00 0 0 0
442 2 7.3830000000000009e+00 2.4154603212086336e+01 2.7742656017771683e+00 0 0 0
444 2 7.3829999999999991e+00 2.1312885187134999e+01 2.7742656017771683e+00 0 0 0
446 2 8.6135000000000002e+00 2.2023314693372832e+01 2.7742656017771683e+00 0 0 0
474 2 8.6134999999999984e+00 2.3444173705848499e+01 2.7742656017771683e+00 0 0 0
243 2 0.0000000000000000e+00 1.2787731112280996e+01 5.9274126394687254e+00 0 0 0
280 2 2.4610000000000003e+00 1.2787731112280996e+01 5.9274126394687254e+00 0 0 0
241 2 0.0000000000000000e+00 1.4208590124756663e+01 5.9274126394687254e+00 0 0 0
276 2 1.2305000000000001e+00 1.4919019630994494e+01 5.9274126394687254e+00 0 0 0
278 2 2.4610000000000003e+00 1.4208590124756663e+01 5.9274126394687254e+00 0 0 0
321 2 3.6915000000000004e+00 1.4919019630994494e+01 5.9274126394687254e+00 0 0 0
552 2 0.0000000000000000e+00 1.2787731112280996e+01 9.0805596771622756e+00 0 0 0
553 2 1.2305000000000001e+00 1.3498160618518829e+01 9.0805596771622756e+00 0 0 0
571 2 2.4610000000000003e+00 1.2787731112280996e+01 9.0805596771622756e+00 0 0 0
572 2 3.6915000000000004e+00 1.3498160618518829e+01 9.0805596771622756e+00 0 0 0
551 2 0.0000000000000000e+00 1.5629449137232333e+01 9.0805596771622756e+00 0 0 0
569 2 1.2305000000000001e+00 1.4919019630994494e+01 9.0805596771622756e+00 0 0 0
570 2 2.4610000000000003e+00 1.5629449137232328e+01 9.0805596771622756e+00 0 0 0
592 2 3.6915000000000004e+00 1.4919019630994494e+01 9.0805596771622756e+00 0 0 0
325 2 4.9220000000000006e+00 1.2787731112280996e+01 5.9274126394687254e+00 0 0 0
372 2 7.3829999999999991e+00 1.2787731112280996e+01 5.9274126394687254e+00 0 0 0
323 2 4.9220000000000006e+00 1.4208590124756663e+01 5.9274126394687254e+00 0 0 0
368 2 6.1524999999999990e+00 1.4919019630994494e+01 5.9274126394687254e+00 0 0 0
370 2 7.3830000000000009e+00 1.4208590124756663e+01 5.9274126394687254e+00 0 0 0
415 2 8.6135000000000002e+00 1.4919019630994494e+01 5.9274126394687254e+00 0 0 0
594 2 4.9220000000000006e+00 1.2787731112280996e+01 9.0805596771622756e+00 0 0 0
595 2 6.1524999999999990e+00 1.3498160618518829e+01 9.0805596771622756e+00 0 0 0
618 2 7.3829999999999991e+00 1.2787731112280996e+01 9.0805596771622756e+00 0 0 0
619 2 8.6135000000000002e+00 1.3498160618518835e+01 9.0805596771622756e+00 0 0 0
593 2 4.9220000000000006e+00 1.5629449137232333e+01 9.0805596771622756e+00 0 0 0
616 2 6.1524999999999990e+00 1.4919019630994494e+01 9.0805596771622756e+00 0 0 0
617 2 7.3829999999999991e+00 1.5629449137232333e+01 9.0805596771622756e+00 0 0 0
640 2 8.6135000000000002e+00 1.4919019630994494e+01 9.0805596771622756e+00 0 0 0
272 2 0.0000000000000000e+00 1.7050308149707998e+01 5.9274126394687254e+00 0 0 0
274 2 1.2305000000000001e+00 1.6339878643470165e+01 5.9274126394687254e+00 0 0 0
317 2 2.4610000000000003e+00 1.7050308149707998e+01 5.9274126394687254e+00 0 0 0
319 2 3.6915000000000004e+00 1.6339878643470165e+01 5.9274126394687254e+00 0 0 0
270 2 0.0000000000000000e+00 1.8471167162183658e+01 5.9274126394687254e+00 0 0 0
313 2 1.2305000000000001e+00 1.9181596668421495e+01 5.9274126394687254e+00 0 0 0
315 2 2.4610000000000003e+00 1.8471167162183658e+01 5.9274126394687254e+00 0 0 0
360 2 3.6914999999999996e+00 1.9181596668421495e+01 5.9274126394687254e+00 0 0 0
567 2 0.0000000000000000e+00 1.7050308149707998e+01 9.0805596771622756e+00 0 0 0
590 2 2.4610000000000003e+00 1.7050308149707998e+01 9.0805596771622756e+00 0 0 0
566 2 0.0000000000000000e+00 1.9892026174659328e+01 9.0805596771622756e+00 0 0 0
568 2 1.2305000000000001e+00 1.7760737655945832e+01 9.0805596771622756e+00 0 0 0
588 2 1.2305000000000001e+00 1.9181596668421495e+01 9.0805596771622756e+00 0 0 0
589 2 2.4610000000000003e+00 1.9892026174659328e+01 9.0805596771622756e+00 0 0 0
591 2 3.6914999999999996e+00 1.7760737655945832e+01 9.0805596771622756e+00 0 0 0
612 2 3.6914999999999996e+00 1.9181596668421495e+01 9.0805596771622756e+00 0 0 0
364 2 4.9220000000000006e+00 1.7050308149707998e+01 5.9274126394687254e+00 0 0 0
366 2 6.1524999999999999e+00 1.6339878643470165e+01 5.9274126394687254e+00 0 0 0
411 2 7.3830000000000009e+00 1.7050308149707998e+01 5.9274126394687254e+00 0 0 0
413 2 8.6134999999999984e+00 1.6339878643470165e+01 5.9274126394687254e+00 0 0 0
362 2 4.9220000000000006e+00 1.8471167162183658e+01 5.9274126394687254e+00 0 0 0
407 2 6.1524999999999999e+00 1.9181596668421495e+01 5.9274126394687254e+00 0 0 0
409 2 7.3829999999999991e+00 1.8471167162183658e+01 5.9274126394687254e+00 0 0 0
449 2 8.6135000000000002e+00 1.9181596668421495e+01 5.9274126394687254e+00 0 0 0
614 2 4.9220000000000006e+00 1.7050308149707998e+01 9.0805596771622756e+00 0 0 0
638 2 7.3830000000000009e+00 1.7050308149707998e+01 9.0805596771622756e+00 0 0 0
613 2 4.9220000000000006e+00 1.9892026174659328e+01 9.0805596771622756e+00 0 0 0
615 2 6.1524999999999999e+00 1.7760737655945832e+01 9.0805596771622756e+00 0 0 0
636 2 6.1524999999999999e+00 1.9181596668421495e+01 9.0805596771622756e+00 0 0 0
637 2 7.3829999999999991e+00 1.9892026174659328e+01 9.0805596771622756e+00 0 0 0
639 2 8.6134999999999984e+00 1.7760737655945832e+01 9.0805596771622756e+00 0 0 0
657 2 8.6135000000000002e+00 1.9181596668421495e+01 9.0805596771622756e+00 0 0 0
311 2 1.2305000000000001e+00 2.0602455680897162e+01 5.9274126394687254e+00 0 0 0
358 2 3.6915000000000004e+00 2.0602455680897162e+01 5.9274126394687254e+00 0 0 0
307 2 0.0000000000000000e+00 2.2733744199610655e+01 5.9274126394687254e+00 0 0 0
309 2 0.0000000000000000e+00 2.1312885187134999e+01 5.9274126394687254e+00 0 0 0
352 2 1.2304999999999993e+00 2.3444173705848499e+01 5.9274126394687254e+00 0 0 0
354 2 2.4610000000000003e+00 2.2733744199610655e+01 5.9274126394687254e+00 0 0 0
356 2 2.4610000000000003e+00 2.1312885187134995e+01 5.9274126394687254e+00 0 0 0