LAMMPS data file via write_data, version 16 Mar 2018, timestep = 100000

5021 atoms
2 atom types

0.0000000000000000e+00 4.9219999999999999e+01 xlo xhi
0.0000000000000000e+00 4.9019635930410494e+01 ylo yhi
1.4464426438161091e+00 3.8553557356186978e+01 zlo zhi

Masses

1 18.015
2 12.01

Atoms # atomic

201 2 0.0000000000000000e+00 2.8417180249513345e+00 3.1324796276411835e+00 0 0 0
203 2 0.0000000000000000e+00 0.0000000000000000e+00 3.1324796276411835e+00 0 0 0
205 2 1.2305000000000001e+00 7.1042950623783474e-01 3.1324796276411835e+00 0 0 0
212 2 1.2305000000000001e+00 2.1312885187134998e+00 3.1324796276411835e+00 0 0 0
214 2 2.4610000000000003e+00 2.8417180249513345e+00 3.1324796276411835e+00 0 0 0
216 2 2.4610000000000003e+00 0.0000000000000000e+00 3.1324796276411835e+00 0 0 0
218 2 3.6915000000000004e+00 7.1042950623783474e-01 3.1324796276411835e+00 0 0 0
233 2 3.6914999999999996e+00 2.1312885187134998e+00 3.1324796276411835e+00 0 0 0
235 2 4.9220000000000006e+00 2.8417180249513332e+00 3.1324796276411835e+00 0 0 0
237 2 4.9220000000000006e+00 0.0000000000000000e+00 3.1324796276411835e+00 0 0 0
239 2 6.1524999999999999e+00 7.1042950623783407e-01 3.1324796276411835e+00 0 0 0
262 2 6.1524999999999999e+00 2.1312885187134989e+00 3.1324796276411835e+00 0 0 0
264 2 7.3829999999999991e+00 2.8417180249513345e+00 3.1324796276411835e+00 0 0 0
266 2 7.3829999999999991e+00 0.0000000000000000e+00 3.1324796276411835e+00 0 0 0
268 2 8.6134999999999984e+00 7.1042950623783407e-01 3.1324796276411835e+00 0 0 0
299 2 8.6134999999999984e+00 2.1312885187135002e+00 3.1324796276411835e+00 0 0 0
208 2 0.0000000000000000e+00 4.2625770374269996e+00 3.1324796276411835e+00 0 0 0
210 2 1.2305000000000001e+00 4.9730065436648339e+00 3.1324796276411835e+00 0 0 0
225 2 1.2305000000000001e+00 6.3938655561404980e+00 3.1324796276411835e+00 0 0 0
229 2 2.4610000000000003e+00 4.2625770374269996e+00 3.1324796276411835e+00 0 0 0
231 2 3.6914999999999996e+00 4.9730065436648339e+00 3.1324796276411835e+00 0 0 0
254 2 3.6914999999999996e+00 6.3938655561404980e+00 3.1324796276411835e+00 0 0 0
206 2 0.0000000000000000e+00 7.1042950623783341e+00 3.1324796276411835e+00 0 0 0
227 2 2.4610000000000003e+00 7.1042950623783341e+00 3.1324796276411835e+00 0 0 0
258 2 4.9220000000000006e+00 4.2625770374269978e+00 3.1324796276411835e+00 0 0 0
260 2 6.1524999999999999e+00 4.9730065436648339e+00 3.1324796276411835e+00 0 0 0
291 2 6.1524999999999999e+00 6.3938655561404980e+00 3.1324796276411835e+00 0 0 0
295 2 7.3829999999999991e+00 4.2625770374269996e+00 3.1324796276411835e+00 0 0 0
297 2 8.6135000000000002e+00 4.9730065436648339e+00 3.1324796276411835e+00 0 0 0
336 2 8.6135000000000002e+00 6.3938655561404980e+00 3.1324796276411835e+00 0 0 0
256 2 4.9220000000000006e+00 7.1042950623783341e+00 3.1324796276411835e+00 0 0 0
293 2 7.3830000000000009e+00 7.1042950623783341e+00 3.1324796276411835e+00 0 0 0
221 2 0.0000000000000000e+00 8.5251540748539991e+00 3.1324796276411835e+00 0 0 0
223 2 1.2305000000000001e+00 9.2355835810918343e+00 3.1324796276411835e+00 0 0 0
250 2 2.4610000000000003e+00 8.5251540748539991e+00 3.1324796276411835e+00 0 0 0
252 2 3.6915000000000004e+00 9.2355835810918343e+00 3.1324796276411835e+00 0 0 0
219 2 0.0000000000000000e+00 1.1366872099805333e+01 3.1324796276411835e+00 0 0 0
246 2 1.2305000000000001e+00 1.0656442593567498e+01 3.1324796276411835e+00 0 0 0
248 2 2.4610000000000003e+00 1.1366872099805333e+01 3.1324796276411835e+00 0 0 0
283 2 3.6914999999999996e+00 1.0656442593567499e+01 3.1324796276411835e+00 0 0 0
287 2 4.9220000000000006e+00 8.5251540748539991e+00 3.1324796276411835e+00 0 0 0
289 2 6.1524999999999999e+00 9.2355835810918343e+00 3.1324796276411835e+00 0 0 0
332 2 7.3830000000000009e+00 8.5251540748539991e+00 3.1324796276411835e+00 0 0 0
334 2 8.6134999999999984e+00 9.2355835810918343e+00 3.1324796276411835e+00 0 0 0
285 2 4.9220000000000006e+00 1.1366872099805333e+01 3.1324796276411835e+00 0 0 0
328 2 6.1524999999999999e+00 1.0656442593567499e+01 3.1324796276411835e+00 0 0 0
330 2 7.3829999999999991e+00 1.1366872099805333e+01 3.1324796276411835e+00 0 0 0
375 2 8.6134999999999984e+00 1.0656442593567498e+01 3.1324796276411835e+00 0 0 0
202 2 0.0000000000000000e+00 1.4208590124756650e+00 6.2200560795809299e+00 0 0 0
204 2 0.0000000000000000e+00 0.0000000000000000e+00 6.2200560795809299e+00 0 0 0
213 2 1.2305000000000001e+00 2.1312885187134998e+00 6.2200560795809299e+00 0 0 0
215 2 2.4610000000000003e+00 1.4208590124756650e+00 6.2200560795809299e+00 0 0 0
217 2 2.4610000000000003e+00 0.0000000000000000e+00 6.2200560795809299e+00 0 0 0
234 2 3.6914999999999996e+00 2.1312885187134998e+00 6.2200560795809299e+00 0 0 0
211 2 1.2305000000000001e+00 3.5521475311891644e+00 6.2200560795809299e+00 0 0 0
232 2 3.6914999999999996e+00 3.5521475311891644e+00 6.2200560795809299e+00 0 0 0
530 2 0.0000000000000000e+00 2.8417180249513345e+00 9.3076325315211559e+00 0 0 0
531 2 0.0000000000000000e+00 0.0000000000000000e+00 9.3076325315211559e+00 0 0 0
532 2 1.2305000000000001e+00 7.1042950623783474e-01 9.3076325315211559e+00 0 0 0
536 2 1.2305000000000001e+00 2.1312885187134998e+00 9.3076325315211559e+00 0 0 0
537 2 2.4610000000000003e+00 2.8417180249513345e+00 9.3076325315211559e+00 0 0 0
538 2 2.4610000000000003e+00 0.0000000000000000e+00 9.3076325315211559e+00 0 0 0
539 2 3.6915000000000004e+00 7.1042950623783474e-01 9.3076325315211559e+00 0 0 0
547 2 3.6914999999999996e+00 2.1312885187134998e+00 9.3076325315211559e+00 0 0 0
236 2 4.9220000000000006e+00 1.4208590124756650e+00 6.2200560795809299e+00 0 0 0
238 2 4.9220000000000006e+00 0.0000000000000000e+00 6.2200560795809299e+00 0 0 0
263 2 6.1524999999999999e+00 2.1312885187134989e+00 6.2200560795809299e+00 0 0 0
265 2 7.3829999999999991e+00 1.4208590124756659e+00 6.2200560795809299e+00 0 0 0
267 2 7.3829999999999991e+00 0.0000000000000000e+00 6.2200560795809299e+00 0 0 0
300 2 8.6134999999999984e+00 2.1312885187135002e+00 6.2200560795809299e+00 0 0 0
261 2 6.1524999999999999e+00 3.5521475311891644e+00 6.2200560795809299e+00 0 0 0
298 2 8.6134999999999984e+00 3.5521475311891657e+00 6.2200560795809299e+00 0 0 0
548 2 4.9220000000000006e+00 2.8417180249513332e+00 9.3076325315211559e+00 0 0 0
549 2 4.9220000000000006e+00 0.0000000000000000e+00 9.3076325315211559e+00 0 0 0
550 2 6.1524999999999999e+00 7.1042950623783407e-01 9.3076325315211559e+00 0 0 0
562 2 6.1524999999999999e+00 2.1312885187134989e+00 9.3076325315211559e+00 0 0 0
563 2 7.3829999999999991e+00 2.8417180249513345e+00 9.3076325315211559e+00 0 0 0
564 2 7.3829999999999991e+00 0.0000000000000000e+00 9.3076325315211559e+00 0 0 0
565 2 8.6134999999999984e+00 7.1042950623783407e-01 9.3076325315211559e+00 0 0 0
581 2 8.6134999999999984e+00 2.1312885187135002e+00 9.3076325315211559e+00 0 0 0
207 2 0.0000000000000000e+00 5.6834360499026637e+00 6.2200560795809299e+00 0 0 0
209 2 0.0000000000000000e+00 4.2625770374269996e+00 6.2200560795809299e+00 0 0 0
226 2 1.2305000000000001e+00 6.3938655561404980e+00 6.2200560795809299e+00 0 0 0
228 2 2.4610000000000003e+00 5.6834360499026637e+00 6.2200560795809299e+00 0 0 0
230 2 2.4610000000000003e+00 4.2625770374269996e+00 6.2200560795809299e+00 0 0 0
255 2 3.6914999999999996e+00 6.3938655561404980e+00 6.2200560795809299e+00 0 0 0
224 2 1.2305000000000001e+00 7.8147245686161639e+00 6.2200560795809299e+00 0 0 0
253 2 3.6914999999999996e+00 7.8147245686161639e+00 6.2200560795809299e+00 0 0 0
534 2 0.0000000000000000e+00 4.2625770374269996e+00 9.3076325315211559e+00 0 0 0
535 2 1.2305000000000001e+00 4.9730065436648339e+00 9.3076325315211559e+00 0 0 0
543 2 1.2305000000000001e+00 6.3938655561404980e+00 9.3076325315211559e+00 0 0 0
545 2 2.4610000000000003e+00 4.2625770374269996e+00 9.3076325315211559e+00 0 0 0
546 2 3.6914999999999996e+00 4.9730065436648339e+00 9.3076325315211559e+00 0 0 0
558 2 3.6914999999999996e+00 6.3938655561404980e+00 9.3076325315211559e+00 0 0 0
533 2 0.0000000000000000e+00 7.1042950623783341e+00 9.3076325315211559e+00 0 0 0
544 2 2.4610000000000003e+00 7.1042950623783341e+00 9.3076325315211559e+00 0 0 0
257 2 4.9220000000000006e+00 5.6834360499026637e+00 6.2200560795809299e+00 0 0 0
259 2 4.9220000000000006e+00 4.2625770374269978e+00 6.2200560795809299e+00 0 0 0
292 2 6.1524999999999999e+00 6.3938655561404980e+00 6.2200560795809299e+00 0 0 0
294 2 7.3829999999999991e+00 5.6834360499026637e+00 6.2200560795809299e+00 0 0 0
296 2 7.3829999999999991e+00 4.2625770374269996e+00 6.2200560795809299e+00 0 0 0
337 2 8.6135000000000002e+00 6.3938655561404980e+00 6.2200560795809299e+00 0 0 0
290 2 6.1524999999999999e+00 7.8147245686161639e+00 6.2200560795809299e+00 0 0 0
335 2 8.6135000000000002e+00 7.8147245686161639e+00 6.2200560795809299e+00 0 0 0
560 2 4.9220000000000006e+00 4.2625770374269978e+00 9.3076325315211559e+00 0 0 0
561 2 6.1524999999999999e+00 4.9730065436648339e+00 9.3076325315211559e+00 0 0 0
577 2 6.1524999999999999e+00 6.3938655561404980e+00 9.3076325315211559e+00 0 0 0
579 2 7.3829999999999991e+00 4.2625770374269996e+00 9.3076325315211559e+00 0 0 0
580 2 8.6135000000000002e+00 4.9730065436648339e+00 9.3076325315211559e+00 0 0 0
600 2 8.6135000000000002e+00 6.3938655561404980e+00 9.3076325315211559e+00 0 0 0
559 2 4.9220000000000006e+00 7.1042950623783341e+00 9.3076325315211559e+00 0 0 0
578 2 7.3830000000000009e+00 7.1042950623783341e+00 9.3076325315211559e+00 0 0 0
220 2 0.0000000000000000e+00 9.9460130873296642e+00 6.2200560795809299e+00 0 0 0
222 2 0.0000000000000000e+00 8.5251540748539991e+00 6.2200560795809299e+00 0 0 0
249 2 2.4610000000000003e+00 9.9460130873296642e+00 6.2200560795809299e+00 0 0 0
251 2 2.4610000000000003e+00 8.5251540748539991e+00 6.2200560795809299e+00 0 0 0
245 2 1.2305000000000001e+00 1.2077301606043163e+01 6.2200560795809299e+00 0 0 0
247 2 1.2305000000000001e+00 1.0656442593567498e+01 6.2200560795809299e+00 0 0 0
282 2 3.6914999999999996e+00 1.2077301606043163e+01 6.2200560795809299e+00 0 0 0
284 2 3.6914999999999996e+00 1.0656442593567499e+01 6.2200560795809299e+00 0 0 0
541 2 0.0000000000000000e+00 8.5251540748539991e+00 9.3076325315211559e+00 0 0 0
542 2 1.2305000000000001e+00 9.2355835810918343e+00 9.3076325315211559e+00 0 0 0
556 2 2.4610000000000003e+00 8.5251540748539991e+00 9.3076325315211559e+00 0 0 0
557 2 3.6915000000000004e+00 9.2355835810918343e+00 9.3076325315211559e+00 0 0 0
540 2 0.0000000000000000e+00 1.1366872099805333e+01 9.3076325315211559e+00 0 0 0
554 2 1.2305000000000001e+00 1.0656442593567498e+01 9.3076325315211559e+00 0 0 0
555 2 2.4610000000000003e+00 1.1366872099805333e+01 9.3076325315211559e+00 0 0 0
573 2 3.6914999999999996e+00 1.0656442593567499e+01 9.3076325315211559e+00 0 0 0
286 2 4.9220000000000006e+00 9.9460130873296642e+00 6.2200560795809299e+00 0 0 0
288 2 4.9220000000000006e+00 8.5251540748539991e+00 6.2200560795809299e+00 0 0 0
331 2 7.3830000000000009e+00 9.9460130873296642e+00 6.2200560795809299e+00 0 0 0
333 2 7.3830000000000009e+00 8.5251540748539991e+00 6.2200560795809299e+00 0 0 0
327 2 6.1524999999999999e+00 1.2077301606043163e+01 6.2200560795809299e+00 0 0 0
329 2 6.1524999999999999e+00 1.0656442593567499e+01 6.2200560795809299e+00 0 0 0
374 2 8.6135000000000002e+00 1.2077301606043163e+01 6.2200560795809299e+00 0 0 0
376 2 8.6134999999999984e+00 1.0656442593567498e+01 6.2200560795809299e+00 0 0 0
575 2 4.9220000000000006e+00 8.5251540748539991e+00 9.3076325315211559e+00 0 0 0
576 2 6.1524999999999999e+00 9.2355835810918343e+00 9.3076325315211559e+00 0 0 0
598 2 7.3830000000000009e+00 8.5251540748539991e+00 9.3076325315211559e+00 0 0 0
599 2 8.6134999999999984e+00 9.2355835810918343e+00 9.3076325315211559e+00 0 0 0
574 2 4.9220000000000006e+00 1.1366872099805333e+01 9.3076325315211559e+00 0 0 0
596 2 6.1524999999999999e+00 1.0656442593567499e+01 9.3076325315211559e+00 0 0 0
597 2 7.3829999999999991e+00 1.1366872099805333e+01 9.3076325315211559e+00 0 0 0
620 2 8.6134999999999984e+00 1.0656442593567498e+01 9.3076325315211559e+00 0 0 0
99 1 6.8416018622948355e-02 2.8760376391517060e+00 1.2130353335312716e+01 0 1 0
1324 1 2.2515281738770230e+00 1.2339064569349558e+00 1.1895736736718332e+01 1 -1 0
1198 1 5.9934720091224767e+00 2.0548848061851626e+00 1.4394267214527341e+01 0 0 0
3413 1 9.3466329148242071e+00 3.3147401657920113e+00 1.2053609900784934e+01 1 0 1
3618 1 7.5977192904431445e-01 9.8107661257337835e+00 1.1655271790252588e+01 1 0 0
3909 1 2.0763977938913487e+00 5.3146507666552072e+00 1.1852049380913792e+01 1 0 0
2544 1 3.6883754440324519e+00 6.1527123309875638e+00 1.4416717891536138e+01 1 1 1
1378 1 6.8786783445923403e+00 6.0641030558089630e+00 1.5483476497418867e+01 0 0 0
2265 1 4.9413783733714371e+00 6.4670175255488624e+00 1.1837687699659773e+01 1 0 0
62 1 7.7017075218943072e+00 5.4521250309871094e+00 1.2531944479571729e+01 0 0 0
4986 1 1.7745922336302420e+00 5.5166690809438332e+00 1.9797548038796382e+01 0 1 0
1089 1 3.0554074431648459e+00 1.1213935356655602e+01 1.1878618361006296e+01 1 1 0
1263 1 8.7666566234221861e+00 4.5799499519245614e+00 1.7493800880738966e+01 -1 0 0
2611 1 3.3712433222336968e+00 1.1197978614526365e+01 1.4694102836131789e+01 0 0 0
2627 1 5.4072167155257524e+00 9.1614592305648266e+00 1.1779858433702277e+01 1 0 0
160 1 7.9510227123579060e+00 1.0748827330829364e+01 1.1727174974438515e+01 1 0 0
4862 1 5.0133688601044080e+00 9.0395807174649452e+00 1.4603625331118320e+01 0 0 -1
2350 1 8.5579729509884164e+00 1.1154728713588183e+01 1.4340515836996660e+01 0 0 0
2642 1 4.9777407421910809e+00 2.0431522490546343e+00 1.1926950716590392e+01 1 1 0
2580 1 4.9450862747930131e+00 4.1051557213291527e+00 1.6155029948134167e+01 0 1 0
57 1 2.0387082107482932e+00 3.1481479144185536e+00 1.5826742156957534e+01 0 0 0
1123 1 2.0017198689202189e+00 1.9914785406340245e+00 1.8268129792449436e+01 1 1 -1
2663 1 5.7218296505573845e+00 4.2717054225913680e+00 1.8781541891266347e+01 1 1 0
3678 1 9.2821321037163695e+00 7.9487509065622399e+00 1.2329331661357699e+01 1 1 0
3812 1 6.4398933860403051e+00 1.2876407981585203e+00 1.8519457647390833e+01 1 0 0
2242 1 8.8757397985208364e+00 2.1873316689596907e+00 1.9284580823454359e+01 0 0 0
4687 1 2.2819141517779742e+00 8.2106377816477725e+00 1.6093891554714872e+01 0 0 -1
4643 1 3.3135996899663422e+00 7.5974062198940491e+00 1.8734585081072893e+01 0 0 0
2584 1 9.8402323411702108e-01 5.6600241923434425e+00 1.6948582459302024e+01 1 0 -1
3787 1 8.9609116965849456e+00 3.7124895022767829e-01 1.1798871372902671e+01 -1 0 0
1152 1 5.9301589637252752e+00 7.5485688777566198e+00 1.8438052099848203e+01 0 0 0
1233 1 7.4971622896139056e+00 8.9279266431911957e+00 1.5722976056200306e+01 0 0 -1
1380 1 1.9898575664808354e-01 8.8368387506629968e+00 1.9370493608972890e+01 0 1 0
3709 1 1.4110926518155176e+00 1.0881318851276994e+01 1.6769220853996814e+01 0 0 -1
1200 1 8.4235119609808322e+00 1.0911171109624323e+01 1.7978529250858188e+01 1 0 0
1487 1 9.3154014579931292e+00 7.2699815796687881e+00 1.7734663139328990e+01 0 1 1
3781 1 9.4009783919682555e+00 3.1901617756600191e+00 1.5232179637462149e+01 0 0 -1
88 1 1.9391071007774656e+00 1.1973277194275136e+01 1.9152634080844354e+01 0 1 0
3415 1 1.3100560238107228e-01 7.2450003071581435e+00 1.2545666106635458e+01 1 1 0
3529 1 4.2148894933614072e+00 8.0836827277875978e-01 1.6593791405177644e+01 1 0 0
2389 1 8.2258886268439646e+00 2.8776191388084138e-01 1.4834446628105571e+01 1 0 -1
127 1 6.1088839925179288e+00 1.0582874022950515e+01 1.9846611142317556e+01 0 1 0
2456 1 3.5442468142565438e+00 3.3281079235436710e+00 1.9899836433561816e+01 0 1 0
4709 1 5.1229570226966492e-01 7.0260428207626209e+00 2.1774452116615116e+01 1 0 0
3468 1 3.5291138640744464e+00 2.1036464923836999e+00 2.2699812226581322e+01 0 0 0
946 1 9.6594696499751631e+00 1.0306558493556157e+00 2.3898499591108848e+01 1 1 -1
3641 1 5.8052517132765491e+00 2.3429777446562490e+00 2.4424412643085827e+01 0 1 0
1202 1 8.2474004431044534e+00 3.5797597520100624e+00 2.3646950277788878e+01 0 0 -1
3571 1 1.4052637702492485e+00 8.9174143570635813e+00 2.7473268954599313e+01 0 0 0
3591 1 2.6416092820091790e+00 4.8756749630517318e+00 2.3311827944142191e+01 0 1 0
145 1 7.8615154117589663e+00 1.0781422494370490e+01 2.8565386749172589e+01 0 0 0
1060 1 4.5419461412724518e+00 6.5505590345214539e+00 2.2648870829100662e+01 0 0 0
4663 1 7.6040123328915028e+00 5.9647051393844697e+00 2.5018604760293705e+01 0 0 0
2653 1 6.7923155153767150e+00 6.3358001280179508e+00 2.0882281806862125e+01 1 0 0
3425 1 8.4225482526137405e+00 4.2834873180424591e+00 2.0970881016981416e+01 0 0 -1
1308 1 2.8100089144440328e+00 8.6085650092522297e+00 2.2647473349943482e+01 2 1 -1
2540 1 3.4569057689998166e+00 1.0083824710653452e+01 2.4868449386443832e+01 1 0 0
3838 1 6.7051687797515376e+00 1.0425548078211316e+01 2.5281814509016019e+01 1 0 0
2404 1 8.4529773994656452e+00 8.7549066532078008e+00 2.4315429502481436e+01 0 0 0
2578 1 7.7422750001944882e+00 8.8293873741693858e+00 2.1664198957980712e+01 0 1 0
1350 1 5.6505162219514915e+00 8.5957033524524302e+00 2.8323590224059238e+01 1 0 0
3509 1 3.7260703611029804e+00 1.0547724236560413e+01 2.8272730165060644e+01 1 0 1
54 1 1.2739863571926402e+00 9.4703734086152147e-01 2.3758959133790377e+01 1 0 -1
2295 1 5.1819416833317069e+00 7.6288787806517240e+00 2.5144157660956065e+01 0 0 0
1389 1 6.5136573645170461e+00 1.6053379949499047e+00 2.8656049770894874e+01 -1 0 0
122 1 3.3542004204331142e+00 9.8990358327404948e+00 2.0152753698215736e+01 0 0 0
3534 1 7.0231736391466812e+00 5.8868912170005983e+00 2.7778706641429544e+01 0 0 -1
3499 1 1.3785643092049589e+00 5.1576543877048628e+00 2.5715282882074671e+01 0 0 0
2549 1 5.3931646809308620e-01 2.7246769260655741e+00 2.6516918600382233e+01 1 0 0
1322 1 4.4279633963957359e+00 2.5023253851190197e+00 2.6922369324695779e+01 1 0 0
932 1 3.6480952092072614e+00 6.6509671195957285e+00 2.7187928856169695e+01 1 1 -1
3853 1 3.6496926132548686e+00 4.4329114878969733e+00 2.9022661049377220e+01 0 0 0
3800 1 4.8386847201539709e+00 3.1187851350035550e-01 2.0701842257374540e+01 0 1 0
1019 1 3.4249163726497411e-01 9.9059426691071941e+00 2.4798214759272877e+01 0 0 0
4979 1 2.3604639677325729e+00 6.2279392605172823e-01 2.8065159750089105e+01 1 0 0
3467 1 6.7243015108787043e+00 1.1608264030513734e+01 2.2861320011547722e+01 1 1 -1
2306 1 9.6811906810119126e+00 7.0972208630996692e+00 2.7439152347357226e+01 0 1 -1
4640 1 5.7022744343659602e+00 4.6993419171659392e+00 3.3521916507029459e+01 0 1 0
3552 1 3.0906106917111809e-01 1.1456178411577035e+01 3.7384463190341947e+01 -1 2 0
1124 1 1.6143445345247562e+00 8.5302346575356385e+00 3.7411161303527493e+01 1 1 0
3494 1 3.2377539060795093e+00 3.5443776602904087e-01 3.2473020236797673e+01 1 1 -1
1234 1 9.2930280147285327e+00 1.0715872228989287e+01 3.7355142564067236e+01 0 0 -1
3600 1 1.3295490741482301e+00 8.4390597011355144e+00 3.1848612395583313e+01 1 0 0
1249 1 5.7584028072143969e+00 5.4494384879892879e+00 3.0775602761342252e+01 1 0 0
3485 1 3.3245387541397386e+00 1.1206319298952760e+01 3.7526933160290113e+01 0 1 1
2563 1 7.7479884180064413e+00 3.9470093887023894e+00 2.9618594782961782e+01 1 0 0
2307 1 5.7349376202446525e+00 8.3522049737638309e+00 3.1238723910554565e+01 1 1 0
148 1 3.0345133044548722e-01 1.1147064149826205e+01 3.1457140807676886e+01 0 1 1
3897 1 3.6721859331078370e+00 7.9810945664201487e+00 3.3488642429049122e+01 1 1 0
1109 1 3.3868362191835542e+00 1.0209685379574937e+01 3.5002074991980507e+01 0 0 0
3794 1 1.1951309762093714e+00 2.0033241491304805e+00 3.2525834051908575e+01 1 0 -1
1439 1 8.3037967496272849e+00 9.0536441211840373e+00 3.1522486632522245e+01 0 1 0
2301 1 4.3295333333183574e+00 1.0598410332463972e+01 3.0848832076198949e+01 -1 0 0
3884 1 1.5198057953716788e+00 3.9342819398606497e+00 3.0462420398854029e+01 1 -1 0
4647 1 3.1688781526520315e-01 6.4099958016708447e+00 3.0308981840821961e+01 0 0 0
1077 1 9.5460720035822111e-01 4.0271972928132191e+00 3.4677091816848687e+01 0 0 -1
3836 1 1.8581782137340923e+00 2.5330014729441546e+00 3.6975703130353551e+01 0 -1 1
2454 1 9.8115796810616818e+00 1.9024079097763353e+00 3.4133480269917044e+01 0 0 0
1323 1 4.3696109309421152e+00 3.9947626357521466e+00 3.7704768276326803e+01 1 0 -1
2322 1 6.9437755561074432e+00 2.7336301918840964e+00 3.4601561351907023e+01 0 1 0
4688 1 6.1441265456659107e+00 1.0111729516796634e+01 3.4957630014640515e+01 0 0 -1
1028 1 3.4780648933378466e+00 5.4695428663379397e+00 3.5015511292764032e+01 0 1 0
2340 1 5.9904974034632952e+00 7.9750053965188652e+00 3.8118946929746329e+01 0 0 0
4923 1 7.0784377750867042e+00 3.5851502096236394e+00 3.7149780581914783e+01 0 0 -1
2291 1 7.0227861475399891e+00 7.2101390160537902e+00 3.4161451589801956e+01 0 0 -1
4970 1 7.7981627859227087e+00 6.2923378072284235e+00 3.6891673732155169e+01 1 0 -1
5009 1 3.6636371337174363e+00 6.9130846835604336e+00 3.7858675820728294e+01 1 1 0
2429 1 6.2751171667672780e+00 1.0411367965027249e+01 3.7658344000129816e+01 0 0 0
30 1 9.3164168429296375e+00 1.1998029222862741e+01 3.0980945051316525e+01 1 0 1
2369 1 4.5106746181205999e+00 9.3217009040868326e-01 3.7008859005246933e+01 0 1 -1
2166 1 3.9060271293491883e-01 8.7861398199958582e+00 3.4599871764568718e+01 -1 1 0
985 1 5.4374832911650870e+00 5.9388914634611045e-01 3.4453975612967582e+01 1 1 0
2666 1 9.2934160083585926e+00 9.8950282091226569e+00 3.4456752401188396e+01 -1 0 1
3577 1 9.2436155289208255e+00 1.4145130542410040e+00 3.7776015424311424e+01 -1 0 -1
4945 1 2.7735838528438777e+00 1.2027368053048868e+01 3.2539387117137004e+01 1 1 0
3464 1 9.8040049493981130e+00 7.0765055412979807e+00 3.2971546253755228e+01 0 0 0
242 2 0.0000000000000000e+00 1.2787731112280996e+01 3.1324796276411835e+00 0 0 0
244 2 1.2305000000000001e+00 1.3498160618518829e+01 3.1324796276411835e+00 0 0 0
279 2 2.4610000000000003e+00 1.2787731112280996e+01 3.1324796276411835e+00 0 0 0
281 2 3.6915000000000004e+00 1.3498160618518829e+01 3.1324796276411835e+00 0 0 0
240 2 0.0000000000000000e+00 1.5629449137232333e+01 3.1324796276411835e+00 0 0 0
275 2 1.2305000000000001e+00 1.4919019630994494e+01 3.1324796276411835e+00 0 0 0
277 2 2.4610000000000003e+00 1.5629449137232328e+01 3.1324796276411835e+00 0 0 0
320 2 3.6915000000000004e+00 1.4919019630994494e+01 3.1324796276411835e+00 0 0 0
324 2 4.9220000000000006e+00 1.2787731112280996e+01 3.1324796276411835e+00 0 0 0
326 2 6.1524999999999990e+00 1.3498160618518829e+01 3.1324796276411835e+00 0 0 0
371 2 7.3829999999999991e+00 1.2787731112280996e+01 3.1324796276411835e+00 0 0 0
373 2 8.6135000000000002e+00 1.3498160618518835e+01 3.1324796276411835e+00 0 0 0
322 2 4.9220000000000006e+00 1.5629449137232333e+01 3.1324796276411835e+00 0 0 0
367 2 6.1524999999999990e+00 1.4919019630994494e+01 3.1324796276411835e+00 0 0 0
369 2 7.3829999999999991e+00 1.5629449137232333e+01 3.1324796276411835e+00 0 0 0
414 2 8.6135000000000002e+00 1.4919019630994494e+01 3.1324796276411835e+00 0 0 0
271 2 0.0000000000000000e+00 1.7050308149707998e+01 3.1324796276411835e+00 0 0 0
316 2 2.4610000000000003e+00 1.7050308149707998e+01 3.1324796276411835e+00 0 0 0
269 2 0.0000000000000000e+00 1.9892026174659328e+01 3.1324796276411835e+00 0 0 0
273 2 1.2305000000000001e+00 1.7760737655945832e+01 3.1324796276411835e+00 0 0 0
312 2 1.2305000000000001e+00 1.9181596668421495e+01 3.1324796276411835e+00 0 0 0
314 2 2.4610000000000003e+00 1.9892026174659328e+01 3.1324796276411835e+00 0 0 0
318 2 3.6914999999999996e+00 1.7760737655945832e+01 3.1324796276411835e+00 0 0 0
359 2 3.6914999999999996e+00 1.9181596668421495e+01 3.1324796276411835e+00 0 0 0
363 2 4.9220000000000006e+00 1.7050308149707998e+01 3.1324796276411835e+00 0 0 0
410 2 7.3830000000000009e+00 1.7050308149707998e+01 3.1324796276411835e+00 0 0 0
361 2 4.9220000000000006e+00 1.9892026174659328e+01 3.1324796276411835e+00 0 0 0
365 2 6.1524999999999999e+00 1.7760737655945832e+01 3.1324796276411835e+00 0 0 0
406 2 6.1524999999999999e+00 1.9181596668421495e+01 3.1324796276411835e+00 0 0 0
408 2 7.3829999999999991e+00 1.9892026174659328e+01 3.1324796276411835e+00 0 0 0
412 2 8.6134999999999984e+00 1.7760737655945832e+01 3.1324796276411835e+00 0 0 0
448 2 8.6135000000000002e+00 1.9181596668421495e+01 3.1324796276411835e+00 0 0 0
306 2 0.0000000000000000e+00 2.4154603212086325e+01 3.1324796276411835e+00 0 0 0
308 2 0.0000000000000000e+00 2.1312885187134999e+01 3.1324796276411835e+00 0 0 0
310 2 1.2304999999999993e+00 2.2023314693372832e+01 3.1324796276411835e+00 0 0 0
351 2 1.2304999999999993e+00 2.3444173705848499e+01 3.1324796276411835e+00 0 0 0
353 2 2.4610000000000003e+00 2.4154603212086325e+01 3.1324796276411835e+00 0 0 0
355 2 2.4610000000000003e+00 2.1312885187134995e+01 3.1324796276411835e+00 0 0 0
357 2 3.6914999999999996e+00 2.2023314693372832e+01 3.1324796276411835e+00 0 0 0
398 2 3.6915000000000004e+00 2.3444173705848499e+01 3.1324796276411835e+00 0 0 0
400 2 4.9220000000000006e+00 2.4154603212086325e+01 3.1324796276411835e+00 0 0 0
402 2 4.9220000000000006e+00 2.1312885187134995e+01 3.1324796276411835e+00 0 0 0
404 2 6.1524999999999990e+00 2.2023314693372832e+01 3.1324796276411835e+00 0 0 0
440 2 6.1524999999999999e+00 2.3444173705848499e+01 3.1324796276411835e+00 0 0 0
442 2 7.3830000000000009e+00 2.4154603212086336e+01 3.1324796276411835e+00 0 0 0
444 2 7.3829999999999991e+00 2.1312885187134999e+01 3.1324796276411835e+00 0 0 0
446 2 8.6135000000000002e+00 2.2023314693372832e+01 3.1324796276411835e+00 0 0 0
474 2 8.6134999999999984e+00 2.3444173705848499e+01 3.1324796276411835e+00 0 0 0
243 2 0.0000000000000000e+00 1.2787731112280996e+01 6.2200560795809299e+00 0 0 0
280 2 2.4610000000000003e+00 1.2787731112280996e+01 6.2200560795809299e+00 0 0 0
241 2 0.0000000000000000e+00 1.4208590124756663e+01 6.2200560795809299e+00 0 0 0
276 2 1.2305000000000001e+00 1.4919019630994494e+01 6.2200560795809299e+00 0 0 0
278 2 2.4610000000000003e+00 1.4208590124756663e+01 6.2200560795809299e+00 0 0 0
321 2 3.6915000000000004e+00 1.4919019630994494e+01 6.2200560795809299e+00 0 0 0
552 2 0.0000000000000000e+00 1.2787731112280996e+01 9.3076325315211559e+00 0 0 0
553 2 1.2305000000000001e+00 1.3498160618518829e+01 9.3076325315211559e+00 0 0 0
571 2 2.4610000000000003e+00 1.2787731112280996e+01 9.3076325315211559e+00 0 0 0
572 2 3.6915000000000004e+00 1.3498160618518829e+01 9.3076325315211559e+00 0 0 0
551 2 0.0000000000000000e+00 1.5629449137232333e+01 9.3076325315211559e+00 0 0 0
569 2 1.2305000000000001e+00 1.4919019630994494e+01 9.3076325315211559e+00 0 0 0
570 2 2.4610000000000003e+00 1.5629449137232328e+01 9.3076325315211559e+00 0 0 0
592 2 3.6915000000000004e+00 1.4919019630994494e+01 9.3076325315211559e+00 0 0 0
325 2 4.9220000000000006e+00 1.2787731112280996e+01 6.2200560795809299e+00 0 0 0
372 2 7.3829999999999991e+00 1.2787731112280996e+01 6.2200560795809299e+00 0 0 0
323 2 4.9220000000000006e+00 1.4208590124756663e+01 6.2200560795809299e+00 0 0 0
368 2 6.1524999999999990e+00 1.4919019630994494e+01 6.2200560795809299e+00 0 0 0
370 2 7.3830000000000009e+00 1.4208590124756663e+01 6.2200560795809299e+00 0 0 0
415 2 8.6135000000000002e+00 1.4919019630994494e+01 6.2200560795809299e+00 0 0 0
594 2 4.9220000000000006e+00 1.2787731112280996e+01 9.3076325315211559e+00 0 0 0
595 2 6.1524999999999990e+00 1.3498160618518829e+01 9.3076325315211559e+00 0 0 0
618 2 7.3829999999999991e+00 1.2787731112280996e+01 9.3076325315211559e+00 0 0 0
619 2 8.6135000000000002e+00 1.3498160618518835e+01 9.3076325315211559e+00 0 0 0
593 2 4.9220000000000006e+00 1.5629449137232333e+01 9.3076325315211559e+00 0 0 0
616 2 6.1524999999999990e+00 1.4919019630994494e+01 9.3076325315211559e+00 0 0 0
617 2 7.3829999999999991e+00 1.5629449137232333e+01 9.3076325315211559e+00 0 0 0
640 2 8.6135000000000002e+00 1.4919019630994494e+01 9.3076325315211559e+00 0 0 0
272 2 0.0000000000000000e+00 1.7050308149707998e+01 6.2200560795809299e+00 0 0 0
274 2 1.2305000000000001e+00 1.6339878643470165e+01 6.2200560795809299e+00 0 0 0
317 2 2.4610000000000003e+00 1.7050308149707998e+01 6.2200560795809299e+00 0 0 0
319 2 3.6915000000000004e+00 1.6339878643470165e+01 6.2200560795809299e+00 0 0 0
270 2 0.0000000000000000e+00 1.8471167162183658e+01 6.2200560795809299e+00 0 0 0
313 2 1.2305000000000001e+00 1.9181596668421495e+01 6.2200560795809299e+00 0 0 0
315 2 2.4610000000000003e+00 1.8471167162183658e+01 6.2200560795809299e+00 0 0 0
360 2 3.6914999999999996e+00 1.9181596668421495e+01 6.2200560795809299e+00 0 0 0
567 2 0.0000000000000000e+00 1.7050308149707998e+01 9.3076325315211559e+00 0 0 0
590 2 2.4610000000000003e+00 1.7050308149707998e+01 9.3076325315211559e+00 0 0 0
566 2 0.0000000000000000e+00 1.9892026174659328e+01 9.3076325315211559e+00 0 0 0
568 2 1.2305000000000001e+00 1.7760737655945832e+01 9.3076325315211559e+00 0 0 0
588 2 1.2305000000000001e+00 1.9181596668421495e+01 9.3076325315211559e+00 0 0 0
589 2 2.4610000000000003e+00 1.9892026174659328e+01 9.3076325315211559e+00 0 0 0
591 2 3.6914999999999996e+00 1.7760737655945832e+01 9.3076325315211559e+00 0 0 0
612 2 3.6914999999999996e+00 1.9181596668421495e+01 9.3076325315211559e+00 0 0 0
364 2 4.9220000000000006e+00 1.7050308149707998e+01 6.2200560795809299e+00 0 0 0
366 2 6.1524999999999999e+00 1.6339878643470165e+01 6.2200560795809299e+00 0 0 0
411 2 7.3830000000000009e+00 1.7050308149707998e+01 6.2200560795809299e+00 0 0 0
413 2 8.6134999999999984e+00 1.6339878643470165e+01 6.2200560795809299e+00 0 0 0
362 2 4.9220000000000006e+00 1.8471167162183658e+01 6.2200560795809299e+00 0 0 0
407 2 6.1524999999999999e+00 1.9181596668421495e+01 6.2200560795809299e+00 0 0 0
409 2 7.3829999999999991e+00 1.8471167162183658e+01 6.2200560795809299e+00 0 0 0
449 2 8.6135000000000002e+00 1.9181596668421495e+01 6.2200560795809299e+00 0 0 0
614 2 4.9220000000000006e+00 1.7050308149707998e+01 9.3076325315211559e+00 0 0 0
638 2 7.3830000000000009e+00 1.7050308149707998e+01 9.3076325315211559e+00 0 0 0
613 2 4.9220000000000006e+00 1.9892026174659328e+01 9.3076325315211559e+00 0 0 0
615 2 6.1524999999999999e+00 1.7760737655945832e+01 9.3076325315211559e+00 0 0 0