
# Create simulation box and atoms

read_data data.ML_graphite_m500atm_240K
  orthogonal box = (0 0 1.53529) to (49.22 49.0196 38.4647)
  5 by 4 by 4 MPI processor grid
  reading atoms ...
  5021 atoms
  reading velocities ...
  5021 velocities
group water type 1
2261 atoms in group water
group graphite type 2
2760 atoms in group graphite

# Define potential

pair_style sw
pair_coeff * * MLC_e.sw mW C


# Fix graphite atoms in place

fix 5 graphite setforce 0.0 0.0 0.0
velocity graphite set 0.0 0.0 0.0


# Equilibration of molecular water

# Add velocity/set timestep

velocity	    water create ${TEMP} ${SEED} rot yes dist gaussian
velocity	    water create 240 ${SEED} rot yes dist gaussian
velocity	    water create 240 13437 rot yes dist gaussian
timestep	    5.0

# Define output

compute			1 water msd
compute			3 water temp
thermo	    	50
thermo_style	custom step temp press vol etotal ke pe c_1[4] c_3

# Neighbor lists

neigh_modify    delay 0 every 1 check yes

# Set fixes

fix             1 water momentum 10 linear 1 1 1 rescale
fix             2 water nve
fix             3 water temp/csvr ${TEMP} ${TEMP} 500.0 ${SEED}
fix             3 water temp/csvr 240 ${TEMP} 500.0 ${SEED}
fix             3 water temp/csvr 240 240 500.0 ${SEED}
fix             3 water temp/csvr 240 240 500.0 13437
fix             4 water press/berendsen z ${PRES} ${PRES} 1000.0 modulus 20000
fix             4 water press/berendsen z -500 ${PRES} 1000.0 modulus 20000
fix             4 water press/berendsen z -500 -500 1000.0 modulus 20000

# Run 0.5 ns equilibration

dump		    1 all atom 2000 ${DIR}/eq.${NAME}-${TEMP}.dump
dump		    1 all atom 2000 run_6/eq.${NAME}-${TEMP}.dump
dump		    1 all atom 2000 run_6/eq.het_freeze_6-${TEMP}.dump
dump		    1 all atom 2000 run_6/eq.het_freeze_6-240.dump

reset_timestep  0

run	            100000
Neighbor list info ...
  update every 1 steps, delay 0 steps, check yes
  max neighbors/atom: 2000, page size: 100000
  master list distance cutoff = 6.67472
  ghost atom cutoff = 6.67472
  binsize = 3.33736, bins = 15 15 12
  1 neighbor lists, perpetual/occasional/extra = 1 0 0
  (1) pair sw, perpetual
      attributes: full, newton on
      pair build: full/bin/atomonly
      stencil: full/bin/3d
      bin: standard
Per MPI rank memory allocation (min/avg/max) = 4.069 | 4.188 | 4.476 Mbytes
Step Temp Press Volume TotEng KinEng PotEng c_1[4] c_3 
       0    108.04781   -816.58172    89101.337   -21796.007    1616.7914   -23412.799            0          240 
      50    104.69708   -875.55985     89105.21   -21759.808    1566.6521    -23326.46   0.51544638    232.55722 
     100    109.25343   -1040.5081    89056.318   -21773.397    1634.8318   -23408.229   0.81269458    242.67797 
     150    112.73839   -897.00111    89035.161   -21735.737    1686.9796   -23422.717    1.0090464     250.4189 
     200    109.42345   -772.55544    89017.323   -21702.265     1637.376   -23339.641    1.2080042    243.05563 
     250    108.79975    -541.5791    89044.669    -21737.63    1628.0431   -23365.674    1.4125025    241.67023 
     300    109.41455   -466.18063    89053.783   -21731.491    1637.2429   -23368.734    1.6715434    243.03586 
     350     106.3251   -640.50759    89131.824   -21734.956    1591.0133    -23325.97    1.9008644    236.17344 
     400    106.11017    -610.3774    89250.933   -21756.455    1587.7972   -23344.252    2.1594465    235.69605 
     450     109.6798   -661.56482    89276.828    -21737.54     1641.212   -23378.752    2.3979363    243.62505 
     500    109.23383   -704.06403    89339.915    -21764.42    1634.5385   -23398.958    2.6156962    242.63443 
     550    109.58174   -800.44981    89426.044   -21738.519    1639.7446   -23378.264    2.8617793    243.40723 
     600    107.94168   -759.53008    89385.818    -21788.07    1615.2033   -23403.273    3.0691451    239.76426 
     650    108.48225   -823.05628    89424.509   -21802.586    1623.2922   -23425.878    3.3027361      240.965 
     700    107.39605   -839.22416    89386.217   -21844.289    1607.0386   -23451.327    3.4498489    238.55228 
     750    107.95113   -595.37871    89339.727   -21857.018    1615.3448   -23472.363    3.6359885    239.78526 
     800    109.01864   -924.56637    89325.873   -21887.175    1631.3185   -23518.494    3.7505849    242.15644 
     850    105.71473   -770.02961    89325.217   -21864.193    1581.8799   -23446.073    3.9740423    234.81767 
     900    103.42808   -798.32507    89295.186   -21918.116    1547.6632   -23465.779    4.0926913    229.73847 
     950    107.75412   -851.48177    89333.735   -21863.069    1612.3967   -23475.466    4.1488425    239.34764 
    1000    107.61287   -902.75035    89320.999   -21867.789     1610.283   -23478.072    4.2830771    239.03389 
    1050    105.08228   -848.65088    89239.781   -21876.719    1572.4162   -23449.135    4.4584928    233.41285 
    1100    102.83219    -1097.067    89186.305   -21915.049    1538.7466   -23453.795    4.5306845    228.41486 
    1150    106.93763   -1032.1869    89068.392   -21859.669    1600.1791   -23459.848    4.6394929    237.53403 
    1200    106.69799   -1001.9538    89004.203   -21880.903    1596.5931   -23477.497    4.8089881    237.00172 
    1250    105.42826   -882.22454    89033.241   -21844.019    1577.5934   -23421.613    4.9390119    234.18136 
    1300    109.53532   -1046.8876    88989.944   -21851.252      1639.05   -23490.302     5.116163    243.30412 
    1350    107.27699   -680.96257    88950.535   -21834.454    1605.2571   -23439.711    5.3332558    238.28784 
    1400     110.6408   -935.15883    88943.631   -21821.483     1655.592   -23477.075    5.4898748    245.75965 
    1450    107.75254   -1090.6878    88890.213   -21855.306    1612.3731   -23467.679    5.6101336    239.34414 
    1500    108.37821   -917.43415    88909.795   -21839.304    1621.7354    -23461.04     5.784508    240.73391 
    1550    105.34288   -924.80956    88912.441   -21851.499    1576.3157   -23427.815    5.9406908     233.9917 
    1600    105.51728   -1058.7101    88883.154   -21879.393    1578.9254   -23458.319    6.0868164     234.3791 
    1650    105.61104   -1209.9323     88834.64   -21893.339    1580.3283   -23473.667    6.2706986    234.58735 
    1700    106.24757   -1344.0177    88754.382   -21869.782    1589.8532   -23459.636    6.5177221    236.00124 
    1750    109.61311   -1103.2433    88691.778   -21823.892     1640.214   -23464.106    6.6317077    243.47691 
    1800    105.76001   -722.91243    88668.335   -21852.519    1582.5575   -23435.077    6.8223077    234.91825 
    1850    105.37834   -600.75593    88625.041   -21869.686    1576.8464   -23446.532    7.0284022    234.07048 
    1900     106.1045   -1131.1378    88653.177   -21843.815    1587.7123   -23431.528    7.0871357    235.68344 
    1950    108.52888   -725.26161    88628.889   -21812.924      1623.99   -23436.913    7.1860192    241.06857 
    2000    105.32465   -779.29805    88634.836   -21862.618    1576.0429   -23438.661    7.2427626    233.95121 
    2050     104.2858   -872.37838    88620.685   -21874.767    1560.4979   -23435.265    7.4097025    231.64368 
    2100    106.18766   -771.05421    88705.804   -21825.374    1588.9567   -23414.331    7.6053916    235.86816 
    2150    108.62596   -681.61564    88730.863   -21807.408    1625.4426   -23432.851    7.6911125     241.2842 
    2200    106.00656   -734.86267    88749.443   -21802.356    1586.2469   -23388.603    7.8170465    235.46591 
    2250    107.50807   -818.15677    88762.169    -21773.47     1608.715   -23382.185    7.9108044    238.80112 
    2300    105.93806   -625.79899    88857.933    -21763.74    1585.2218   -23348.962    8.1022633    235.31375 
    2350    107.77641   -715.81535    88833.735   -21741.395    1612.7303   -23354.125    8.2395084    239.39716 
    2400    107.39364   -838.66924    88803.812   -21746.988    1607.0027   -23353.991    8.4363021    238.54694 
    2450    108.54842   -902.79948    88759.591   -21750.015    1624.2823   -23374.298    8.6595299    241.11198 
    2500    105.19978   -1058.3961    88701.897   -21742.608    1574.1745   -23316.783    8.7750287    233.67385 
    2550     106.2719   -526.61987    88703.674   -21743.997    1590.2172   -23334.214    8.9175058    236.05527 
    2600    108.50789   -390.51292    88764.442    -21715.35    1623.6759   -23339.026    9.1042025    241.02195 
    2650    107.35221   -858.54633    88813.962   -21711.513    1606.3827   -23317.896    9.3006002    238.45492 
    2700    106.50412   -928.92094    88758.929   -21703.939    1593.6922   -23297.631     9.380798     236.5711 
    2750    104.63064   -991.22353    88759.249   -21720.075    1565.6581   -23285.733    9.6398673    232.40966 
    2800    107.86732   -820.70641    88764.053   -21721.141    1614.0906   -23335.231    9.8489994     239.5991 
    2850    107.41225   -584.43915    88750.822   -21735.438    1607.2811   -23342.719    10.094347    238.58827 
    2900    106.56793   -869.88667    88807.295   -21742.716    1594.6469   -23337.363    10.307001    236.71283 
    2950    107.95161   -845.50279     88778.67   -21758.142    1615.3519   -23373.494    10.367322    239.78632 
    3000    110.29224   -798.04258    88696.322   -21797.403    1650.3763   -23447.779    10.507662    244.98542 
    3050    106.25262   -652.18311    88680.121   -21828.766    1589.9287   -23418.695    10.647783    236.01245 
    3100    106.81197   -528.75947    88747.696   -21827.793    1598.2987   -23426.092    10.909493    237.25491 
    3150    107.07399   -667.33437    88800.884   -21789.904    1602.2194   -23392.123    11.067398    237.83691 
    3200    106.35042   -693.55012    88811.009   -21778.585    1591.3922   -23369.977     11.19944    236.22969 
    3250    107.42938   -769.56068    88819.436   -21789.087    1607.5374   -23396.624    11.311387    238.62632 
    3300    107.73697    -684.4097    88925.926   -21826.108      1612.14   -23438.248    11.511269    239.30954 
    3350    105.14834   -698.60961    88869.915    -21808.89    1573.4046   -23382.295    11.813518    233.55958 
    3400    106.48854   -1137.5164    88812.674   -21804.569     1593.459   -23398.028     11.95774     236.5365 
    3450    106.00034   -837.64286    88732.311   -21806.782    1586.1538   -23392.935    12.229274    235.45209 
    3500    107.73976   -1085.1352    88750.336   -21830.122    1612.1819   -23442.304    12.357948    239.31576 
    3550    107.60984   -551.20295     88764.48   -21819.725    1610.2378   -23429.963    12.532876    239.02717 
    3600    107.11022   -937.06418    88740.689    -21773.44    1602.7616   -23376.202     12.79356    237.91739 
    3650    108.71371   -532.40694    88741.551   -21721.307    1626.7557   -23348.063      12.9749    241.47913 
    3700    106.24341   -848.50044    88741.157   -21728.362     1589.791   -23318.153    13.214017    235.99201 
    3750    106.33269   -818.39559    88726.652    -21751.57    1591.1269   -23342.697    13.510565    236.19031 
    3800    109.71953    -1047.744    88676.044   -21720.402    1641.8064   -23362.208    13.615087    243.71329 
    3850    106.60134   -726.59206    88653.223   -21736.518    1595.1469   -23331.665    13.648024    236.78705 
    3900     107.1555   -655.45415    88705.221   -21734.103    1603.4392   -23337.542    13.784061    238.01798 
    3950     106.8889   -1034.9565     88740.86   -21756.325    1599.4499   -23355.775    14.061371    237.42579 
    4000     107.4796   -927.41153    88762.902   -21716.773    1608.2889   -23325.062    14.098889    238.73787 
    4050    109.95618   -1181.2161    88717.171   -21726.649    1645.3477   -23371.996    14.383641    244.23896 
    4100    106.73259   -923.80325    88767.138   -21736.798    1597.1109   -23333.909    14.607966    237.07859 
    4150    109.67881   -963.67104    88809.367   -21733.059    1641.1971   -23374.256     14.81552    243.62284 
    4200    107.58214   -1236.6408    88746.948   -21720.606    1609.8232   -23330.429    14.981139    238.96563 
    4250    105.20483   -749.50737     88715.81   -21721.075    1574.2499   -23295.325    15.219592    233.68506 
    4300    106.81467   -933.99169    88672.267   -21722.027     1598.339   -23320.366    15.312556    237.26089 
    4350    107.06327   -958.63275    88616.823   -21731.297     1602.059   -23333.356    15.556866     237.8131 
    4400    107.68176   -874.38622    88635.362   -21725.779    1611.3139   -23337.093    15.758695    239.18691 
    4450    107.29364   -792.06514    88664.748    -21809.85    1605.5062   -23415.356    15.811611     238.3248 
    4500    107.78828   -803.86648    88647.823    -21792.17    1612.9079   -23405.078    16.044133    239.42353 
    4550    108.41775   -790.66894    88671.008   -21781.872     1622.327   -23404.199    16.276524    240.82172 
    4600    112.68912    -697.9193    88716.321   -21782.845    1686.2424   -23469.087    16.488743    250.30946 
    4650    110.72563   -734.61902     88780.64   -21771.815    1656.8614   -23428.676     16.62824    245.94809 
    4700      106.998   -693.30075    88823.913   -21773.684    1601.0823   -23374.767    16.992547    237.66811 
    4750    109.29996    -636.1069    88932.332   -21756.904    1635.5282   -23392.433    17.161663    242.78134 
    4800    111.95467   -881.37958    88986.758   -21741.197    1675.2523    -23416.45    17.332357    248.67807 
    4850    113.66199   -651.23975    89038.626     -21732.7    1700.8001     -23433.5    17.393936    252.47043 
    4900    109.11822   -1027.1078     89046.16   -21740.268    1632.8086   -23373.076    17.476006    242.37763 
    4950    106.97654   -1051.7257    89028.137   -21769.015    1600.7612   -23369.776    17.685555    237.62045 
    5000    109.00737   -727.96566    89042.287   -21730.751      1631.15   -23361.901    17.716098    242.13142 
    5050    109.21606   -741.66593    89004.713   -21758.382    1634.2727   -23392.655    17.911729    242.59497 
    5100    109.64483   -481.87703    89070.443    -21736.68    1640.6886   -23377.369    18.179674    243.54736 
    5150      107.703   -912.35301    89157.813   -21750.886    1611.6317   -23362.518    18.338437    239.23409 
    5200    108.99619   -664.20588    89254.302   -21759.721    1630.9827   -23390.704     18.57302    242.10659 
    5250    111.42113   -823.14581     89291.04   -21773.669    1667.2687   -23440.937    18.882215    247.49296 
    5300    106.24692   -868.20367     89255.77   -21787.242    1589.8434   -23377.085    19.158104    235.99979 
    5350    105.78531   -678.59542    89277.391   -21818.904    1582.9362   -23401.841    19.435915    234.97446 
    5400    107.35361   -719.76354     89338.76   -21775.139    1606.4037   -23381.543    19.468569    238.45803 
    5450    106.56475   -688.89472    89396.553   -21776.414    1594.5994   -23371.013    19.538796    236.70578 
    5500    108.13766   -585.75689    89478.119   -21743.341    1618.1359   -23361.477    19.678447    240.19958 
    5550    110.77338   -879.71154    89465.959   -21763.889     1657.576   -23421.464    19.977528    246.05415 
    5600    106.07459   -1003.9432    89497.469   -21786.804    1587.2648   -23374.069    20.175989    235.61701 
    5650    109.96786   -808.72412    89438.507   -21790.533    1645.5224   -23436.055    20.216711     244.2649 
    5700     107.4749   -807.60186    89436.491   -21821.604    1608.2186   -23429.823    20.280178    238.72744 
    5750    107.76927   -807.71258    89425.348   -21842.417    1612.6235   -23455.041    20.602962    239.38131 
    5800    105.64627      -937.92    89405.121   -21823.725    1580.8555    -23404.58    20.989471    234.66561 
    5850    103.56305    -728.9666    89431.302   -21846.136    1549.6829   -23395.819    21.292932    230.03828 
    5900    107.40635   -656.13101    89429.648   -21849.248    1607.1928    -23456.44    21.415744    238.57516 
    5950    108.09365   -697.17435    89516.161   -21844.578    1617.4773   -23462.055    21.573867    240.10182 
    6000    105.20493   -913.08874    89464.369   -21930.641    1574.2514   -23504.892    21.741901    233.68528 
    6050    105.54098   -797.85475    89444.296   -21903.426      1579.28   -23482.706    21.840731    234.43173 
    6100    104.75068   -897.09406    89375.093   -21954.499    1567.4542   -23521.954    21.838296    232.67629 
    6150    107.25578   -786.49222    89330.081   -21925.771    1604.9398   -23530.711    21.974742    238.24072 
    6200    105.96281   -988.37181    89281.869   -21918.046    1585.5921   -23503.638    22.063488    235.36872 
    6250    104.25883   -1169.2209    89243.719   -21895.468    1560.0944   -23455.562    22.226153    231.58378 
    6300    104.61784   -1018.7703     89187.09   -21882.855    1565.4665   -23448.322    22.282623    232.38122 
    6350    105.66016   -1034.9489    89093.842   -21865.896    1581.0634   -23446.959    22.406111    234.69647 
    6400    107.51956   -785.43061    89059.278    -21852.58    1608.8868   -23461.467    22.752355    238.82664 
    6450    106.81189   -1122.3741    88977.929   -21854.168    1598.2975   -23452.466    22.851789    237.25472 
    6500    105.26994   -1019.8528    88951.973   -21860.143    1575.2243   -23435.367    22.783827    233.82969 
    6550    107.01312   -1006.7192    88968.021    -21848.61    1601.3086   -23449.919    22.908285    237.70171 
    6600    106.84372   -1025.9317    88963.781   -21885.653    1598.7738   -23484.426    23.087759    237.32544 
    6650    104.58144   -849.36766    88942.482   -21872.364    1564.9218   -23437.286    23.307157    232.30038 
    6700    106.43321   -974.88507    88896.271   -21864.752     1592.631   -23457.383      23.5975    236.41359 
    6750    107.88397   -844.25188    88907.161   -21885.164    1614.3398   -23499.504    23.797242    239.63608 
    6800     106.5095   -866.40884    88964.376   -21873.847    1593.7726    -23467.62    23.951001    236.58305 
    6850    109.08499   -709.96614    89060.596   -21825.854    1632.3114   -23458.165    24.144163    242.30383 
    6900    105.94615   -641.74219    89128.137   -21824.445    1585.3429   -23409.787    24.361741    235.33172 
    6950    109.40144   -658.50451    89122.424   -21788.869    1637.0466   -23425.915      24.5305    243.00674 
    7000    107.95969   -720.19946    89141.333   -21824.154    1615.4728   -23439.627     24.44299    239.80426 
    7050    108.35478   -886.96782    89203.979    -21820.07    1621.3847   -23441.455    24.585189    240.68185 
    7100    109.23226   -835.71622    89201.188   -21809.467    1634.5151   -23443.982    24.671302    242.63094 
    7150    106.31244    -745.5048    89158.938   -21791.474    1590.8239   -23382.298    24.887377    236.14533 
    7200    111.76834   -485.15572    89169.872   -21762.343    1672.4641   -23434.807    25.054879    248.26419 
    7250    109.13511   -872.23955    89187.347   -21784.696    1633.0614   -23417.758    25.194498    242.41515 
    7300      110.969   -707.44235    89173.657   -21798.832    1660.5032   -23459.335    25.319376    246.48867 
    7350    107.30398   -693.76058    89167.643   -21783.424    1605.6609   -23389.085    25.374007    238.34778 
    7400    107.76471    -641.0238    89175.899   -21817.606    1612.5552   -23430.162    25.448928    239.37117 
    7450    108.49008   -721.80151    89253.965   -21826.445    1623.4094   -23449.854    25.658537     240.9824 
    7500    107.18428   -650.42915    89304.429   -21807.755    1603.8697   -23411.624    25.686137    238.08189 
    7550    107.12719   -820.03532    89291.507    -21806.67    1603.0155   -23409.685    25.785222    237.95508 
    7600    111.15065   -945.43761    89212.714   -21752.564    1663.2213   -23415.785    25.964638    246.89216 
    7650    108.98094   -965.04869     89235.96   -21773.279    1630.7544   -23404.033    26.224229     242.0727 
    7700    108.97218    -843.7052    89208.452    -21807.58    1630.6234   -23438.203    26.472777    242.05325 
    7750    106.41568   -1009.2866     89135.32   -21838.098    1592.3687   -23430.467    26.588834    236.37465 
    7800    109.39203   -660.48453    89093.747   -21810.325    1636.9059   -23447.231    26.731222    242.98585 
    7850    107.46832   -1149.3691    89117.667   -21826.672    1608.1201   -23434.792    26.947329    238.71281 
    7900    105.03147   -532.06815    89107.693   -21802.558    1571.6559   -23374.214    27.273026    233.29999 
    7950    106.74177   -763.03143    89180.324   -21767.278    1597.2483   -23364.527    27.400525    237.09898 
    8000     110.5436   -743.37228    89232.906   -21761.723    1654.1376    -23415.86    27.522486    245.54375 
    8050    109.16313   -825.67249    89200.719   -21798.704    1633.4807   -23432.184    27.561424    242.47741 
    8100    109.09887   -809.77041    89216.918   -21775.846    1632.5191   -23408.365     27.64787    242.33466 
    8150    108.18752   -853.48218    89224.386   -21792.063    1618.8819   -23410.945    27.706049    240.31033 
    8200    104.81231    -749.8211    89217.697   -21776.929    1568.3764   -23345.306    28.039971    232.81318 
    8250    110.36641   -975.28152    89176.275   -21753.047    1651.4861   -23404.533    27.972355    245.15016 
    8300    109.46326   -1002.9071    89163.548   -21771.322    1637.9717   -23409.294    28.139361    243.14405 
    8350    108.29803   -868.49769    89123.172   -21735.349    1620.5357   -23355.884    28.399684    240.55581 
    8400    110.82554   -837.95213    89078.787   -21762.681    1658.3564   -23421.037    28.577926       246.17 
    8450    107.44228   -1001.6431     89071.97   -21759.448    1607.7304   -23367.178    29.087304    238.65497 
    8500    108.98339   -641.73412    89092.614   -21751.587    1630.7911   -23382.378    29.426155    242.07815 
    8550    109.26985   -719.44431    89135.635   -21753.334    1635.0775   -23388.412    29.536969    242.71444 
    8600    108.12672    -922.3875    89198.615   -21738.002    1617.9721   -23355.974    29.763501    240.17528 
    8650    111.54138   -671.87355    89172.369   -21743.833    1669.0681   -23412.901    30.125306    247.76006 
    8700     109.1969    -985.1394    89242.822   -21789.544     1633.986    -23423.53    30.197553    242.55241 
    8750    109.24418   -690.24218    89248.076     -21789.8    1634.6935   -23424.493    30.443208    242.65743 
    8800    108.26828   -799.97946    89287.165   -21750.556    1620.0904   -23370.647    30.585768    240.48971 
    8850    108.72091   -950.98591    89294.232    -21709.03    1626.8635   -23335.893    30.881512    241.49513 
    8900    108.69697   -620.57951    89369.686   -21754.286    1626.5052   -23380.792    30.791777    241.44195 
    8950    107.21702   -1028.5475     89419.63   -21719.412    1604.3597   -23323.772    30.906008    238.15462 
    9000    107.15531   -676.70356    89344.422   -21729.315    1603.4363   -23332.751    31.097155    238.01754 
    9050    109.75284   -727.51015    89338.148   -21703.572    1642.3049   -23345.877    31.389571    243.78728 
    9100    107.09883   -769.41741    89416.151   -21724.347    1602.5912   -23326.938    31.531056     237.8921 
    9150    108.46869   -943.79987    89399.015    -21731.69    1623.0894    -23354.78    31.682896    240.93489 
    9200    108.83658   -802.16314    89471.336   -21742.692    1628.5943   -23371.287    32.067177    241.75206 
    9250    113.38637   -682.29971     89490.09     -21732.9    1696.6758   -23429.575    32.354712    251.85821 
    9300    108.96804   -949.39635    89566.777   -21733.382    1630.5614   -23363.944    32.644863    242.04406 
    9350    110.39881   -879.39577    89562.874   -21733.813    1651.9709   -23385.784    32.833708    245.22213 
    9400    107.84074   -710.32941    89531.238   -21746.525    1613.6929   -23360.218    32.882001    239.54006 
    9450    110.97546   -1073.0655     89524.82   -21722.054    1660.5997   -23382.654    33.190392      246.503 
    9500    106.99642   -929.85498    89469.302   -21740.197    1601.0587   -23341.256    33.250732    237.66461 
    9550    109.58304   -875.16488    89497.189   -21712.273     1639.764   -23352.037    33.337334    243.41011 
    9600    106.71479   -943.05485    89471.494   -21734.464    1596.8445   -23331.309    33.449991    237.03904 
    9650    110.48354   -1436.7151    89502.067   -21731.135    1653.2389   -23384.374    33.415174    245.41034 
    9700     105.7603   -781.45485    89481.579   -21784.826    1582.5619   -23367.388    33.474154     234.9189 
    9750    104.84654   -1038.8806     89473.66   -21795.457    1568.8886   -23364.345    33.502162    232.88921 
    9800    107.20131   -870.14856    89420.303   -21803.574    1604.1246   -23407.699    33.616824    238.11972 
    9850    107.07238   -947.18422    89431.349   -21804.868    1602.1954   -23407.063    33.718864    237.83335 
    9900    106.61521   -624.88053    89431.933   -21814.972    1595.3545   -23410.327    33.811578    236.81786 
    9950    109.14211   -1179.6858    89424.407   -21807.053    1633.1662   -23440.219    33.800024    242.43071 
   10000    107.65769   -703.80668    89375.631   -21821.635    1610.9537   -23432.589    33.804816    239.13344 
   10050    108.62525   -798.41272     89429.52   -21816.001    1625.4321   -23441.433    33.992537    241.28264 
   10100    108.45155   -773.23766     89390.37   -21835.881    1622.8328   -23458.714    34.253104     240.8968 
   10150     106.5388   -810.04716    89346.979   -21828.351    1594.2111   -23422.562    34.377692    236.64813 
   10200    108.45347   -1077.3615    89295.566   -21837.374    1622.8616   -23460.235    34.528099    240.90107 
   10250    107.21594   -704.45338    89297.502   -21856.314    1604.3436   -23460.657    34.576586    238.15222 
   10300    107.78356   -914.98791    89335.683   -21821.515    1612.8373   -23434.352    34.758222    239.41305 
   10350    108.34626   -958.29517    89286.284   -21807.988    1621.2573   -23429.245    34.836655    240.66293 
   10400    108.49136     -515.414    89273.105   -21823.246    1623.4286   -23446.674     35.01196    240.98524 
   10450    108.38154   -714.50451    89284.864   -21826.316    1621.7852   -23448.101    35.197643    240.74129 
   10500    105.52668   -728.73061    89286.345   -21837.901     1579.066   -23416.967    35.316591    234.39997 
   10550    107.50324   -1020.8925    89225.643   -21831.086    1608.6427   -23439.729    35.404107    238.79039 
   10600    106.92753   -713.39463    89235.056   -21809.886    1600.0279   -23409.914    35.464574    237.51159 
   10650    109.12828    -875.9407    89262.082   -21816.809    1632.9592   -23449.768    35.552788    242.39999 
   10700    108.60596    -1077.084    89277.644   -21814.274    1625.1433   -23439.418    35.565238    241.23978 
   10750    107.43431   -1102.6406    89207.324   -21847.994    1607.6112   -23455.605    35.581837    238.63727 
   10800    109.11729   -600.32055    89206.234   -21870.235    1632.7947    -23503.03     35.65269    242.37557 
   10850    106.91108   -954.33051    89259.429   -21897.558    1599.7818   -23497.339    35.700334    237.47506 
   10900    105.22726   -803.70039    89261.185   -21882.413    1574.5857   -23456.999    35.882204    233.73489 
   10950    106.93597    -465.4744    89362.708   -21862.736    1600.1541    -23462.89     35.92477    237.53033 
   11000    105.90662    -758.1207    89414.954   -21839.779    1584.7514   -23424.531    35.926467    235.24392 
   11050     108.2799    -651.2664    89484.044   -21822.957    1620.2642   -23443.221    35.849507    240.51552 
   11100    110.02988   -734.62238    89527.173   -21797.481    1646.4505   -23443.931    35.961839    244.40266 
   11150    109.45281   -1045.4453     89517.91   -21804.705    1637.8154    -23442.52    36.180942    243.12085 
   11200    106.78993   -784.88795    89505.095   -21860.612    1597.9689   -23458.581    36.471134    237.20595 
   11250    108.67247   -833.69928    89495.792   -21839.907    1626.1385   -23466.045    36.534763    241.38752 
   11300    108.42985   -454.24812    89455.703   -21854.249    1622.5081   -23476.757    36.522723     240.8486 
   11350    110.72804   -763.48793     89477.85   -21822.276    1656.8975   -23479.173    36.667821    245.95344 
   11400    107.72475   -733.03177     89512.13   -21803.891    1611.9572   -23415.848    36.790373     239.2824 
   11450    112.10135   -718.25818    89496.599   -21805.609    1677.4472   -23483.056    36.897588    249.00388 
   11500    109.02161   -932.06006    89434.643   -21853.694    1631.3631   -23485.057    37.151039    242.16305 
   11550    106.49836   -968.40065    89395.519   -21856.374     1593.606    -23449.98     37.34413    236.55831 
   11600    106.55689   -552.25669    89409.463     -21852.9    1594.4818   -23447.382    37.530444    236.68832 
   11650    106.42831   -1003.5683     89426.39   -21864.542    1592.5578   -23457.099    37.653819    236.40272 
   11700    107.02073   -828.13932    89420.554   -21852.887    1601.4225   -23454.309    37.755479    237.71862 
   11750    106.44195   -1079.7377    89412.942   -21840.606    1592.7618   -23433.368      38.0667      236.433 
   11800    106.85865   -792.83953    89385.653   -21789.417    1598.9973   -23388.414    38.171419     237.3586 
   11850    110.74149   -941.92674    89335.209   -21751.608    1657.0988   -23408.707    38.204519    245.98332 
   11900    112.30213   -890.79083    89374.058   -21700.937    1680.4516   -23381.388    38.392535    249.44986 
   11950    108.88863    -686.0767    89404.318   -21717.318    1629.3731   -23346.691    38.726223    241.86766 
   12000     108.2731   -800.18946    89420.617   -21748.539    1620.1626   -23368.701    38.818594    240.50043 
   12050    108.13908   -815.48225    89489.306   -21719.843    1618.1572       -23338    38.935957    240.20274 
   12100    110.62658   -712.65615    89474.754   -21730.373    1655.3793   -23385.752     39.12444    245.72807 
   12150    110.21384    -832.8926    89538.053   -21745.374    1649.2032   -23394.577     39.49818    244.81128 
   12200    108.84469   -896.53841    89598.055   -21738.757    1628.7156   -23367.473    39.715298    241.77006 
   12250     110.7929   -829.74115    89582.026   -21749.588    1657.8679   -23407.456    39.902895     246.0975 
   12300    110.52342   -802.44534    89528.458   -21787.676    1653.8356   -23441.511    40.022937    245.49892 
   12350    110.14299   -708.81441    89521.724   -21787.202    1648.1429   -23435.345    40.163596    244.65389 
   12400    109.81966    -665.1841    89544.609   -21827.441    1643.3047   -23470.745    40.175085     243.9357 
   12450    108.43932   -749.92325    89573.404    -21852.73    1622.6499    -23475.38    40.526906    240.86965 
   12500    111.94643   -900.89448    89546.529   -21819.355     1675.129   -23494.484    40.719838    248.65977 
   12550    109.60985   -816.07833    89593.469   -21801.828    1640.1652   -23441.993     40.80639    243.46967 
   12600    108.96229    -962.5142    89602.778    -21810.35    1630.4754   -23440.825    41.176452    242.03128 
   12650    107.27892   -900.30304     89598.38    -21805.68     1605.286   -23410.966    41.335758    238.29212 
   12700    106.97772   -1149.5205    89549.542   -21861.785    1600.7789   -23462.564    41.389967    237.62307 
   12750    102.73246    -628.7468    89532.736   -21852.763    1537.2543   -23390.018    41.608036    228.19335 
   12800    106.02115   -907.76741    89507.765   -21811.782    1586.4652   -23398.248    41.950103    235.49831 
   12850    107.54215   -1018.5338     89443.47   -21772.332    1609.2249   -23381.557    42.301982    238.87682 
   12900    108.21322   -736.80117    89478.178   -21780.352    1619.2666   -23399.619    42.558651    240.36742 
   12950    108.97624   -919.66777    89483.751   -21799.155    1630.6841   -23429.839    42.711811    242.06226 
   13000    106.58751   -753.52525    89549.807   -21808.046      1594.94   -23402.986    42.740791    236.75634 
   13050    108.57462   -791.65167    89615.417   -21796.268    1624.6744   -23420.943    42.814843    241.17017 
   13100    107.10052   -1264.7745    89580.746   -21806.608    1602.6165   -23409.224    42.706864    237.89585 
   13150    108.42008   -927.46409    89580.796   -21835.539    1622.3619   -23457.901    42.647095     240.8269 
   13200     107.2209   -1294.7323    89447.681   -21854.149    1604.4178   -23458.567     42.76403    238.16324 
   13250    107.91746     -894.827    89460.535   -21835.453    1614.8409   -23450.294    43.037275    239.71047 
   13300    107.84175   -803.96583    89557.273   -21857.308    1613.7079   -23471.016    43.469264    239.54229 
   13350    109.42298   -1185.0772    89539.819   -21823.938     1637.369   -23461.307    43.303152    243.05458 
   13400    107.50512   -1045.5619    89544.103   -21792.719    1608.6707    -23401.39    43.249592    238.79456 
   13450    109.23233   -1044.1387    89504.509   -21778.111    1634.5161   -23412.628    43.130655    242.63109 
   13500    109.59837   -962.31505    89462.242   -21785.238    1639.9934   -23425.232    43.175668    243.44416 
   13550    107.33397   -668.32653    89469.937   -21795.277    1606.1097   -23401.387    43.426353    238.41439 
   13600    110.93155   -603.46738    89516.256   -21787.124    1659.9428   -23447.067    43.301054    246.40549 
   13650    108.60622   -993.10874    89561.189     -21780.8    1625.1473   -23405.947    43.587767    241.24037 
   13700    112.91436   -872.45654    89568.207   -21783.852    1689.6128   -23473.465    44.036854    250.80977 
   13750    108.18033   -849.74265    89560.819   -21771.883    1618.7744   -23390.658    44.201673    240.29436 
   13800    109.70901     -696.813    89499.616   -21738.816     1641.649   -23380.465    44.235874    243.68992 
   13850    110.26595    -796.4406    89574.175   -21736.187    1649.9829    -23386.17    44.240289    244.92702 
   13900    111.15203   -719.80983     89640.94   -21739.161    1663.2419   -23402.403    44.525942    246.89522 
   13950    108.05734   -969.92103    89696.508   -21786.448     1616.934   -23403.382    44.880833    240.02118 
   14000    110.72702    -719.8734    89687.465   -21757.635    1656.8821   -23414.517    45.061687    245.95116 
   14050    105.79778   -1065.7123    89754.356   -21799.608    1583.1226   -23382.731    45.459882    235.00214 
   14100    106.56553    -903.0298    89768.763   -21817.954    1594.6111   -23412.565    45.485704    236.70751 
   14150    104.92874   -1112.2494    89699.834    -21861.11    1570.1187   -23431.229    45.622227    233.07181 
   14200    105.97585   -1014.0229    89659.695   -21871.724    1585.7873   -23457.511    45.712416    235.39769 
   14250    104.89953   -1131.5959    89678.247    -21868.53    1569.6815   -23438.211    45.763848    233.00691 
   14300    106.48385   -868.35497    89690.148   -21849.767    1593.3888   -23443.156    45.724341    236.52608 
   14350    105.49505   -988.93438    89612.297   -21836.803    1578.5927   -23415.396    45.787541    234.32971 
   14400    110.16769   -1200.3367    89516.919   -21840.369    1648.5125   -23488.882    45.590907    244.70875 
   14450    110.60482   -846.41323    89473.219   -21874.304    1655.0536   -23529.357    45.709132    245.67973 
   14500    104.86127   -1022.8339    89429.612   -21892.313     1569.109   -23461.422    45.793998    232.92193 
   14550    107.64947   -776.34013    89450.233   -21866.197    1610.8307   -23477.027    45.917623    239.11519 
   14600    110.91025    -810.1058    89518.658   -21852.975     1659.624   -23512.599    46.165319    246.35817 
   14650    107.45401   -771.94286    89488.138   -21899.009    1607.9059   -23506.915    46.076909    238.68103 
   14700    107.02521   -916.97875    89454.001   -21896.601    1601.4895    -23498.09    46.378279    237.72856 
   14750    106.41522   -827.45233    89485.888   -21896.491    1592.3618   -23488.853    46.645673    236.37363 
   14800    104.91167   -998.48915    89445.147   -21877.672    1569.8633   -23447.535     46.85656    233.03389 
   14850    107.97758   -951.60336    89423.813   -21844.171    1615.7405   -23459.912    46.983984    239.84401 
   14900    106.33503   -906.12632     89368.15   -21847.842    1591.1619   -23439.004    47.231637     236.1955 
   14950    106.09847   -913.45709    89378.006   -21867.907    1587.6221   -23455.529    47.407687    235.67005 
   15000    109.56124   -848.63582    89344.321   -21819.483    1639.4378    -23458.92    47.796085    243.36169 
   15050    108.87221   -1385.7774    89351.305   -21854.819    1629.1275   -23483.947    47.814533     241.8312 
   15100     107.7471   -1117.6777    89279.831   -21867.942    1612.2917   -23480.234    47.864746    239.33206 
   15150    107.83523    -927.8064      89259.7   -21845.447    1613.6104   -23459.057    48.205254     239.5278 
   15200    107.16701   -1001.0214    89216.206   -21886.729    1603.6114    -23490.34    48.329385    238.04354 
   15250    106.66765    -979.1561    89133.996   -21928.362    1596.1392   -23524.501    48.653779    236.93434 
   15300     106.3381   -879.52527    89083.326   -21902.273    1591.2078   -23493.481    49.114404    236.20232 
   15350     107.2316   -928.37784    89070.222   -21902.937    1604.5779   -23507.515    49.588614    238.18701 
   15400    107.55653   -773.01171    89049.546   -21878.871      1609.44   -23488.311    49.591949    238.90875 
   15450    105.18318   -579.80902    89058.179   -21864.943     1573.926   -23438.869    49.644911    233.63697 
   15500    107.82305   -735.82049    89059.227   -21832.532    1613.4281    -23445.96    49.536572    239.50075 
   15550    107.31303    -800.5837    89070.397   -21807.972    1605.7964   -23413.768     49.53894    238.36788 
   15600    106.65858   -699.03142    89115.883   -21812.016    1596.0035   -23408.019    49.763406     236.9142 
   15650    107.61809   -917.71407    89131.539   -21793.386    1610.3612   -23403.748    49.690566     239.0455 
   15700     110.3799    -733.4263    89097.022   -21816.706     1651.688   -23468.394    49.803592    245.18013 
   15750    111.74987    -734.3773     89055.37     -21780.4    1672.1877   -23452.587    50.073705    248.22316 
   15800    109.17382   -604.26931    89135.222   -21845.042    1633.6406   -23478.683      50.4878    242.50113 
   15850    107.40331   -765.01221    89244.965   -21849.606    1607.1473   -23456.753    50.411181    238.56841 
   15900    104.12377   -990.79035    89266.102   -21828.883    1558.0734   -23386.956    50.683153    231.28378 
   15950    108.87905   -607.34433    89334.193   -21848.138    1629.2298   -23477.368    50.795533    241.84639 
   16000    105.45963   -977.51444    89400.622     -21831.5    1578.0627   -23409.563    50.951976    234.25103 
   16050    109.20509   -784.15409     89392.82   -21782.451    1634.1085    -23416.56    51.440802    242.57059 
   16100    107.33975   -869.18677    89323.714   -21811.179    1606.1962   -23417.375    51.603531    238.42724 
   16150    108.96184   -339.38698    89378.956   -21800.248    1630.4686   -23430.717    51.500561    242.03028 
   16200    107.03892   -568.83339    89448.662    -21810.82    1601.6947   -23412.515    51.706636    237.75902 
   16250    105.12988   -986.71497    89513.492   -21853.451    1573.1285    -23426.58    51.945099    233.51859 
   16300    105.42365   -660.80869    89518.993   -21883.711    1577.5243   -23461.235    52.206964    234.17111 
   16350    105.21066   -864.02966    89562.061   -21874.701    1574.3372   -23449.038     52.32941    233.69802 
   16400    104.51831   -899.30043    89469.505   -21867.318    1563.9772   -23431.295    52.305338    232.16015 
   16450    107.83356    -950.5301    89446.636   -21898.919    1613.5854   -23512.505     52.21232    239.52409 
   16500    106.10009   -692.14245    89500.595   -21877.056    1587.6463   -23464.702    52.274386    235.67364 
   16550    107.38726   -486.88306    89574.918   -21883.445    1606.9072   -23490.352    52.325097    238.53277 
   16600     107.2193   -673.88127    89658.296   -21883.675    1604.3938   -23488.069    52.608946    238.15968 
   16650    108.46354   -856.76304    89666.569    -21855.98    1623.0122   -23478.992    52.553463    240.92343 
   16700    106.30511   -898.10423    89669.465   -21816.838    1590.7142   -23407.552    52.483757    236.12905 
   16750    110.08809   -919.81764    89634.513    -21826.85    1647.3215   -23474.172    52.977766    244.53196 
   16800    108.82258   -885.36149    89607.015   -21788.017    1628.3848   -23416.401    52.931328    241.72096 
   16850     109.5782   -973.30875    89574.142    -21774.65    1639.6916   -23414.341    53.103666    243.39936 
   16900    106.36221   -860.98498    89566.122   -21828.238    1591.5686   -23419.807    53.373011    236.25588 
   16950    106.35585   -1036.5167     89571.48   -21847.238    1591.4735   -23438.712    53.334516    236.24176 
   17000    103.75515    -826.9176    89555.017   -21828.401    1552.5575   -23380.958     53.52541    230.46499 
   17050    109.16523   -946.47735    89501.111   -21789.439     1633.512   -23422.951    53.750487    242.48205 
   17100    109.93408   -982.23232     89496.87   -21765.843     1645.017    -23410.86     54.06014    244.18987 
   17150    109.44771   -870.98711    89509.072   -21781.076    1637.7391   -23418.815    54.504898    243.10953 
   17200    107.26823   -1116.5476    89496.502   -21802.393    1605.1261   -23407.519    54.860015    238.26838 
   17250    108.07037   -600.47517    89477.787   -21790.801     1617.129    -23407.93    55.122554    240.05012 
   17300    106.78442   -813.33432    89511.569   -21827.679    1597.8864   -23425.566    55.116212     237.1937 
   17350    108.21507   -1041.0428    89533.645   -21819.306    1619.2943     -23438.6    55.193696    240.37154 
   17400    108.27345   -522.11506    89550.174   -21822.798    1620.1678   -23442.966    55.270658    240.50121 
   17450    109.36028   -738.09599    89546.479       -21799    1636.4307   -23435.431    55.516264     242.9153 
   17500    108.31338   -863.00484    89541.293   -21756.622    1620.7653   -23377.387    55.854585     240.5899 
   17550    108.18992   -947.43651    89579.027   -21782.657    1618.9178   -23401.575    55.946153    240.31565 
   17600    108.28359   -772.24962    89609.544   -21782.408    1620.3196   -23402.728    56.347631    240.52373 
   17650    109.23056   -874.68214    89604.628   -21749.928    1634.4897   -23384.418    56.730463    242.62718 
   17700    110.13424   -749.70427    89616.145   -21749.809    1648.0121   -23397.821    57.130637    244.63447 
   17750     108.8538   -806.87209    89623.119   -21733.856     1628.852   -23362.708    57.420721     241.7903 
   17800    110.18326   -782.59846    89647.838   -21750.463    1648.7456   -23399.209    57.652973    244.74336 
   17850    109.58955   -733.01817    89654.492   -21692.904    1639.8614   -23332.766    57.562438    243.42457 
   17900    108.26954   -1158.4788    89538.434   -21715.891    1620.1093       -23336    57.836119    240.49251 
   17950    110.17199   -824.17217     89468.23   -21671.526    1648.5769   -23320.103    57.768664    244.71832 
   18000    110.49639   -968.48437    89470.186   -21675.288    1653.4311   -23328.719    58.142613    245.43887 
   18050    112.11032   -1008.2627    89441.781   -21712.702    1677.5814   -23390.283    58.252036    249.02381 
   18100     110.6371    -890.8207    89468.674   -21724.545    1655.5367   -23380.082    58.493199    245.75144 
   18150     107.7151   -1039.1958    89510.879   -21784.673    1611.8129   -23396.486    58.490317    239.26098 
   18200    108.82209   -714.93701    89535.086   -21776.149    1628.3775   -23404.527    58.774904    241.71987 
   18250    108.27605   -891.79252    89507.606   -21795.036    1620.2066   -23415.243    58.787542    240.50697 
   18300    107.28057   -860.26422    89547.797   -21811.227    1605.3107   -23416.537    58.670507    238.29579 
   18350    106.77511   -927.25218    89535.068   -21800.058    1597.7472   -23397.805    58.585232    237.17304 
   18400    106.68801   -894.13828    89516.715   -21811.597    1596.4438   -23408.041    58.775107    236.97956 
   18450     109.6635   -863.51836    89476.101   -21794.376    1640.9681   -23435.344    59.106287    243.58884 
   18500    106.18339   -368.16854     89421.75   -21816.464    1588.8929   -23405.357    59.346923    235.85869 
   18550    109.02796   -791.54678    89478.275    -21808.35     1631.458   -23439.808    59.418015    242.17714 
   18600    105.06342   -1281.7894    89402.541   -21841.364    1572.1339   -23413.498    59.527416    233.37095 
   18650     106.6509   -962.87115     89370.34   -21865.129    1595.8885   -23461.018     59.66135    236.89713 
   18700    106.96573      -853.61    89364.183   -21879.065    1600.5996   -23479.664    59.846318    237.59645 
   18750    109.95711   -440.02908    89405.666    -21838.25    1645.3615   -23483.612    60.060468    244.24101 
   18800    107.12502   -1026.6132    89454.383   -21795.525    1602.9831   -23398.508    60.303123    237.95026 
   18850    107.74778   -863.10371    89392.292   -21839.447    1612.3018   -23451.749    60.431745    239.33355 
   18900    104.48122   -854.28177    89309.691   -21822.893    1563.4222   -23386.315    60.773078    232.07776 
   18950     108.2665   -1084.3874    89331.144   -21786.884    1620.0638   -23406.948     61.03811    240.48576 
   19000    106.86489   -626.33677    89335.565   -21776.585    1599.0905   -23375.675     60.87897    237.37244 
   19050    108.66443   -987.41636    89317.288   -21808.918    1626.0182   -23434.937    60.825124    241.36965 
   19100    108.17943   -793.50517    89259.972   -21816.203    1618.7608   -23434.964    60.861512    240.29235 
   19150    109.52091   -1241.8932    89235.949   -21839.666    1638.8343     -23478.5    61.195698     243.2721 
   19200    108.58348   -837.66216    89201.119   -21828.637    1624.8069   -23453.444    61.292241    241.18985 
   19250     105.3203   -769.41583    89172.133   -21867.226    1575.9779   -23443.204    61.586656    233.94155 
   19300    105.82895    -1048.225    89083.308   -21866.155    1583.5891   -23449.744    61.763014    235.07138 
   19350    108.27849   -550.66228    89121.606   -21804.399    1620.2432   -23424.642    61.846559     240.5124 
   19400    109.84985   -1033.0646    89266.147   -21787.252    1643.7565   -23431.008    62.408449    244.00276 
   19450    109.29471   -916.59326    89264.741   -21768.358    1635.4496   -23403.807    62.494285    242.76966 
   19500    108.49872   -479.58829    89303.374   -21763.623    1623.5387   -23387.162    62.683319    241.00159 
   19550    109.13939   -990.73168    89292.338   -21759.889    1633.1254   -23393.015    62.816045    242.42466 
   19600    110.63053   -916.13184    89275.615   -21805.036    1655.4383   -23460.475    62.978104    245.73684 
   19650    107.46235   -1014.9686    89277.593    -21795.46    1608.0308   -23403.491    62.846255    238.69956 
   19700     108.3546   -665.48482    89235.034   -21815.379    1621.3821   -23436.761    63.077391    240.68146 
   19750    106.90509   -652.73593    89292.422   -21841.351    1599.6921   -23441.043    63.352308    237.46175 
   19800    109.73326   -692.53227    89329.202    -21850.62    1642.0119   -23492.631    63.315351    243.74379 
   19850     107.6408   -1059.4144    89372.393   -21830.383     1610.701   -23441.084    63.636821    239.09593 
   19900    107.40319   -625.07933    89347.945   -21834.549    1607.1456   -23441.694    63.999107    238.56815 
   19950    108.21787   -922.82346    89342.176   -21821.919    1619.3362   -23441.255    63.870493    240.37776 
   20000    107.46773   -763.28917     89315.52   -21834.602    1608.1113   -23442.713    63.908714     238.7115 
   20050    110.10333   -419.55277    89381.243   -21820.414    1647.5495   -23467.963    64.106716     244.5658 
   20100    106.58798   -884.92483    89374.319   -21824.664     1594.947   -23419.611    64.405475    236.75737 
   20150    110.16081   -976.28913    89365.287   -21764.216    1648.4096   -23412.626    64.621752    244.69348 
   20200    108.77897   -748.16253    89342.352   -21749.477    1627.7323    -23377.21    65.079296    241.62409 
   20250     107.1255   -571.64779    89361.485   -21791.145    1602.9903   -23394.136    65.050636    237.95134 
   20300    108.05478   -783.74143    89405.013   -21792.766    1616.8957   -23409.661    65.405621    240.01549 
   20350    108.67469   -862.21687    89354.658   -21805.991    1626.1718   -23432.162    65.742575    241.39245 
   20400    107.88406   -958.20915     89328.73   -21804.475     1614.341   -23418.816    66.009214    239.63627 
   20450    106.95678   -1054.9893    89372.913   -21796.242    1600.4656   -23396.708    66.068336    237.57657 
   20500    107.61332   -722.60249    89385.303   -21829.509    1610.2899   -23439.798    66.471453     239.0349 
   20550    107.89481   -678.61426    89396.475   -21795.846    1614.5019   -23410.348    66.510789    239.66015 
   20600    106.38015   -887.74164    89456.421   -21780.971    1591.8371   -23372.808    66.641296    236.29574 
   20650    108.35532   -697.71497    89390.303   -21792.043    1621.3928   -23413.436    66.801315    240.68305 
   20700    107.48856   -630.32312    89364.443   -21823.856     1608.423   -23432.279     67.03174    238.75777 
   20750    104.77336    -827.4593    89329.398   -21848.871    1567.7935   -23416.664    66.969369    232.72666 
   20800    104.96652   -992.35417    89306.353   -21822.537     1570.684   -23393.221    67.044449    233.15573 
   20850    106.65813   -1081.2501    89246.776    -21843.37    1595.9967   -23439.366    67.201728    236.91319 
   20900    105.49893   -1076.1008     89196.89   -21880.172    1578.6509   -23458.823    67.130196    234.33834 
   20950     106.0495   -989.50488    89223.544   -21870.047    1586.8894   -23456.937    67.552793    235.56128 
   21000    107.77545   -798.57501    89148.098   -21852.689    1612.7159   -23465.405    67.750177    239.39503 
   21050      107.027   -1173.1873    89127.497   -21853.556    1601.5164   -23455.072    67.847329    237.73255 
   21100    109.33394   -769.08161    89101.079   -21835.023    1636.0365    -23471.06    67.779018     242.8568 
   21150    107.60241   -813.02182    89116.556   -21815.849    1610.1265   -23425.975    67.628843    239.01065 
   21200    106.11337   -1034.2721     89177.71   -21837.071     1587.845   -23424.916    67.436213    235.70314 
   21250    106.23453   -1040.0958    89189.894   -21842.484    1589.6581   -23432.142    67.456148    235.97228 
   21300    104.56631   -925.55999    89172.878   -21869.502    1564.6954   -23434.197    67.560283    232.26676 
   21350    107.43742   -617.78109    89185.371   -21852.346    1607.6578   -23460.004    68.028659    238.64419 
   21400    107.21128   -866.20904    89270.893   -21822.739    1604.2738   -23427.013    68.199699    238.14187 
   21450    109.69965   -591.27241    89258.886   -21800.357    1641.5089   -23441.866    68.282444    243.66913 
   21500    109.14908   -686.03929     89300.83    -21743.83    1633.2704     -23377.1    68.540249    242.44619 
   21550    109.05035   -847.12928    89244.621   -21716.801    1631.7931   -23348.594     68.92986    242.22688 
   21600     109.1432   -755.47292    89235.199    -21757.24    1633.1824   -23390.423    69.210893    242.43312 
   21650    108.32495   -1035.2613    89205.402   -21803.155    1620.9384   -23424.093    69.403858    240.61559 
   21700    108.44968   -1346.6159     89134.57   -21795.088    1622.8049   -23417.893    69.465798    240.89266 
   21750    107.52912   -642.38023    89092.521   -21798.724    1609.0299   -23407.754    69.560194    238.84787 
   21800    108.15543   -865.26459     89096.86   -21812.136    1618.4018   -23430.537     69.77479    240.23905 
   21850    108.86792   -865.71408    89093.115   -21760.935    1629.0633   -23389.999    69.854684    241.82167 
   21900    110.24518   -572.78972     89139.03   -21739.858     1649.672    -23389.53    69.972181    244.88088 
   21950    109.20794   -1073.3437     89188.71   -21755.187    1634.1512   -23389.339    70.040979    242.57694 
   22000    107.49198    -1134.292    89180.045    -21762.01    1608.4741   -23370.484      70.1458    238.76537 
   22050    110.27842   -917.23434    89100.101   -21758.575    1650.1695   -23408.745    70.467491    244.95472 
   22100    108.03377   -900.60274    89008.051   -21750.716    1616.5812   -23367.298     70.71853    239.96881 
   22150    106.81611   -761.07416    88931.861   -21768.278    1598.3607   -23366.638    71.139008     237.2641 
   22200    106.87751    -980.9777    88863.836   -21751.918    1599.2793   -23351.197    71.264782    237.40048 
   22250    107.48433   -885.45743    88833.342   -21771.468    1608.3596   -23379.827    71.407057    238.74837 
   22300    108.91322   -645.95655    88874.187   -21755.579    1629.7411    -23385.32    71.765028    241.92229 
   22350     110.9879   -689.83835    88953.564   -21752.789    1660.7859   -23413.575    71.993346    246.53064 
   22400    109.60399    -575.6205    89002.951    -21769.63    1640.0776   -23409.708    72.024906    243.45666 
   22450    107.87691   -713.38294    89019.379   -21769.326    1614.2341    -23383.56    72.472586    239.62039 
   22500    108.80934   -577.45231    89023.009   -21781.258    1628.1866   -23409.445     72.69744    241.69153 
   22550    108.82056   -731.54897    89082.991    -21774.29    1628.3546   -23402.644    73.040278    241.71647 
   22600     110.9876   -821.31818    89061.444    -21737.83    1660.7814   -23398.612    72.858475    246.52997 
   22650    111.54021   -903.39367    89083.855   -21740.555    1669.0505   -23409.606    73.084734    247.75746 
   22700    109.69845   -1031.6923    89013.703   -21764.511     1641.491   -23406.002    73.281044    243.66646 
   22750    107.69968   -619.27189    88999.814   -21794.356    1611.5822   -23405.938    73.202754    239.22673 
   22800    107.52557   -960.29182    88972.661   -21802.908    1608.9767   -23411.884    73.591545    238.83998 
   22850    110.30696   -813.51956    88940.298   -21791.924    1650.5965   -23442.521    73.814435    245.01811 
   22900    107.49645   -653.36213    88993.254   -21777.045     1608.541   -23385.586    73.900305     238.7753 
   22950     105.9231   -649.98324    89007.387   -21789.632     1584.998    -23374.63    73.982195    235.28052 
   23000    106.66231   -535.66699    89085.785   -21760.016    1596.0592   -23356.076    74.377019    236.92248 
   23050    107.39159   -795.06472     89094.97   -21757.897     1606.972   -23364.869    74.592284    238.54238 
   23100    105.00554   -833.22272    89064.816   -21742.032    1571.2678     -23313.3      74.2969    233.24239 
   23150    108.81752   -1018.9127    89075.857   -21768.646    1628.3091   -23396.955    74.543021    241.70972 
   23200    106.26704   -788.13305    89078.657   -21760.464    1590.1445   -23350.609    74.509343    236.04448 
   23250     107.4845    -825.9445    89075.484   -21765.994    1608.3621   -23374.356    74.666139    238.74875 
   23300    109.71386   -1100.1239     89037.26   -21701.504    1641.7215   -23343.225    74.788076    243.70069 
   23350    109.29459   -773.43402    89007.551   -21682.226    1635.4478   -23317.674    74.604951     242.7694 
   23400     108.8521   -926.90594    89038.123    -21716.23    1628.8265   -23345.057    74.871832    241.78652 
   23450    110.40661   -651.29099    89082.597   -21674.424    1652.0877   -23326.512    74.929763    245.23947 
   23500    108.93281   -1075.1484    89152.852   -21700.024    1630.0342   -23330.058    75.146109    241.96579 
   23550    108.22656    -1137.792    89104.709   -21715.892    1619.4662   -23335.358    75.427091    240.39706 
   23600    107.20915   -962.86324    89003.385   -21738.751     1604.242   -23342.993    75.318146    238.13714 
   23650    109.00787   -729.58345    88948.587   -21746.691    1631.1574   -23377.848    75.681745    242.13253 
   23700    105.24699   -800.89411    88955.004   -21758.986    1574.8808   -23333.866    75.932555    233.77871 
   23750    107.59268   -607.91464    88951.865   -21778.245     1609.981   -23388.226     76.48426    238.98905 
   23800    107.02625   -854.21786    88919.584   -21728.082     1601.505   -23329.587    76.902276    237.73086 
   23850    107.55793    -815.6323     88876.28   -21672.939    1609.4609     -23282.4    77.155432    238.91185 
   23900    108.79554    -788.1649    88901.651   -21689.584    1627.9801   -23317.564    77.223476    241.66088 
   23950    111.06988    -736.3058    88892.853   -21699.759    1662.0127   -23361.772    77.670967    246.71275 
   24000    107.23909   -777.25408    88888.546   -21725.343    1604.6899   -23330.033    77.861858    238.20364 
   24050    108.50799   -1027.5062    88955.188   -21736.408    1623.6774   -23360.085    77.769595    241.02218 
   24100    108.39006   -898.87607    88935.462   -21740.095    1621.9128   -23362.008    78.063389    240.76023 
   24150    107.85326   -774.61511    88977.028   -21739.515    1613.8802   -23353.395    78.361809    239.56787 
   24200    109.14078   -858.45118    88938.381   -21744.457    1633.1462   -23377.604    78.402385    242.42775 
   24250    108.33011   -918.73217    88821.064   -21741.587    1621.0156   -23362.603    78.493161    240.62706 
   24300    108.94833   -802.52537    88769.042   -21745.611    1630.2665   -23375.877    78.831343    242.00028 
   24350    107.40873   -920.89341    88784.352   -21737.373    1607.2284   -23344.601     79.15603    238.58045 
   24400    108.24551   -752.16173    88765.215   -21744.008    1619.7497   -23363.758    79.443524    240.43914 
   24450    110.95358   -525.33678    88823.094   -21719.304    1660.2724   -23379.576    79.793355    246.45442 
   24500    108.47293   -1044.8111    88864.736   -21750.084    1623.1527   -23373.237    80.134462     240.9443 
   24550    108.59873   -755.94895        88831    -21760.75    1625.0351   -23385.785    80.636245    241.22372 
   24600    106.93946   -875.33046    88826.456   -21789.634    1600.2064    -23389.84    80.685004    237.53809 
   24650    107.31468    -448.0255    88891.954   -21793.379    1605.8211   -23399.201    80.803022    238.37155 
   24700    107.94683   -933.27197    88865.325   -21793.397    1615.2803   -23408.678    80.950806    239.77569 
   24750    106.44161   -584.46691    88903.041   -21798.249    1592.7567   -23391.005    81.066222    236.43225 
   24800    106.98162   -859.41494    88859.956   -21789.723    1600.8373    -23390.56    81.340086    237.63175 
   24850    106.71653   -723.34206    88837.154   -21797.118    1596.8706   -23393.989    81.374822    237.04292 
   24900     108.9134   -702.17255    88806.484   -21778.721    1629.7438   -23408.465    81.300383    241.92269 
   24950    111.50392   -720.19956    88759.297   -21757.693    1668.5075   -23426.201    81.695413    247.67686 
   25000    110.45467   -806.17942     88710.95   -21752.945    1652.8068   -23405.752    81.965497    245.34621 
   25050    108.91268   -838.49884    88705.166   -21757.984     1629.733   -23387.717    82.196286    241.92108 
   25100    110.12378   -983.16098    88690.249   -21774.818    1647.8555   -23422.674    82.255698    244.61122 
   25150    112.38801   -706.02813     88683.25   -21803.376    1681.7368   -23485.112    82.082506    249.64063 
   25200    107.47963   -628.87141    88716.711   -21790.814    1608.2893   -23399.103    82.087489    238.73793 
   25250    104.68207   -653.31109    88703.137   -21845.928    1566.4276   -23412.356    82.205834    232.52389 
   25300    109.97156   -910.92053    88684.462   -21824.916    1645.5778   -23470.494    82.338221    244.27312 
   25350    104.87682   -618.02253    88612.342   -21875.092    1569.3418   -23444.434    82.718505    232.95648 
   25400    103.44713   -1019.8943    88552.617   -21872.253    1547.9483   -23420.201    82.818576    229.78079 
   25450    107.55635   -656.82295    88515.597   -21840.357    1609.4373   -23449.795    82.596158    238.90835 
   25500    110.31509   -636.24558    88597.537   -21810.021    1650.7182   -23460.739    82.505348    245.03617 
   25550    107.36046   -631.09436    88668.094   -21815.759    1606.5061   -23422.265    82.827142    238.47323 
   25600    106.24538   -548.99338      88752.7   -21793.897    1589.8204   -23383.718    83.074193    235.99638 
   25650     110.7265   -670.14277    88816.274   -21758.139    1656.8744   -23415.013    83.343649    245.95001 
   25700    108.83356   -711.74425     88854.43   -21768.867     1628.549   -23397.416     83.51353    241.74533 
   25750    108.25523   -282.04677    88952.849   -21785.321    1619.8951   -23405.216    83.881275    240.46072 
   25800    108.11906   -1045.2287      88972.6   -21792.456    1617.8575   -23410.313    84.165048    240.15826 
   25850    111.35455      -847.24    88974.896   -21749.087    1666.2723   -23415.359    84.257936    247.34505 
   25900    109.61386   -1060.6349    89012.953   -21771.356    1640.2253   -23411.582    84.287575    243.47858 
   25950     114.6047   -639.98771    89051.656   -21719.579    1714.9065   -23434.485      84.3961    254.56443 
   26000    108.73215   -803.23628    89166.953   -21748.655    1627.0316   -23375.687    84.600686    241.52008 
   26050    108.16632   -602.76053    89196.794   -21777.751    1618.5647   -23396.315    84.752059    240.26324 
   26100    110.94221   -983.88109    89217.848   -21782.879    1660.1022   -23442.981    84.849661    246.42916 
   26150    105.30462   -891.65733    89199.348   -21811.014    1575.7431   -23386.757    84.923645    233.90671 
   26200    107.56652   -842.00231    89273.167   -21821.355    1609.5895   -23430.944    85.217923    238.93094 
   26250    106.28372   -1166.1641    89245.191   -21837.424    1590.3941   -23427.818    85.529897    236.08153 
   26300    106.77013   -639.41947    89191.996   -21844.168    1597.6726   -23441.841     85.57931    237.16196 
   26350    106.19663   -912.11962    89201.016   -21846.114    1589.0909   -23435.205    85.718915    235.88808 
   26400    107.44813   -790.95409    89184.522   -21833.632     1607.818    -23441.45    85.829545    238.66797 
   26450    107.54682   -1074.7595    89162.572   -21840.189    1609.2948   -23449.484    85.654462    238.88719 
   26500    109.47026   -1009.6396    89144.652   -21817.769    1638.0765   -23455.846    85.802874    243.15961 
   26550     106.8658   -782.83568    89127.818   -21786.084    1599.1042   -23385.189    86.360209    237.37448 
   26600    106.77108   -958.84914    89072.769   -21805.679    1597.6868   -23403.366    86.230721    237.16408 
   26650    106.47069   -569.30359    89021.284   -21819.769    1593.1919   -23412.961    86.562083    236.49684 
   26700    109.05317   -575.38814    89023.658   -21822.181    1631.8353   -23454.017    86.727855    242.23316 
   26750    111.05046   -698.17313     89032.27   -21832.004     1661.722   -23493.726    87.058504     246.6696 
   26800    103.74175   -757.66908    89012.611   -21865.572    1552.3569   -23417.929    87.450615    230.43521 
   26850    108.19635   -875.22077    88982.177   -21815.117    1619.0141   -23434.131    87.487575    240.32995 
   26900    106.64841   -821.37293    88963.186   -21818.084    1595.8512   -23413.935    87.417337     236.8916 
   26950    107.48464   -762.05343    88991.514    -21804.77    1608.3643   -23413.134    87.441698    238.74907 
   27000    106.42357   -660.30498    88990.632   -21819.895    1592.4869   -23412.382    87.595123    236.39219 
   27050    109.56275   -647.09893    89024.939   -21803.155    1639.4604   -23442.615     87.98425    243.36504 
   27100    109.32117   -659.30036    89084.981   -21792.883    1635.8455   -23428.729    88.397458    242.82843 
   27150    106.67755   -935.54215    89154.333   -21840.009    1596.2873   -23436.297      88.7977    236.95633 
   27200    109.19694   -800.79931     89070.77   -21805.575    1633.9866   -23439.562    89.086018     242.5525 
   27250     108.8589   -834.75307    89074.156   -21758.809    1628.9283   -23387.737     89.68672    241.80164 
   27300    108.27062   -702.04099    89052.668   -21745.453    1620.1254   -23365.579    90.044586    240.49491 
   27350    110.35039   -891.34899    88987.162   -21779.393    1651.2464   -23430.639    90.391463    245.11457 
   27400    109.36009   -772.15961    88921.479   -21763.947    1636.4279   -23400.375    90.317618    242.91489 
   27450    108.84873   -810.92791    88891.555   -21783.962    1628.7761   -23412.738    90.177976    241.77904 
   27500    106.98192   -754.91659    88872.234   -21773.068    1600.8418   -23373.909    90.273438    237.63241 
   27550    112.89079   -766.43248    88802.044   -21749.028    1689.2602   -23438.289     90.24229    250.75742 
   27600      107.226   -904.42736     88792.44   -21717.093    1604.4941   -23321.587    90.450199    238.17457 
   27650     109.7316   -772.87989    88803.334   -21735.282     1641.987   -23377.269    90.655118    243.74009 
   27700    109.05095   -1077.5767    88837.705   -21745.575    1631.8021   -23377.377    91.214823    242.22822 
   27750    109.28014   -595.86297    88860.683   -21749.727    1635.2315   -23384.959    91.415862     242.7373 
   27800    107.33325   -979.49716     88872.34   -21788.703    1606.0989   -23394.802    91.770361    238.41279 
   27850     109.0481   -736.92832    88937.583   -21792.907    1631.7594   -23424.666    92.219794    242.22188 
   27900    109.52054    -816.4784    88931.127   -21800.765    1638.8288   -23439.594    92.405199    243.27128 
   27950    107.35765    -688.9301    88953.818   -21805.091    1606.4641   -23411.555    92.611512      238.467 
   28000    108.99882   -863.16603    88969.654   -21783.849     1631.022   -23414.871    92.769895    242.11243 
   28050    108.66106   -832.52655    88968.352    -21820.49    1625.9679   -23446.458    92.808122    241.36218 
   28100    106.39245   -806.36957    89023.741   -21796.383    1592.0211   -23388.404    92.789212    236.32305 
   28150    106.15986   -919.85726    89024.066   -21781.461    1588.5407   -23370.002    93.119393    235.80641 
   28200    108.08103   -705.25884    89074.435   -21781.126    1617.2885   -23398.415     93.39352    240.07379 
   28250    106.52454   -604.82567    89161.512   -21773.884    1593.9977   -23367.882    93.925611    236.61647 
   28300    108.75823   -959.42363    89094.426   -21769.731    1627.4218   -23397.153    94.052673    241.57801 
   28350    108.61082   -751.94593    89126.374   -21755.106    1625.2161   -23380.322     94.04977    241.25058 
   28400    106.85578   -1090.0595     89129.28    -21774.03    1598.9543   -23372.984    94.445215    237.35223 
   28450    110.84275   -806.60006    89161.936   -21777.016    1658.6139   -23435.629    94.538045    246.20823 
   28500    110.68019   -879.44465    89219.254   -21754.843    1656.1815   -23411.025     94.86677    245.84715 
   28550    108.56244   -591.73061    89339.993   -21758.949    1624.4922   -23383.441    94.850107    241.14313 
   28600    108.10181   -858.69816    89374.788   -21770.408    1617.5995   -23388.007    95.058113    240.11995 
   28650    109.05646   -869.43701    89388.296   -21788.351    1631.8845   -23420.236    94.829927    242.24046 
   28700    111.00803   -869.26877    89469.195   -21775.955    1661.0872   -23437.043    94.577146    246.57537 
   28750     107.0918   -752.60783    89513.502    -21809.72     1602.486   -23412.206    94.722448    237.87648 
   28800    107.58219   -820.72106    89460.587    -21808.81    1609.8239   -23418.634    94.432459    238.96574 
   28850    107.90135   -559.25354    89463.758   -21787.621    1614.5998   -23402.221    94.770793    239.67468 
   28900    107.07303   -526.74765    89551.532   -21808.602    1602.2052   -23410.807    95.073695    237.83479 
   28950    105.99293    -542.0991    89616.933    -21785.38    1586.0429   -23371.422    95.304128    235.43563 
   29000    108.98068   -589.09356    89622.256   -21769.288    1630.7506   -23400.038    95.837693    242.07213 
   29050    106.84446   -649.02149    89621.525   -21785.421    1598.7849   -23384.206    96.231296    237.32708 
   29100    106.63726   -871.54873    89598.083   -21782.613    1595.6844   -23378.297    96.447781    236.86684 
   29150    105.90272    -777.6539    89612.019   -21812.795     1584.693   -23397.488    96.699126    235.23525 
   29200    107.52545   -1087.2323    89640.296   -21795.308    1608.9749   -23404.283    96.899508    238.83971 
   29250    108.39115   -827.28382    89592.722   -21801.498     1621.929   -23423.427      97.1957    240.76264 
   29300    107.69357   -895.09527    89556.534   -21804.148    1611.4907   -23415.638    97.308501    239.21316 
   29350    107.43726   -546.99793    89545.186   -21784.657    1607.6553   -23392.312    97.277118    238.64383 
   29400    106.13572   -1040.9735     89514.78   -21795.829    1588.1796   -23384.009    97.375644     235.7528 
   29450    108.90511   -851.47806    89461.881   -21800.806    1629.6198   -23430.426    97.748121    241.90428 
   29500    105.24689   -692.51168     89472.11    -21826.76    1574.8793   -23401.639    97.549844    233.77849 
   29550    103.04725   -950.71975    89456.927   -21812.087    1541.9647   -23354.052    98.013496    228.89257 
   29600    106.24603   -1360.2471    89430.463    -21814.94    1589.8302   -23404.771     97.86554    235.99783 
   29650    107.43209   -1162.6856     89268.27   -21817.975     1607.578   -23425.553    98.038703    238.63234 
   29700    103.96249   -1189.3548    89158.103   -21823.004      1555.66   -23378.664    97.955054    230.92552 
   29750    108.38025   -918.92793    89091.788   -21804.247    1621.7659   -23426.012    97.969594    240.73843 
   29800    109.08374   -888.32139    89066.989   -21783.669    1632.2927   -23415.961    97.919819    242.30104 
   29850    109.23243   -575.51524    89083.324   -21788.316    1634.5177   -23422.834     97.74783    242.63133 
   29900    105.93854   -855.29181    89070.099   -21804.243    1585.2289   -23389.472    97.990165     235.3148 
   29950     107.5908   -893.68706    89030.661    -21814.49    1609.9528   -23424.443    98.261736    238.98487 
   30000    107.72618   -658.37889    89051.482   -21844.331    1611.9786    -23456.31    98.417468    239.28558 
   30050    106.38979   -1130.4576    89083.476   -21856.987    1591.9814   -23448.968    98.387292    236.31715 
   30100    107.60411   -954.63087    89078.224    -21844.88     1610.152   -23455.032    98.739117    239.01443 
   30150     105.6047   -673.65099    89093.175   -21838.099    1580.2336   -23418.333    99.044427    234.57328 
   30200     106.6283   -637.42291    89107.609   -21831.352    1595.5504   -23426.902    99.219285    236.84694 
   30250    107.60813   -989.05881    89214.417   -21821.408    1610.2122    -23431.62    99.473849    239.02338 
   30300    107.69376   -706.96531    89211.295   -21792.883    1611.4935   -23404.377    99.571073    239.21357 
   30350     108.2569   -568.35386    89216.339   -21776.125    1619.9202   -23396.046    99.847636    240.46445 
   30400    107.55643   -957.98893    89223.366    -21805.14    1609.4385   -23414.579    99.900125    238.90852 
   30450    109.90168   -896.40542    89253.027   -21824.269    1644.5321   -23468.801    100.15545     244.1179 
   30500    105.62538   -850.76251    89297.345   -21835.603    1580.5429   -23416.146    100.16094     234.6192 
   30550    108.43715   -756.35018    89312.068   -21800.994    1622.6174   -23423.612    100.35464    240.86482 
   30600    106.52017   -751.95978    89243.386    -21800.89    1593.9323   -23394.822    100.50363    236.60674 
   30650     108.8228   -865.87405    89236.546   -21750.824     1628.388   -23379.212     100.4699    241.72144 
   30700    104.25716   -957.96521      89284.7   -21797.306    1560.0694   -23357.375    100.48527    231.58007 
   30750    107.46092   -678.26648     89306.39   -21809.519    1608.0094   -23417.529     100.7474    238.69638 
   30800    107.32238   -803.37809    89297.865   -21794.865    1605.9362   -23400.801    101.10537    238.38864 
   30850    108.16375    -881.0002     89290.84   -21768.796    1618.5263   -23387.322    101.24432    240.25754 
   30900    108.14615   -1024.7541     89237.68   -21762.035    1618.2629   -23380.298    101.45586    240.21843 
   30950    104.33032   -642.60451    89228.392   -21786.832     1561.164   -23347.996      101.479    231.74256 
   31000    106.94087   -892.52336    89237.485   -21776.735    1600.2275   -23376.962    101.62514    237.54122 
   31050    105.73866   -1253.9402    89204.739   -21793.204     1582.238   -23375.442    101.63403    234.87082 
   31100    109.43485   -983.40983    89140.537    -21778.27    1637.5467   -23415.817    101.70334    243.08096 
   31150    109.76883    -715.9741    89122.625   -21756.406    1642.5442    -23398.95    101.88938    243.82281 
   31200    107.22235   -575.74383    89137.471   -21759.206    1604.4395   -23363.645    101.71726    238.16646 
   31250    107.29832   -704.73533    89180.457     -21755.9    1605.5763   -23361.476    101.79676     238.3352 
   31300    110.07819   -795.63353    89215.697   -21749.103    1647.1733   -23396.276    101.92871    244.50995 
   31350    109.98414   -736.02919    89242.951    -21752.23    1645.7659   -23397.996     102.0836    244.30105 
   31400    109.70778   -742.83778    89236.321   -21783.088    1641.6306   -23424.718    102.12177    243.68719 
   31450     106.9699   -1117.8021    89163.165    -21801.11    1600.6619   -23401.772    102.05209     237.6057 
   31500    106.97816   -638.65032    89079.327   -21796.203    1600.7855   -23396.988    101.97265    237.62405 
   31550    109.62399   -645.07367    89076.072   -21780.209    1640.3768   -23420.586    102.06734    243.50107 
   31600    106.05947   -758.73508    89044.322    -21781.32    1587.0385   -23368.358      102.425    235.58342 
   31650    108.96397   -616.79843    89013.919   -21807.548    1630.5005   -23438.049    102.51699    242.03502 
   31700    106.33269   -748.07814    89046.577   -21795.448    1591.1269   -23386.575    102.88831     236.1903 
   31750    111.27322   -696.79855    89046.648   -21766.781    1665.0553   -23431.836    102.88551    247.16441 
   31800    106.44509    -863.0577    89035.416   -21780.903    1592.8089   -23373.712    103.17729    236.43998 
   31850    108.62349   -645.19979    89072.606   -21742.386    1625.4057   -23367.792    103.25642    241.27873 
   31900    108.60377   -933.11645    89030.069   -21746.252    1625.1106   -23371.363    103.19682    241.23493 
   31950    110.47967   -872.18761    89041.539   -21740.579    1653.1809   -23393.759    103.38437    245.40174 
   32000    108.69101   -919.54169    89085.977   -21727.255    1626.4161   -23353.671     103.8906    241.42871 
   32050    110.77415   -757.96619    89040.485   -21695.455    1657.5874   -23353.042    104.28535    246.05585 
   32100    110.60983   -802.35942    89101.756   -21702.543    1655.1286   -23357.672    104.17226    245.69087 
   32150    109.88488   -921.99201    89123.979   -21691.358    1644.2807   -23335.638    104.26936    244.08057 
   32200    109.73795   -827.33691    89125.864   -21689.807    1642.0821   -23331.889    104.45012    243.75421 
   32250    109.52332   -1082.7443    89129.938   -21691.178    1638.8705   -23330.048    104.90699    243.27747 
   32300    110.90967   -866.04503    89109.885   -21705.798    1659.6153   -23365.414    104.98115    246.35688 
   32350    108.92451   -900.83793    89114.874    -21749.93      1629.91    -23379.84    105.26657    241.94736 
   32400     107.9186   -904.59611    89044.365   -21744.806     1614.858   -23359.664    105.23735      239.713 
   32450    108.82892   -927.77434    89041.252   -21726.951    1628.4796   -23355.431    105.38054    241.73503 
   32500    110.29441   -889.19961    89034.451   -21708.697    1650.4087   -23359.106    105.36793    244.99024 
   32550    107.15745   -999.15104    88980.021   -21742.745    1603.4684   -23346.213    105.61703     238.0223 
   32600    109.81709   -779.36516     88933.62   -21785.469    1643.2663   -23428.735    105.88033    243.92999 
   32650    106.03426    -831.7873    88880.458   -21804.535    1586.6613   -23391.197    105.82349    235.52743 
   32700    107.32961   -947.96044    88874.225   -21779.793    1606.0445   -23385.838    106.07827    238.40471 
   32750    106.46369   -796.96835    88873.885   -21752.093    1593.0872    -23345.18    106.27058     236.4813 
   32800     109.1956   -826.15641    88871.639   -21728.638    1633.9665   -23362.604    106.68653    242.54951 
   32850    108.05258   -948.22754    88867.011   -21745.838    1616.8628     -23362.7    106.73671     240.0106 
   32900    106.94857   -666.75524    88871.832   -21760.802    1600.3427   -23361.145    107.13547    237.55833 
   32950    107.21656   -876.60636    88855.116    -21752.23    1604.3529   -23356.583     107.2762     238.1536 
   33000    107.02682   -287.33755    88882.227   -21774.275    1601.5137   -23375.789    107.61136    237.73215 
   33050    107.18978    -506.9976    88918.477   -21773.421    1603.9521   -23377.373     107.6581    238.09411 
   33100     109.5973   -1003.9325     88970.02   -21761.417    1639.9774   -23401.394    107.76736    243.44178 
   33150    110.20625   -793.87971    88916.149   -21752.473    1649.0896   -23401.563    107.74263    244.79442 
   33200    109.34783   -513.68483    88945.973   -21750.409    1636.2444   -23386.654    107.89285    242.88765 
   33250    107.23685   -321.84046    89001.509   -21734.804    1604.6565    -23339.46    108.14675    238.19867 
   33300    108.88556   -507.08001    89094.297   -21760.845    1629.3272   -23390.172     108.6522    241.86085 
   33350     108.5153   -366.70751    89178.301   -21779.735    1623.7868   -23403.522    109.18038    241.03842 
   33400     108.5221   -712.93825    89228.083   -21783.946    1623.8885   -23407.835    109.57905    241.05352 
   33450    104.42313   -669.77764    89269.537    -21825.97    1562.5529   -23388.522    109.92035    231.94873 
   33500    106.56229   -826.67196    89245.568   -21800.447    1594.5626    -23395.01    110.31575    236.70031 
   33550    106.51231   -764.54455     89284.84   -21817.306    1593.8147   -23411.121    110.39508     236.5893 
   33600    108.81482   -860.15049    89311.245   -21764.657    1628.2687   -23392.926    111.07636    241.70372 
   33650    106.40951   -709.30218    89297.625   -21788.228    1592.2763   -23380.504     111.0977    236.36094 
   33700    106.48134   -732.97446    89287.205   -21754.104    1593.3512   -23347.456     111.5343    236.52049 
   33750      108.753   -988.05638    89311.206   -21754.441    1627.3436   -23381.785    111.57544    241.56639 
   33800    105.17127   -1244.2921    89263.931   -21776.147    1573.7478   -23349.895    111.78292    233.61052 
   33850    105.65125   -1010.3087    89229.196    -21788.25    1580.9301    -23369.18    111.73791    234.67668 
   33900    107.02017   -709.58241    89252.394   -21811.749    1601.4141   -23413.163    111.78548    237.71736 
   33950      107.495   -508.85176    89305.711   -21812.357    1608.5194   -23420.877     111.8838    238.77208 
[...]
   92000    110.80218   -633.46594    89696.355   -21824.976    1658.0068   -23482.983     269.1421    246.11811 
   92050     105.9638   -914.59278    89617.665   -21859.485     1585.607   -23445.092     269.4484    235.37093 
   92100    107.35363   -790.74092    89510.757   -21861.744    1606.4039   -23468.148    269.39461    238.45806 
   92150    107.69924    -683.9938     89504.85   -21861.021    1611.5755   -23472.597    268.74859    239.22574 
   92200    109.23437   -707.29211    89468.955   -21839.186    1634.5467   -23473.733    268.88714    242.63564 
   92250    105.98291   -840.58599    89547.008    -21840.29     1585.893   -23426.183    269.02631    235.41337 
   92300    104.22313   -726.05565    89475.769   -21845.218    1559.5602   -23404.778    269.56407    231.50448 
   92350    105.31379   -826.22534     89435.06   -21834.055    1575.8805   -23409.935    269.73756     233.9271 
   92400    105.96062     -1045.08    89417.859   -21859.358    1585.5594   -23444.917    270.19506    235.36386 
   92450    104.95001   -801.94842    89363.013   -21892.073    1570.4369    -23462.51    270.25969    233.11905 
   92500    107.47744   -840.04568    89358.966   -21881.402    1608.2565   -23489.659    270.81608    238.73307 
   92550    107.08276   -762.35679    89340.568   -21821.198    1602.3507   -23423.548    271.16506    237.85639 
   92600    107.47988   -656.86095    89394.854    -21842.95    1608.2931   -23451.243    271.42788     238.7385 
   92650    107.88775   -753.72914    89418.807   -21826.482    1614.3963   -23440.878    271.53825    239.64448 
   92700     107.5761   -775.22342    89367.151   -21840.337    1609.7329    -23450.07    271.08487    238.95223 
   92750    106.45042   -821.55094    89358.366   -21847.594    1592.8886   -23440.483    271.19015    236.45183 
   92800    107.11054   -778.00832    89403.389   -21837.198    1602.7664   -23439.965    271.96813     237.9181 
   92850     113.1806   -1000.9202    89397.599   -21834.714    1693.5967   -23528.311    272.35193    251.40115 
   92900    106.54474   -626.42229     89404.32   -21858.296       1594.3   -23452.596     272.4254    236.66133 
   92950    107.77176   -702.41126    89463.507   -21857.442    1612.6606   -23470.102    272.90012    239.38683 
   93000    109.65588    -662.5122    89511.615   -21820.703     1640.854   -23461.557     273.2201    243.57191 
   93050    106.94753   -695.92361    89508.711   -21876.869    1600.3271   -23477.197    273.08385    237.55601 
   93100     106.6151   -634.33807     89548.26   -21872.081    1595.3528   -23467.434    272.54518    236.81761 
   93150    104.79579   -472.01501    89534.472   -21897.972    1568.1293   -23466.101    272.87586    232.77649 
   93200    108.54082   -1034.2847    89540.961   -21814.434    1624.1686   -23438.603    272.91298    241.09509 
   93250    105.93669   -870.77357    89516.738    -21804.88    1585.2012   -23390.081    272.31673    235.31069 
   93300    107.59565   -859.96477    89492.739   -21799.916    1610.0254   -23409.941     272.7839    238.99565 
   93350    111.93292     -1168.62    89423.605   -21777.295    1674.9269   -23452.222     273.1254    248.62976 
   93400    112.93569   -882.49954    89463.888   -21744.271     1689.932   -23434.203    273.02118    250.85715 
   93450    108.40412    -728.8045    89440.363   -21756.487    1622.1231    -23378.61    273.24743    240.79146 
   93500    109.74661   -623.41896    89416.538   -21756.106    1642.2117   -23398.317    273.43798    243.77345 
   93550    110.05498   -919.42715    89419.584   -21792.575     1646.826   -23439.401    274.04074     244.4584 
   93600    108.59394   -558.82088    89468.241   -21795.074    1624.9634   -23420.037    274.32743    241.21308 
   93650     106.7541   -858.16555    89475.187   -21800.276    1597.4327   -23397.708    274.13763    237.12636 
   93700    110.25368   -1005.4894    89486.933   -21807.215    1649.7992   -23457.014    274.21953    244.89976 
   93750    109.52441   -736.50981    89469.077   -21859.657    1638.8868   -23498.544    274.43376    243.27989 
   93800    111.27412   -652.44585    89520.425   -21839.804    1665.0688   -23504.873    274.36345    247.16641 
   93850    110.01571   -966.17421    89551.491   -21834.054    1646.2384   -23480.293     275.3073    244.37118 
   93900     107.8435   -627.15657    89645.211   -21851.339    1613.7341   -23465.073    275.29669    239.54617 
   93950     105.2408   -789.92475    89670.811   -21860.368    1574.7883   -23435.157    275.30316    233.76497 
   94000    108.48675   -1058.0037    89709.787   -21838.821    1623.3596    -23462.18    275.67591      240.975 
   94050    107.27041   -895.27757    89645.325   -21836.398    1605.1586   -23441.557    276.03565     238.2732 
   94100    108.75804   -767.54014      89649.7   -21831.599    1627.4191   -23459.018    276.35267     241.5776 
   94150    106.41316   -653.82279    89722.326    -21817.83     1592.331   -23410.161     276.5523    236.36906 
   94200    110.64611   -893.78584    89852.085   -21798.549    1655.6715    -23454.22      276.168    245.77145 
   94250    107.48948   -1015.4495    89906.586   -21780.085    1608.4367   -23388.522    276.57861    238.75982 
   94300    111.57108   -650.51886    89911.463   -21788.224    1669.5124   -23457.736    276.65129    247.82602 
   94350    107.17945   -880.04093     89874.44   -21795.501    1603.7975   -23399.298     276.6864    238.07116 
   94400    107.70869   -753.72738    89859.369   -21812.334    1611.7169   -23424.051    276.74363    239.24674 
   94450    108.25132    -934.0786    89819.786   -21804.138    1619.8367   -23423.975    276.59236    240.45205 
   94500    107.78266   -1294.0978    89746.195   -21819.748    1612.8238   -23432.572    277.05227    239.41104 
   94550    109.00079   -1054.7622    89654.188   -21814.087    1631.0514   -23445.139    277.13984    242.11679 
   94600    108.78254   -905.46904    89610.644    -21791.66    1627.7856   -23419.446    277.07296    241.63201 
   94650    106.37388   -1011.6988    89598.749   -21825.425    1591.7432   -23417.169    277.28606     236.2818 
   94700    107.45577   -1044.3442    89529.846   -21800.748    1607.9323    -23408.68    277.35907    238.68494 
   94750    108.06316   -1312.8688    89422.704   -21799.948    1617.0211    -23416.97    277.78951    240.03409 
   94800    110.04717   -1066.2633    89323.349   -21786.668    1646.7092   -23433.377    277.50689    244.44106 
   94850    109.03188     -958.312    89276.562   -21795.293    1631.5167    -23426.81    277.50979    242.18586 
   94900     111.7069   -643.98176    89296.941   -21744.016    1671.5449   -23415.561    277.75151    248.12773 
   94950    110.25783   -725.49481    89282.795   -21769.016    1649.8614   -23418.877    277.59186    244.90898 
   95000    107.69931    -820.8259     89312.57   -21802.413    1611.5766   -23413.989    277.59362     239.2259 
   95050    108.19425   -631.03414    89300.857   -21848.879    1618.9827   -23467.862    277.60104    240.32528 
   95100    107.10396   -923.77887    89274.774   -21837.455    1602.6679   -23440.123    277.91646    237.90348 
   95150     106.0649   -948.05179    89216.958   -21842.288    1587.1198   -23429.408    278.01591    235.59549 
   95200    106.96443    -969.0058     89166.62   -21817.963    1600.5801   -23418.543    277.74576    237.59357 
   95250    108.20103   -783.56508     89185.85   -21816.764    1619.0842   -23435.848    278.12591    240.34035 
   95300    104.56093   -903.64826    89242.264   -21837.936    1564.6149   -23402.551    278.38331     232.2548 
   95350    110.11636   -1003.2966    89226.696   -21806.973    1647.7445   -23454.717    278.16182    244.59475 
   95400    108.49508   -597.58306    89239.665   -21845.024    1623.4842   -23468.508    278.29423     240.9935 
   95450    106.33204   -712.17633    89249.489   -21840.826    1591.1171   -23431.943     278.4426    236.18886 
   95500    108.27092   -974.15819    89312.253   -21821.311      1620.13   -23441.441     278.5514    240.49559 
   95550    108.32023   -921.67999     89329.63   -21858.854    1620.8678   -23479.722    278.91479    240.60512 
   95600    111.68051   -479.99207    89361.051   -21845.171    1671.1498   -23516.321    279.05052    248.06909 
   95650    105.35699   -542.06183     89390.61   -21847.557    1576.5269   -23424.084     279.2733    234.02305 
   95700    107.05911   -837.40664    89441.791   -21865.126    1601.9968   -23467.123    279.03171    237.80386 
   95750    106.96565    -689.6842    89410.167    -21871.35    1600.5984   -23471.948    278.83529    237.59627 
   95800    106.87639   -984.43303    89322.815   -21868.315    1599.2627   -23467.578    278.90133      237.398 
   95850    107.27926   -1066.1417    89274.975    -21855.87    1605.2911   -23461.161    278.83673    238.29287 
   95900    106.68017   -933.62994    89277.212   -21854.406    1596.3265   -23450.733    278.99279    236.96216 
   95950    106.96664   -939.26604    89267.087   -21867.681    1600.6131   -23468.294    279.55478    237.59846 
   96000    109.33049   -834.20363    89320.143   -21840.242     1635.985   -23476.227    279.91587    242.84914 
   96050    104.13861    -885.4329    89348.788   -21894.931    1558.2955   -23453.227    279.81426    231.31674 
   96100    110.35075   -743.52625    89312.782   -21878.753    1651.2519   -23530.005     280.2262    245.11539 
   96150    107.82016    -727.4938    89381.521   -21887.815     1613.385     -23501.2    280.15901    239.49434 
   96200    104.94394   -539.88428    89422.887   -21897.079    1570.3461   -23467.426    280.79478    233.10556 
   96250    109.87382   -677.46236    89442.059   -21837.715    1644.1152   -23481.831    281.41733    244.05601 
   96300    109.23598   -695.26288    89481.396   -21834.118    1634.5707   -23468.689    281.22875    242.63921 
   96350     108.8648   -872.26872    89533.362    -21856.25    1629.0165   -23485.266    281.77388    241.81473 
   96400    109.28076    -867.0666    89437.246   -21881.898    1635.2409   -23517.139    281.92596    242.73869 
   96450    109.49344   -803.39818    89371.462   -21847.348    1638.4233   -23485.771    281.65695    243.21109 
   96500    109.55242   -952.92696    89402.747   -21855.648    1639.3058   -23494.954    282.11877     243.3421 
   96550    105.57272   -697.71637    89398.277   -21887.874     1579.755   -23467.629    282.66201    234.50225 
   96600    106.76397    -833.2724    89369.781   -21895.753    1597.5804   -23493.333    282.50523    237.14828 
   96650     105.5822   -370.61281    89418.252   -21868.563    1579.8968    -23448.46    282.49429    234.52329 
   96700     110.4343   -596.09994    89481.586   -21863.656    1652.5021   -23516.158    282.96274    245.30098 
   96750    109.80644   -551.25066    89445.397   -21872.439     1643.107   -23515.546     283.0574    243.90634 
   96800    105.62569   -811.27281    89492.066   -21911.805    1580.5476   -23492.353    282.50193     234.6199 
   96850    108.09084   -887.38106    89431.148   -21900.669    1617.4353   -23518.104    282.76532    240.09558 
   96900    106.54576   -460.99967    89411.473   -21940.014    1594.3152   -23534.329    282.63099    236.66359 
   96950    110.17417   -733.92504    89432.098   -21908.996    1648.6096   -23557.605    283.27503    244.72316 
   97000    105.28893   -880.49031    89451.772   -21918.415    1575.5085   -23493.923    283.14069    233.87188 
   97050      107.214   -596.67905    89475.714   -21913.202    1604.3146   -23517.517     283.4452    238.14792 
   97100    106.36748   -550.04628    89516.837   -21892.603    1591.6475   -23484.251    283.52434    236.26759 
   97150      109.644   -880.14238     89561.47   -21880.568    1640.6762   -23521.245    283.78515    243.54552 
   97200    108.14241   -976.35797    89534.689   -21851.958    1618.2069   -23470.165    283.96878    240.21013 
   97250    109.29132    -809.0416    89478.934   -21851.832    1635.3988    -23487.23    284.11501    242.76213 
   97300    110.09466   -569.83843    89568.544   -21823.844    1647.4197   -23471.264     284.5101    244.54654 
   97350    111.40045   -817.87653    89567.983   -21827.311    1666.9592    -23494.27    284.61629    247.44702 
   97400    110.90726   -604.12012    89614.855   -21842.139    1659.5793   -23501.718    285.10065    246.35153 
   97450    108.24851   -1102.9634    89630.718   -21857.138    1619.7946   -23476.933    284.87368     240.4458 
   97500    108.51907   -948.82739    89662.293   -21886.036    1623.8431   -23509.879     284.5502    241.04678 
   97550    108.77137   -824.24432    89650.885   -21869.185    1627.6185   -23496.803     284.6372     241.6072 
   97600    106.96259   -826.43821    89594.322   -21910.292    1600.5526   -23510.845    284.57935    237.58948 
   97650    107.37317   -611.17148    89578.366   -21915.502    1606.6964   -23522.198    283.93516    238.50147 
   97700    109.12953   -642.16054    89553.171    -21943.33    1632.9779   -23576.308    284.68367    242.40276 
   97750    108.13825   -716.02315    89566.503   -21933.127    1618.1446   -23551.272    284.85855    240.20088 
   97800    109.90966   -812.17744    89585.667   -21967.264    1644.6515   -23611.916    285.01197    244.13562 
   97850    107.82898   -784.17561    89520.257   -21940.539    1613.5169   -23554.056    285.08311    239.51393 
   97900    106.68683    -574.2432    89518.829   -21924.764    1596.4262    -23521.19    284.83192    236.97694 
   97950    106.59615   -905.17591     89461.93    -21902.53    1595.0692   -23497.599    285.24381    236.77552 
   98000    108.31464   -567.76762    89425.909   -21878.564    1620.7842   -23499.348    285.02276     240.5927 
   98050    108.93863   -682.14646    89438.912   -21906.348    1630.1213   -23536.469    284.75615    241.97872 
   98100    107.60022   -775.89717    89488.843    -21870.22    1610.0939   -23480.314     284.8855    239.00581 
   98150    106.32714   -1021.0059    89508.261   -21943.672    1591.0439   -23534.716    285.00567    236.17799 
   98200    106.95331   -830.22789    89408.424   -21943.307    1600.4136    -23543.72     285.6277    237.56885 
   98250    106.82442   -726.31314    89442.205   -21927.534     1598.485   -23526.019    286.07312    237.28256 
   98300    106.31394   -795.59871    89440.102   -21897.565    1590.8464   -23488.411    286.37148    236.14867 
   98350    109.63257   -577.19348    89471.183   -21883.031    1640.5052   -23523.536    286.23039    243.52013 
   98400    107.83883   -767.83831    89436.021   -21903.993    1613.6643   -23517.658    286.44618    239.53581 
   98450    108.12286   -683.73925    89458.325   -21955.404    1617.9144   -23573.319    287.08233    240.16671 
   98500     108.7469   -900.90171    89476.521   -21940.859    1627.2523   -23568.111    287.12324    241.55284 
   98550    110.63322   -494.27365    89538.776    -21920.45    1655.4786   -23575.928     287.2388    245.74282 
   98600    106.85456   -778.03452    89644.807   -21911.584     1598.936    -23510.52    287.94083    237.34951 
   98650    109.47904   -580.15667    89636.623   -21872.233    1638.2078   -23510.441    288.07034     243.1791 
   98700    108.43096   -932.06667     89656.64   -21895.672    1622.5247   -23518.197    288.13448    240.85106 
   98750    111.24528   -1078.7236    89630.061   -21894.365    1664.6373   -23559.003    288.01778    247.10235 
   98800    109.57262   -831.88848    89622.714   -21911.165    1639.6081   -23550.773    287.76419    243.38697 
   98850    110.68421   -903.60036    89594.857   -21875.752    1656.2416   -23531.993    287.84937    245.85607 
   98900    108.25216   -997.16284    89572.057   -21901.499    1619.8493   -23521.348    288.26863    240.45392 
   98950    106.03443   -775.63469    89543.754   -21979.722    1586.6639   -23566.386    287.87786    235.52781 
   99000    108.41706   -816.68742    89490.711   -21925.085    1622.3167   -23547.401     288.1278    240.82019 
   99050    108.86331   -851.16016     89476.92   -21934.477    1628.9942   -23563.472    288.45141    241.81142 
   99100    106.70473   -658.88594    89498.685   -21909.163     1596.694   -23505.857     288.7833     237.0167 
   99150    110.51605   -540.55248    89493.203    -21900.25    1653.7253   -23553.975     289.0486    245.48256 
   99200    109.84852   -741.67152     89496.14   -21905.559    1643.7366   -23549.296    289.21695    243.99981 
   99250    107.07356   -544.34282     89563.35   -21925.892    1602.2131   -23528.105    289.39965    237.83597 
   99300    108.96593   -989.33154    89617.157   -21941.554    1630.5299   -23572.084     289.0273    242.03938 
   99350    106.87954   -881.96408    89532.297   -21924.842    1599.3098   -23524.152    289.69009      237.405 
   99400    107.99693   -766.52231    89564.505   -21909.146    1616.0301   -23525.176    289.39046      239.887 
   99450    108.69023   -600.64257    89528.121   -21888.841    1626.4044   -23515.245    289.83809    241.42698 
   99500    110.73724   -862.00567    89490.065   -21924.598    1657.0351   -23581.633    290.30921    245.97386 
   99550    106.38805   -699.30291    89533.986   -21932.262    1591.9553   -23524.217    290.67507    236.31328 
   99600      108.256   -932.89787    89588.412   -21916.986    1619.9067   -23536.893    290.48898    240.46245 
   99650    108.04378   -890.28415    89616.778   -21923.969    1616.7311     -23540.7     290.9158    239.99106 
   99700    104.91443   -1114.2139    89546.526   -21927.735    1569.9045    -23497.64    291.18655    233.04001 
   99750    107.64322   -655.70649    89526.554   -21910.259    1610.7372   -23520.996    290.96501     239.1013 
   99800    108.79121    -916.8243    89510.747   -21945.894    1627.9154   -23573.809    290.94434    241.65127 
   99850    108.62349   -948.09883    89479.138   -21948.522    1625.4057   -23573.928    291.17015    241.27873 
   99900     106.8681   -670.57102    89431.093   -21947.132    1599.1386    -23546.27    291.33361    237.37959 
   99950     106.6525   -954.62961    89498.268   -21921.727    1595.9124   -23517.639    291.62182    236.90068 
  100000    108.53956   -924.10851     89530.06   -21893.178    1624.1498   -23517.328    291.10352    241.09231 
Loop time of 43.4061 on 80 procs for 100000 steps with 5021 atoms

Performance: 995.252 ns/day, 0.024 hours/ns, 2303.824 timesteps/s
100.0% CPU use with 80 MPI tasks x no OpenMP threads

MPI task timing breakdown:
Section |  min time  |  avg time  |  max time  |%varavg| %total
---------------------------------------------------------------
Pair    | 6.1447     | 18.113     | 25.572     | 173.8 | 41.73
Neigh   | 0.46938    | 1.2099     | 3.2109     |  94.1 |  2.79
Comm    | 10.394     | 17.363     | 29.126     | 170.2 | 40.00
Output  | 0.12037    | 0.12392    | 0.25677    |   4.3 |  0.29
Modify  | 3.815      | 5.7432     | 7.2459     |  39.4 | 13.23
Other   |            | 0.853      |            |       |  1.97

Nlocal:    62.7625 ave 144 max 30 min
Histogram: 57 3 0 0 0 0 0 0 5 15
Nghost:    672.375 ave 832 max 388 min
Histogram: 20 0 0 0 0 0 0 36 4 20
Neighs:    0 ave 0 max 0 min
Histogram: 80 0 0 0 0 0 0 0 0 0
FullNghs:  5937.8 ave 18766 max 1153 min
Histogram: 60 0 0 0 0 0 0 0 0 20

Total # of neighbors = 475024
Ave neighs/atom = 94.6074
Neighbor list builds = 5756
Dangerous builds = 0

write_data		${DIR}/data.eq-${NAME}-${TEMP}
write_data		run_6/data.eq-${NAME}-${TEMP}
write_data		run_6/data.eq-het_freeze_6-${TEMP}
write_data		run_6/data.eq-het_freeze_6-240
undump          1

reset_timestep  0

unfix           2
unfix           3
unfix           4


################################################
#######         Run Simulation         #########
################################################

log				${DIR}/log.run_${NAME}
log				run_6/log.run_${NAME}
log				run_6/log.run_het_freeze_6
