LAMMPS data file via write_data, version 16 Mar 2018, timestep = 8000000

6472 atoms
2 atom types

0.0000000000000000e+00 4.9219999999999999e+01 xlo xhi
0.0000000000000000e+00 4.9019635930410494e+01 ylo yhi
1.3044929187699097e+00 5.8757507081216339e+01 zlo zhi

Masses

1 18.015
2 12.01

Atoms # atomic

5260 1 2.5516638985930356e+00 1.8629118488106911e+00 4.4697051270533521e+00 0 -2 1
123 1 2.7722075237093993e+00 9.1982574140703477e+00 2.0723357331410401e+00 2 1 1
101 1 9.8395074338404029e+00 1.0737648006061395e+01 1.1994278778255133e+01 1 -2 1
3687 1 4.9216121036478429e+00 6.8451060042553358e-01 5.0852316105129773e+00 0 4 0
5451 1 7.1867701530347006e+00 1.9632012868477493e+00 4.2257639439442967e+00 5 -2 0
1547 1 6.9576130554995741e+00 4.5215969406380925e+00 5.4339303119778553e+00 2 -3 1
1588 1 7.1094996186669634e+00 9.4473041101383810e+00 1.9288244877683915e+00 -2 1 1
3451 1 1.1662113757231797e+01 1.9876275125606337e+00 3.9798286621520576e+00 0 0 0
1323 1 9.3028725402311263e+00 5.8749798471484338e-01 5.2303189137836865e+00 3 3 1
492 1 7.6106382515626274e+00 1.1993199064228252e+01 8.7105019349886703e+00 2 5 1
323 1 2.5535526539449580e+00 4.0997410024659757e+00 5.9179359206406206e+00 -2 0 1
1980 1 1.6981561346001572e-01 7.9797268902496752e+00 5.5253944356126690e+00 -2 -2 0
2946 1 1.2160662211800952e+01 1.1904654615613051e+01 5.5489881513854122e+00 -2 -2 1
251 1 2.4073281814083529e+00 1.8382660520187899e+00 1.7986935428656770e+00 -3 -2 0
1351 1 4.6944696986105745e+00 5.7238854928711405e+00 4.6924634406360237e+00 -1 -1 1
3157 1 4.9112966354942236e+00 8.1957112145402107e+00 5.6324983734283220e+00 -2 3 1
3204 1 5.0958479826509686e+00 2.9426244365651832e-01 7.9437215958928666e+00 1 -2 0
3783 1 1.1501979264874334e+01 4.6634682304876858e+00 4.8315837240488051e+00 0 -3 1
2936 1 9.1359323173421707e+00 5.7976392243422499e+00 4.4595552654209545e+00 -2 0 1
5104 1 9.4124327385529334e+00 8.3021611891069362e+00 5.5732599885307810e+00 -1 1 0
2063 1 9.2474564363276883e+00 5.5430021959079898e+00 1.8186999849836603e+00 -4 0 0
6409 1 2.3283061172358170e+00 9.3886020386196289e+00 5.0153297026882049e+00 -1 1 1
1303 1 7.2445540781767870e-01 1.0637673337363415e+01 1.1998719844782022e+01 2 0 1
4991 1 6.7795032794074250e-01 3.0363200574144722e+00 9.2755944839616902e+00 2 2 1
4798 1 7.4697247764585333e+00 1.2021597596897822e+01 5.8286758062084605e+00 2 -1 0
208 1 7.0301216329771101e+00 9.4402961832172778e+00 4.7155811409167097e+00 0 0 0
3547 1 9.3143713961255958e+00 8.2124996118738469e-01 8.0114254042686674e+00 3 3 0
2866 1 7.0187573090888558e+00 1.5014516812436691e+00 1.5512335602711183e+00 1 2 1
3036 1 5.0116104905325110e-01 5.5023127003330368e+00 1.3042161610680798e+01 -1 6 1
4696 1 1.1744661703495639e+01 9.4876120025270936e+00 4.6727778077886670e+00 0 0 1
1863 1 1.1759659705996528e+01 9.2090972436265659e+00 1.8922049695145571e+00 3 4 0
2855 1 2.8447290735629664e+00 4.4365970192177508e+00 8.5437377112353339e+00 -1 -1 1
1297 1 7.6389936088437835e+00 9.5363196585190551e+00 1.2905132415608005e+01 -2 -4 1
154 1 1.1957301001308618e+01 9.2416898971236119e+00 1.2892772602021473e+01 3 0 0
3315 1 4.9788958193444719e+00 2.9455124988958952e+00 9.2273686354720326e+00 2 4 1
4776 1 9.4539429869836518e+00 5.4678268524597664e+00 1.5359395200202920e+01 1 0 1
1940 1 9.4798571869699852e+00 3.2647449059044207e+00 9.1913788739557116e+00 -1 -5 0
5072 1 2.3970644523804165e+00 6.9061206868383298e+00 9.2060163542456088e+00 -1 4 0
1333 1 2.8645715024812057e+00 1.2082445396197279e+01 5.5343945382239577e+00 0 0 1
355 1 7.2011394237872652e+00 4.2300721892084194e+00 8.1987345181285534e+00 -3 4 0
315 1 6.9944251516019547e+00 6.7900236125297964e+00 9.3201933010033180e+00 -4 -2 0
1623 1 4.8424245927610254e+00 8.2183772762155041e+00 8.3489857522434541e+00 -3 -4 1
4775 1 1.1918042683210016e+01 6.8922403425717871e+00 9.1538224796814518e+00 0 -1 1
2137 1 1.1707911735404492e+01 4.3079961973570633e+00 7.6282454391489924e+00 2 1 0
334 1 9.4076546858461629e+00 8.1138371819741817e+00 8.4077136892454263e+00 -1 1 0
2029 1 2.8230644862985601e+00 1.1715712989712646e+01 8.3339272984923394e+00 -3 2 0
6248 1 5.9671730674843304e-01 1.0847816544418610e+01 9.2093476901584150e+00 1 -4 1
3747 1 5.2067662315352274e+00 1.0550128181323680e+01 9.4330273923682935e+00 -1 3 0
5417 1 2.1137810571463023e-01 8.2939112403596003e+00 8.2157365708401944e+00 4 0 1
4586 1 7.5094813311149498e+00 9.1568226978565370e+00 1.5508745256744731e+01 -2 -2 1
1691 1 1.0071141663480079e+01 1.0690430830095494e+01 9.1307804234254366e+00 2 2 1
5237 1 2.4912320344212753e+00 1.7503468180098507e+00 1.2880065850385693e+01 1 0 0
5455 1 5.2919139603569256e+00 1.0530195674952923e+01 1.2107850588134502e+01 -1 -4 1
1671 1 2.9634844278179977e+00 9.4721465971530261e+00 1.2985199690097877e+01 0 0 1
3617 1 5.0424692019262665e+00 2.9102441014949427e+00 1.1860608574002812e+01 1 1 0
3669 1 6.9893753030644508e+00 1.5929818319326428e+00 1.3193958730779622e+01 0 2 0
1946 1 1.1533033108722474e+01 1.6142605044030558e+00 1.3114423064681448e+01 -4 2 0
4540 1 9.2809652562718714e+00 2.9362856900439183e+00 1.1749377747641507e+01 0 0 1
3600 1 4.8664833865320887e+00 5.6041849886112169e+00 1.9936584912538982e+00 0 -1 0
4976 1 2.9472577546118530e+00 6.7669384610162222e+00 1.1891664662068564e+01 0 0 0
6179 1 7.3923735040753522e+00 6.9667357252967657e+00 1.1899412446463513e+01 -1 2 1
45 1 5.3724040510104363e+00 5.5720791593695402e+00 1.2792869087857651e+01 1 -1 0
4693 1 1.1627361486661474e+01 6.8218340591335425e+00 1.1807038881761082e+01 -2 1 1
4816 1 9.2747074657474169e+00 5.4102989585560044e+00 1.2641273450549621e+01 -2 4 1
521 1 7.7433906036658701e-02 5.5976641204093109e+00 1.9519125927559582e+00 1 3 1
2863 1 3.4687443100250859e-01 5.4490449169721797e+00 4.8260677149076203e+00 0 0 1
259 1 3.0596706495891013e-01 2.8668399387846328e+00 1.2166639974474105e+01 -3 3 1
4877 1 5.1899141408139071e+00 5.2908683733989115e+00 1.5573686851202892e+01 0 -5 0
396 1 7.1562573541310848e-01 8.2111162840693891e-02 5.7895750974138913e+00 -2 1 0
6335 1 5.3861832235199081e-01 4.8955037660799255e-01 8.5582419355804795e+00 1 3 1
3806 1 3.1383622029215217e+00 9.4827408024562452e+00 1.5608018386156665e+01 -2 0 1
4692 1 5.5713502490472722e-01 5.6330457679893096e+00 2.3250985482051764e+01 0 3 1
5221 1 2.7937691758030909e+00 1.9457115458574408e+00 2.0149246712410772e+01 -1 0 0
758 2 9.8440000000000012e+00 9.9460130873296642e+00 3.0030999999992517e+01 0 0 0
4819 1 5.0373530698750519e+00 3.0296803043929783e+00 1.9123840562348317e+01 0 -2 1
3165 1 4.6186654672303149e+00 2.8608823073025951e+00 1.6261596468432728e+01 3 1 1
754 2 8.6135000000000002e+00 1.2077301606043163e+01 3.0030999999992517e+01 0 0 0
1552 1 9.3919916483348640e+00 3.1133167119173319e+00 1.6871956937155076e+01 -2 -1 1
1522 1 9.3949131150497962e+00 3.0030863262508292e+00 1.9492812732164989e+01 0 3 1
802 2 1.1074500000000002e+01 1.0656442593567498e+01 2.6794887573878064e+01 0 0 0
5047 1 2.7619832005738676e+00 6.6765879086698794e+00 1.9266464566185007e+01 0 1 0
6403 1 3.1313297505242432e+00 6.8230165120807786e+00 1.6477007839387269e+01 2 1 1
756 2 8.6134999999999984e+00 1.0656442593567498e+01 3.0030999999992517e+01 0 0 0
1971 1 7.1659990460379248e+00 6.9428254564858189e+00 1.9205489683848143e+01 1 2 0
6174 1 7.1550005151571030e+00 6.6340566201202895e+00 1.6397588879679237e+01 1 -3 1
3447 1 5.1472790096713608e+00 5.4731826185264838e+00 2.0108544877871129e+01 0 0 1
757 2 9.8440000000000012e+00 1.1366872099805333e+01 2.6794887573878064e+01 0 0 0
57 1 1.1493006389889246e+01 6.6262572362382963e+00 1.6513567886499871e+01 2 1 1
4620 1 1.1620113814670862e+01 7.0102078702873305e+00 1.9390200878975477e+01 2 2 1
759 2 9.8440000000000012e+00 8.5251540748539956e+00 2.6794887573878064e+01 0 0 0
2950 1 9.5379421264739961e-01 1.0593176411461858e+01 1.6551096610413811e+01 -2 2 1
4528 1 1.0648946788534432e+00 1.0411496301052415e+01 1.9311115265736614e+01 -1 -1 1
5015 1 3.7231560028164329e-01 3.0802247387184076e+00 2.4031208616976443e+01 0 -3 1
2993 1 5.3505402371088175e+00 1.0634531412517997e+01 1.9218747545463621e+01 2 -1 1
1375 1 5.5281999285384886e+00 1.0692131842018442e+01 1.6512186166233377e+01 -2 3 1
714 2 8.6134999999999984e+00 9.2355835810918343e+00 2.6794887573878064e+01 0 0 0
1731 1 9.7529415878035088e+00 1.0577489087859560e+01 1.9617884677309959e+01 0 0 0
2024 1 9.5136513610005995e+00 1.0437679664034915e+01 1.6695346157270322e+01 -1 1 0
803 2 1.1074500000000002e+01 1.0656442593567498e+01 3.0030999999992517e+01 0 0 0
804 2 1.2304999999999998e+01 1.1366872099805333e+01 2.6794887573878064e+01 0 0 0
1308 1 2.3832439572006239e+00 1.6975874418373098e+00 2.2789520855780371e+01 0 3 1
32 1 6.9244474508838829e+00 1.7657579850570078e+00 2.0487782388132231e+01 -1 -4 0
4650 1 6.9410097326005005e+00 1.8914176891146326e+00 2.3209557017829415e+01 0 0 1
1768 1 4.5754613759018010e+00 3.0008372564807209e+00 2.3792490573661844e+01 -2 3 0
6281 1 1.1437542715447202e+01 1.5442161369260785e+00 2.0437676940106975e+01 0 3 1
6255 1 1.1652582162280616e+01 1.6539335695397601e+00 2.3339937812407872e+01 3 0 1
3580 1 9.2221181819158549e+00 2.9782275804279110e+00 2.3985781887325018e+01 1 0 0
755 2 8.6134999999999984e+00 1.0656442593567498e+01 2.6794887573878064e+01 0 0 0
3218 1 1.1599762918351605e+01 1.8697996773177772e+00 1.5965519928245929e+01 1 -1 1
9 1 2.9319442935222275e+00 6.6531038436547849e+00 2.4223514530807492e+01 1 1 0
1500 1 4.9224394729950216e+00 5.4594924210693883e+00 2.3009465917874891e+01 -1 -2 1
6273 1 7.2534134879710255e+00 6.5195399696252290e+00 2.4037402094477486e+01 0 2 1
2073 1 9.4719974825055342e+00 5.6811247228837649e+00 2.0413219596557610e+01 0 0 0
3706 1 3.3566139253581373e-01 3.3823099743427738e+00 1.6742531962701342e+01 0 4 1
3801 1 9.3809635176113364e+00 5.5935299826765208e+00 2.3238688693214222e+01 1 1 1
90 1 3.1501978578535517e+00 9.0015188232774417e+00 2.0306612113595303e+01 3 -1 1
5178 1 1.1823731712686598e+01 9.1933646392818655e+00 2.3440335786133520e+01 2 5 0
37 1 2.9703172716681867e+00 9.0551818147115011e+00 2.2913943350281595e+01 0 2 1
6104 1 7.4697237842828157e+00 9.3232404159969029e+00 2.0444271547426794e+01 0 1 1
1711 1 5.1720285090751181e+00 1.0430097978723419e+01 2.3592669655879273e+01 0 -1 1
4518 1 7.3810812916345165e+00 9.1750467492475938e+00 2.3205854049064445e+01 1 -2 1
2071 1 1.1913690570361144e+01 9.3524009154423879e+00 2.0629992368061654e+01 -3 1 0
3288 1 5.7465817409285047e-01 1.0233652709260486e+01 2.4046883658446113e+01 0 0 1
3594 1 9.5563444745386956e+00 1.0765803285643642e+01 2.4020121895942737e+01 -1 1 0
581 2 0.0000000000000000e+00 2.8417180249513345e+00 2.6794887573878064e+01 0 0 0
583 2 0.0000000000000000e+00 0.0000000000000000e+00 2.6794887573878064e+01 0 0 0
585 2 1.2305000000000001e+00 7.1042950623783474e-01 2.6794887573878064e+01 0 0 0
592 2 1.2305000000000001e+00 2.1312885187134998e+00 2.6794887573878064e+01 0 0 0
594 2 2.4610000000000003e+00 2.8417180249513345e+00 2.6794887573878064e+01 0 0 0
596 2 2.4610000000000003e+00 0.0000000000000000e+00 2.6794887573878064e+01 0 0 0
598 2 3.6915000000000004e+00 7.1042950623783474e-01 2.6794887573878064e+01 0 0 0
613 2 3.6914999999999996e+00 2.1312885187134998e+00 2.6794887573878064e+01 0 0 0
582 2 0.0000000000000000e+00 1.4208590124756650e+00 3.0030999999992517e+01 0 0 0
584 2 0.0000000000000000e+00 0.0000000000000000e+00 3.0030999999992517e+01 0 0 0
591 2 1.2305000000000001e+00 3.5521475311891644e+00 3.0030999999992517e+01 0 0 0
593 2 1.2305000000000001e+00 2.1312885187134998e+00 3.0030999999992517e+01 0 0 0
595 2 2.4610000000000003e+00 1.4208590124756650e+00 3.0030999999992517e+01 0 0 0
597 2 2.4610000000000003e+00 0.0000000000000000e+00 3.0030999999992517e+01 0 0 0
612 2 3.6914999999999996e+00 3.5521475311891644e+00 3.0030999999992517e+01 0 0 0
614 2 3.6914999999999996e+00 2.1312885187134998e+00 3.0030999999992517e+01 0 0 0
615 2 4.9220000000000006e+00 2.8417180249513332e+00 2.6794887573878064e+01 0 0 0
617 2 4.9220000000000006e+00 0.0000000000000000e+00 2.6794887573878064e+01 0 0 0
619 2 6.1524999999999999e+00 7.1042950623783407e-01 2.6794887573878064e+01 0 0 0
642 2 6.1524999999999999e+00 2.1312885187134989e+00 2.6794887573878064e+01 0 0 0
644 2 7.3829999999999991e+00 2.8417180249513345e+00 2.6794887573878064e+01 0 0 0
646 2 7.3829999999999991e+00 0.0000000000000000e+00 2.6794887573878064e+01 0 0 0
616 2 4.9220000000000006e+00 1.4208590124756650e+00 3.0030999999992517e+01 0 0 0
618 2 4.9220000000000006e+00 0.0000000000000000e+00 3.0030999999992517e+01 0 0 0
641 2 6.1524999999999999e+00 3.5521475311891644e+00 3.0030999999992517e+01 0 0 0
643 2 6.1524999999999999e+00 2.1312885187134989e+00 3.0030999999992517e+01 0 0 0
645 2 7.3829999999999991e+00 1.4208590124756659e+00 3.0030999999992517e+01 0 0 0
647 2 7.3829999999999991e+00 0.0000000000000000e+00 3.0030999999992517e+01 0 0 0
648 2 8.6134999999999984e+00 7.1042950623783407e-01 2.6794887573878064e+01 0 0 0
679 2 8.6134999999999984e+00 2.1312885187135002e+00 2.6794887573878064e+01 0 0 0
681 2 9.8440000000000012e+00 2.8417180249513332e+00 2.6794887573878064e+01 0 0 0
683 2 9.8440000000000012e+00 0.0000000000000000e+00 2.6794887573878064e+01 0 0 0
685 2 1.1074500000000002e+01 7.1042950623783330e-01 2.6794887573878064e+01 0 0 0
724 2 1.1074500000000002e+01 2.1312885187135002e+00 2.6794887573878064e+01 0 0 0
678 2 8.6134999999999984e+00 3.5521475311891657e+00 3.0030999999992517e+01 0 0 0
680 2 8.6134999999999984e+00 2.1312885187135002e+00 3.0030999999992517e+01 0 0 0
682 2 9.8440000000000012e+00 1.4208590124756659e+00 3.0030999999992517e+01 0 0 0
684 2 9.8440000000000012e+00 0.0000000000000000e+00 3.0030999999992517e+01 0 0 0
723 2 1.1074500000000002e+01 3.5521475311891644e+00 3.0030999999992517e+01 0 0 0
725 2 1.1074500000000002e+01 2.1312885187135002e+00 3.0030999999992517e+01 0 0 0
586 2 0.0000000000000000e+00 7.1042950623783341e+00 2.6794887573878064e+01 0 0 0
588 2 0.0000000000000000e+00 4.2625770374269996e+00 2.6794887573878064e+01 0 0 0
590 2 1.2305000000000001e+00 4.9730065436648339e+00 2.6794887573878064e+01 0 0 0
605 2 1.2305000000000001e+00 6.3938655561404980e+00 2.6794887573878064e+01 0 0 0
607 2 2.4610000000000003e+00 7.1042950623783341e+00 2.6794887573878064e+01 0 0 0
609 2 2.4610000000000003e+00 4.2625770374269996e+00 2.6794887573878064e+01 0 0 0
611 2 3.6914999999999996e+00 4.9730065436648339e+00 2.6794887573878064e+01 0 0 0
634 2 3.6914999999999996e+00 6.3938655561404980e+00 2.6794887573878064e+01 0 0 0
587 2 0.0000000000000000e+00 5.6834360499026637e+00 3.0030999999992517e+01 0 0 0
589 2 0.0000000000000000e+00 4.2625770374269996e+00 3.0030999999992517e+01 0 0 0
604 2 1.2305000000000001e+00 7.8147245686161639e+00 3.0030999999992517e+01 0 0 0
606 2 1.2305000000000001e+00 6.3938655561404980e+00 3.0030999999992517e+01 0 0 0
608 2 2.4610000000000003e+00 5.6834360499026637e+00 3.0030999999992517e+01 0 0 0
610 2 2.4610000000000003e+00 4.2625770374269996e+00 3.0030999999992517e+01 0 0 0
633 2 3.6914999999999996e+00 7.8147245686161639e+00 3.0030999999992517e+01 0 0 0
635 2 3.6914999999999996e+00 6.3938655561404980e+00 3.0030999999992517e+01 0 0 0
636 2 4.9220000000000006e+00 7.1042950623783341e+00 2.6794887573878064e+01 0 0 0
638 2 4.9220000000000006e+00 4.2625770374269978e+00 2.6794887573878064e+01 0 0 0
640 2 6.1524999999999999e+00 4.9730065436648339e+00 2.6794887573878064e+01 0 0 0
671 2 6.1524999999999999e+00 6.3938655561404980e+00 2.6794887573878064e+01 0 0 0
673 2 7.3830000000000009e+00 7.1042950623783341e+00 2.6794887573878064e+01 0 0 0
675 2 7.3829999999999991e+00 4.2625770374269996e+00 2.6794887573878064e+01 0 0 0
637 2 4.9220000000000006e+00 5.6834360499026637e+00 3.0030999999992517e+01 0 0 0
639 2 4.9220000000000006e+00 4.2625770374269978e+00 3.0030999999992517e+01 0 0 0
670 2 6.1524999999999999e+00 7.8147245686161639e+00 3.0030999999992517e+01 0 0 0
672 2 6.1524999999999999e+00 6.3938655561404980e+00 3.0030999999992517e+01 0 0 0
674 2 7.3829999999999991e+00 5.6834360499026637e+00 3.0030999999992517e+01 0 0 0
676 2 7.3829999999999991e+00 4.2625770374269996e+00 3.0030999999992517e+01 0 0 0
677 2 8.6135000000000002e+00 4.9730065436648339e+00 2.6794887573878064e+01 0 0 0
716 2 8.6135000000000002e+00 6.3938655561404980e+00 2.6794887573878064e+01 0 0 0
718 2 9.8440000000000012e+00 7.1042950623783341e+00 2.6794887573878064e+01 0 0 0
720 2 9.8440000000000012e+00 4.2625770374270004e+00 2.6794887573878064e+01 0 0 0
722 2 1.1074500000000002e+01 4.9730065436648339e+00 2.6794887573878064e+01 0 0 0
763 2 1.1074500000000002e+01 6.3938655561404980e+00 2.6794887573878064e+01 0 0 0
715 2 8.6135000000000002e+00 7.8147245686161639e+00 3.0030999999992517e+01 0 0 0
717 2 8.6135000000000002e+00 6.3938655561404980e+00 3.0030999999992517e+01 0 0 0
719 2 9.8440000000000012e+00 5.6834360499026637e+00 3.0030999999992517e+01 0 0 0
721 2 9.8440000000000012e+00 4.2625770374270004e+00 3.0030999999992517e+01 0 0 0
762 2 1.1074500000000002e+01 7.8147245686161639e+00 3.0030999999992517e+01 0 0 0
764 2 1.1074500000000002e+01 6.3938655561404980e+00 3.0030999999992517e+01 0 0 0
599 2 0.0000000000000000e+00 1.1366872099805333e+01 2.6794887573878064e+01 0 0 0
601 2 0.0000000000000000e+00 8.5251540748539991e+00 2.6794887573878064e+01 0 0 0
603 2 1.2305000000000001e+00 9.2355835810918343e+00 2.6794887573878064e+01 0 0 0
626 2 1.2305000000000001e+00 1.0656442593567498e+01 2.6794887573878064e+01 0 0 0
628 2 2.4610000000000003e+00 1.1366872099805333e+01 2.6794887573878064e+01 0 0 0
630 2 2.4610000000000003e+00 8.5251540748539991e+00 2.6794887573878064e+01 0 0 0
632 2 3.6915000000000004e+00 9.2355835810918343e+00 2.6794887573878064e+01 0 0 0
663 2 3.6914999999999996e+00 1.0656442593567499e+01 2.6794887573878064e+01 0 0 0
600 2 0.0000000000000000e+00 9.9460130873296642e+00 3.0030999999992517e+01 0 0 0
602 2 0.0000000000000000e+00 8.5251540748539991e+00 3.0030999999992517e+01 0 0 0
625 2 1.2305000000000001e+00 1.2077301606043163e+01 3.0030999999992517e+01 0 0 0
627 2 1.2305000000000001e+00 1.0656442593567498e+01 3.0030999999992517e+01 0 0 0
629 2 2.4610000000000003e+00 9.9460130873296642e+00 3.0030999999992517e+01 0 0 0
631 2 2.4610000000000003e+00 8.5251540748539991e+00 3.0030999999992517e+01 0 0 0
662 2 3.6914999999999996e+00 1.2077301606043163e+01 3.0030999999992517e+01 0 0 0
664 2 3.6914999999999996e+00 1.0656442593567499e+01 3.0030999999992517e+01 0 0 0
709 2 6.1524999999999999e+00 1.0656442593567499e+01 3.0030999999992517e+01 0 0 0
668 2 4.9220000000000006e+00 8.5251540748539991e+00 3.0030999999992517e+01 0 0 0
665 2 4.9220000000000006e+00 1.1366872099805333e+01 2.6794887573878064e+01 0 0 0
713 2 7.3830000000000009e+00 8.5251540748539991e+00 3.0030999999992517e+01 0 0 0
711 2 7.3830000000000009e+00 9.9460130873296642e+00 3.0030999999992517e+01 0 0 0
707 2 6.1524999999999999e+00 1.2077301606043163e+01 3.0030999999992517e+01 0 0 0
669 2 6.1524999999999999e+00 9.2355835810918343e+00 2.6794887573878064e+01 0 0 0
708 2 6.1524999999999999e+00 1.0656442593567499e+01 2.6794887573878064e+01 0 0 0
667 2 4.9220000000000006e+00 8.5251540748539991e+00 2.6794887573878064e+01 0 0 0
712 2 7.3830000000000009e+00 8.5251540748539991e+00 2.6794887573878064e+01 0 0 0
666 2 4.9220000000000006e+00 9.9460130873296642e+00 3.0030999999992517e+01 0 0 0
710 2 7.3829999999999991e+00 1.1366872099805333e+01 2.6794887573878064e+01 0 0 0
760 2 9.8440000000000012e+00 8.5251540748539956e+00 3.0030999999992517e+01 0 0 0
761 2 1.1074500000000002e+01 9.2355835810918343e+00 2.6794887573878064e+01 0 0 0
801 2 1.1074500000000002e+01 1.2077301606043163e+01 3.0030999999992517e+01 0 0 0
2081 1 1.1745293785857250e+01 6.5848446590962757e+00 2.4151867644596930e+01 -2 -1 0
2052 1 4.9019256409078488e-01 5.4904223794510640e+00 2.0394422197383253e+01 -1 2 0
3673 1 5.0341106615651032e-01 3.0114334134559027e+00 1.9210323456629034e+01 -2 0 1
505 1 1.1994807894108655e+01 9.2217655426199858e+00 1.5678472522746770e+01 -1 -1 0
1816 1 7.0338594552871108e+00 1.8652894755267777e+00 1.5840473276407863e+01 1 2 0
151 1 5.0755865649184218e-01 5.9433634463652263e+00 1.5687597596513623e+01 3 3 0
458 1 2.3837380191975881e+00 1.5748723777632085e+00 1.5678987771179944e+01 1 2 0
910 2 0.0000000000000000e+00 2.8417180249513345e+00 3.3267112426094599e+01 0 0 0
911 2 0.0000000000000000e+00 0.0000000000000000e+00 3.3267112426094599e+01 0 0 0
912 2 1.2305000000000001e+00 7.1042950623783474e-01 3.3267112426094599e+01 0 0 0
916 2 1.2305000000000001e+00 2.1312885187134998e+00 3.3267112426094599e+01 0 0 0
917 2 2.4610000000000003e+00 2.8417180249513345e+00 3.3267112426094599e+01 0 0 0
918 2 2.4610000000000003e+00 0.0000000000000000e+00 3.3267112426094599e+01 0 0 0
919 2 3.6915000000000004e+00 7.1042950623783474e-01 3.3267112426094599e+01 0 0 0
927 2 3.6914999999999996e+00 2.1312885187134998e+00 3.3267112426094599e+01 0 0 0
928 2 4.9220000000000006e+00 2.8417180249513332e+00 3.3267112426094599e+01 0 0 0
929 2 4.9220000000000006e+00 0.0000000000000000e+00 3.3267112426094599e+01 0 0 0
930 2 6.1524999999999999e+00 7.1042950623783407e-01 3.3267112426094599e+01 0 0 0
942 2 6.1524999999999999e+00 2.1312885187134989e+00 3.3267112426094599e+01 0 0 0
943 2 7.3829999999999991e+00 2.8417180249513345e+00 3.3267112426094599e+01 0 0 0
944 2 7.3829999999999991e+00 0.0000000000000000e+00 3.3267112426094599e+01 0 0 0
945 2 8.6134999999999984e+00 7.1042950623783407e-01 3.3267112426094599e+01 0 0 0
961 2 8.6134999999999984e+00 2.1312885187135002e+00 3.3267112426094599e+01 0 0 0
962 2 9.8440000000000012e+00 2.8417180249513332e+00 3.3267112426094599e+01 0 0 0
963 2 9.8440000000000012e+00 0.0000000000000000e+00 3.3267112426094599e+01 0 0 0
964 2 1.1074500000000002e+01 7.1042950623783330e-01 3.3267112426094599e+01 0 0 0
984 2 1.1074500000000002e+01 2.1312885187135002e+00 3.3267112426094599e+01 0 0 0
913 2 0.0000000000000000e+00 7.1042950623783341e+00 3.3267112426094599e+01 0 0 0
914 2 0.0000000000000000e+00 4.2625770374269996e+00 3.3267112426094599e+01 0 0 0
915 2 1.2305000000000001e+00 4.9730065436648339e+00 3.3267112426094599e+01 0 0 0
923 2 1.2305000000000001e+00 6.3938655561404980e+00 3.3267112426094599e+01 0 0 0
924 2 2.4610000000000003e+00 7.1042950623783341e+00 3.3267112426094599e+01 0 0 0
925 2 2.4610000000000003e+00 4.2625770374269996e+00 3.3267112426094599e+01 0 0 0
926 2 3.6914999999999996e+00 4.9730065436648339e+00 3.3267112426094599e+01 0 0 0
938 2 3.6914999999999996e+00 6.3938655561404980e+00 3.3267112426094599e+01 0 0 0
939 2 4.9220000000000006e+00 7.1042950623783341e+00 3.3267112426094599e+01 0 0 0
940 2 4.9220000000000006e+00 4.2625770374269978e+00 3.3267112426094599e+01 0 0 0
941 2 6.1524999999999999e+00 4.9730065436648339e+00 3.3267112426094599e+01 0 0 0
957 2 6.1524999999999999e+00 6.3938655561404980e+00 3.3267112426094599e+01 0 0 0
958 2 7.3830000000000009e+00 7.1042950623783341e+00 3.3267112426094599e+01 0 0 0
959 2 7.3829999999999991e+00 4.2625770374269996e+00 3.3267112426094599e+01 0 0 0
960 2 8.6135000000000002e+00 4.9730065436648339e+00 3.3267112426094599e+01 0 0 0
980 2 8.6135000000000002e+00 6.3938655561404980e+00 3.3267112426094599e+01 0 0 0
981 2 9.8440000000000012e+00 7.1042950623783341e+00 3.3267112426094599e+01 0 0 0
982 2 9.8440000000000012e+00 4.2625770374270004e+00 3.3267112426094599e+01 0 0 0
983 2 1.1074500000000002e+01 4.9730065436648339e+00 3.3267112426094599e+01 0 0 0
1004 2 1.1074500000000002e+01 6.3938655561404980e+00 3.3267112426094599e+01 0 0 0
920 2 0.0000000000000000e+00 1.1366872099805333e+01 3.3267112426094599e+01 0 0 0
921 2 0.0000000000000000e+00 8.5251540748539991e+00 3.3267112426094599e+01 0 0 0
922 2 1.2305000000000001e+00 9.2355835810918343e+00 3.3267112426094599e+01 0 0 0
934 2 1.2305000000000001e+00 1.0656442593567498e+01 3.3267112426094599e+01 0 0 0
935 2 2.4610000000000003e+00 1.1366872099805333e+01 3.3267112426094599e+01 0 0 0
936 2 2.4610000000000003e+00 8.5251540748539991e+00 3.3267112426094599e+01 0 0 0
937 2 3.6915000000000004e+00 9.2355835810918343e+00 3.3267112426094599e+01 0 0 0
953 2 3.6914999999999996e+00 1.0656442593567499e+01 3.3267112426094599e+01 0 0 0
954 2 4.9220000000000006e+00 1.1366872099805333e+01 3.3267112426094599e+01 0 0 0
955 2 4.9220000000000006e+00 8.5251540748539991e+00 3.3267112426094599e+01 0 0 0
956 2 6.1524999999999999e+00 9.2355835810918343e+00 3.3267112426094599e+01 0 0 0
976 2 6.1524999999999999e+00 1.0656442593567499e+01 3.3267112426094599e+01 0 0 0
977 2 7.3829999999999991e+00 1.1366872099805333e+01 3.3267112426094599e+01 0 0 0
978 2 7.3830000000000009e+00 8.5251540748539991e+00 3.3267112426094599e+01 0 0 0
979 2 8.6134999999999984e+00 9.2355835810918343e+00 3.3267112426094599e+01 0 0 0
1000 2 8.6134999999999984e+00 1.0656442593567498e+01 3.3267112426094599e+01 0 0 0
1001 2 9.8440000000000012e+00 1.1366872099805333e+01 3.3267112426094599e+01 0 0 0
1002 2 9.8440000000000012e+00 8.5251540748539956e+00 3.3267112426094599e+01 0 0 0
1003 2 1.1074500000000002e+01 9.2355835810918343e+00 3.3267112426094599e+01 0 0 0
1024 2 1.1074500000000002e+01 1.0656442593567498e+01 3.3267112426094599e+01 0 0 0
1025 2 1.2304999999999998e+01 1.1366872099805333e+01 3.3267112426094599e+01 0 0 0
3116 1 2.5198460023316058e+00 2.2352701516717968e+00 3.6633730638974001e+01 2 -1 -1
3394 1 2.3188750638121616e+00 2.2089002807362705e+00 3.9400403772555357e+01 4 -2 -1
3584 1 4.6503160526466223e+00 3.9738930512812605e+00 3.5863876686657129e+01 0 0 -1
3260 1 6.7232818670700141e+00 2.4251937618921513e+00 3.6712279581263374e+01 2 1 -1
4821 1 7.1524996930954963e+00 2.2021799959649493e+00 3.9486153120625090e+01 -2 1 0
3098 1 1.1221766679432859e+01 2.2164031468342000e+00 3.6454612366993928e+01 0 0 -1
4982 1 9.0403077836675365e+00 3.5995049614224008e+00 3.5777180144987184e+01 2 3 0
2018 1 1.1213757806448658e+01 2.0203220098694548e+00 3.9239442104769729e+01 -1 1 -1
1474 1 2.2827836128514285e+00 7.6355851488382669e+00 3.5690656407380601e+01 -4 2 0
4996 1 4.4640789107882997e+00 6.6668480689038754e+00 3.6783177883254126e+01 1 -1 0
463 1 6.7231735563009014e+00 7.4806960223463452e+00 3.5560970347098930e+01 3 -2 -1
3653 1 4.4938762866700426e+00 6.3663066341801482e+00 3.9694839984458383e+01 4 3 -1
4850 1 8.8247958766809997e+00 6.2296716859261334e+00 3.6779822671025563e+01 0 0 0
34 1 1.1069494471136293e+01 7.5369413029252312e+00 3.6010191487794856e+01 -2 2 -1
5162 1 8.9899039137835839e+00 6.0230844508413428e+00 3.9289397700556783e+01 -1 2 -1
149 1 3.3707582337723019e+00 1.0008221411760140e+01 3.6955753042888574e+01 0 -3 -1
4916 1 4.7688747392247235e+00 1.1110875270055159e+01 4.3363188992548451e+01 4 -1 -1
1956 1 6.1764654467625775e+00 1.0011683400894574e+01 3.6926993360870043e+01 0 1 -1
320 1 7.0950962321416773e+00 9.7161371944187991e+00 3.9533941811396438e+01 -2 -3 -1
2032 1 1.1528202354454230e+01 1.0359105666827700e+01 3.6659649788795662e+01 3 1 -1
4837 1 1.1676053674083494e+01 9.9677407795644584e+00 3.9321356325674500e+01 4 1 -1
68 1 9.2716906320802757e+00 1.0978814678808693e+01 4.0283638213561673e+01 -2 1 -1
1288 1 4.8994496665411278e+00 1.0969644407009223e+01 4.0701267984657555e+01 -1 0 0
6177 1 9.3665302527106657e+00 1.0963237569371945e+01 4.3520845996318847e+01 4 -1 0
2062 1 4.7465950152545142e+00 3.4430393873509617e+00 4.0365404979283902e+01 -1 4 -1
3376 1 4.6809659523570835e+00 2.9902940959696855e+00 4.3135892450805855e+01 2 3 0
2172 1 6.9877266382983896e+00 2.2653503541759092e+00 4.4032308149177709e+01 -2 3 0
4736 1 9.0898342095141196e+00 3.6122468082353274e+00 4.3243704883283030e+01 -1 2 0
3569 1 9.1939569552207878e+00 3.6188012405197010e+00 4.0578314564778132e+01 -1 1 -1
5446 1 9.4457026291475294e+00 6.0770740371017862e+00 4.4161150958310465e+01 -1 -1 -1
1744 1 2.2725962230427030e+00 7.7434794859116618e+00 4.0497900832482877e+01 0 2 0
3800 1 2.5046990412193026e+00 7.3080861587547821e+00 4.3262643998886396e+01 -3 2 0
4801 1 7.1265025425900053e+00 7.3089139388562163e+00 4.0392856626045109e+01 2 3 -1
6102 1 7.2335467103936359e+00 7.4229927366446109e+00 4.3205054696042041e+01 -1 1 0
130 1 5.1867552269629347e-01 3.9739807070257087e+00 3.5925286331207808e+01 -3 -3 -1
4956 1 1.1222572404409171e+01 7.4867508180270610e+00 4.0204468595919018e+01 0 3 0
2028 1 1.1734283186313940e+01 7.3162885385159493e+00 4.2949306224609771e+01 1 2 -1
5048 1 2.2191225829482492e-01 6.1312691906656029e+00 3.9763510190661265e+01 -1 -1 -1
1699 1 2.4281834342883464e+00 1.0343630839758905e+01 3.9629293005399639e+01 -2 -1 0
5343 1 4.4349789827155889e-01 3.5324949468627422e+00 4.0514588230477528e+01 1 0 0
50 1 5.0137960002836444e+00 5.9163281639398617e+00 4.3842443502250028e+01 -5 1 -1
3402 1 2.3107070891229085e+00 1.8530382246281647e+00 4.4061899066196588e+01 5 0 -1
6351 1 3.6863236564536828e-01 3.3061096457876062e+00 4.3308555923033943e+01 -2 2 0
4790 1 1.0546011823773682e-01 6.1442407341448373e+00 4.4103695245168666e+01 -3 0 -1
3092 1 1.9785572115630856e-01 6.4289962591054310e+00 3.6936584904790358e+01 0 1 0
2150 1 7.1019180179357857e+00 9.7659283679827453e+00 4.4385936487888443e+01 -3 -1 0
3170 1 1.1052674062982058e+01 2.0241220277691183e+00 4.4311517307155647e+01 -3 -2 -1
3543 1 2.4031139488219146e+00 9.9981266172289747e+00 4.4392797394821521e+01 4 0 -1
397 1 2.5680483174033295e+00 2.4096279018059228e+00 4.6773688119466534e+01 1 1 0
2954 1 9.4661493582320961e+00 1.0472824250448344e+01 5.4329925933143770e+01 -1 0 0
1641 1 6.7169498160157035e+00 1.9422499948058884e+00 4.6833874999264452e+01 1 6 -1
52 1 4.5747610038975104e+00 8.9698498270503990e-01 4.7747846038199420e+01 1 0 -1
5172 1 1.1000804535655803e+01 1.9406953764026009e+00 4.7183265253963619e+01 5 1 -1
3212 1 8.8041750644574943e+00 6.2214814808931707e-01 4.7879165273230846e+01 -2 -2 -1
3566 1 2.4843889869294724e+00 4.7175173705462106e+00 4.7668303124427688e+01 3 0 -1
3015 1 9.4781400100189082e+00 8.1238235061933004e+00 5.8289783711798641e+01 -2 2 0
411 1 4.5616772180469412e-01 3.3630498506471405e+00 5.4573369240806784e+01 4 1 -1
6183 1 4.8447949153213283e+00 5.8430138214656360e+00 4.6693717615237013e+01 -2 2 0
1330 1 6.8656603119472104e+00 4.4867303465977013e+00 4.7793237830123914e+01 2 2 0