LAMMPS data file via write_data, version 16 Mar 2018, timestep = 100000

6472 atoms
2 atom types

0.0000000000000000e+00 4.9219999999999999e+01 xlo xhi
0.0000000000000000e+00 4.9019635930410494e+01 ylo yhi
2.0126068871843437e+00 5.8049393112817768e+01 zlo zhi

Masses

1 18.015
2 12.01

Atoms # atomic

1732 1 3.7382654552639090e+00 2.5862309397305010e+00 4.0218703245806235e+00 2 0 1
36 1 9.6116361909833827e+00 6.9444150169978722e-02 1.3367539551488896e+01 -1 -1 1
3662 1 2.6168820666210477e+00 1.1929050162513951e+01 5.6243793206070070e+00 1 -2 1
4604 1 1.4589955995214670e+00 6.5830543850733969e-01 4.1311701411524169e+00 1 -2 1
5199 1 6.7586658699612236e+00 2.2193695865287277e+00 3.0453581472311813e+00 1 1 0
561 1 5.4347885535166736e+00 1.3598031983179084e+00 5.7959589895171497e+00 1 2 0
6177 1 9.2566022905634497e+00 1.4870332455325608e+00 3.7084931588188685e+00 1 1 1
60 1 9.7645951203728778e+00 3.4481481444381670e+00 5.7427540878750749e+00 1 1 0
3716 1 7.0143315876717987e+00 4.8695468265239672e+00 2.3928271495586455e+00 -1 -1 1
6164 1 2.0806933909235750e+00 6.6674674038187502e+00 6.5650422709581093e+00 1 2 1
3348 1 8.4535529253918344e+00 6.0319981632445332e+00 4.6718371077170433e+00 -1 2 0
127 1 7.0139342074281528e+00 1.1424428512992202e+01 1.1486680365415033e+01 0 1 0
6206 1 6.7916966507502323e+00 5.4991951423646546e+00 6.6143909030081227e+00 -1 1 1
5135 1 1.1183216895079267e+01 6.2857823435996050e+00 3.5840320549343394e+00 1 0 0
1687 1 1.0395498127747217e+01 1.0761155730832751e+01 1.3715340864087469e+01 3 0 0
3279 1 3.6494892071964009e+00 9.7464611068466063e+00 7.1870029785269001e+00 1 1 0
5111 1 2.2686733806163355e+00 8.7136389148993771e+00 4.5785872262632497e+00 1 2 1
2145 1 6.6659402345648626e+00 1.1303428624696142e+01 2.5583368199374230e+00 -1 -1 0
1553 1 7.6655931475537606e+00 8.7424104207475573e+00 4.9880250689482644e+00 1 1 1
5121 1 1.2045853180652783e+01 1.0162100340269545e+01 1.0307043693358093e+01 0 1 0
5300 1 3.1237157961821436e+00 2.0887642092379513e+00 9.8169145986362274e+00 -1 0 0
1846 1 2.4211615751012006e+00 2.3081563760867487e+00 7.1952637864242170e+00 1 0 0
6120 1 7.6873395459469913e+00 2.6227614261634189e+00 7.5020138206002533e+00 0 0 1
135 1 7.8559271382502693e+00 3.3126141826960036e+00 1.0233367761913643e+01 2 2 0
6282 1 1.9092946313579620e+00 4.3218942678782968e+00 1.3442452113631086e+01 2 -1 1
2072 1 1.1677671906671673e+01 2.5978414215215531e+00 7.6282473418432959e+00 0 0 0
6355 1 3.9308459377589262e+00 4.7567219751811614e+00 6.3274052640873801e+00 2 4 1
2991 1 2.0708714801902164e+00 6.8418551886257015e+00 9.5610632750627360e+00 2 0 1
1496 1 5.2345185594342603e+00 3.9393214906328207e+00 1.0928325719663206e+01 0 2 0
3748 1 7.2217351271737140e+00 6.9088103225569943e+00 8.6020930656934596e+00 1 2 1
2063 1 1.0039567321576973e+01 6.3815440158364778e+00 9.1675068408659683e+00 -1 -1 0
5432 1 1.0900384870186715e+01 4.0145348834676282e+00 1.0000558209747862e+01 -1 0 1
2081 1 2.1208964497497615e+00 9.5526032002483845e+00 9.4782180286990467e+00 1 1 0
1741 1 6.2470493052688010e+00 9.3243954731193810e+00 7.2992393779099238e+00 1 0 1
1860 1 4.8742902154469530e+00 6.7476902479380767e+00 1.0124781264403781e+01 0 1 0
4822 1 7.5532348885234111e+00 1.1557864975730753e+01 8.8300718633355686e+00 2 0 1
1599 1 1.2203237370004176e+01 7.3165634549935232e+00 7.5785047616343268e+00 1 1 1
3222 1 1.0347420203873488e+01 9.3395026648257513e+00 6.5906602883003114e+00 2 -1 1
6134 1 1.0734080861900214e+01 7.8092075989276335e+00 1.1353473832807907e+01 1 2 1
1314 1 3.9774375559460302e+00 1.2103299123605625e+01 1.5241982530490061e+01 0 -1 1
1521 1 1.0333056033662809e+00 2.3565953905761972e+00 1.1665466147775778e+01 0 1 1
1779 1 6.2618778980225596e+00 8.8106292937777830e+00 1.1638625538072720e+01 0 -1 0
3539 1 4.2236000184537277e+00 4.7753708917047302e+00 2.2154714543332910e+00 2 1 0
2005 1 5.7029688376890153e+00 4.6049718931222672e-01 1.2814733759871267e+01 -1 2 0
6408 1 9.7368072796907406e+00 1.0339918211631623e+01 3.3992095607820527e+00 2 0 1
1 1 7.6459124288067528e+00 1.8616382659095310e+00 1.4366972893101355e+01 1 1 0
3750 1 6.1705730493456299e+00 5.4294921065679898e+00 1.4867682841320430e+01 0 1 0
3205 1 9.3946636729666029e+00 3.4768008225910529e+00 1.2703704467977433e+01 -1 1 1
3592 1 8.7418016453586628e-03 1.0761211283484858e+01 2.2595101670277740e+00 1 -1 0
1918 1 6.2453586950136257e+00 8.2806372626913305e+00 2.5823879589549601e+00 0 1 0
1982 1 4.7404893668761972e+00 3.1239170246696295e+00 1.3782930495069238e+01 1 -2 0
2067 1 9.1635551271640447e-01 6.7703071901108371e+00 1.3660254978329615e+01 -1 0 1
6284 1 7.8800299304195480e+00 2.8496655467765458e-01 1.0612122613311696e+01 1 1 1
2855 1 5.1086637480494570e+00 8.0254084493378723e+00 1.5148730951035889e+01 -1 -1 1
4526 1 1.0539218510668986e+01 1.1331429662349466e+01 8.5287608514996833e+00 -1 1 1
4863 1 1.1481998111055837e+01 6.1401989572617159e+00 1.5183015529762352e+01 1 1 1
6285 1 8.7626025349627383e+00 8.5753932296738249e+00 1.3197355562419332e+01 1 2 1
1295 1 8.9108949097859202e+00 5.9521574212675397e+00 1.4108230327471167e+01 2 0 1
5323 1 1.1727841610191986e+01 8.5912927985668119e+00 2.2045531325784493e+00 -1 1 0
3199 1 1.7402086826396688e+00 9.1912522693785217e+00 1.2389195939206111e+01 0 1 1
2066 1 4.0205916109478004e+00 1.0140933849753102e+01 1.3120279664582869e+01 1 2 0
4605 1 3.3596054584482133e+00 7.4812447213521374e+00 2.2060233254483221e+00 -1 -1 1
3215 1 1.1951984230326058e+01 2.1477987022718956e+00 1.3279524573693321e+01 1 0 1
759 2 9.8440000000000012e+00 8.5251540748539956e+00 2.6874658372539621e+01 0 0 0
199 1 1.2082436971602347e+01 4.2631781705212948e+00 1.6962308299134840e+01 1 0 0
117 1 7.8893338130057096e+00 2.0435620908536078e+00 1.7136395294160792e+01 1 1 0
437 1 4.8624032930509975e-01 6.0336129360288719e+00 1.9630952399238708e+01 -1 2 0
458 1 2.6142551878957603e+00 5.8215181746938693e+00 1.7838858715791108e+01 0 1 0
3652 1 5.1081210222254168e+00 6.0120309909086505e+00 1.9234738417497173e+01 -1 0 0
298 1 7.5983550030996740e+00 8.4804895369367337e+00 2.3681953673884045e+01 0 0 0
371 1 5.7822341096740004e+00 3.9087839567139380e+00 1.7083471417283938e+01 1 -1 0
3726 1 6.3037761233330487e+00 8.4946065201415735e+00 1.7350708034824869e+01 1 0 0
3093 1 9.3271255334518113e+00 4.2391911891215814e+00 1.8052387958442992e+01 0 0 1
3141 1 8.9475273477177488e+00 7.1634706823302867e+00 1.7235933074869521e+01 1 1 0
5281 1 3.8784499458294199e+00 9.1379361228907694e+00 1.8840813600000871e+01 1 1 0
4783 1 5.9624760882064862e+00 1.1385627096893382e+01 1.7713620821386641e+01 1 -1 0
756 2 8.6134999999999984e+00 1.0656442593567498e+01 3.0031000000000567e+01 0 0 0
3261 1 3.2580606613340923e-01 8.4367021399984754e+00 2.1218349458369030e+01 0 2 1
760 2 9.8440000000000012e+00 8.5251540748539956e+00 3.0031000000000567e+01 0 0 0
4678 1 4.0363554632103655e+00 9.5601199890574300e+00 2.3530004801986223e+01 1 2 1
3329 1 8.4622643571046385e+00 4.0416325267558442e+00 2.0793015157678894e+01 1 -2 1
3506 1 8.7421576291103769e+00 1.1504736796190349e+01 1.8810499460801076e+01 0 0 0
803 2 1.1074500000000002e+01 1.0656442593567498e+01 3.0031000000000567e+01 0 0 0
6434 1 6.9298501802305887e+00 7.8992171174877077e+00 2.0996784656487389e+01 1 -2 1
4952 1 8.4350275102503003e-01 1.1465714130869443e+01 2.3537754978888596e+01 0 0 0
1798 1 1.0631313351573263e+01 1.1649491041770734e+01 1.6437262310402652e+01 1 0 0
3311 1 1.2230952702201881e+01 1.1467297931625183e+01 2.1908596006037694e+01 0 0 0
1816 1 9.0143876799931444e-01 7.0276713845418437e-01 2.0453922345227763e+01 2 1 0
1693 1 5.8312629609832092e+00 4.3634107924546306e-01 2.1163216194170342e+01 -1 1 0
6209 1 1.3611376682253249e+00 3.7366616518813349e+00 2.1153075042331810e+01 1 -1 1
1839 1 9.9818408768262508e+00 5.0341002588406891e-01 1.6096715716868914e+01 -2 0 0
1981 1 9.3736380573714690e+00 9.7680653714488086e-01 2.3793963929986148e+01 2 1 0
328 1 1.0893600991238328e+01 2.1490373666375846e+00 2.1032263850260243e+01 1 1 0
758 2 9.8440000000000012e+00 9.9460130873296642e+00 3.0031000000000567e+01 0 0 0
4540 1 1.1306877788806551e+01 8.7153299775830533e+00 1.6228323299247840e+01 -1 -1 1
1826 1 3.1204863742477733e+00 6.9261015169964928e+00 2.1407337416402026e+01 -2 2 0
3793 1 5.9937708219871544e+00 2.9825378959079138e+00 1.9876742935814505e+01 0 -1 1
64 1 4.6734736062732569e+00 1.5539095616764673e+00 2.3842864514714979e+01 1 2 0
3805 1 3.9014759045079668e+00 4.1085710995603115e+00 2.1417095335402685e+01 1 0 1
1604 1 5.2879227030230238e+00 4.3201523094389209e+00 2.4001484384576127e+01 1 0 0
3650 1 1.1112446458402527e+01 5.0399867701925682e+00 2.4604755658879675e+01 -1 0 0
128 1 8.0732371808250871e+00 3.8805823427406847e+00 2.3719556424180436e+01 2 1 1
3449 1 5.1150967509630370e+00 1.2095738131839740e+01 2.3722664678354313e+01 0 1 0
714 2 8.6134999999999984e+00 9.2355835810918343e+00 2.6874658372539621e+01 0 0 0
6247 1 1.1683319813425229e+01 9.9300059333196380e+00 2.4630320855287540e+01 1 -2 1
138 1 2.6219794386711808e+00 6.2937877172181462e+00 2.4206643999450648e+01 0 1 0
5394 1 4.9021998418125250e+00 9.9494227204802748e+00 2.1206085149677108e+01 1 2 1
2077 1 5.2539398689826431e+00 7.3356459407740022e+00 2.4405815116978701e+01 0 0 0
1430 1 1.0148591086696912e+01 7.5967598928642550e+00 2.3389491564742212e+01 1 1 1
4743 1 9.0884137064279660e+00 8.9239200520818542e+00 1.9430562145075637e+01 2 0 1
3399 1 5.6020614476546349e-01 4.3953123643041518e+00 2.4007276813757365e+01 2 -1 0
3421 1 7.8076150241836819e+00 1.1272551998692805e+01 2.4278354359187826e+01 0 -1 0
581 2 0.0000000000000000e+00 2.8417180249513345e+00 2.6874658372539621e+01 0 0 0
583 2 0.0000000000000000e+00 0.0000000000000000e+00 2.6874658372539621e+01 0 0 0
585 2 1.2305000000000001e+00 7.1042950623783474e-01 2.6874658372539621e+01 0 0 0
592 2 1.2305000000000001e+00 2.1312885187134998e+00 2.6874658372539621e+01 0 0 0
594 2 2.4610000000000003e+00 2.8417180249513345e+00 2.6874658372539621e+01 0 0 0
596 2 2.4610000000000003e+00 0.0000000000000000e+00 2.6874658372539621e+01 0 0 0
598 2 3.6915000000000004e+00 7.1042950623783474e-01 2.6874658372539621e+01 0 0 0
613 2 3.6914999999999996e+00 2.1312885187134998e+00 2.6874658372539621e+01 0 0 0
582 2 0.0000000000000000e+00 1.4208590124756650e+00 3.0031000000000567e+01 0 0 0
584 2 0.0000000000000000e+00 0.0000000000000000e+00 3.0031000000000567e+01 0 0 0
591 2 1.2305000000000001e+00 3.5521475311891644e+00 3.0031000000000567e+01 0 0 0
593 2 1.2305000000000001e+00 2.1312885187134998e+00 3.0031000000000567e+01 0 0 0
595 2 2.4610000000000003e+00 1.4208590124756650e+00 3.0031000000000567e+01 0 0 0
597 2 2.4610000000000003e+00 0.0000000000000000e+00 3.0031000000000567e+01 0 0 0
612 2 3.6914999999999996e+00 3.5521475311891644e+00 3.0031000000000567e+01 0 0 0
614 2 3.6914999999999996e+00 2.1312885187134998e+00 3.0031000000000567e+01 0 0 0
615 2 4.9220000000000006e+00 2.8417180249513332e+00 2.6874658372539621e+01 0 0 0
617 2 4.9220000000000006e+00 0.0000000000000000e+00 2.6874658372539621e+01 0 0 0
619 2 6.1524999999999999e+00 7.1042950623783407e-01 2.6874658372539621e+01 0 0 0
642 2 6.1524999999999999e+00 2.1312885187134989e+00 2.6874658372539621e+01 0 0 0
644 2 7.3829999999999991e+00 2.8417180249513345e+00 2.6874658372539621e+01 0 0 0
646 2 7.3829999999999991e+00 0.0000000000000000e+00 2.6874658372539621e+01 0 0 0
616 2 4.9220000000000006e+00 1.4208590124756650e+00 3.0031000000000567e+01 0 0 0
618 2 4.9220000000000006e+00 0.0000000000000000e+00 3.0031000000000567e+01 0 0 0
641 2 6.1524999999999999e+00 3.5521475311891644e+00 3.0031000000000567e+01 0 0 0
643 2 6.1524999999999999e+00 2.1312885187134989e+00 3.0031000000000567e+01 0 0 0
645 2 7.3829999999999991e+00 1.4208590124756659e+00 3.0031000000000567e+01 0 0 0
647 2 7.3829999999999991e+00 0.0000000000000000e+00 3.0031000000000567e+01 0 0 0
648 2 8.6134999999999984e+00 7.1042950623783407e-01 2.6874658372539621e+01 0 0 0
679 2 8.6134999999999984e+00 2.1312885187135002e+00 2.6874658372539621e+01 0 0 0
681 2 9.8440000000000012e+00 2.8417180249513332e+00 2.6874658372539621e+01 0 0 0
683 2 9.8440000000000012e+00 0.0000000000000000e+00 2.6874658372539621e+01 0 0 0
685 2 1.1074500000000002e+01 7.1042950623783330e-01 2.6874658372539621e+01 0 0 0
724 2 1.1074500000000002e+01 2.1312885187135002e+00 2.6874658372539621e+01 0 0 0
678 2 8.6134999999999984e+00 3.5521475311891657e+00 3.0031000000000567e+01 0 0 0
680 2 8.6134999999999984e+00 2.1312885187135002e+00 3.0031000000000567e+01 0 0 0
682 2 9.8440000000000012e+00 1.4208590124756659e+00 3.0031000000000567e+01 0 0 0
684 2 9.8440000000000012e+00 0.0000000000000000e+00 3.0031000000000567e+01 0 0 0
723 2 1.1074500000000002e+01 3.5521475311891644e+00 3.0031000000000567e+01 0 0 0
725 2 1.1074500000000002e+01 2.1312885187135002e+00 3.0031000000000567e+01 0 0 0
586 2 0.0000000000000000e+00 7.1042950623783341e+00 2.6874658372539621e+01 0 0 0
588 2 0.0000000000000000e+00 4.2625770374269996e+00 2.6874658372539621e+01 0 0 0
590 2 1.2305000000000001e+00 4.9730065436648339e+00 2.6874658372539621e+01 0 0 0
605 2 1.2305000000000001e+00 6.3938655561404980e+00 2.6874658372539621e+01 0 0 0
607 2 2.4610000000000003e+00 7.1042950623783341e+00 2.6874658372539621e+01 0 0 0
609 2 2.4610000000000003e+00 4.2625770374269996e+00 2.6874658372539621e+01 0 0 0
611 2 3.6914999999999996e+00 4.9730065436648339e+00 2.6874658372539621e+01 0 0 0
634 2 3.6914999999999996e+00 6.3938655561404980e+00 2.6874658372539621e+01 0 0 0
587 2 0.0000000000000000e+00 5.6834360499026637e+00 3.0031000000000567e+01 0 0 0
589 2 0.0000000000000000e+00 4.2625770374269996e+00 3.0031000000000567e+01 0 0 0
604 2 1.2305000000000001e+00 7.8147245686161639e+00 3.0031000000000567e+01 0 0 0
606 2 1.2305000000000001e+00 6.3938655561404980e+00 3.0031000000000567e+01 0 0 0
608 2 2.4610000000000003e+00 5.6834360499026637e+00 3.0031000000000567e+01 0 0 0
610 2 2.4610000000000003e+00 4.2625770374269996e+00 3.0031000000000567e+01 0 0 0
633 2 3.6914999999999996e+00 7.8147245686161639e+00 3.0031000000000567e+01 0 0 0
635 2 3.6914999999999996e+00 6.3938655561404980e+00 3.0031000000000567e+01 0 0 0
636 2 4.9220000000000006e+00 7.1042950623783341e+00 2.6874658372539621e+01 0 0 0
638 2 4.9220000000000006e+00 4.2625770374269978e+00 2.6874658372539621e+01 0 0 0
640 2 6.1524999999999999e+00 4.9730065436648339e+00 2.6874658372539621e+01 0 0 0
671 2 6.1524999999999999e+00 6.3938655561404980e+00 2.6874658372539621e+01 0 0 0
673 2 7.3830000000000009e+00 7.1042950623783341e+00 2.6874658372539621e+01 0 0 0
675 2 7.3829999999999991e+00 4.2625770374269996e+00 2.6874658372539621e+01 0 0 0
637 2 4.9220000000000006e+00 5.6834360499026637e+00 3.0031000000000567e+01 0 0 0
639 2 4.9220000000000006e+00 4.2625770374269978e+00 3.0031000000000567e+01 0 0 0
670 2 6.1524999999999999e+00 7.8147245686161639e+00 3.0031000000000567e+01 0 0 0
672 2 6.1524999999999999e+00 6.3938655561404980e+00 3.0031000000000567e+01 0 0 0
674 2 7.3829999999999991e+00 5.6834360499026637e+00 3.0031000000000567e+01 0 0 0
676 2 7.3829999999999991e+00 4.2625770374269996e+00 3.0031000000000567e+01 0 0 0
677 2 8.6135000000000002e+00 4.9730065436648339e+00 2.6874658372539621e+01 0 0 0
716 2 8.6135000000000002e+00 6.3938655561404980e+00 2.6874658372539621e+01 0 0 0
718 2 9.8440000000000012e+00 7.1042950623783341e+00 2.6874658372539621e+01 0 0 0
720 2 9.8440000000000012e+00 4.2625770374270004e+00 2.6874658372539621e+01 0 0 0
722 2 1.1074500000000002e+01 4.9730065436648339e+00 2.6874658372539621e+01 0 0 0
763 2 1.1074500000000002e+01 6.3938655561404980e+00 2.6874658372539621e+01 0 0 0
715 2 8.6135000000000002e+00 7.8147245686161639e+00 3.0031000000000567e+01 0 0 0
717 2 8.6135000000000002e+00 6.3938655561404980e+00 3.0031000000000567e+01 0 0 0
719 2 9.8440000000000012e+00 5.6834360499026637e+00 3.0031000000000567e+01 0 0 0
721 2 9.8440000000000012e+00 4.2625770374270004e+00 3.0031000000000567e+01 0 0 0
762 2 1.1074500000000002e+01 7.8147245686161639e+00 3.0031000000000567e+01 0 0 0
764 2 1.1074500000000002e+01 6.3938655561404980e+00 3.0031000000000567e+01 0 0 0
599 2 0.0000000000000000e+00 1.1366872099805333e+01 2.6874658372539621e+01 0 0 0
601 2 0.0000000000000000e+00 8.5251540748539991e+00 2.6874658372539621e+01 0 0 0
603 2 1.2305000000000001e+00 9.2355835810918343e+00 2.6874658372539621e+01 0 0 0
626 2 1.2305000000000001e+00 1.0656442593567498e+01 2.6874658372539621e+01 0 0 0
628 2 2.4610000000000003e+00 1.1366872099805333e+01 2.6874658372539621e+01 0 0 0
630 2 2.4610000000000003e+00 8.5251540748539991e+00 2.6874658372539621e+01 0 0 0
632 2 3.6915000000000004e+00 9.2355835810918343e+00 2.6874658372539621e+01 0 0 0
663 2 3.6914999999999996e+00 1.0656442593567499e+01 2.6874658372539621e+01 0 0 0
600 2 0.0000000000000000e+00 9.9460130873296642e+00 3.0031000000000567e+01 0 0 0
602 2 0.0000000000000000e+00 8.5251540748539991e+00 3.0031000000000567e+01 0 0 0
625 2 1.2305000000000001e+00 1.2077301606043163e+01 3.0031000000000567e+01 0 0 0
627 2 1.2305000000000001e+00 1.0656442593567498e+01 3.0031000000000567e+01 0 0 0
629 2 2.4610000000000003e+00 9.9460130873296642e+00 3.0031000000000567e+01 0 0 0
631 2 2.4610000000000003e+00 8.5251540748539991e+00 3.0031000000000567e+01 0 0 0
662 2 3.6914999999999996e+00 1.2077301606043163e+01 3.0031000000000567e+01 0 0 0
664 2 3.6914999999999996e+00 1.0656442593567499e+01 3.0031000000000567e+01 0 0 0
665 2 4.9220000000000006e+00 1.1366872099805333e+01 2.6874658372539621e+01 0 0 0
667 2 4.9220000000000006e+00 8.5251540748539991e+00 2.6874658372539621e+01 0 0 0
669 2 6.1524999999999999e+00 9.2355835810918343e+00 2.6874658372539621e+01 0 0 0
708 2 6.1524999999999999e+00 1.0656442593567499e+01 2.6874658372539621e+01 0 0 0
710 2 7.3829999999999991e+00 1.1366872099805333e+01 2.6874658372539621e+01 0 0 0
712 2 7.3830000000000009e+00 8.5251540748539991e+00 2.6874658372539621e+01 0 0 0
666 2 4.9220000000000006e+00 9.9460130873296642e+00 3.0031000000000567e+01 0 0 0
668 2 4.9220000000000006e+00 8.5251540748539991e+00 3.0031000000000567e+01 0 0 0
707 2 6.1524999999999999e+00 1.2077301606043163e+01 3.0031000000000567e+01 0 0 0
709 2 6.1524999999999999e+00 1.0656442593567499e+01 3.0031000000000567e+01 0 0 0
711 2 7.3830000000000009e+00 9.9460130873296642e+00 3.0031000000000567e+01 0 0 0
713 2 7.3830000000000009e+00 8.5251540748539991e+00 3.0031000000000567e+01 0 0 0
802 2 1.1074500000000002e+01 1.0656442593567498e+01 2.6874658372539621e+01 0 0 0
757 2 9.8440000000000012e+00 1.1366872099805333e+01 2.6874658372539621e+01 0 0 0
761 2 1.1074500000000002e+01 9.2355835810918343e+00 2.6874658372539621e+01 0 0 0
804 2 1.2304999999999998e+01 1.1366872099805333e+01 2.6874658372539621e+01 0 0 0
801 2 1.1074500000000002e+01 1.2077301606043163e+01 3.0031000000000567e+01 0 0 0
755 2 8.6134999999999984e+00 1.0656442593567498e+01 2.6874658372539621e+01 0 0 0
754 2 8.6135000000000002e+00 1.2077301606043163e+01 3.0031000000000567e+01 0 0 0
5265 1 3.9906257901236133e+00 2.1836299511648751e+00 1.6532307669556566e+01 0 1 0
3396 1 2.5762379738092518e+00 7.1013035636620189e-02 2.4888021591122996e+01 1 0 0
3489 1 1.6171158576000890e+00 3.4045215919529586e+00 1.6304515093674127e+01 2 0 0
1380 1 1.1119079679266854e+00 8.6881622908662681e+00 2.4044989136961675e+01 2 0 1
2065 1 4.2909826604235252e-01 1.5298119215051154e+00 2.3476009135363199e+01 0 1 0
1696 1 2.1657881618532109e+00 1.0535044212431316e+01 1.7105472159441803e+01 0 1 1
1956 1 1.1359400191850343e+01 8.7850053472083420e+00 2.1175779704165969e+01 0 -1 0
4746 1 1.1922668560979274e+01 2.5102275265893810e+00 2.3712680098242547e+01 1 0 1
3595 1 2.3991478033064975e+00 7.7043981907371046e+00 1.6066536509857130e+01 -1 1 0
910 2 0.0000000000000000e+00 2.8417180249513345e+00 3.3187341627459389e+01 0 0 0
911 2 0.0000000000000000e+00 0.0000000000000000e+00 3.3187341627459389e+01 0 0 0
912 2 1.2305000000000001e+00 7.1042950623783474e-01 3.3187341627459389e+01 0 0 0
916 2 1.2305000000000001e+00 2.1312885187134998e+00 3.3187341627459389e+01 0 0 0
917 2 2.4610000000000003e+00 2.8417180249513345e+00 3.3187341627459389e+01 0 0 0
918 2 2.4610000000000003e+00 0.0000000000000000e+00 3.3187341627459389e+01 0 0 0
919 2 3.6915000000000004e+00 7.1042950623783474e-01 3.3187341627459389e+01 0 0 0
927 2 3.6914999999999996e+00 2.1312885187134998e+00 3.3187341627459389e+01 0 0 0
928 2 4.9220000000000006e+00 2.8417180249513332e+00 3.3187341627459389e+01 0 0 0
929 2 4.9220000000000006e+00 0.0000000000000000e+00 3.3187341627459389e+01 0 0 0
930 2 6.1524999999999999e+00 7.1042950623783407e-01 3.3187341627459389e+01 0 0 0
942 2 6.1524999999999999e+00 2.1312885187134989e+00 3.3187341627459389e+01 0 0 0
943 2 7.3829999999999991e+00 2.8417180249513345e+00 3.3187341627459389e+01 0 0 0
944 2 7.3829999999999991e+00 0.0000000000000000e+00 3.3187341627459389e+01 0 0 0
945 2 8.6134999999999984e+00 7.1042950623783407e-01 3.3187341627459389e+01 0 0 0
961 2 8.6134999999999984e+00 2.1312885187135002e+00 3.3187341627459389e+01 0 0 0
962 2 9.8440000000000012e+00 2.8417180249513332e+00 3.3187341627459389e+01 0 0 0
963 2 9.8440000000000012e+00 0.0000000000000000e+00 3.3187341627459389e+01 0 0 0
964 2 1.1074500000000002e+01 7.1042950623783330e-01 3.3187341627459389e+01 0 0 0
984 2 1.1074500000000002e+01 2.1312885187135002e+00 3.3187341627459389e+01 0 0 0
913 2 0.0000000000000000e+00 7.1042950623783341e+00 3.3187341627459389e+01 0 0 0
914 2 0.0000000000000000e+00 4.2625770374269996e+00 3.3187341627459389e+01 0 0 0
915 2 1.2305000000000001e+00 4.9730065436648339e+00 3.3187341627459389e+01 0 0 0
923 2 1.2305000000000001e+00 6.3938655561404980e+00 3.3187341627459389e+01 0 0 0
924 2 2.4610000000000003e+00 7.1042950623783341e+00 3.3187341627459389e+01 0 0 0
925 2 2.4610000000000003e+00 4.2625770374269996e+00 3.3187341627459389e+01 0 0 0
926 2 3.6914999999999996e+00 4.9730065436648339e+00 3.3187341627459389e+01 0 0 0
938 2 3.6914999999999996e+00 6.3938655561404980e+00 3.3187341627459389e+01 0 0 0
939 2 4.9220000000000006e+00 7.1042950623783341e+00 3.3187341627459389e+01 0 0 0
940 2 4.9220000000000006e+00 4.2625770374269978e+00 3.3187341627459389e+01 0 0 0
941 2 6.1524999999999999e+00 4.9730065436648339e+00 3.3187341627459389e+01 0 0 0
957 2 6.1524999999999999e+00 6.3938655561404980e+00 3.3187341627459389e+01 0 0 0
958 2 7.3830000000000009e+00 7.1042950623783341e+00 3.3187341627459389e+01 0 0 0
959 2 7.3829999999999991e+00 4.2625770374269996e+00 3.3187341627459389e+01 0 0 0
960 2 8.6135000000000002e+00 4.9730065436648339e+00 3.3187341627459389e+01 0 0 0
980 2 8.6135000000000002e+00 6.3938655561404980e+00 3.3187341627459389e+01 0 0 0
981 2 9.8440000000000012e+00 7.1042950623783341e+00 3.3187341627459389e+01 0 0 0
982 2 9.8440000000000012e+00 4.2625770374270004e+00 3.3187341627459389e+01 0 0 0
983 2 1.1074500000000002e+01 4.9730065436648339e+00 3.3187341627459389e+01 0 0 0
1004 2 1.1074500000000002e+01 6.3938655561404980e+00 3.3187341627459389e+01 0 0 0
920 2 0.0000000000000000e+00 1.1366872099805333e+01 3.3187341627459389e+01 0 0 0
921 2 0.0000000000000000e+00 8.5251540748539991e+00 3.3187341627459389e+01 0 0 0
922 2 1.2305000000000001e+00 9.2355835810918343e+00 3.3187341627459389e+01 0 0 0
934 2 1.2305000000000001e+00 1.0656442593567498e+01 3.3187341627459389e+01 0 0 0
935 2 2.4610000000000003e+00 1.1366872099805333e+01 3.3187341627459389e+01 0 0 0
936 2 2.4610000000000003e+00 8.5251540748539991e+00 3.3187341627459389e+01 0 0 0
937 2 3.6915000000000004e+00 9.2355835810918343e+00 3.3187341627459389e+01 0 0 0
953 2 3.6914999999999996e+00 1.0656442593567499e+01 3.3187341627459389e+01 0 0 0
954 2 4.9220000000000006e+00 1.1366872099805333e+01 3.3187341627459389e+01 0 0 0
955 2 4.9220000000000006e+00 8.5251540748539991e+00 3.3187341627459389e+01 0 0 0
956 2 6.1524999999999999e+00 9.2355835810918343e+00 3.3187341627459389e+01 0 0 0
976 2 6.1524999999999999e+00 1.0656442593567499e+01 3.3187341627459389e+01 0 0 0
977 2 7.3829999999999991e+00 1.1366872099805333e+01 3.3187341627459389e+01 0 0 0
978 2 7.3830000000000009e+00 8.5251540748539991e+00 3.3187341627459389e+01 0 0 0
979 2 8.6134999999999984e+00 9.2355835810918343e+00 3.3187341627459389e+01 0 0 0
1000 2 8.6134999999999984e+00 1.0656442593567498e+01 3.3187341627459389e+01 0 0 0
1001 2 9.8440000000000012e+00 1.1366872099805333e+01 3.3187341627459389e+01 0 0 0
1002 2 9.8440000000000012e+00 8.5251540748539956e+00 3.3187341627459389e+01 0 0 0
1003 2 1.1074500000000002e+01 9.2355835810918343e+00 3.3187341627459389e+01 0 0 0
1024 2 1.1074500000000002e+01 1.0656442593567498e+01 3.3187341627459389e+01 0 0 0
1025 2 1.2304999999999998e+01 1.1366872099805333e+01 3.3187341627459389e+01 0 0 0
62 1 5.8157027948384314e+00 4.6936238035530320e-01 3.5776411878611540e+01 1 0 -1
3033 1 4.7705110246493504e-01 7.9311356453446757e+00 4.3900234150385302e+01 1 -1 0
1594 1 7.9204450298347073e-01 9.7793205056167909e-01 3.6563520582128589e+01 0 -2 0
225 1 3.9855117447650459e+00 5.6767814100479734e+00 3.7133588715485828e+01 -1 1 -1
4965 1 3.2185342518939453e+00 3.0558342223880026e+00 3.6200062725126728e+01 0 -1 -1
2059 1 2.4255428471807559e+00 1.1603358295356916e+01 4.2092611186050775e+01 0 1 -1
3505 1 4.0185263621088483e+00 1.2098456468289879e+01 3.5826415089249366e+01 1 1 -1
4964 1 6.1646455705881289e+00 2.8865278862618866e+00 3.7225888670519524e+01 -1 3 -1
1385 1 9.0524101618328370e+00 1.0447867382775831e+01 4.2874925770931952e+01 0 -1 0
3678 1 1.5427494562916912e+00 5.9653505244650367e+00 3.9561379726289701e+01 1 1 0
1544 1 8.9960280967759871e+00 9.1915900597977593e+00 4.0404129378717613e+01 0 2 -1
6211 1 6.5414471976627748e+00 5.5234312646336292e+00 3.6051344351247337e+01 0 1 0
3497 1 7.3771368162455584e+00 8.0311909470568086e+00 3.6874079288137636e+01 1 -1 -1
4763 1 7.1653345806819040e+00 7.1073709824328501e+00 3.9713870163613720e+01 2 0 0
6286 1 4.4948118711619029e+00 5.5202832506932218e+00 3.9845004870846083e+01 0 2 0
1439 1 9.2433456655797244e+00 4.6143773601819404e+00 3.7622971382357377e+01 -1 1 0
3654 1 1.1702144081649982e+01 2.5884862006430569e+00 3.6490291393547494e+01 1 -1 0
2020 1 9.9100343123291861e+00 7.3552406904484169e+00 3.5868517388718232e+01 -1 -1 -1
3715 1 1.0307437665995145e+00 8.6764153368916350e+00 3.9157856115757852e+01 2 0 0
1861 1 1.2463221065898040e+00 8.7287841663270598e+00 3.6349327073561241e+01 0 0 -1
226 1 1.0757511661880343e+01 9.8135614987374460e+00 3.6366711220911768e+01 1 -1 -1
71 1 4.0406490366705343e+00 8.4883643012462588e+00 3.6564426569794605e+01 -1 1 0
6329 1 6.1063121663401141e+00 1.0340936500844940e+01 3.5277642188108146e+01 0 0 0
4621 1 4.3070811949536809e+00 1.0331795272763697e+01 3.8384322779161607e+01 0 1 0
3364 1 7.2145077596951852e+00 1.0591447704495200e+01 3.8520288499429384e+01 0 0 -1
6316 1 8.5125514476329354e+00 1.1574061137848611e+01 3.5729499866859058e+01 -1 1 0
5176 1 9.6380870591419612e+00 6.6510747124414413e+00 4.3224110962715642e+01 1 1 0
6221 1 6.8227347294799867e-01 1.2704027298539553e+00 3.9762095667406157e+01 1 0 0
346 1 3.1262434732904310e+00 9.3954983659350138e+00 4.0542748730535436e+01 0 1 -1
1618 1 5.8211632510277189e+00 5.2471336414746013e+00 4.3017184834152985e+01 1 -1 0
2189 1 9.0291918452433890e+00 1.8621827110722322e+00 3.7735008355508455e+01 0 -1 0
4895 1 5.3413621014860038e+00 2.9982418501999568e+00 3.9821974235314286e+01 1 0 0
340 1 8.4591736998736859e+00 8.6093915627993700e-01 4.2433738312668979e+01 2 1 -1
277 1 1.1557265756904800e+00 1.1311934128693100e+01 3.5935625511515013e+01 -1 -1 -1
3458 1 1.7147377588989654e+00 3.5370373474388228e+00 4.3108178859617993e+01 2 1 -1
3101 1 1.3331565670157854e+00 5.9967037122749556e+00 4.2027644597764521e+01 1 1 0
1282 1 2.8055364567185874e+00 1.5765655403065937e+00 4.1426396361557295e+01 1 3 0
5412 1 7.3328114731609073e+00 3.3024731812586827e+00 4.1473199926409805e+01 1 1 0
1642 1 9.0528003392227259e+00 5.4561966270894358e+00 4.0586315746447582e+01 0 -1 0
327 1 1.1532055976018988e+01 9.9670642359494863e+00 3.8992478511131395e+01 1 -2 -1
3149 1 1.1051125674005570e+01 8.9943324314324773e+00 4.3579776916230983e+01 1 1 0
1945 1 1.2024060630191945e+01 5.4959976269028203e+00 3.6365657452002154e+01 -1 -2 -1
134 1 3.9170604145844976e+00 7.2493442953256917e+00 4.2261814991173893e+01 -1 2 0
5240 1 1.1801499467140818e+01 5.3064145189379781e+00 3.9726183053468574e+01 0 0 -1
4781 1 2.6859750481408884e-01 3.6723928639072319e+00 3.6069010949351352e+01 -1 -2 0
4637 1 1.2253234171358770e+01 1.1443625053986307e-01 4.3943663417627178e+01 1 0 0
137 1 1.0544844750546819e+01 8.9507463940548533e+00 5.2939281117466948e+01 2 1 -1
5092 1 8.0835741021985363e+00 1.1697127334359083e+01 5.1561663046914333e+01 0 1 0
1455 1 7.7877173398049537e+00 1.0380116218232917e-01 5.2577817860851113e+01 1 -1 0
1568 1 2.8699115497627621e+00 4.7297052625209179e+00 4.7684803865601353e+01 0 1 0
2058 1 6.2109818211334034e+00 2.6341939431099277e+00 4.6191098653610752e+01 0 1 -1
3297 1 5.2248542182536761e+00 1.2856777866383533e+00 4.8575672376257614e+01 1 -1 -1
4703 1 1.0545406621364029e+01 1.4983522333471069e+00 5.7357224078637429e+01 0 1 0
3024 1 8.9369989110919708e+00 4.2018053983269024e+00 5.1190519502690179e+01 -1 1 0
3401 1 1.0478971310956505e+01 1.0599474937464652e+00 4.7180059302195630e+01 0 -1 -1
6198 1 1.1935449745469440e+00 6.6829924534372989e+00 5.3903764535468028e+01 1 -2 0
3465 1 2.4083398179368323e+00 1.4913651907592407e-01 4.7298087307983678e+01 0 1 -1
4864 1 6.5982811234633312e+00 6.5677609108900548e+00 4.8440070084505706e+01 1 1 0
6407 1 4.0968047279228434e+00 7.9634306695108084e+00 4.7372468250213259e+01 1 -1 0
5379 1 1.4827380766686125e+00 1.0142140310212818e+01 5.0185181995168961e+01 0 1 0
2099 1 7.5436687280764021e+00 6.3427947812849848e+00 4.4750661599709375e+01 1 0 -1
1679 1 1.0077400887644883e+01 3.8593975598269994e+00 4.8151453716718251e+01 -1 1 0
1503 1 1.0093936791180379e+01 7.9638859825115738e+00 5.5925510914644079e+01 -1 2 0
1643 1 7.8133363038255830e+00 4.7778800762616314e+00 4.6688230091892962e+01 0 0 0
3073 1 2.4823194604018850e+00 2.3529710921998990e+00 4.9228233956666173e+01 0 0 0
3656 1 7.7632549938693893e+00 7.0137438968175170e+00 5.3999648918555721e+01 0 0 0