
# Create simulation box and atoms

read_data data.graphite_ML_500atm_e
  orthogonal box = (0 0 1.31653) to (49.22 49.0196 58.7455)
  4 by 4 by 4 MPI processor grid
  reading atoms ...
  6472 atoms
  reading velocities ...
  6472 velocities
group water type 1
3712 atoms in group water
group graphite type 2
2760 atoms in group graphite

# Define potential

pair_style sw
pair_coeff * * MLC_e.sw mW C


# Fix graphite atoms in place

fix 5 graphite setforce 0.0 0.0 0.0
velocity graphite set 0.0 0.0 0.0


# Equilibration of molecular water

# Add velocity/set timestep

velocity	    water create ${TEMP} ${SEED} rot yes dist gaussian
velocity	    water create 240 ${SEED} rot yes dist gaussian
velocity	    water create 240 9945 rot yes dist gaussian
timestep	    5.0

# Define output

compute			1 water msd
compute			3 water temp
thermo	    	50
thermo_style	custom step temp press vol etotal ke pe c_1[4] c_3

# Neighbor lists

neigh_modify    delay 0 every 1 check yes

# Set fixes

fix             1 water momentum 10 linear 1 1 1 rescale
fix             2 water nve
fix             3 water temp/csvr ${TEMP} ${TEMP} 500.0 ${SEED}
fix             3 water temp/csvr 240 ${TEMP} 500.0 ${SEED}
fix             3 water temp/csvr 240 240 500.0 ${SEED}
fix             3 water temp/csvr 240 240 500.0 9945
fix             4 water press/berendsen z ${PRES} ${PRES} 1000.0 modulus 20000
fix             4 water press/berendsen z -500 ${PRES} 1000.0 modulus 20000
fix             4 water press/berendsen z -500 -500 1000.0 modulus 20000

# Run 0.5 ns equilibration

dump		    1 all atom 2000 ${DIR}/eq.${NAME}-${TEMP}.dump
dump		    1 all atom 2000 run_3/eq.${NAME}-${TEMP}.dump
dump		    1 all atom 2000 run_3/eq.het_freeze_3-${TEMP}.dump
dump		    1 all atom 2000 run_3/eq.het_freeze_3-240.dump

reset_timestep  0

run	            100000
Neighbor list info ...
  update every 1 steps, delay 0 steps, check yes
  max neighbors/atom: 2000, page size: 100000
  master list distance cutoff = 7.76
  ghost atom cutoff = 7.76
  binsize = 3.88, bins = 13 13 15
  1 neighbor lists, perpetual/occasional/extra = 1 0 0
  (1) pair sw, perpetual
      attributes: full, newton on
      pair build: full/bin/atomonly
      stencil: full/bin/3d
      bin: standard
Per MPI rank memory allocation (min/avg/max) = 4.082 | 4.203 | 4.509 Mbytes
Step Temp Press Volume TotEng KinEng PotEng c_1[4] c_3 
       0    137.63561   -1491.3424    138561.45   -31953.892    2654.8287   -34608.721            0          240 
      50    180.83458   -1355.8757    138119.83   -32409.209     3488.086   -35897.295   0.80238727    315.32755 
     100    174.89674   -1431.9286    137669.03    -32806.53     3373.552   -36180.082    1.7636437    304.97354 
     150    169.77019   -1308.0836    137260.29   -33132.701     3274.667   -36407.368    2.5261912     296.0342 
     200    164.86567   -1126.6834    136882.67   -33453.213    3180.0645   -36633.278    3.2124408    287.48201 
     250    160.16597   -1161.3494    136653.65    -33687.22    3089.4129   -36776.633    3.8706328    279.28699 
     300     157.6308   -1011.6918    136359.22    -33927.65    3040.5125   -36968.162    4.5351284    274.86633 
     350    156.60775   -1151.9892     136012.4   -34145.285     3020.779   -37166.064    5.1232172    273.08239 
     400    150.92841   -1007.4416    135762.78   -34346.483    2911.2313   -37257.714    5.6374798    263.17913 
     450    148.88121   -1098.5527    135531.99   -34513.964    2871.7432   -37385.707    6.0423168    259.60936 
     500    144.26131   -978.83508    135306.56   -34657.179    2782.6308    -37439.81    6.5514149    251.55348 
     550    143.00551   -1065.5854    134990.34   -34721.737    2758.4078   -37480.145    7.0629685    249.36369 
     600    147.16878   -810.47555    134772.74   -34719.522    2838.7125   -37558.235    7.6117622    256.62334 
     650    143.85686   -943.32321     134716.8   -34792.911    2774.8293    -37567.74    8.0249893    250.84822 
     700    143.54057   -1083.3702    134602.36   -34913.083    2768.7284   -37681.811    8.4306345    250.29669 
     750    144.52883    -1064.925    134464.44   -34989.931    2787.7908   -37777.722    8.8967047    252.01995 
     800    141.31753   -757.33267    134398.22   -35057.689    2725.8487   -37783.538    9.2601909     246.4203 
     850    140.39895   -978.70443    134307.91   -35105.084    2708.1303   -37813.214     9.660838    244.81853 
     900     138.6893    -689.9134    134231.98   -35134.146    2675.1532   -37809.299    10.117851    241.83737 
     950    143.01803   -838.03266    134208.45   -35167.458    2758.6494   -37926.107    10.437616    249.38553 
    1000    142.55744   -1037.4462    134155.39   -35142.851     2749.765   -37892.616    10.893748    248.58237 
    1050    140.32267   -622.46215    134102.48   -35192.124     2706.659   -37898.783    11.297084    244.68553 
    1100    140.73841   -905.81475    134042.35   -35251.058    2714.6781   -37965.736    11.629465    245.41046 
    1150    140.06104   -727.21623     134052.1   -35261.711    2701.6124   -37963.324    11.930345    244.22931 
    1200    134.89138   -759.81906    133927.84   -35321.338    2601.8958   -37923.234    12.250686     235.2148 
    1250    139.42732   -725.55107    133930.36   -35388.085    2689.3888   -38077.473    12.469644    243.12428 
    1300    138.46341   -608.32221    133948.63   -35372.594    2670.7961    -38043.39    12.788524    241.44348 
    1350    138.15374   -595.03419    134043.53   -35377.911    2664.8229   -38042.734    12.956627    240.90349 
    1400    141.28177   -731.13731    134108.19   -35366.449    2725.1589   -38091.608     13.09459    246.35794 
    1450    141.62356   -590.13287    134198.44   -35339.447    2731.7516   -38071.199    13.298891    246.95394 
    1500    141.26226   -650.13835    134268.72    -35328.96    2724.7825   -38053.743     13.44505    246.32392 
    1550    138.32403   -815.60889    134253.97   -35392.654    2668.1077   -38060.762    13.605823    241.20044 
    1600    139.48737   -676.77292    134234.07   -35422.793     2690.547    -38113.34    13.772358    243.22898 
    1650    140.80915   -507.53986    134254.72   -35432.324    2716.0425   -38148.366    14.057878    245.53381 
    1700    139.87973   -503.39386    134269.55   -35436.702    2698.1153   -38134.817    14.283041    243.91317 
    1750    137.80371   -453.84855     134348.3   -35481.245    2658.0712   -38139.316    14.383311    240.29313 
    1800    139.26918   -646.89315    134425.09   -35485.409    2686.3384   -38171.747    14.529564    242.84853 
    1850    134.97409   -345.03729    134396.73   -35522.667    2603.4912   -38126.158    14.838174    235.35902 
    1900    136.71117   -354.77416    134456.21   -35571.511    2636.9974   -38208.509     15.07476    238.38803 
    1950    136.34861   -186.09288    134555.98   -35543.681    2630.0041   -38173.685    15.307723    237.75583 
    2000    136.55875   -574.87627    134637.61   -35586.512    2634.0575   -38220.569    15.477359    238.12226 
    2050    134.33954   -502.83634    134631.78   -35570.937    2591.2515   -38162.189      15.6089    234.25254 
    2100    138.20605   -624.81567    134667.44   -35566.706    2665.8319   -38232.538    15.944658    240.99471 
    2150    137.35819   -707.77099    134625.92   -35561.184    2649.4776   -38210.662    16.272268    239.51626 
    2200    135.81711   -687.09797    134594.63    -35583.32     2619.752   -38203.072     16.47338    236.82902 
    2250    135.88095   -624.41909    134682.86   -35623.031    2620.9835   -38244.014    16.677022    236.94035 
    2300    135.20806   -708.93836    134716.42   -35612.337    2608.0042   -38220.341    16.837087    235.76701 
    2350    137.92316   -831.19439    134736.05   -35606.605    2660.3752    -38266.98    17.107864    240.50141 
    2400    138.49264   -461.23022    134760.27   -35621.154    2671.3599   -38292.514     17.23945    241.49444 
    2450    134.14314   -831.07295     134750.9   -35632.585    2587.4632   -38220.048    17.305457    233.91007 
    2500    137.67067   -840.38963    134726.69   -35627.857    2655.5051   -38283.362    17.477272    240.06115 
    2550    137.64688   -744.20849    134745.77   -35655.736    2655.0462   -38310.782    17.613883    240.01966 
    2600    136.50892   -919.17196    134794.49   -35634.132    2633.0962   -38267.228    17.953398    238.03536 
    2650    140.19342   -778.60474    134764.39   -35641.921    2704.1659   -38346.086     18.18201    244.46015 
    2700     137.3106   -679.36849     134786.2   -35633.355    2648.5596   -38281.914     18.51241    239.43327 
    2750    135.51244   -686.23287    134774.72   -35653.774    2613.8753   -38267.649    18.808536    236.29776 
    2800     137.7971   -552.09623    134856.26    -35633.64    2657.9437   -38291.583    18.999708    240.28161 
    2850    137.16139   -439.28902    134979.48   -35605.285    2645.6816   -38250.966     19.23326     239.1731 
    2900     136.3689   -920.04922    134859.87   -35614.994    2630.3955    -38245.39    19.507385    237.79121 
    2950    138.64591   -919.48819    134775.54   -35563.118    2674.3163   -38237.435    19.736031    241.76171 
    3000    138.86233   -561.46706     134742.7   -35522.553    2678.4908   -38201.044    19.852336    242.13909 
    3050    139.85112   -604.41716    134733.43   -35573.186    2697.5634   -38270.749    19.973843    243.86327 
    3100    136.84413    -834.6628       134691   -35603.607     2639.562   -38243.169    20.188044    238.61987 
    3150    135.07153   -988.49428    134655.05   -35616.573    2605.3707   -38221.944    20.277804    235.52894 
    3200    140.58858   -861.27298    134590.48   -35606.827    2711.7881   -38318.615    20.510758    245.14921 
    3250    137.21424   -633.10645    134717.81   -35567.514     2646.701   -38214.215    20.777206    239.26525 
    3300    138.17667   -765.60583    134753.99   -35573.985    2665.2651    -38239.25      20.9601    240.94347 
    3350    136.09207   -512.42433     134779.8   -35597.877    2625.0557   -38222.933    21.198349    237.30848 
    3400    134.67143   -438.37517    134858.53   -35653.991    2597.6532   -38251.644     21.48109    234.83127 
    3450    136.83428   -798.21721    134966.01   -35625.036    2639.3721   -38264.408    21.760074    238.60271 
    3500    137.20905   -622.98085    134848.27   -35647.344    2646.6009   -38293.945    21.977712     239.2562 
    3550    135.11575   -748.66348    134894.32   -35625.736    2606.2236    -38231.96    22.099837    235.60603 
    3600    136.79965   -856.53878    134842.21   -35612.104    2638.7041   -38250.809    22.372842    238.54232 
    3650    134.76171   -686.33305    134873.84   -35622.158    2599.3946   -38221.553    22.518348    234.98869 
    3700    136.99393   -870.52648    134914.59   -35676.636    2642.4515   -38319.087    22.628406    238.88108 
    3750    135.74925     -1059.05    134866.18   -35633.579    2618.4431   -38252.023    22.982101     236.7107 
    3800    136.82487   -458.34656    134810.09   -35574.456    2639.1905   -38213.646    23.323582    238.58629 
    3850    138.17623   -585.20066    134912.11   -35543.402    2665.2567   -38208.658    23.581576    240.94271 
    3900    135.86983   -700.67435    134871.85   -35578.628    2620.7689   -38199.397    24.000495    236.92095 
    3950    136.19717   -987.42745    134856.73   -35599.381    2627.0829   -38226.464    24.317946    237.49175 
    4000    136.69279   -564.74019    134891.41   -35613.731    2636.6429   -38250.374    24.543093    238.35598 
    4050       142.32   -657.07215    134818.91   -35581.963    2745.1852   -38327.148     24.77112    248.16835 
    4100    139.51693   -558.21778    134783.49   -35578.084    2691.1173   -38269.201     24.83052    243.28054 
    4150     139.2841   -675.74209    134727.92   -35601.423    2686.6262   -38288.049    25.098865    242.87454 
    4200    138.85659   -759.11019    134724.07   -35589.573      2678.38   -38267.953     25.33575    242.12907 
    4250    135.29577   -733.15135    134728.92   -35621.507    2609.6959   -38231.203    25.401108    235.91994 
    4300     136.2421   -476.66394    134852.66   -35586.104    2627.9496   -38214.054    25.523397     237.5701 
    4350    137.43091   -859.01266    134893.13   -35566.155    2650.8803   -38217.035    25.644804    239.64306 
    4400    140.44891   -695.85897    134812.18   -35561.214    2709.0941   -38270.308    25.719808    244.90566 
    4450    139.72383   -857.19619    134799.06   -35561.243    2695.1081   -38256.351    25.882487    243.64131 
    4500     137.1313   -957.16938    134748.26   -35609.341    2645.1012   -38254.442    26.219206    239.12063 
    4550    134.86796    -460.4069    134698.83   -35609.434     2601.444   -38210.878    26.484775    235.17396 
    4600    138.58845   -620.57888    134728.93   -35562.348    2673.2079   -38235.556     26.62032    241.66151 
    4650    140.14547   -696.84877    134717.87   -35568.021    2703.2411   -38271.262    26.925449    244.37655 
    4700    137.78023    -827.7784    134650.65    -35603.77    2657.6183   -38261.388     27.18096    240.25219 
    4750    138.52028   -907.03939    134568.85   -35603.546     2671.893   -38275.439    27.526178    241.54264 
    4800    136.40128   -749.50866    134427.32    -35649.08    2631.0199   -38280.099    27.619709    237.84766 
    4850    136.37575   -725.84303    134504.55   -35639.362    2630.5275   -38269.889    27.832945    237.80314 
    4900    138.35388   -519.93247    134510.63   -35609.848    2668.6834   -38278.531    28.087714    241.25248 
    4950    137.77481   -646.28915    134584.66   -35619.668    2657.5137   -38277.181    28.336689    240.24274 
    5000    138.53609   -869.43887    134599.08   -35628.216     2672.198   -38300.414    28.647031    241.57021 
    5050    137.33895   -596.00244    134610.66   -35622.646    2649.1064   -38271.752    28.923611     239.4827 
    5100    136.08835   -641.77375    134607.43   -35605.281    2624.9839   -38230.265    29.174144    237.30199 
    5150    138.68401    -878.3688    134568.65   -35585.905    2675.0512   -38260.956    29.351568    241.82814 
    5200    137.00876   -713.79745    134543.31   -35609.508    2642.7375   -38252.246    29.644058    238.90695 
    5250    135.01161    -459.1794       134526    -35598.15    2604.2149   -38202.365    29.775395    235.42445 
    5300    136.79586   -574.79318    134534.43   -35579.913     2638.631   -38218.544    29.990974    238.53571 
    5350    139.73506   -478.26513    134526.76   -35567.011    2695.3247   -38262.335    30.023979    243.66089 
    5400    136.77805   -644.24326    134549.04   -35547.922    2638.2874   -38186.209    30.143183    238.50465 
    5450    138.14825   -639.80543     134563.6   -35543.143    2664.7171    -38207.86    30.374918    240.89392 
    5500    138.90782    -860.2657    134517.71    -35541.79    2679.3682   -38221.158    30.492972    242.21841 
    5550    138.64669   -520.88038    134407.41   -35509.944    2674.3312   -38184.275    30.792039    241.76306 
    5600    139.34499   -604.18065    134446.85   -35598.301    2687.8006   -38286.102    31.142504    242.98071 
    5650    137.68787   -584.39013    134468.89   -35614.935    2655.8367   -38270.772    31.462496    240.09113 
    5700    134.60284    -673.5918    134551.08   -35707.279    2596.3301   -38303.609    31.633319    234.71165 
    5750    136.03639   -556.16108    134636.83   -35699.803    2623.9816   -38323.784    31.788407    237.21139 
    5800    134.22181   -788.99335       134660   -35728.117    2588.9806   -38317.098    31.957294    234.04725 
    5850     136.5063   -552.65435    134669.88   -35721.943    2633.0457   -38354.988    32.256301    238.03079 
    5900    136.02007    -664.6165    134725.44    -35717.42     2623.667   -38341.087    32.535221    237.18294 
    5950    137.07018    -601.5858    134744.28   -35684.356    2643.9222   -38328.278    32.695066    239.01404 
    6000    134.41201   -664.63414    134815.88   -35667.038    2592.6494   -38259.687    32.874035    234.37891 
    6050    136.45584    -681.5747    134870.69     -35624.5    2632.0724   -38256.573    33.119314     237.9428 
    6100    140.07664   -916.00926    134949.43   -35551.531    2701.9133   -38253.444    33.453024    244.25651 
    6150    139.81529   -439.67078    135014.65   -35551.219    2696.8723   -38248.092     33.76263     243.8008 
    6200    139.31996   -452.77604    135086.64   -35549.856    2687.3178   -38237.174    34.010885    242.93706 
    6250    137.55976   -567.08939    135190.58   -35559.165    2653.3657    -38212.53    34.063937    239.86774 
    6300    139.28876   -674.77731    135191.79   -35548.492    2686.7161   -38235.208    34.285688    242.88267 
    6350    136.16813    -494.4567     135193.5   -35585.941    2626.5228   -38212.463    34.447169    237.44111 
    6400    139.26168   -692.20177    135282.72   -35572.601    2686.1936   -38258.795    34.597809    242.83544 
    6450    140.24589   -546.79409    135370.44   -35600.518    2705.1781   -38305.696    34.841759    244.55165 
    6500    135.78263   -359.86588    135472.43    -35622.49     2619.087   -38241.577    34.938192     236.7689 
    6550    136.18688   -812.29101    135431.74   -35654.467    2626.8845   -38281.352    35.007025    237.47381 
    6600    134.65754   -585.13542    135502.62   -35644.663    2597.3852   -38242.048    34.999737    234.80704 
    6650    135.19155   -871.27444    135520.26   -35665.574    2607.6858    -38273.26    35.089241    235.73822 
    6700    137.03963    -779.3836    135535.74   -35696.708    2643.3331   -38340.041    35.186064    238.96078 
    6750    136.79548   -420.20969    135603.72   -35740.304    2638.6236   -38378.927    35.447469    238.53504 
    6800    139.16073   -705.29732    135638.51   -35728.571    2684.2464   -38412.817    35.488489     242.6594 
    6850    139.49627   -600.88147    135691.08   -35688.368    2690.7187   -38379.087    35.652738     243.2445 
    6900    137.52068   -714.12649    135753.18   -35673.936    2652.6119   -38326.548      35.7792    239.79961 
    6950     136.4931   -435.30291    135814.84    -35677.62     2632.791   -38310.411    36.168262    238.00777 
    7000    134.59671   -587.21751     135870.5   -35667.152     2596.212   -38263.364    36.531504    234.70097 
    7050    136.78294   -837.50582    135901.55   -35654.139    2638.3818   -38292.521    36.802402    238.51318 
    7100    138.96018   -734.35492    135895.95   -35656.133    2680.3781   -38336.511    37.130299     242.3097 
    7150    137.59024   -651.01223       135933   -35633.135    2653.9537   -38287.089    37.294824     239.9209 
    7200    139.79958    -815.5648    135950.33   -35627.287    2696.5692   -38323.857    37.252343     243.7734 
    7250    137.76575   -686.32416    135926.28   -35647.963    2657.3391   -38305.302    37.529612    240.22695 
    7300    136.34991   -615.97094    135876.35   -35657.412    2630.0291   -38287.441     37.90414    237.75809 
    7350    138.98112   -889.63119    135879.59   -35662.467     2680.782   -38343.249    37.964067    242.34621 
    7400    136.01253   -693.30861    135708.78   -35655.673    2623.5214   -38279.194    38.165154    237.16978 
    7450    139.11861   -746.86321    135690.08   -35666.257    2683.4341   -38349.691    38.261013    242.58597 
    7500    138.53804   -732.44177    135630.75    -35716.68    2672.2356   -38388.915    38.519304    241.57361 
    7550     138.2681   -390.00792    135737.49    -35725.32    2667.0287   -38392.348    38.660233     241.1029 
    7600    139.20266   -584.98863    135828.24   -35722.838    2685.0553   -38407.893    38.893167    242.73253 
    7650    138.66989   -477.00543    135889.69   -35711.489    2674.7788   -38386.268    39.173677    241.80352 
    7700    137.23617   -498.63022    135964.47    -35750.67    2647.1241   -38397.794    39.303422     239.3035 
    7750    139.10451   -475.12022    136037.95   -35746.662    2683.1622   -38429.824    39.548174    242.56139 
    7800    137.81185   -640.10562    136058.37   -35763.079    2658.2281   -38421.307    40.037883    240.30732 
    7850    137.05951   -845.38975    135964.68   -35712.591    2643.7166   -38356.307    40.318371    238.99545 
    7900    138.42457   -747.90659    135898.28   -35701.697    2670.0469   -38371.744    40.422708    241.37575 
    7950    136.68031   -789.68912    135866.67   -35727.609    2636.4022   -38364.011    40.609964    238.33422 
    8000    136.11911   -745.36044    135850.77   -35748.973    2625.5773    -38374.55    40.774965    237.35564 
    8050    138.99154   -727.98609    135849.57   -35750.043     2680.983   -38431.026    40.922869    242.36439 
    8100    136.64864   -583.21395    135790.28   -35795.854    2635.7913   -38431.646      41.3234    238.27899 
    8150    136.00291    -807.8577    135772.74   -35770.289     2623.336   -38393.625    41.567328    237.15302 
    8200    135.08771   -686.76664    135796.64   -35769.574    2605.6827   -38375.257    41.862508    235.55714 
    8250    137.48968   -799.95523    135908.31    -35797.34     2652.014   -38449.354     42.06632    239.74555 
    8300    142.12741    -657.4514    135943.75   -35706.768    2741.4702   -38448.239     42.31631    247.83251 
    8350    139.94247   -699.54281    136069.08   -35684.002    2699.3255   -38383.328    42.467276    244.02257 
    8400    139.93599   -905.99695    136142.89   -35705.477    2699.2004   -38404.677    42.798128    244.01127 
    8450     138.0826   -676.79338    136095.92   -35740.829    2663.4507    -38404.28     43.15059    240.77945 
    8500    138.91156   -927.41688    136109.22   -35774.948    2679.4403   -38454.389    43.176732    242.22492 
    8550    137.44195   -764.04121    136133.93   -35782.528    2651.0934   -38433.622    43.090013    239.66233 
    8600    137.87738    -927.5451    136128.63   -35840.661    2659.4923   -38500.154    43.133902     240.4216 
    8650    135.18571    -894.7338    136052.07   -35843.304     2607.573   -38450.877    43.015603    235.72803 
    8700    135.60642   -742.85025     135988.3     -35772.1    2615.6881   -38387.788    43.236109    236.46164 
    8750    138.10917   -963.50129    135917.38   -35712.631    2663.9632   -38376.594    43.378008    240.82578 
    8800    137.90209   -751.09398    135883.65   -35750.258    2659.9689   -38410.227    43.699739    240.46468 
    8850    136.99031   -619.48806    135915.07   -35751.095    2642.3817   -38393.476    43.925858    238.87477 
    8900    136.62997   -869.40728    135929.68    -35754.27    2635.4311   -38389.701    44.176098    238.24643 
    8950    137.65798    -780.2253    135932.65   -35706.949    2655.2602   -38362.209    44.390555    240.03901 
    9000    138.95789   -466.30409    135999.87   -35663.741     2680.334   -38344.075    44.692908    242.30572 
    9050    137.99137    -837.2691    136041.02   -35715.832    2661.6909   -38377.523    44.707978    240.62036 
    9100    137.60762   -878.04551    136085.79   -35718.366    2654.2889   -38372.654    44.755884     239.9512 
    9150    135.66881   -688.59106    136096.35   -35705.919    2616.8916    -38322.81    44.870907    236.57044 
    9200    137.55907   -900.96534    136050.06   -35684.531    2653.3523   -38337.883    45.052641    239.86654 
    9250    141.60443   -675.42023    136016.26   -35696.282    2731.3826   -38427.664    45.066316    246.92057 
    9300    138.89866    -834.1857    135941.66    -35670.59    2679.1915   -38349.781    45.207973    242.20244 
    9350    140.09502    -545.7302    135965.84   -35666.148    2702.2679   -38368.416    45.206081    244.28857 
    9400    139.74386   -655.31272    135921.92   -35664.732    2695.4944   -38360.226    45.169714    243.67624 
    9450    136.69041   -594.47975    135923.44   -35686.249    2636.5969   -38322.846    45.343233    238.35182 
    9500    138.35508   -814.59129     135946.4   -35707.158    2668.7064   -38375.864    45.449629    241.25457 
    9550    135.60627   -484.82624    135970.37   -35739.997    2615.6851   -38355.682    45.501146    236.46137 
    9600    136.71352   -759.88506    135957.46   -35739.292    2637.0428   -38376.335    45.644924    238.39213 
    9650    135.78968   -568.21433    135853.49   -35776.344    2619.2229   -38395.567    45.735113    236.78119 
    9700    137.98204   -650.90292    135800.22   -35767.795    2661.5109   -38429.306    45.852989    240.60408 
    9750    134.23522   -955.89823    135771.84   -35753.873    2589.2392   -38343.113    46.071032    234.07063 
    9800     138.6354   -728.77172    135686.75    -35684.89    2674.1136   -38359.003    46.487605    241.74338 
    9850    138.94906   -693.65843    135699.46   -35690.209    2680.1637   -38370.373    46.625084    242.29032 
    9900    141.59521   -472.56268     135731.7   -35689.499    2731.2048   -38420.703    46.819961     246.9045 
    9950    135.09241   -230.62943    135749.63   -35728.424    2605.7735   -38334.198    46.994159    235.56535 
   10000    135.87796   -402.05007    135819.37    -35734.55    2620.9257   -38355.476    47.176806    236.93513 
   10050     136.3856   -737.68374    135795.18    -35724.43    2630.7176   -38355.148    47.304453    237.82033 
   10100    138.32621   -565.64782    135770.67   -35699.631    2668.1495    -38367.78    47.482427    241.20422 
   10150    143.16083   -860.10406    135754.79   -35622.446    2761.4038   -38383.849    47.640894    249.63453 
   10200    138.26689   -660.20749    135767.55   -35646.794    2667.0054   -38313.799    47.769572    241.10079 
   10250    135.68393    -768.0321    135765.17   -35665.473    2617.1831   -38282.656    48.184866    236.59679 
   10300    139.12938   -571.16691    135826.39    -35671.37    2683.6419   -38355.012    48.514241    242.60475 
   10350    138.45008   -672.17094    135902.34   -35675.146     2670.539   -38345.685    48.867565    241.42023 
   10400    139.14196   -653.68565    135913.56   -35669.862    2683.8845   -38353.747    49.122337    242.62669 
   10450    136.87389   -969.17822    135885.82   -35694.607    2640.1361   -38334.743     49.23877    238.67177 
   10500    136.99504   -942.49458    135787.85   -35754.966    2642.4728   -38397.439    49.301565    238.88302 
   10550    134.93459    -650.7544    135806.78   -35718.779    2602.7292   -38321.508    49.306031    235.29014 
   10600    135.47298   -374.07271    135844.21   -35757.428    2613.1142   -38370.542    49.390035    236.22896 
   10650    135.31311   -732.22926    135911.19   -35759.358    2610.0304   -38369.389    49.390405    235.95018 
   10700    138.10351   -525.19626    135920.44   -35755.424    2663.8541   -38419.278    49.462595    240.81591 
   10750    134.98467   -815.13754    135930.23   -35729.793    2603.6952   -38333.488    49.650143    235.37747 
   10800    136.85965   -625.90182    135833.39    -35732.03    2639.8615   -38371.892    49.767656    238.64695 
   10850    136.51242   -669.04114    135779.38   -35730.608    2633.1638   -38363.771    49.933808    238.04147 
   10900    138.28709    -762.8498     135622.6   -35710.214     2667.395   -38377.609    50.325568    241.13602 
   10950    135.77936   -723.98108    135505.87   -35723.876    2619.0238     -38342.9    50.606523     236.7632 
   11000    135.90346   -896.96125    135398.74   -35741.955    2621.4176   -38363.372    50.963433     236.9796 
   11050    134.60955   -640.06824    135409.69    -35686.95    2596.4597    -38283.41    51.259248    234.72337 
   11100    137.90692   -520.56067    135441.95   -35697.501     2660.062   -38357.563    51.541701     240.4731 
   11150    137.51392   -522.64191    135412.72   -35690.297    2652.4814   -38342.778    51.658889    239.78781 
   11200    138.85635   -528.30972    135340.76   -35690.555    2678.3754    -38368.93    51.855394    242.12866 
   11250    137.71026   -693.11324    135386.47   -35687.997    2656.2687   -38344.265    52.181553    240.13018 
   11300    136.23077   -676.17171    135400.58   -35695.009    2627.7311    -38322.74    52.347156    237.55034 
   11350    133.80805   -845.72069    135283.99   -35726.684    2580.9997   -38307.683    52.460573    233.32576 
   11400    136.76159   -515.35868    135285.13   -35689.596    2637.9699   -38327.566    52.501843    238.47594 
   11450    138.69744   -656.29115    135303.06   -35705.844    2675.3103   -38381.154    52.471313    241.85156 
   11500    137.29082   -431.21359       135332   -35741.344    2648.1782   -38389.522    52.662293    239.39879 
   11550    140.34383   -697.02017    135410.39    -35717.75    2707.0672   -38424.817    52.935358    244.72243 
   11600    136.37724    -796.0805    135396.75   -35678.074    2630.5563    -38308.63    53.297255    237.80574 
   11650    137.61464   -579.60588    135416.13   -35690.375    2654.4242   -38344.799    53.631652    239.96344 
   11700    137.16247   -609.16113    135558.76   -35635.806    2645.7025   -38281.509    53.677133    239.17498 
   11750    138.71951   -610.81222    135693.87   -35642.894    2675.7359    -38318.63    53.705364    241.89004 
   11800    140.01589     -533.295     135744.5   -35617.794    2700.7416   -38318.536    53.978059    244.15059 
   11850    137.03214   -847.94295    135758.92   -35639.094    2643.1886   -38282.283    54.276401    238.94772 
   11900    139.15036   -787.84159    135748.79   -35653.539    2684.0465   -38337.586    54.518424    242.64133 
   11950     137.7058   -789.08476    135788.41   -35657.505    2656.1826   -38313.688    54.939791     240.1224 
   12000    140.45954   -717.58476    135762.72   -35676.428     2709.299   -38385.727    55.063319    244.92419 
   12050    137.34852   -739.21363     135707.3   -35725.308    2649.2911   -38374.599    55.406278     239.4994 
   12100    137.05448   -735.89637     135688.2   -35668.156    2643.6194   -38311.775    55.564813    238.98667 
   12150    138.52066   -991.21459    135761.86   -35644.254    2671.9003   -38316.155    55.842947     241.5433 
   12200     140.5672   -823.03553    135735.28   -35588.514    2711.3756   -38299.889    56.100404    245.11192 
   12250    137.80924   -713.58444    135694.76   -35622.639    2658.1778   -38280.817    56.258111    240.30277 
   12300    139.43575   -756.33507    135719.68   -35626.878    2689.5514    -38316.43    56.436315    243.13898 
   12350    140.72964   -717.09008    135742.82   -35585.213     2714.509   -38299.722    56.584475    245.39518 
   12400    138.22495   -900.16366    135664.96   -35626.155    2666.1964   -38292.351     56.73963    241.02766 
   12450    138.37756   -776.56954    135561.21   -35636.436      2669.14   -38305.576    56.907296    241.29377 
   12500    137.98285   -982.39707    135592.05   -35672.985    2661.5265   -38334.511    57.066431     240.6055 
   12550    139.01092   -807.30693    135595.82   -35673.183     2681.357    -38354.54    57.069096    242.39819 
   12600    138.77311   -657.32929    135578.41   -35642.039    2676.7698   -38318.809    57.199999    241.98351 
   12650    138.47248   -680.20845    135660.71   -35667.348     2670.971   -38338.319    57.245867    241.45928 
   12700    139.33856   -783.83242    135698.52   -35665.577    2687.6767   -38353.254    57.426024     242.9695 
   12750     139.1228   -863.89178    135698.53   -35699.133    2683.5149   -38382.648    57.652893    242.59328 
   12800    139.10874    -747.8217    135701.02    -35654.04    2683.2438   -38337.284    57.892258    242.56876 
   12850    135.74235   -907.49529    135610.42   -35692.776    2618.3099   -38311.086    58.174914    236.69866 
   12900    140.02452   -754.78241    135524.99   -35686.123     2700.908   -38387.031    58.265212    244.16563 
   12950    138.75211   -454.28806    135639.93   -35697.575    2676.3648    -38373.94    58.693401    241.94689 
   13000    137.44255   -638.50592    135839.91   -35741.282    2651.1049   -38392.387    58.844262    239.66337 
   13050    135.95281   -765.45392    135917.81   -35757.399    2622.3696   -38379.768    59.070432    237.06566 
   13100    134.50063   -676.05818    135945.35   -35791.432    2594.3587   -38385.791    59.173038    234.53344 
   13150    136.25063   -968.68378    135908.34   -35737.384     2628.114   -38365.498    59.258199    237.58496 
   13200    136.94631   -962.89067    135855.84   -35731.292    2641.5329   -38372.825     59.41556    238.79805 
   13250    139.28098   -662.41423    135784.13   -35686.436    2686.5659   -38373.002    59.598763    242.86909 
   13300    137.49217   -843.80997    135731.26   -35678.862    2652.0619   -38330.924    59.567067    239.74988 
   13350    139.61879   -841.53826     135720.8   -35646.391     2693.082   -38339.473    59.685237    243.45815 
   13400    137.53849   -630.96961    135733.91    -35727.67    2652.9554   -38380.625    59.799307    239.83065 
   13450    136.92698   -1059.7982    135665.58   -35757.098    2641.1602   -38398.258    59.933962    238.76435 
   13500    137.51108   -692.43191    135567.82   -35741.699    2652.4267   -38394.126    59.803137    239.78286 
   13550     139.6511   -626.61561    135558.57   -35709.301    2693.7051   -38403.007    59.736525    243.51448 
   13600     139.0564   -801.38802    135592.53   -35721.801     2682.234   -38404.035    59.894429    242.47748 
   13650    136.26939   -842.53588    135630.94   -35725.975    2628.4761   -38354.451    59.976965    237.61769 
   13700    138.14256   -606.72975     135625.1   -35694.171    2664.6072   -38358.778    60.239199    240.88399 
   13750    136.58671   -787.35379    135608.38   -35736.638    2634.5967   -38371.235    60.421198      238.171 
   13800    136.47412   -665.72441    135617.82   -35737.104    2632.4249   -38369.529    60.591231    237.97467 
   13850    137.12219    -927.1624     135530.7   -35764.704    2644.9254    -38409.63    60.967533    239.10474 
   13900    136.82528   -665.01767    135518.23   -35708.667    2639.1985   -38347.865    61.051333    238.58702 
   13950    136.27311   -581.54948    135579.91   -35761.422    2628.5477   -38389.969    61.191869    237.62417 
   14000    137.24974   -571.76268     135656.4   -35728.504    2647.3857    -38375.89    61.150303    239.32715 
   14050    143.29903   -746.94817    135645.32   -35676.929    2764.0694   -38440.999    61.302493    249.87551 
   14100    136.97473   -670.61637    135673.83   -35702.377    2642.0811   -38344.459    61.504687     238.8476 
   14150    138.92143   -455.05128    135796.08   -35690.523    2679.6307   -38370.154    61.673095    242.24213 
   14200    137.07772   -618.53565    135804.58   -35705.872    2644.0677    -38349.94    61.613827     239.0272 
   14250    138.03463   -580.60138     135797.6   -35656.566    2662.5253   -38319.092    61.823265    240.69579 
   14300      136.663    -824.4519    135820.66   -35672.359    2636.0682   -38308.427    62.060617    238.30403 
   14350    137.79893   -621.96462    135750.75   -35618.208     2657.979   -38276.187    62.246975    240.28479 
   14400    136.28967   -547.70845    135722.68   -35641.498    2628.8671   -38270.366    62.314359    237.65304 
   14450    137.27388   -744.42641    135774.09   -35622.732    2647.8514   -38270.583    62.573061    239.36925 
   14500    140.39433   -731.24646    135788.07   -35592.241    2708.0412   -38300.282    62.707818    244.81048 
   14550    137.60539   -751.92853    135807.46   -35580.139    2654.2459   -38234.385    62.750497    239.94732 
   14600    140.25018   -500.05431    135885.12   -35545.031    2705.2607   -38250.292     62.87608    244.55912 
   14650    135.77618   -914.49734    135918.58   -35605.452    2618.9626   -38224.415    62.911953    236.75766 
   14700    136.28865   -755.86068    135863.08   -35675.004    2628.8476   -38303.852     63.16469    237.65128 
   14750    137.45393   -659.74805    135841.43   -35609.576    2651.3243   -38260.901    63.420766     239.6832 
   14800    138.51806   -791.61852    135778.68    -35595.91    2671.8501    -38267.76    63.703911    241.53876 
   14850    139.20078   -735.20079    135671.54   -35577.723     2685.019   -38262.742    63.758619    242.72925 
   14900    140.32496   -890.95799    135607.05   -35587.855    2706.7032   -38294.558    64.048266    244.68952 
   14950    135.71033    -682.2353    135634.48   -35625.183    2617.6923   -38242.875    64.182758    236.64283 
   15000    137.90658   -640.39592    135697.75   -35672.233    2660.0555   -38332.288    64.263934    240.47251 
   15050    137.17828   -808.39703    135664.28   -35620.061    2646.0075   -38266.069    64.301004    239.20255 
   15100     135.9734   -370.87568    135780.03   -35588.503    2622.7667   -38211.269    64.464773    237.10155 
   15150    136.01499   -601.29363    135848.24   -35654.821    2623.5689    -38278.39    64.635852    237.17408 
   15200    138.81769   -454.95924    135858.94   -35702.409    2677.6297   -38380.038     64.72776    242.06125 
   15250    137.46537   -681.72993    135860.88   -35684.685    2651.5451    -38336.23     64.88334    239.70316 
   15300    136.97837   -706.72113    135749.69   -35712.192    2642.1514   -38354.343    64.975865    238.85396 
   15350    139.58148   -773.65961    135748.68   -35673.882    2692.3623   -38366.244    65.092348    243.39309 
   15400     138.3187   -833.29856    135738.04   -35656.261    2668.0047   -38324.266    65.167076    241.19113 
   15450     140.1774   -717.76382    135738.63   -35667.908    2703.8569   -38371.764    65.207551    244.43222 
   15500    137.16092   -667.88194    135755.36   -35661.475    2645.6726   -38307.148    65.330111    239.17228 
   15550    136.35179   -839.43554    135771.13   -35645.102    2630.0653   -38275.167    65.535765    237.76136 
   15600    138.21457   -711.13347    135675.39   -35675.144    2665.9963    -38341.14    65.712578    241.00957 
   15650     139.3367   -539.99039    135614.64    -35654.96    2687.6407   -38342.601    65.864272    242.96625 
   15700    139.02343   -491.72983    135647.95    -35626.94    2681.5982   -38308.538    66.052399    242.42001 
   15750    137.05239   -608.31436    135604.67   -35638.068     2643.579   -38281.648    66.210168    238.98302 
   15800    136.82219   -648.96869    135694.33   -35660.162    2639.1389   -38299.301    66.729642    238.58163 
   15850    137.32901   -760.87256    135649.85   -35720.073    2648.9148   -38368.988    66.989242    239.46538 
   15900     135.5678   -605.91978    135632.76   -35733.818    2614.9432   -38348.762    67.275211     236.3943 
   15950    136.71901   -587.48198    135695.39   -35729.963    2637.1487   -38367.112     67.46762    238.40171 
   16000    135.63426   -619.06007    135666.92    -35751.67    2616.2251   -38367.896    67.749473    236.51018 
   16050    136.36099   -713.83539    135575.52   -35756.583    2630.2429   -38386.825     68.29401    237.77741 
   16100    136.32008    -598.8019    135570.96   -35680.576    2629.4538   -38310.029    68.330172    237.70608 
   16150    138.24308   -789.70792    135611.96   -35653.033    2666.5461   -38319.579    68.368857    241.05928 
   16200    138.82379   -691.76703    135527.13   -35652.566    2677.7474   -38330.313    68.575807    242.07189 
   16250    139.13773   -932.19884    135512.76   -35639.881    2683.8028   -38323.684    68.965882     242.6193 
   16300     137.9145   -643.02818    135437.83   -35661.983    2660.2082   -38322.192    69.136919    240.48632 
   16350    136.70567   -723.20959    135458.51    -35681.77    2636.8913   -38318.661    69.108203    238.37844 
   16400     139.8837   -918.83344    135449.76   -35694.912    2698.1917   -38393.104    69.218373    243.92008 
   16450    139.67378   -814.15902    135397.22   -35692.228    2694.1426    -38386.37    69.325847    243.55403 
   16500    138.60235   -654.17384       135314   -35712.041    2673.4761   -38385.518    69.320767    241.68575 
   16550    140.09217   -652.94643     135262.3   -35724.252    2702.2129   -38426.465    69.448191     244.2836 
   16600    137.61303   -631.64397    135318.49    -35754.72    2654.3933   -38409.114    69.493051    239.96064 
   16650    136.14727   -717.55966    135279.18   -35706.936    2626.1204   -38333.057    69.507306    237.40474 
   16700    135.64043   -570.20099    135287.35    -35691.15    2616.3441   -38307.494    69.478596    236.52094 
   16750    139.14935   -804.44934    135295.69   -35690.286     2684.027   -38374.313    69.538078    242.63957 
   16800    138.34839   -690.66941    135271.48   -35688.083    2668.5775   -38356.661    69.690547    241.24291 
   16850    138.77597   -518.80847    135279.87   -35710.286    2676.8249   -38387.111    69.718671    241.98849 
   16900     135.2969   -719.07895    135316.04   -35707.198    2609.7179   -38316.916    69.829722    235.92193 
   16950    139.91386   -555.88344    135302.35   -35687.274    2698.7736   -38386.048    69.799296    243.97268 
   17000    137.32217   -808.84928    135235.19   -35712.132    2648.7829   -38360.915    69.832632    239.45345 
   17050    136.19026   -569.13792    135266.36   -35735.783    2626.9496   -38362.732    70.045982     237.4797 
   17100    135.85816   -652.97942    135278.19   -35746.937    2620.5438   -38367.481    70.308236     236.9006 
   17150    137.06085   -858.55006    135232.99   -35772.207    2643.7423   -38415.949    70.452815    238.99778 
   17200    138.26048   -519.49048    135260.34   -35757.331    2666.8817   -38424.213    70.483474    241.08961 
   17250    138.96935   -878.67619    135261.81    -35703.82    2680.5549   -38384.375     70.70632    242.32569 
   17300    137.14712   -712.08796    135185.55   -35706.702    2645.4064   -38352.108    70.865995    239.14822 
   17350    137.39088   -909.16202    135127.48   -35726.084    2650.1082   -38376.192    70.948159    239.57326 
   17400    137.02152   -748.10676    135078.71   -35752.045    2642.9836   -38395.028    71.248838    238.92919 
   17450    136.56624   -640.42285    135102.29   -35757.457    2634.2019   -38391.658    71.282072    238.13531 
   17500     132.6386   -580.85291    135127.81   -35763.127    2558.4423   -38321.569    71.581194    231.28654 
   17550    138.90144   -808.93027    134998.77   -35734.021    2679.2452   -38413.266    71.862419    242.20728 
   17600      135.032    -530.8049    135052.33   -35741.391    2604.6081   -38345.999    71.986355       235.46 
   17650    137.39124   -705.46374    135121.19   -35712.445    2650.1151    -38362.56     72.21946    239.57389 
   17700    140.88449   -800.16701     135127.2   -35639.451    2717.4957   -38356.946    72.648188    245.66519 
   17750    139.99778   -818.56233     135138.9   -35652.524    2700.3922   -38352.917    72.981986    244.11901 
   17800     139.0376   -814.47181    135179.39   -35639.153    2681.8714   -38321.025    73.405971     242.4447 
   17850    138.87871   -504.33513    135163.89    -35680.09    2678.8067   -38358.897    73.723032    242.16764 
   17900    139.34289   -605.45416    135292.23   -35656.188    2687.7601   -38343.948    73.848676    242.97705 
   17950    138.44875    -683.8337    135318.37   -35640.019    2670.5132   -38310.533    74.137818     241.4179 
   18000    137.60273   -674.45295    135328.07   -35673.594    2654.1946   -38327.788    74.360104    239.94268 
   18050    139.47377   -869.57901    135323.17   -35648.682    2690.2846   -38338.966    74.994927    243.20527 
   18100     137.4951   -642.93742    135322.55   -35673.044    2652.1185   -38325.163    75.302145    239.75499 
   18150    137.79915   -591.91597    135347.78   -35690.581    2657.9833   -38348.564    75.702912    240.28518 
   18200    136.80433   -769.58381    135275.22   -35682.535    2638.7943   -38321.329     75.96879    238.55047 
   18250    136.69251   -566.51687    135272.42   -35638.214    2636.6375   -38274.852    76.010926     238.3555 
   18300    137.51894   -599.34353    135332.14   -35664.558    2652.5783   -38317.136     76.21836    239.79656 
   18350    135.96632   -736.74248    135264.79   -35686.633    2622.6301   -38309.263    76.369155     237.0892 
   18400    135.80549    -802.8054    135272.92   -35709.901     2619.528   -38329.429    76.438773    236.80877 
   18450    135.50115   -700.42355    135290.85   -35769.511    2613.6576   -38383.168    76.461262    236.27808 
   18500    138.40632   -600.31802    135259.48    -35728.82    2669.6949   -38398.515    76.685093    241.34393 
   18550    136.83601   -583.71529    135202.67     -35742.1    2639.4054   -38381.505    76.579293    238.60572 
   18600    133.34161   -578.28623    135193.64   -35740.336    2572.0026   -38312.338    76.691594    232.51241 
   18650    138.68693   -518.91135    135163.13   -35694.649    2675.1075   -38369.757    76.766486    241.83324 
   18700    135.68742   -591.65976    135179.99   -35726.876    2617.2504   -38344.126    76.859244    236.60288 
   18750     135.4901   -818.98018    135150.58   -35794.207    2613.4443   -38407.651    77.250826     236.2588 
   18800    137.45911    -669.0511    135111.71   -35736.124    2651.4242   -38387.549    77.611785    239.69223 
   18850    136.05243    -473.9787    135176.84   -35677.602    2624.2911   -38301.893    78.074775    237.23937 
   18900    138.96956   -808.36929    135215.15   -35678.417     2680.559   -38358.976    78.478821    242.32606 
   18950    137.87382   -775.61234    135183.87    -35735.85    2659.4235   -38395.273    78.792393    240.41538 
   19000    137.94887   -554.57806    135166.39   -35712.307    2660.8713   -38373.178    79.141572    240.54626 
   19050    135.51693   -455.83869    135230.07   -35727.563     2613.962   -38341.525    79.450537     236.3056 
   19100    136.22125   -578.36879    135340.32   -35751.441    2627.5474   -38378.988     79.56582    237.53374 
   19150    134.39028   -897.17576    135339.91   -35741.986    2592.2302   -38334.216    79.598307    234.34102 
   19200     136.6815   -808.30741     135316.5    -35707.61     2636.425   -38344.035    79.334666    238.33629 
   19250    139.37344   -544.35233    135363.58   -35701.335    2688.3494   -38389.684    79.468966    243.03032 
   19300    136.44722    -690.6411    135326.33   -35660.779    2631.9062   -38292.685    79.321959    237.92778 
   19350    137.39691   -867.22254    135316.52   -35580.947    2650.2245   -38231.171    79.359125    239.58378 
   19400    142.69157   -585.24149    135322.75   -35533.921    2752.3523   -38286.274    79.598476    248.81627 
   19450    139.65276   -821.59783    135368.02   -35599.273    2693.7372    -38293.01    79.633773    243.51738 
   19500    139.96756   -578.64979    135391.07   -35606.772    2699.8094   -38306.581    79.659129    244.06631 
   19550    141.54434   -788.44929     135327.1   -35579.803    2730.2235   -38310.026    79.639509     246.8158 
   19600    141.63268   -503.58338    135371.45   -35586.524    2731.9276   -38318.451    79.478467    246.96984 
   19650     138.5547   -781.98889    135473.05   -35622.976     2672.557   -38295.533    79.689248    241.60266 
   19700    136.03972    -734.2538    135470.86   -35689.256     2624.046   -38313.302    79.902071    237.21721 
   19750    135.46485    -711.2359    135469.37   -35719.621    2612.9573   -38332.579    80.037689    236.21478 
   19800    137.90529   -848.68377    135424.99   -35690.555    2660.0305   -38350.585     80.35377    240.47025 
   19850    134.18667   -693.14282    135446.88   -35741.499    2588.3027   -38329.802    80.487914    233.98596 
   19900    133.35035   -975.07892    135420.86   -35768.565    2572.1711   -38340.737    80.565092    232.52764 
   19950    136.78454   -726.66086    135421.24   -35773.338    2638.4126   -38411.751    80.645415    238.51596 
   20000    136.20995   -729.27876    135450.62   -35787.093    2627.3294   -38414.422    80.751813    237.51403 
   20050      138.321   -606.42615    135415.55   -35761.542     2668.049   -38429.591    80.846696    241.19514 
   20100    136.46762   -472.06437    135580.35   -35798.447    2632.2996   -38430.747    80.885075    237.96334 
   20150    136.34176   -510.07511    135594.13   -35766.874    2629.8719   -38396.746    81.084363    237.74388 
   20200    133.93162   -630.95432    135653.22    -35795.03    2583.3832   -38378.413    81.144591    233.54123 
   20250    134.90424   -857.75459    135564.29   -35790.068    2602.1439   -38392.212     81.45998    235.23722 
   20300     134.1323   -693.78623    135489.22   -35842.263    2587.2541   -38429.517    81.696356    233.89117 
   20350     136.6585   -510.18679    135532.28   -35798.954    2635.9815   -38434.935    82.072184    238.29619 
   20400    136.53656   -729.06543    135498.91   -35799.419    2633.6295   -38433.049    82.349333    238.08356 
   20450    137.28443   -769.45758    135437.41    -35768.64     2648.055   -38416.695    82.642174    239.38765 
   20500    136.89378   -647.09733    135402.45   -35728.322    2640.5198   -38368.841    83.136749    238.70646 
   20550     134.4713   -755.25343    135442.11   -35709.756     2593.793   -38303.549    83.485401    234.48229 
   20600     138.0672   -774.92881    135379.42   -35719.132    2663.1536   -38382.286    83.646034    240.75258 
   20650    136.21574   -815.88315    135373.64   -35703.185    2627.4411   -38330.626    83.595666    237.52413 
   20700     137.0221   -845.83923    135380.77   -35728.998    2642.9949   -38371.993    83.679718    238.93022 
   20750     135.8408   -754.56927     135326.1   -35688.444    2620.2091   -38308.653    83.694631    236.87034 
   20800    134.12843    -606.3392       135271   -35688.127    2587.1794   -38275.307    83.616161    233.88442 
   20850    134.75392   -668.09062    135301.39   -35652.739    2599.2443   -38251.984     84.05845     234.9751 
   20900    137.21049   -784.41057    135226.06   -35673.623    2646.6288   -38320.251    84.066901    239.25872 
   20950    138.43772   -706.47072    135105.92   -35623.853    2670.3005   -38294.154    84.184163    241.39868 
   21000    136.00907   -759.20666       135083   -35655.408    2623.4548   -38278.862    84.121771    237.16376 
   21050    137.34163   -788.32995     135057.8   -35604.088    2649.1582   -38253.246    84.468321    239.48738 
   21100    138.63821   -653.07405    135105.76   -35609.622    2674.1677    -38283.79    84.724737    241.74828 
   21150    137.78939    -594.9202    135044.69    -35568.26    2657.7949   -38226.055    84.807039    240.26815 
   21200    139.14263   -623.81463    135022.57   -35584.554    2683.8974   -38268.451    84.855817    242.62785 
   21250    135.53451   -526.12684    135048.94   -35603.073     2614.301   -38217.374    85.165134    236.33625 
   21300    138.86969    -837.1248    134976.62   -35588.128    2678.6328   -38266.761    85.594372    242.15192 
   21350    140.32296   -693.85527    134975.29    -35579.63    2706.6646   -38286.294    86.010393    244.68603 
   21400    139.53904    -713.4804    134960.64   -35534.504    2691.5437   -38226.048    86.248983    243.31908 
   21450    136.98425   -820.10894    134920.68   -35588.128    2642.2648   -38230.393    86.418862    238.86421 
   21500    139.42844   -910.96054    134860.45   -35599.567    2689.4103   -38288.977    86.758513    243.12623 
   21550    136.14218   -567.59307    134807.53   -35640.405    2626.0223   -38266.428    86.753915    237.39587 
   21600     138.9793   -791.30799    134849.61   -35644.841    2680.7469   -38325.588    86.733127    242.34304 
   21650    137.28233   -743.82375    134784.44   -35634.508    2648.0144   -38282.522    86.688513    239.38398 
   21700     136.4513   -809.72315    134795.91   -35705.489    2631.9849   -38337.474    86.865838    237.93489 
   21750    135.95888   -528.62072    134843.79   -35682.594    2622.4866    -38305.08    87.038251    237.07623 
   21800    138.24378   -567.68105    134899.95    -35650.42    2666.5596    -38316.98    87.168808    241.06049 
   21850    140.49523   -784.77368    134970.88   -35619.904    2709.9874   -38329.891    87.369058    244.98643 
   21900    137.19693   -617.85483    134927.65   -35606.555    2646.3672   -38252.922    87.487269    239.23507 
   21950    137.78538   -885.91764    134959.45   -35630.439    2657.7176   -38288.157    87.495938    240.26116 
   22000    137.32103   -450.71028    134995.84   -35650.612    2648.7609   -38299.373    87.669392    239.45146 
   22050    135.99174   -623.74054    135102.69   -35672.163    2623.1205   -38295.283    87.685211    237.13354 
   22100     135.1669   -827.79175    135085.55   -35692.237    2607.2102   -38299.447    87.924072    235.69523 
   22150    137.71672    -675.0378    135033.99   -35681.029    2656.3932   -38337.422    88.001441    240.14144 
   22200    136.88255   -527.24637    135066.36   -35661.094    2640.3031   -38301.397    88.276127    238.68687 
   22250     136.0407   -602.58217    135140.33   -35709.819    2624.0649   -38333.884    88.417701    237.21891 
   22300    137.90201   -832.01554    135034.64   -35688.189    2659.9673   -38348.156    88.699798    240.46454 
   22350    137.40989   -665.58575     135020.5   -35673.207    2650.4748   -38323.681     88.78672    239.60641 
   22400      136.528   -642.21775    135032.39   -35711.388    2633.4642   -38344.852    88.934891    238.06863 
   22450     138.2597   -553.13932    135118.47   -35671.822    2666.8667   -38338.689    88.816586    241.08825 
   22500    139.38257   -455.14717    135229.86   -35668.507    2688.5256   -38357.033    88.662152    243.04625 
   22550    137.78983   -594.31154    135247.01    -35684.98    2657.8035   -38342.783    88.709616    240.26893 
   22600    139.34345   -818.11861    135286.17   -35675.254     2687.771   -38363.025    88.795258    242.97803 
   22650    138.67916   -772.70924    135234.61   -35654.088    2674.9576   -38329.046    89.100797    241.81968 
   22700    139.25643   -909.21649    135225.56   -35626.461    2686.0925   -38312.554    88.937137    242.82629 
   22750     140.6816   -585.72581    135304.89   -35630.498    2713.5824   -38344.081    89.173144    245.31141 
   22800    140.99185   -645.63514    135359.37   -35580.403    2719.5667    -38299.97    89.461557     245.8524 
   22850    138.49208   -673.70171    135442.38   -35649.058     2671.349   -38320.407    89.437898    241.49346 
   22900    139.49406   -623.85054    135414.47   -35687.942    2690.6761   -38378.618    89.865006    243.24066 
   22950    138.42791   -850.45001    135370.53   -35673.403    2670.1113   -38343.515    90.257726    241.38157 
   23000    140.08387   -693.84254    135406.47   -35679.193    2702.0528   -38381.246    90.473259    244.26912 
   23050    137.88192   -737.54727    135410.83   -35693.056    2659.5798   -38352.636    90.807705    240.42951 
   23100    136.06462    -803.9053    135327.94   -35685.653    2624.5263   -38310.179     91.05059    237.26062 
   23150    136.53623   -694.61935    135329.96   -35664.102    2633.6231   -38297.725    91.213435    238.08299 
   23200    137.10114   -827.97408    135290.64   -35674.271    2644.5195   -38318.791    91.605465    239.06804 
   23250    135.50831   -373.97935    135332.29   -35690.599    2613.7956   -38304.394        91.86    236.29056 
   23300    137.28259   -636.51003    135418.51   -35727.874    2648.0195   -38375.894    92.092097    239.38444 
   23350    135.53705   -958.36086    135444.52   -35661.021      2614.35   -38275.371    92.648881    236.34068 
   23400     135.6073   -636.54654    135483.97   -35646.135     2615.705    -38261.84    92.960777    236.46317 
   23450    138.75578   -659.90631    135399.57   -35609.065    2676.4355   -38285.501    93.320751    241.95329 
   23500    140.24201   -715.44495    135388.92   -35605.265    2705.1031   -38310.368    93.533099    244.54488 
   23550    138.41018   -642.64753    135397.87   -35596.789    2669.7693   -38266.559    93.813943    241.35065 
   23600    135.57454   -784.77424    135427.06   -35643.233    2615.0731   -38258.307    93.947627    236.40604 
   23650     136.8659   -726.48956    135447.41   -35666.674     2639.982   -38306.656    94.120808    238.65784 
   23700    139.00832   -354.70151    135501.36   -35699.641    2681.3067   -38380.948     94.28406    242.39365 
   23750    136.39334   -759.09126    135638.58    -35654.09    2630.8669   -38284.957    94.538753    237.83383 
   23800    137.77557   -782.74455    135582.67   -35628.829    2657.5285   -38286.357    94.898127    240.24407 
   23850    137.41891   -664.88088    135699.22    -35631.19    2650.6488   -38281.838    95.241248    239.62214 
   23900    136.62124   -662.77943    135718.46   -35619.142    2635.2628   -38254.404    95.650379    238.23122 
   23950    137.09724   -875.48844    135649.27   -35623.495    2644.4442    -38267.94    96.175477    239.06123 
   24000    141.39488   -725.11092     135633.9   -35581.705    2727.3407   -38309.046    96.649801    246.55519 
   24050    138.81758   -729.62156    135649.29   -35611.866    2677.6277   -38289.493    97.165502    242.06106 
   24100    139.09148   -661.19105    135612.06   -35615.387    2682.9108   -38298.298    97.539678    242.53867 
   24150    137.55626   -807.84671    135614.35    -35619.26    2653.2983   -38272.558    97.763879    239.86165 
   24200    136.87486   -626.68785    135545.48   -35603.947    2640.1548   -38244.102    98.037929    238.67346 
   24250    139.72041   -652.03282    135554.78   -35564.447    2695.0421   -38259.489    98.272079    243.63535 
   24300    138.38233   -614.81026    135597.76   -35567.677    2669.2321   -38236.909    98.416094    241.30209 
   24350    142.03906   -824.24934    135577.68   -35507.794    2739.7662    -38247.56    98.565508    247.67846 
   24400    141.65432   -832.56545    135498.39   -35538.589    2732.3449   -38270.934    99.054905    247.00757 
   24450    139.44683   -667.29089    135493.44   -35569.963     2689.765   -38259.728    99.178014    243.15829 
   24500    140.40148   -811.70499    135431.47   -35578.393    2708.1792   -38286.572    99.407986    244.82296 
   24550    140.59955   -819.44253    135444.12    -35605.55    2711.9997    -38317.55    99.625083    245.16833 
   24600    142.43979   -910.84758    135368.42   -35589.393    2747.4957   -38336.889    99.599564    248.37722 
   24650    138.17585   -780.92689     135358.7   -35584.682    2665.2493   -38249.931    99.869239    240.94204 
   24700    135.94534   -774.03919     135347.1   -35642.081    2622.2255   -38264.307    99.893965    237.05263 
   24750    139.76873   -852.61854    135309.88   -35602.064    2695.9741   -38298.038    99.959159     243.7196 
   24800    137.37201    -956.3453     135286.9   -35605.295    2649.7442   -38255.039    100.06439    239.54036 
   24850    139.12287   -783.89503     135285.8   -35585.426    2683.5162   -38268.942    100.34411    242.59339 
   24900     139.7258    -873.9388    135239.11   -35575.983     2695.146   -38271.129    100.32159    243.64474 
   24950     136.3445   -621.15193    135238.68   -35622.346    2629.9248   -38252.271    100.46612    237.74866 
   25000     138.8085   -771.25528    135208.95   -35656.292    2677.4525   -38333.745    100.53149    242.04522 
   25050    136.72772   -444.06144    135274.24   -35706.057    2637.3166   -38343.373    100.78478    238.41688 
   25100    135.88019   -361.50865    135402.86   -35691.248    2620.9689   -38312.217    101.15676    236.93903 
   25150    138.92227   -580.28734    135455.48     -35643.5    2679.6469   -38323.147    101.27558     242.2436 
   25200    137.42907   -810.33859    135530.69     -35630.8    2650.8449   -38281.645    101.34827    239.63986 
   25250    138.64265   -668.73978    135548.59   -35573.496    2674.2533   -38247.749    101.61458    241.75601 
   25300    139.42404   -833.59176    135550.92   -35565.137    2689.3255   -38254.463    102.17104    243.11856 
   25350    139.13729   -650.99136    135544.22   -35579.949    2683.7945   -38263.744    102.40413    242.61855 
   25400    140.82295   -914.16339    135527.02   -35578.411    2716.3087   -38294.719    102.61565    245.55788 
   25450    138.42722    -502.0856    135514.97   -35622.406    2670.0979   -38292.504    102.74887    241.38036 
   25500     137.4632   -510.83525    135484.19   -35592.314    2651.5032   -38243.817    103.21064    239.69937 
   25550    136.06189   -593.44307    135522.09   -35583.941    2624.4736   -38208.415    103.34851    237.25587 
   25600    140.57871   -798.92934    135449.01    -35589.26    2711.5976   -38300.858    103.41437    245.13199 
   25650    138.76865   -759.87393    135468.64   -35549.292    2676.6837   -38225.975    103.58813    241.97572 
   25700    142.05208    -652.3473    135538.84   -35491.372    2740.0172   -38231.389    103.45676    247.70116 
   25750    141.66635   -700.93976    135573.63   -35480.762     2732.577   -38213.339    103.59105    247.02855 
   25800    139.84719   -522.97264    135664.01   -35463.257    2697.4876   -38160.745    103.83671    243.85642 
   25850    142.62904   -492.47341    135689.64   -35420.406    2751.1462   -38171.552    103.96264    248.70723 
   25900    141.56768   -732.81728    135748.48   -35448.307    2730.6739   -38178.981    104.25505     246.8565 
   25950    140.34385   -848.00219    135730.09   -35501.697    2707.0675   -38208.764    104.47857    244.72246 
   26000    143.84862   -870.21414    135714.72   -35535.296    2774.6704   -38309.966    104.61759    250.83385 
   26050    140.89352   -874.97946    135687.37   -35521.644      2717.67   -38239.314    104.84639    245.68094 
   26100    137.28141    -575.8921     135675.1   -35513.604    2647.9966   -38161.601    105.01447    239.38237 
   26150    139.10103   -838.19884     135560.7   -35557.821    2683.0951   -38240.916    105.36507    242.55532 
   26200    138.65758   -575.92508    135582.88   -35580.232    2674.5414   -38254.773    105.65195    241.78205 
   26250    137.68452   -508.45775    135655.83   -35649.666    2655.7722   -38305.438    105.85544     240.0853 
   26300    136.53939   -927.15063    135746.46   -35669.531     2633.684   -38303.215     106.3256     238.0885 
   26350    135.77395   -607.36289    135738.95   -35684.145    2618.9195   -38303.064    106.58404    236.75376 
   26400    137.61927   -703.20203    135852.33   -35717.182    2654.5136   -38371.696     106.7559    239.97152 
   26450    142.51928   -794.94463     135938.9   -35667.075    2749.0289   -38416.104    106.80565    248.51583 
   26500    136.80857   -776.86842    135897.38   -35735.548     2638.876   -38374.424    106.97326    238.55786 
   26550    135.99703   -818.61434     135781.3   -35771.607    2623.2225    -38394.83    107.15756    237.14277 
   26600     135.0766   -541.89607     135819.3   -35807.787    2605.4684   -38413.255    107.16422    235.53777 
   26650    135.51575   -647.32035    135823.69   -35842.061    2613.9392       -38456    107.52648    236.30354 
   26700    134.28438   -637.17459    135766.49   -35783.257    2590.1875   -38373.444    107.86541    234.15635 
   26750     138.4411    -668.1411    135804.13   -35781.411    2670.3657   -38451.777    108.04752    241.40457 
   26800    138.22247   -696.23746    135749.58   -35778.548    2666.1485   -38444.697    108.26793    241.02333 
   26850    140.04014   -655.64063    135737.63   -35693.803    2701.2093   -38395.013    108.54511    244.19287 
   26900    139.61275   -747.29143    135785.85   -35724.762    2692.9654   -38417.728    108.79145    243.44761 
   26950     135.0075   -802.51172    135832.32   -35761.858    2604.1356   -38365.993    109.13873    235.41728 
   27000    138.22585    -543.4702    135819.67    -35701.55    2666.2137   -38367.764    109.13235    241.02923 
   27050    138.78043    -635.2862    135852.59   -35719.094     2676.911   -38396.005    109.52379    241.99627 
   27100     135.8451   -473.07346    135862.37   -35747.777     2620.292   -38368.069    109.72375    236.87784 
   27150    138.86031   -716.30786    135847.02   -35747.213    2678.4518   -38425.664    110.10377    242.13556 
   27200    142.14438   -785.15706    135779.87   -35688.356    2741.7976   -38430.154    110.72483    247.86211 
   27250    141.76849   -581.97611    135771.12   -35670.936    2734.5471   -38405.484     111.0544    247.20665 
   27300    140.74211   -727.92157    135744.33   -35643.982    2714.7494   -38358.731    111.67133    245.41692 
   27350    140.26434    -696.2344    135702.13   -35589.818    2705.5339   -38295.352    112.24781    244.58382 
   27400    141.97056   -643.11433    135715.43   -35666.046    2738.4448    -38404.49    112.33862    247.55901 
   27450    137.63329   -652.36105    135767.73   -35696.225     2654.784   -38351.009    112.78815    239.99597 
   27500    137.58506   -560.54257    135819.43    -35707.23    2653.8538   -38361.084    113.03744    239.91187 
   27550    137.91545   -453.59798    135878.29   -35667.628    2660.2265   -38327.855    113.25009    240.48797 
   27600    140.03134   -461.90926    135828.66   -35648.639    2701.0395   -38349.679    113.92323    244.17752 
   27650    135.95002   -774.09311    135714.82   -35660.015    2622.3157   -38282.331    114.19638    237.06079 
   27700    138.21381   -721.04402    135661.45   -35661.436    2665.9815   -38327.417    114.33531    241.00823 
   27750    138.00315   -579.64577    135714.56   -35644.439    2661.9182   -38306.357    114.59235    240.64091 
   27800    137.23062   -681.84531    135730.48    -35689.62    2647.0169   -38336.637    114.93563    239.29381 
   27850     139.2672   -571.62729    135811.88   -35697.215    2686.3001   -38383.515    115.29752    242.84506 
   27900    139.71324    -654.8036    135854.33   -35711.196    2694.9037     -38406.1    115.39241    243.62284 
   27950    138.60564   -540.50247     135900.9   -35760.194    2673.5396   -38433.733    115.31654    241.69149 
   28000    138.20576   -928.59744    135924.49   -35754.165    2665.8263   -38419.992    115.29087     240.9942 
   28050    138.58926   -1011.8091    135774.47   -35760.129    2673.2235   -38433.352    115.38806    241.66292 
   28100    140.75536   -787.05957    135758.62    -35728.87    2715.0051   -38443.875     115.2722    245.44003 
   28150    137.61302   -773.93898    135815.18   -35759.998     2654.393   -38414.391    115.34386    239.96061 
   28200    137.06131   -985.73501    135765.61    -35733.34    2643.7513   -38377.092    115.66567    238.99859 
   28250     137.2141   -880.25187    135679.02   -35735.121    2646.6984   -38381.819    115.63648    239.26501 
   28300    139.23821   -523.76311    135757.64   -35748.504     2685.741   -38434.245    115.73576    242.79451 
   28350    136.33769   -859.67501    135836.68   -35729.056    2629.7934    -38358.85    115.80229    237.73677 
   28400     138.2926   -728.12716    135884.61   -35758.443    2667.5013   -38425.944    115.78439    241.14562 
   28450    139.90128    -765.8535    135932.37    -35789.15    2698.5308   -38487.681    115.76378    243.95073 
   28500    136.46901    -656.3144    136035.17   -35763.378    2632.3265   -38395.705    115.65153    237.96577 
   28550     135.1564   -934.33368    135977.38   -35706.342    2607.0078    -38313.35    115.85674    235.67693 
   28600    138.60874   -630.89508    135940.84   -35643.756    2673.5992   -38317.356    116.01878    241.69688 
   28650    139.65039   -740.77813    135860.23   -35687.675    2693.6915   -38381.367    115.80016    243.51325 
   28700    138.02014   -489.01649    135846.07   -35652.366    2662.2459   -38314.612    115.69239    240.67053 
   28750    139.32602   -600.27692    135897.18    -35690.85    2687.4348   -38378.285    115.54835    242.94764 
   28800    138.26551   -711.16639    135923.49   -35734.556    2666.9787   -38401.535    115.70733    241.09838 
   28850    133.70127   -961.42536    135962.54   -35746.207    2578.9399   -38325.147    115.89118    233.13956 
   28900    136.09734   -824.40974    135956.57   -35741.905    2625.1573   -38367.063    115.63354    237.31767 
   28950    135.25641   -626.75505    135981.88    -35736.39    2608.9368   -38345.327    115.92684    235.85131 
   29000    137.86943   -617.40641    135981.39   -35712.046    2659.3389   -38371.384    116.07432    240.40773 
   29050    135.84037   -814.70168    135973.09   -35722.542    2620.2008   -38342.743     116.4009    236.86959 
   29100    136.31522   -773.31033    135947.17   -35674.567    2629.3599   -38303.927    116.64381    237.69759 
   29150    133.45865    -580.1885    135871.71   -35739.742      2574.26   -38314.002    116.72301    232.71649 
   29200    139.41608   -963.67362    135899.62   -35697.223     2689.172   -38386.395    116.92105    243.10468 
   29250    135.37259   -927.11751    135768.39   -35693.583    2611.1778   -38304.761    117.28655     236.0539 
   29300    137.12906   -671.90855    135670.09   -35640.688     2645.058   -38285.746    117.58905    239.11672 
   29350      137.337   -691.74279    135659.42   -35623.429     2649.069   -38272.498    117.72371    239.47932 
   29400    139.10635   -637.04092    135734.24   -35558.933    2683.1977   -38242.131    117.90981     242.5646 
   29450    138.93313    -808.2803    135724.62   -35565.379    2679.8564   -38245.235    118.11858    242.26254 
   29500    136.46606   -863.49727    135653.55   -35589.387    2632.2695   -38221.656    118.26062    237.96062 
   29550    135.43036   -868.08457    135556.53   -35629.056    2612.2921   -38241.348    118.64701    236.15464 
   29600    137.30813   -874.91169    135442.22   -35612.264     2648.512   -38260.776    118.84524    239.42897 
   29650    137.13202   -625.05995     135346.7   -35584.204    2645.1152    -38229.32    119.21367    239.12189 
   29700    137.89254   -781.96441    135322.07   -35595.188    2659.7845   -38254.973    119.48713    240.44802 
   29750     140.1184   -941.77001    135279.88   -35571.821    2702.7189    -38274.54    119.99974    244.32934 
   29800    141.59972   -608.99317    135243.34    -35610.95    2731.2918   -38342.241      120.279    246.91237 
   29850    137.11288   -839.41339    135253.18   -35634.855    2644.7459   -38279.601    120.73338    239.08851 
   29900    134.12906   -736.17937     135227.4   -35634.492    2587.1916   -38221.683    121.03709    233.88552 
   29950    138.53679   -377.90157    135201.81   -35619.008    2672.2115   -38291.219      121.727    241.57143 
   30000     138.1182   -522.49221    135259.06   -35621.713    2664.1373    -38285.85    122.34002    240.84151 
   30050    139.72738   -556.25858    135285.17   -35610.425    2695.1765   -38305.601    123.22328    243.64749 
   30100    135.36592   -728.28795    135265.37   -35621.027    2611.0492   -38232.076    124.08787    236.04228 
   30150     137.0788   -633.39025    135290.47   -35610.873    2644.0886   -38254.962    124.45334    239.02909 
   30200     138.3246   -801.50658    135334.52   -35614.971    2668.1186    -38283.09    124.90511    241.20142 
   30250     137.0601   -660.73074     135422.6   -35601.602    2643.7278    -38245.33    125.45461    238.99647 
   30300    138.03664   -936.63004    135413.02   -35577.381    2662.5643   -38239.946    125.97914    240.69931 
   30350    139.27174   -937.40138    135436.93   -35559.592    2686.3878    -38245.98    126.17359    242.85298 
   30400    137.52676   -646.42433    135476.01    -35561.02    2652.7292   -38213.749     126.9088    239.81021 
   30450    138.90328   -829.88574    135355.72   -35630.524    2679.2806   -38309.805    127.16304    242.21048 
   30500    137.90819   -957.17231    135211.63   -35653.642    2660.0865   -38313.729    127.43377    240.47532 
   30550    137.37571   -812.79692    135217.49   -35658.708    2649.8155   -38308.524    127.73028     239.5468 
   30600    135.51065   -735.14089    135233.46   -35680.356    2613.8409   -38294.197    128.35804    236.29465 
   30650    137.77197   -955.14371    135280.42   -35687.071    2657.4589    -38344.53    128.61641    240.23778 
   30700    136.64796   -567.96851    135348.58   -35663.868    2635.7782   -38299.646     129.0079    238.27782 
   30750    137.05131   -716.40586    135464.83   -35633.639    2643.5583   -38277.197    129.63951    238.98114 
   30800    142.07896   -553.60316    135563.74   -35574.836    2740.5358   -38315.371    129.63865    247.74804 
   30850    140.92699   -833.05052     135561.9   -35582.571    2718.3157   -38300.887    130.01786    245.73931 
   30900     138.9031   -730.35445    135533.83   -35622.884    2679.2771   -38302.161    130.07619    242.21018 
   30950    138.24268   -946.42024    135546.99   -35635.026    2666.5383   -38301.564    130.26377    241.05857 
   31000    135.97305   -609.32124    135596.51   -35600.609    2622.7599   -38223.369    130.44583    237.10094 
   31050    137.61698   -1036.2284    135519.56    -35605.55    2654.4695   -38260.019    130.73896    239.96753 
   31100    139.78521   -798.80626    135478.05   -35600.943    2696.2919   -38297.235    130.61179    243.74834 
   31150    139.04644   -763.39848    135449.04   -35601.843     2682.042   -38283.885    130.71409    242.46012 
   31200    137.12899   -674.66921    135388.16   -35609.912    2645.0567   -38254.968    130.52789     239.1166 
   31250    139.33639   -656.70998    135335.31   -35613.656    2687.6348   -38301.291    130.63942    242.96572 
   31300    135.89307   -911.58285    135290.92   -35645.269    2621.2172   -38266.487    130.92244    236.96148 
   31350    135.94391   -637.67079    135160.89   -35662.749    2622.1978   -38284.947    130.75114    237.05013 
   31400    140.29749    -448.0477    135185.84   -35629.077    2706.1732   -38335.251    130.61874    244.64162 
   31450    137.80329    -690.7237     135281.5   -35670.851    2658.0631   -38328.914    130.71279     240.2924 
   31500    139.12473   -650.75902    135258.62     -35646.8    2683.5521   -38330.353    130.60045    242.59663 
   31550    139.46337   -739.12731    135240.61   -35646.977    2690.0841   -38337.061    130.43304    243.18713 
   31600    140.07936   -503.82012    135266.06   -35640.073    2701.9658   -38342.039     130.3568    244.26126 
   31650    135.94078   -684.83144    135296.35   -35710.281    2622.1374   -38332.418    130.32343    237.04467 
   31700    136.02821   -835.37897    135324.94   -35661.068    2623.8239   -38284.892    130.37885    237.19712 
   31750    136.74456   -774.15556    135260.96   -35643.016    2637.6415   -38280.657    130.17867    238.44626 
   31800    138.87704   -765.17892    135304.87   -35659.345    2678.7746   -38338.119    130.14852    242.16474 
   31850    135.58804   -568.55706    135243.95   -35688.223    2615.3336   -38303.556    130.23837    236.42959 
   31900    139.44699   -536.01313    135282.53   -35643.233    2689.7681   -38333.001    130.16276    243.15857 
   31950    138.41283   -544.75594    135324.92   -35579.606    2669.8203   -38249.426    130.67143    241.35527 
   32000    136.26763     -820.594    135315.38    -35572.64     2628.442   -38201.082    131.05411    237.61462 
   32050    139.17864     -587.826    135369.79   -35527.356     2684.592   -38211.948    131.43214    242.69064 
   32100    137.71623   -673.77502    135398.91    -35565.36    2656.3837   -38221.744    131.79691    240.14058 
   32150    139.67356   -731.03414    135437.97   -35601.813    2694.1385   -38295.951     132.1744    243.55366 
   32200    137.13497   -756.86502    135450.99   -35634.016     2645.172   -38279.188    132.41645    239.12702 
   32250    137.53361   -1174.1089    135341.92   -35685.336    2652.8614   -38338.197    132.75332    239.82215 
   32300    138.44807   -725.27047    135259.38   -35677.369    2670.5001   -38347.869    133.07372    241.41672 
   32350    136.03707   -827.08381    135267.05   -35730.432    2623.9948   -38354.427    132.87428    237.21258 
   32400    136.44627   -680.08126    135341.73   -35711.109    2631.8878   -38342.997    133.05896    237.92611 
   32450    136.34727   -508.22334    135341.81   -35689.411    2629.9781   -38319.389     133.1402    237.75348 
   32500    136.06124   -664.31402     135376.7   -35711.141    2624.4609   -38335.602    133.38886    237.25472 
   32550    136.80046    -571.2516    135346.06     -35679.6    2638.7196   -38318.319    133.61555    238.54372 
   32600     138.8081   -612.88113     135402.2    -35702.19    2677.4447   -38379.635    134.00756    242.04452 
   32650    139.07656   -701.69891    135370.52   -35709.197    2682.6231    -38391.82    134.11902    242.51265 
   32700    136.79734   -553.80589    135435.22   -35720.985    2638.6595   -38359.644     133.8356    238.53829 
   32750    136.40259   -654.72143    135364.87   -35673.917    2631.0452   -38304.962    134.14824    237.84994 
   32800     135.8043   -934.79045    135322.37   -35685.799     2619.505   -38305.304     134.0901    236.80669 
   32850     135.9359   -652.69197    135204.33   -35678.141    2622.0434   -38300.184    133.87453    237.03617 
   32900    138.48692   -518.70438    135164.76   -35650.564    2671.2495   -38321.813    133.90314    241.48447 
   32950    136.82473   -824.47047    135230.11   -35626.583    2639.1879   -38265.771    134.02369    238.58606 
   33000    139.43091   -706.76501    135153.81   -35618.083     2689.458   -38307.541    134.07678    243.13054 
   33050    136.84906   -575.04088    135083.18    -35642.55    2639.6572   -38282.207    133.94949    238.62848 
   33100    139.07815   -575.85286    135125.18   -35601.923    2682.6537   -38284.577    134.07292    242.51542 
   33150    137.60426      -501.45    135184.82   -35575.487    2654.2241   -38229.711    134.48675    239.94534 
   33200    136.42533   -451.96944    135194.49   -35570.948    2631.4838   -38202.432     134.5908     237.8896 
   33250    136.03268   -555.26465    135242.38    -35588.88    2623.9101    -38212.79    134.49887    237.20492 
   33300    136.79334   -674.65378    135275.66   -35642.505    2638.5824   -38281.087    134.61576    238.53131 
   33350    140.98618   -620.31317    135269.52   -35582.847    2719.4574   -38302.304    134.89397    245.84252 
   33400    140.06313   -391.73833    135358.68   -35640.589    2701.6527   -38342.241    134.83167    244.23295 
   33450    135.99577   -659.41876    135448.59   -35659.871    2623.1981   -38283.069    135.06223    237.14056 
   33500    137.26793   -670.98965    135381.33   -35699.845    2647.7367   -38347.582     135.3627    239.35888 
   33550    135.38248   -851.25485    135328.08   -35740.704    2611.3685   -38352.073    135.70258    236.07114 
   33600    137.54693   -684.63453    135346.97   -35729.093    2653.1183   -38382.211    135.90304    239.84538 
   33650     135.9052   -744.43131    135346.52   -35718.581    2621.4512   -38340.033    136.10405    236.98264 
   33700    134.10904   -1066.4466    135218.84   -35722.649    2586.8055   -38309.455    136.24845    233.85061 
   33750    136.70721   -788.85396    135240.82   -35700.964    2636.9211   -38337.885    136.41199    238.38113 
   33800    136.61132   -893.10943    135252.34   -35678.065    2635.0715   -38313.137    136.56552    238.21392 
   33850    135.01915   -671.15211    135243.51   -35712.109    2604.3604   -38316.469     136.8596     235.4376 
   33900    137.95735   -681.21032    135217.96   -35666.656    2661.0347   -38327.691    136.97531    240.56103 
   33950      136.814   -532.65376    135209.26   -35660.743    2638.9808   -38299.723    137.08252    238.56734 
[...]
   92000    134.97845   -952.61838     135721.6   -35847.485    2603.5754    -38451.06    312.75891    235.36663 
   92050    137.38161   -572.21079    135740.78     -35818.7    2649.9294    -38468.63    312.79871     239.5571 
   92100    136.77403   -629.65834    135754.93   -35775.102    2638.2099   -38413.312    312.45026    238.49764 
   92150    135.26659   -779.04901    135686.66   -35793.731    2609.1332   -38402.864    312.71114    235.86907 
   92200    136.45814    -797.3552    135719.05   -35818.401    2632.1168   -38450.518    312.90814    237.94682 
   92250    135.07461   -760.29587    135796.35   -35829.096    2605.4302   -38434.526    312.96325    235.53431 
   92300    133.38479   -626.05842    135816.31   -35897.758    2572.8354   -38470.593    313.29155     232.5877 
   92350    136.69063   -621.47651     135840.2   -35855.934    2636.6011   -38492.536    313.32269    238.35221 
   92400    135.44735   -681.18778    135867.58    -35839.02    2612.6198    -38451.64    313.51886    236.18427 
   92450    134.56622   -853.02515    135903.22   -35806.606    2595.6238    -38402.23     313.6217     234.6478 
   92500    137.02972   -917.18076    135896.56   -35817.372    2643.1419   -38460.513    314.02802     238.9435 
   92550    136.91505   -537.13012    135875.83   -35821.763      2640.93   -38462.693    314.07824    238.74354 
   92600     135.2896   -857.77657    135773.22    -35833.52     2609.577   -38443.097    314.34509    235.90919 
   92650    135.50053    -581.9671    135737.18   -35882.808    2613.6455   -38496.454    314.13349    236.27699 
   92700    137.02694   -941.42545    135687.35   -35894.014    2643.0883   -38537.102    314.11903    238.93865 
   92750    135.76501   -741.30397    135690.98   -35878.247    2618.7471   -38496.994    314.25955    236.73818 
   92800    134.73484   -680.27149    135648.72    -35862.55    2598.8764   -38461.426    314.77003    234.94184 
   92850    132.23663   -1050.7428    135639.92   -35869.404    2550.6889   -38420.093    315.03475    230.58563 
   92900     138.2435   -546.09249    135607.87   -35801.284    2666.5543   -38467.838    315.56275    241.06001 
   92950    135.92726   -632.84537    135628.52   -35770.151    2621.8767   -38392.028    315.79202     237.0211 
   93000    136.20552   -712.07634    135696.05   -35775.105     2627.244   -38402.349    315.79784    237.50631 
   93050    135.27652   -757.92595    135669.19   -35811.819    2609.3247   -38421.143    315.49117    235.88638 
   93100     135.4829   -612.47621    135677.32   -35775.514    2613.3055   -38388.819     315.7616    236.24625 
   93150    137.69745   -588.89054    135700.89   -35742.575    2656.0216   -38398.597    316.01829    240.10785 
   93200    139.51069   -889.00242    135676.32   -35648.609    2690.9969   -38339.606    315.94515    243.26965 
   93250    138.17287   -729.45893    135674.25   -35624.977    2665.1919   -38290.169    315.87534    240.93685 
   93300    140.03273   -750.21541    135653.55   -35689.078    2701.0664   -38390.145    315.92401    244.17995 
   93350    136.77929   -747.85774    135652.83   -35735.214    2638.3113   -38373.526    316.27036    238.50681 
   93400    136.50526   -695.77353     135597.5   -35746.922    2633.0256   -38379.947    316.34961    238.02897 
   93450    137.53371   -619.44604    135552.41   -35755.858    2652.8632   -38408.722    316.62613    239.82232 
   93500    138.10455   -573.06337    135534.56   -35784.715    2663.8741   -38448.589    316.57292    240.81772 
   93550    135.56449   -627.71881    135488.89   -35811.886    2614.8793   -38426.765    316.31557    236.38852 
   93600      135.796   -687.74119    135501.92   -35742.126    2619.3448   -38361.471    316.18097    236.79221 
   93650    135.84947   -763.34912    135478.79   -35697.516    2620.3762   -38317.892    316.57967    236.88545 
   93700    135.19359   -828.79323    135535.94   -35748.526    2607.7251   -38356.251    316.60808    235.74177 
   93750     137.5692    -763.4498    135514.58   -35747.206    2653.5477   -38400.754    316.57322     239.8842 
   93800     136.8394    -651.9834    135521.79   -35775.964    2639.4708   -38415.434    316.73436    238.61163 
   93850    137.28523   -562.26025    135630.97   -35755.226    2648.0704   -38403.296    316.92345    239.38904 
   93900    136.31492   -738.06102    135690.78   -35775.755    2629.3543   -38405.109    316.75171    237.69708 
   93950    137.95471   -475.98471    135812.56   -35755.169    2660.9839   -38416.153    316.81834    240.55644 
   94000    136.24419   -653.91464    135860.49   -35767.569    2627.9899   -38395.559    316.59532    237.57374 
   94050    136.76263   -589.60941    135902.59   -35758.309    2637.9901   -38396.299    316.88266    238.47777 
   94100    135.93027   -778.91316    135980.64    -35800.66    2621.9347   -38422.594    317.06917    237.02634 
   94150    134.85698   -652.99971    135941.77   -35778.572    2601.2323   -38379.805    317.29808    235.15481 
   94200    134.94603   -759.87664    135896.45   -35755.403      2602.95   -38358.353    317.87618     235.3101 
   94250    137.43311    -770.5417    135908.04   -35743.952    2650.9228   -38394.875    317.88237     239.6469 
   94300    140.70287   -657.97474    135742.23   -35679.405    2713.9925   -38393.398    317.91997    245.34849 
   94350    140.28922   -656.80135     135652.2   -35626.135    2706.0138   -38332.148    318.12901     244.6272 
   94400    138.03689   -804.69981    135652.62   -35661.232     2662.569   -38323.801    318.35392    240.69974 
   94450    139.10065   -694.11114     135662.2   -35687.828    2683.0877   -38370.915    318.16637    242.55465 
   94500    137.03542   -635.33135    135564.78   -35723.921    2643.2517   -38367.173    318.17671    238.95343 
   94550    138.35541   -705.43429    135599.93   -35706.663    2668.7128   -38375.376    318.34824    241.25515 
   94600    136.19195   -581.65516    135671.05   -35707.437    2626.9823   -38334.419    318.41079    237.48266 
   94650    135.81089   -617.11587    135779.58   -35723.077    2619.6321   -38342.709    318.71322    236.81818 
   94700    139.55142   -998.08359    135767.31   -35750.644    2691.7824   -38442.427    318.48523    243.34067 
   94750    140.30683   -745.23972    135690.35   -35734.971    2706.3534   -38441.324    318.78977     244.6579 
   94800    140.96016   -673.07392    135703.13   -35704.917    2718.9555   -38423.872    319.21374    245.79715 
   94850    138.04535   -797.37479     135690.9   -35773.212    2662.7322   -38435.944    319.62389    240.71449 
   94900    141.01075   -719.15701    135623.72    -35731.37    2719.9313   -38451.302    319.72922    245.88536 
   94950    136.92594   -712.96792    135443.98   -35811.891      2641.14   -38453.031    319.97881    238.76253 
   95000     136.6072   -623.30886    135399.79   -35790.844    2634.9919   -38425.836    320.44506    238.20673 
   95050    135.82972    -728.4617    135341.99   -35766.043    2619.9952   -38386.038    320.80043    236.85101 
   95100    137.93106   -634.10215    135265.87    -35761.83    2660.5276   -38422.358    320.82061    240.51519 
   95150    137.96026   -729.95801    135298.24   -35760.931    2661.0908   -38422.021    321.19561    240.56611 
   95200    137.63875    -770.7791    135331.73   -35706.743    2654.8893   -38361.632    320.94835    240.00548 
   95250    138.03812   -903.94903     135199.1   -35676.659    2662.5927   -38339.251    321.56212    240.70188 
   95300    138.55823    -612.3616     135202.9   -35711.273    2672.6249   -38383.898    321.48116    241.60881 
   95350    136.87512   -603.41993    135287.39   -35710.568    2640.1598   -38350.728    321.56489    238.67392 
   95400    138.69932   -686.89125    135350.16   -35683.551    2675.3464   -38358.897    321.42993    241.85483 
   95450    137.98031   -806.86303    135362.23   -35705.086    2661.4775   -38366.564    321.50496    240.60107 
   95500    141.42691   -661.30913    135426.21   -35639.682    2727.9585   -38367.641    321.22421    246.61104 
   95550    138.76488   -683.18941    135435.98   -35668.297     2676.611   -38344.908     321.4381    241.96915 
   95600    136.57794   -648.37812    135438.78   -35710.644    2634.4275   -38345.071    321.52053    238.15571 
   95650    135.77853   -343.44311    135614.16   -35722.507    2619.0079   -38341.515    321.79118    236.76176 
   95700    139.27769   -798.46439    135647.06   -35703.918    2686.5025    -38390.42    322.04854    242.86336 
   95750    137.00748    -830.3308    135583.73   -35708.121     2642.713   -38350.834    322.46975    238.90472 
   95800    132.11829   -750.85822    135632.08   -35823.469    2548.4062   -38371.875    323.03691    230.37927 
   95850    136.29971   -666.24878    135584.83   -35808.982    2629.0609   -38438.043     323.0504    237.67056 
   95900    135.37382   -690.13008    135547.36   -35788.223    2611.2014   -38399.425    323.02882    236.05604 
   95950    138.36865    -841.7887    135555.31   -35783.561    2668.9682   -38452.529    323.22198    241.27823 
   96000    137.35548   -629.44187    135591.46   -35776.296    2649.4254   -38425.722    322.72944    239.51154 
   96050    134.87648    -739.8438    135599.06   -35812.892    2601.6083     -38414.5    323.47886    235.18881 
   96100    135.23266   -629.83786    135654.52   -35835.393    2608.4787   -38443.872    323.45337    235.80991 
   96150     138.2698    -441.9079    135618.09   -35790.601    2667.0615   -38457.663     323.6268    241.10586 
   96200    134.80668    -897.3462    135687.06   -35823.684     2600.262   -38423.946    323.81099    235.06711 
   96250    134.06802   -883.07769    135637.12   -35866.979    2586.0142   -38452.993    324.57052    233.77908 
   96300    134.66845   -879.49463    135526.22   -35881.119    2597.5957   -38478.715    324.94518    234.82607 
   96350     137.5606   -622.23962    135512.49   -35825.907    2653.3818   -38479.289    325.12265     239.8692 
   96400    135.61788   -514.62142    135614.11   -35842.328    2615.9091   -38458.237    324.79163    236.48162 
   96450    138.04615   -678.38011     135743.5   -35807.956    2662.7476   -38470.703    324.69139    240.71589 
   96500    134.54458   -1084.0831     135717.3    -35849.16    2595.2064   -38444.367    324.52196    234.61007 
   96550    134.40893   -945.99933    135657.27   -35816.359    2592.5899   -38408.949    324.63196    234.37353 
   96600     136.4447   -808.68649    135635.93    -35843.64    2631.8576   -38475.497    324.93788    237.92338 
   96650    137.99919   -1057.3342    135579.55   -35820.679    2661.8418   -38482.521    325.01406      240.634 
   96700    137.76711   -484.62491    135600.63   -35816.062    2657.3653   -38473.427    325.17824    240.22931 
   96750    134.56099   -791.75168    135676.78   -35892.367    2595.5229    -38487.89    325.12411    234.63868 
   96800    138.59667   -900.38037    135667.61   -35842.275    2673.3664   -38515.641    324.92374    241.67584 
   96850    137.97378   -755.79035     135684.7   -35812.646    2661.3517   -38473.998    324.80684     240.5897 
   96900     135.8334   -787.55736    135712.97   -35852.714    2620.0662    -38472.78    325.10215    236.85743 
   96950     134.5928   -835.47339    135766.57   -35876.583    2596.1365   -38472.719    325.23524    234.69415 
   97000    134.92835   -846.95113     135816.8   -35842.837    2602.6089   -38445.446    325.65913    235.27926 
   97050     137.2529   -821.79161    135886.93    -35886.81    2647.4467   -38534.257    325.75624    239.33266 
   97100    138.43803   -631.03096    135962.29   -35816.201    2670.3065   -38486.508    326.18481    241.39921 
   97150    137.85219   -750.39498    135881.32   -35824.909    2659.0063   -38483.915    327.18336    240.37766 
   97200    139.93524   -816.93427    135913.79   -35781.374    2699.1859    -38480.56    327.19536    244.00995 
   97250    134.65037   -824.27055    135918.03   -35758.361    2597.2471   -38355.608    327.29508    234.79455 
   97300    139.80161   -815.90076    135792.18   -35712.635    2696.6083   -38409.244    327.78762    243.77693 
   97350    137.46141   -703.37187    135826.37   -35733.755    2651.4687   -38385.224    327.96932    239.69625 
   97400    139.88032   -970.35057    135714.57   -35697.776    2698.1267   -38395.903    328.21404     243.9142 
   97450    140.16241   -765.63855    135653.08   -35715.542    2703.5678    -38419.11    328.86699    244.40608 
   97500    138.36809   -651.78483    135650.22    -35706.57    2668.9575   -38375.527    328.72906    241.27726 
   97550    140.62085   -560.61949    135694.45   -35745.721    2712.4105   -38458.132    328.94087    245.20548 
   97600    138.82384   -785.21744    135742.98   -35752.455    2677.7484   -38430.204    329.38844    242.07198 
   97650    139.63626   -414.70046    135741.38   -35734.631     2693.419    -38428.05     329.5692    243.48861 
   97700    139.09873   -697.92721    135737.42   -35694.658    2683.0506   -38377.709    329.29531     242.5513 
   97750    140.77223   -857.49556    135712.66   -35667.039    2715.3305    -38382.37    329.14754    245.46945 
   97800    138.75592   -720.39747    135671.09   -35699.728    2676.4382   -38376.166    329.61254    241.95353 
   97850    136.90082   -676.40331    135676.09   -35685.536    2640.6555   -38326.192    329.31177    238.71873 
   97900    138.86435   -603.98143    135675.82   -35708.147    2678.5297   -38386.677     329.6293    242.14261 
   97950    137.65747    -650.2293    135717.04   -35693.385    2655.2504   -38348.636    330.15564    240.03812 
   98000    136.35256   -938.15403    135683.47   -35756.942    2630.0802   -38387.022    330.38314    237.76271 
   98050    137.37242   -827.48236    135578.09   -35793.205    2649.7522   -38442.957    330.45391    239.54108 
   98100    135.49196   -586.29625    135548.85   -35807.001    2613.4803   -38420.481    330.54417    236.26205 
   98150    136.68089   -742.50135    135561.21   -35835.916    2636.4134   -38472.329    330.85812    238.33523 
   98200    137.11501   -564.07387    135547.03   -35765.756    2644.7871   -38410.543    330.65197    239.09223 
   98250    135.57511   -704.89601     135553.1   -35811.357    2615.0841   -38426.441    330.86417    236.40704 
   98300    137.02724   -937.36341    135556.57   -35768.189     2643.094   -38411.283    330.66642    238.93917 
   98350    138.46151   -526.61831    135577.51   -35760.452    2670.7594   -38431.212    330.34726    241.44016 
   98400    136.60793   -643.78749    135586.66   -35757.978     2635.006   -38392.984    330.25051      238.208 
   98450    138.24675   -625.02314    135552.86   -35747.592     2666.617   -38414.209    330.10116    241.06568 
   98500    138.03293   -517.91723    135523.44   -35741.699    2662.4926   -38404.192    330.12489    240.69283 
   98550    138.25671   -596.62473    135450.67   -35756.918     2666.809   -38423.727    330.07068    241.08304 
   98600    136.07525   -772.46453    135351.93    -35761.27    2624.7312   -38386.002    330.62238    237.27915 
   98650    137.91142   -798.33911    135308.58   -35741.121    2660.1488   -38401.269     330.6818    240.48095 
   98700    137.57367   -540.17653    135303.16    -35685.42     2653.634   -38339.054    331.25152    239.89201 
   98750    138.56566    -659.2438    135290.43    -35669.56    2672.7683   -38342.328    330.97867    241.62177 
   98800    137.15798   -704.38056    135276.27   -35727.573    2645.6158   -38373.189    331.16819    239.16715 
   98850    136.47423   -819.20918    135229.98    -35790.89    2632.4271   -38423.317    330.81863    237.97487 
   98900     132.2212   -549.16937    135192.09   -35837.501    2550.3912   -38387.892    331.46713    230.55872 
   98950    133.84723   -590.82597    135141.48   -35817.732    2581.7554   -38399.487    331.52295    233.39408 
   99000    134.98338   -594.73483    135119.53   -35774.227    2603.6704   -38377.897    331.43836    235.37523 
   99050    133.23583   -547.57823    135147.64    -35778.67    2569.9621   -38348.632    331.85715    232.32795 
   99100    135.28762   -731.31872    135160.04   -35751.906    2609.5388   -38361.445    331.93267    235.90573 
   99150    135.46437   -550.41912    135139.56   -35786.326    2612.9482   -38399.274    332.20575    236.21395 
   99200    135.21165    -420.8035    135214.74   -35766.352    2608.0735   -38374.425     331.8894    235.77327 
   99250     137.8525   -633.62445    135179.72    -35795.63    2659.0122   -38454.643    331.95964     240.3782 
   99300    138.31642   -625.95809    135187.43   -35755.488    2667.9607   -38423.449     332.2009    241.18716 
   99350    136.65646   -761.99241    135156.64    -35667.52    2635.9422   -38303.462    332.25275    238.29264 
   99400    138.37563   -567.43834    135237.23    -35712.31    2669.1029   -38381.413    331.94242    241.29041 
   99450    138.35296   -837.02647    135229.53    -35713.42    2668.6656   -38382.085    331.79122    241.25088 
   99500    135.59437   -797.10267    135114.59   -35685.315    2615.4557   -38300.771    331.64993    236.44063 
   99550    140.47429   -662.11637    135088.53    -35649.02    2709.5835   -38358.604    331.57857    244.94991 
   99600    136.62586   -582.03039    135080.76   -35726.536    2635.3519   -38361.888    331.88548    238.23928 
   99650    137.56217   -764.99961    135092.52   -35687.635    2653.4122   -38341.047    331.82276    239.87195 
   99700    136.21557   -771.86283    135098.04   -35695.159    2627.4379   -38322.597     331.8921    237.52384 
   99750    136.97278   -925.74079    135115.21   -35694.811    2642.0435   -38336.855    332.23218     238.8442 
   99800    136.95541   -730.58585    135082.32   -35739.808    2641.7085   -38381.517    332.13698    238.81392 
   99850    135.51555   -577.77768    135154.69    -35735.88    2613.9354   -38349.816    332.65868    236.30319 
   99900    138.34042   -733.33987    135275.28   -35699.193    2668.4237   -38367.617    332.53888    241.22901 
   99950    138.13876   -743.30042    135213.58   -35641.758    2664.5338   -38306.292    332.94619    240.87736 
  100000    137.75988   -511.79644    135202.56   -35685.548    2657.2257   -38342.773    333.15756     240.2167 
Loop time of 182.577 on 64 procs for 100000 steps with 6472 atoms

Performance: 236.612 ns/day, 0.101 hours/ns, 547.713 timesteps/s
99.5% CPU use with 64 MPI tasks x no OpenMP threads

MPI task timing breakdown:
Section |  min time  |  avg time  |  max time  |%varavg| %total
---------------------------------------------------------------
Pair    | 17.753     | 74.851     | 138.93     | 654.7 | 41.00
Neigh   | 1.1628     | 2.4397     | 4.6996     |  88.8 |  1.34
Comm    | 25.629     | 88.041     | 148.23     | 583.1 | 48.22
Output  | 0.21909    | 0.22171    | 0.23779    |   0.5 |  0.12
Modify  | 11.364     | 15.584     | 24.01      | 116.6 |  8.54
Other   |            | 1.44       |            |       |  0.79

Nlocal:    101.125 ave 172 max 61 min
Histogram: 30 2 0 7 9 0 0 0 3 13
Nghost:    978.641 ave 1324 max 659 min
Histogram: 32 0 0 0 0 0 0 0 10 22
Neighs:    0 ave 0 max 0 min
Histogram: 64 0 0 0 0 0 0 0 0 0
FullNghs:  12341.1 ave 27976 max 3710 min
Histogram: 32 0 0 0 16 0 0 0 3 13

Total # of neighbors = 789832
Ave neighs/atom = 122.038
Neighbor list builds = 5996
Dangerous builds = 0

write_data		${DIR}/data.eq-${NAME}-${TEMP}
write_data		run_3/data.eq-${NAME}-${TEMP}
write_data		run_3/data.eq-het_freeze_3-${TEMP}
write_data		run_3/data.eq-het_freeze_3-240
undump          1

reset_timestep  0

unfix           2
unfix           3
unfix           4


################################################
#######         Run Simulation         #########
################################################

log				${DIR}/log.run_${NAME}
log				run_3/log.run_${NAME}
log				run_3/log.run_het_freeze_3
