LAMMPS data file via write_data, version 16 Mar 2018, timestep = 100000

4545 atoms
2 atom types

0.0000000000000000e+00 4.9219999999999999e+01 xlo xhi
0.0000000000000000e+00 4.9019635930410494e+01 ylo yhi
1.6580107985442520e+00 3.1977328987977437e+01 zlo zhi

Masses

1 18.015
2 12.01

Atoms # atomic

91 2 0.0000000000000000e+00 2.8417180249513345e+00 3.1696796839009389e+00 0 0 0
93 2 0.0000000000000000e+00 0.0000000000000000e+00 3.1696796839009389e+00 0 0 0
95 2 1.2305000000000001e+00 7.1042950623783474e-01 3.1696796839009389e+00 0 0 0
102 2 1.2305000000000001e+00 2.1312885187134998e+00 3.1696796839009389e+00 0 0 0
104 2 2.4610000000000003e+00 2.8417180249513345e+00 3.1696796839009389e+00 0 0 0
106 2 2.4610000000000003e+00 0.0000000000000000e+00 3.1696796839009389e+00 0 0 0
108 2 3.6915000000000004e+00 7.1042950623783474e-01 3.1696796839009389e+00 0 0 0
123 2 3.6914999999999996e+00 2.1312885187134998e+00 3.1696796839009389e+00 0 0 0
125 2 4.9220000000000006e+00 2.8417180249513332e+00 3.1696796839009389e+00 0 0 0
127 2 4.9220000000000006e+00 0.0000000000000000e+00 3.1696796839009389e+00 0 0 0
129 2 6.1524999999999999e+00 7.1042950623783407e-01 3.1696796839009389e+00 0 0 0
152 2 6.1524999999999999e+00 2.1312885187134989e+00 3.1696796839009389e+00 0 0 0
154 2 7.3829999999999991e+00 2.8417180249513345e+00 3.1696796839009389e+00 0 0 0
156 2 7.3829999999999991e+00 0.0000000000000000e+00 3.1696796839009389e+00 0 0 0
158 2 8.6134999999999984e+00 7.1042950623783407e-01 3.1696796839009389e+00 0 0 0
189 2 8.6134999999999984e+00 2.1312885187135002e+00 3.1696796839009389e+00 0 0 0
191 2 9.8440000000000012e+00 2.8417180249513332e+00 3.1696796839009389e+00 0 0 0
193 2 9.8440000000000012e+00 0.0000000000000000e+00 3.1696796839009389e+00 0 0 0
195 2 1.1074500000000002e+01 7.1042950623783330e-01 3.1696796839009389e+00 0 0 0
234 2 1.1074500000000002e+01 2.1312885187135002e+00 3.1696796839009389e+00 0 0 0
98 2 0.0000000000000000e+00 4.2625770374269996e+00 3.1696796839009389e+00 0 0 0
100 2 1.2305000000000001e+00 4.9730065436648339e+00 3.1696796839009389e+00 0 0 0
115 2 1.2305000000000001e+00 6.3938655561404980e+00 3.1696796839009389e+00 0 0 0
119 2 2.4610000000000003e+00 4.2625770374269996e+00 3.1696796839009389e+00 0 0 0
121 2 3.6914999999999996e+00 4.9730065436648339e+00 3.1696796839009389e+00 0 0 0
144 2 3.6914999999999996e+00 6.3938655561404980e+00 3.1696796839009389e+00 0 0 0
96 2 0.0000000000000000e+00 7.1042950623783341e+00 3.1696796839009389e+00 0 0 0
117 2 2.4610000000000003e+00 7.1042950623783341e+00 3.1696796839009389e+00 0 0 0
148 2 4.9220000000000006e+00 4.2625770374269978e+00 3.1696796839009389e+00 0 0 0
150 2 6.1524999999999999e+00 4.9730065436648339e+00 3.1696796839009389e+00 0 0 0
181 2 6.1524999999999999e+00 6.3938655561404980e+00 3.1696796839009389e+00 0 0 0
185 2 7.3829999999999991e+00 4.2625770374269996e+00 3.1696796839009389e+00 0 0 0
146 2 4.9220000000000006e+00 7.1042950623783341e+00 3.1696796839009389e+00 0 0 0
183 2 7.3830000000000009e+00 7.1042950623783341e+00 3.1696796839009389e+00 0 0 0
187 2 8.6135000000000002e+00 4.9730065436648339e+00 3.1696796839009389e+00 0 0 0
226 2 8.6135000000000002e+00 6.3938655561404980e+00 3.1696796839009389e+00 0 0 0
230 2 9.8440000000000012e+00 4.2625770374270004e+00 3.1696796839009389e+00 0 0 0
232 2 1.1074500000000002e+01 4.9730065436648339e+00 3.1696796839009389e+00 0 0 0
273 2 1.1074500000000002e+01 6.3938655561404980e+00 3.1696796839009389e+00 0 0 0
228 2 9.8440000000000012e+00 7.1042950623783341e+00 3.1696796839009389e+00 0 0 0
111 2 0.0000000000000000e+00 8.5251540748539991e+00 3.1696796839009389e+00 0 0 0
113 2 1.2305000000000001e+00 9.2355835810918343e+00 3.1696796839009389e+00 0 0 0
140 2 2.4610000000000003e+00 8.5251540748539991e+00 3.1696796839009389e+00 0 0 0
142 2 3.6915000000000004e+00 9.2355835810918343e+00 3.1696796839009389e+00 0 0 0
109 2 0.0000000000000000e+00 1.1366872099805333e+01 3.1696796839009389e+00 0 0 0
136 2 1.2305000000000001e+00 1.0656442593567498e+01 3.1696796839009389e+00 0 0 0
138 2 2.4610000000000003e+00 1.1366872099805333e+01 3.1696796839009389e+00 0 0 0
173 2 3.6914999999999996e+00 1.0656442593567499e+01 3.1696796839009389e+00 0 0 0
177 2 4.9220000000000006e+00 8.5251540748539991e+00 3.1696796839009389e+00 0 0 0
179 2 6.1524999999999999e+00 9.2355835810918343e+00 3.1696796839009389e+00 0 0 0
222 2 7.3830000000000009e+00 8.5251540748539991e+00 3.1696796839009389e+00 0 0 0
175 2 4.9220000000000006e+00 1.1366872099805333e+01 3.1696796839009389e+00 0 0 0
218 2 6.1524999999999999e+00 1.0656442593567499e+01 3.1696796839009389e+00 0 0 0
220 2 7.3829999999999991e+00 1.1366872099805333e+01 3.1696796839009389e+00 0 0 0
224 2 8.6134999999999984e+00 9.2355835810918343e+00 3.1696796839009389e+00 0 0 0
269 2 9.8440000000000012e+00 8.5251540748539956e+00 3.1696796839009389e+00 0 0 0
271 2 1.1074500000000002e+01 9.2355835810918343e+00 3.1696796839009389e+00 0 0 0
265 2 8.6134999999999984e+00 1.0656442593567498e+01 3.1696796839009389e+00 0 0 0
267 2 9.8440000000000012e+00 1.1366872099805333e+01 3.1696796839009389e+00 0 0 0
312 2 1.1074500000000002e+01 1.0656442593567498e+01 3.1696796839009389e+00 0 0 0
314 2 1.2304999999999998e+01 1.1366872099805333e+01 3.1696796839009389e+00 0 0 0
92 2 0.0000000000000000e+00 1.4208590124756650e+00 6.1930174546137664e+00 0 0 0
94 2 0.0000000000000000e+00 0.0000000000000000e+00 6.1930174546137664e+00 0 0 0
103 2 1.2305000000000001e+00 2.1312885187134998e+00 6.1930174546137664e+00 0 0 0
105 2 2.4610000000000003e+00 1.4208590124756650e+00 6.1930174546137664e+00 0 0 0
107 2 2.4610000000000003e+00 0.0000000000000000e+00 6.1930174546137664e+00 0 0 0
124 2 3.6914999999999996e+00 2.1312885187134998e+00 6.1930174546137664e+00 0 0 0
420 2 0.0000000000000000e+00 2.8417180249513345e+00 9.2163552253273267e+00 0 0 0
421 2 0.0000000000000000e+00 0.0000000000000000e+00 9.2163552253273267e+00 0 0 0
422 2 1.2305000000000001e+00 7.1042950623783474e-01 9.2163552253273267e+00 0 0 0
426 2 1.2305000000000001e+00 2.1312885187134998e+00 9.2163552253273267e+00 0 0 0
427 2 2.4610000000000003e+00 2.8417180249513345e+00 9.2163552253273267e+00 0 0 0
428 2 2.4610000000000003e+00 0.0000000000000000e+00 9.2163552253273267e+00 0 0 0
429 2 3.6915000000000004e+00 7.1042950623783474e-01 9.2163552253273267e+00 0 0 0
437 2 3.6914999999999996e+00 2.1312885187134998e+00 9.2163552253273267e+00 0 0 0
101 2 1.2305000000000001e+00 3.5521475311891644e+00 6.1930174546137664e+00 0 0 0
122 2 3.6914999999999996e+00 3.5521475311891644e+00 6.1930174546137664e+00 0 0 0
126 2 4.9220000000000006e+00 1.4208590124756650e+00 6.1930174546137664e+00 0 0 0
128 2 4.9220000000000006e+00 0.0000000000000000e+00 6.1930174546137664e+00 0 0 0
153 2 6.1524999999999999e+00 2.1312885187134989e+00 6.1930174546137664e+00 0 0 0
155 2 7.3829999999999991e+00 1.4208590124756659e+00 6.1930174546137664e+00 0 0 0
157 2 7.3829999999999991e+00 0.0000000000000000e+00 6.1930174546137664e+00 0 0 0
438 2 4.9220000000000006e+00 2.8417180249513332e+00 9.2163552253273267e+00 0 0 0
439 2 4.9220000000000006e+00 0.0000000000000000e+00 9.2163552253273267e+00 0 0 0
440 2 6.1524999999999999e+00 7.1042950623783407e-01 9.2163552253273267e+00 0 0 0
452 2 6.1524999999999999e+00 2.1312885187134989e+00 9.2163552253273267e+00 0 0 0
453 2 7.3829999999999991e+00 2.8417180249513345e+00 9.2163552253273267e+00 0 0 0
454 2 7.3829999999999991e+00 0.0000000000000000e+00 9.2163552253273267e+00 0 0 0
151 2 6.1524999999999999e+00 3.5521475311891644e+00 6.1930174546137664e+00 0 0 0
190 2 8.6134999999999984e+00 2.1312885187135002e+00 6.1930174546137664e+00 0 0 0
192 2 9.8440000000000012e+00 1.4208590124756659e+00 6.1930174546137664e+00 0 0 0
194 2 9.8440000000000012e+00 0.0000000000000000e+00 6.1930174546137664e+00 0 0 0
235 2 1.1074500000000002e+01 2.1312885187135002e+00 6.1930174546137664e+00 0 0 0
455 2 8.6134999999999984e+00 7.1042950623783407e-01 9.2163552253273267e+00 0 0 0
471 2 8.6134999999999984e+00 2.1312885187135002e+00 9.2163552253273267e+00 0 0 0
472 2 9.8440000000000012e+00 2.8417180249513332e+00 9.2163552253273267e+00 0 0 0
473 2 9.8440000000000012e+00 0.0000000000000000e+00 9.2163552253273267e+00 0 0 0
474 2 1.1074500000000002e+01 7.1042950623783330e-01 9.2163552253273267e+00 0 0 0
494 2 1.1074500000000002e+01 2.1312885187135002e+00 9.2163552253273267e+00 0 0 0
188 2 8.6134999999999984e+00 3.5521475311891657e+00 6.1930174546137664e+00 0 0 0
233 2 1.1074500000000002e+01 3.5521475311891644e+00 6.1930174546137664e+00 0 0 0
97 2 0.0000000000000000e+00 5.6834360499026637e+00 6.1930174546137664e+00 0 0 0
99 2 0.0000000000000000e+00 4.2625770374269996e+00 6.1930174546137664e+00 0 0 0
116 2 1.2305000000000001e+00 6.3938655561404980e+00 6.1930174546137664e+00 0 0 0
118 2 2.4610000000000003e+00 5.6834360499026637e+00 6.1930174546137664e+00 0 0 0
120 2 2.4610000000000003e+00 4.2625770374269996e+00 6.1930174546137664e+00 0 0 0
145 2 3.6914999999999996e+00 6.3938655561404980e+00 6.1930174546137664e+00 0 0 0
424 2 0.0000000000000000e+00 4.2625770374269996e+00 9.2163552253273267e+00 0 0 0
425 2 1.2305000000000001e+00 4.9730065436648339e+00 9.2163552253273267e+00 0 0 0
433 2 1.2305000000000001e+00 6.3938655561404980e+00 9.2163552253273267e+00 0 0 0
435 2 2.4610000000000003e+00 4.2625770374269996e+00 9.2163552253273267e+00 0 0 0
436 2 3.6914999999999996e+00 4.9730065436648339e+00 9.2163552253273267e+00 0 0 0
448 2 3.6914999999999996e+00 6.3938655561404980e+00 9.2163552253273267e+00 0 0 0
114 2 1.2305000000000001e+00 7.8147245686161639e+00 6.1930174546137664e+00 0 0 0
143 2 3.6914999999999996e+00 7.8147245686161639e+00 6.1930174546137664e+00 0 0 0
423 2 0.0000000000000000e+00 7.1042950623783341e+00 9.2163552253273267e+00 0 0 0
434 2 2.4610000000000003e+00 7.1042950623783341e+00 9.2163552253273267e+00 0 0 0
147 2 4.9220000000000006e+00 5.6834360499026637e+00 6.1930174546137664e+00 0 0 0
149 2 4.9220000000000006e+00 4.2625770374269978e+00 6.1930174546137664e+00 0 0 0
182 2 6.1524999999999999e+00 6.3938655561404980e+00 6.1930174546137664e+00 0 0 0
184 2 7.3829999999999991e+00 5.6834360499026637e+00 6.1930174546137664e+00 0 0 0
186 2 7.3829999999999991e+00 4.2625770374269996e+00 6.1930174546137664e+00 0 0 0
450 2 4.9220000000000006e+00 4.2625770374269978e+00 9.2163552253273267e+00 0 0 0
451 2 6.1524999999999999e+00 4.9730065436648339e+00 9.2163552253273267e+00 0 0 0
467 2 6.1524999999999999e+00 6.3938655561404980e+00 9.2163552253273267e+00 0 0 0
469 2 7.3829999999999991e+00 4.2625770374269996e+00 9.2163552253273267e+00 0 0 0
180 2 6.1524999999999999e+00 7.8147245686161639e+00 6.1930174546137664e+00 0 0 0
449 2 4.9220000000000006e+00 7.1042950623783341e+00 9.2163552253273267e+00 0 0 0
468 2 7.3830000000000009e+00 7.1042950623783341e+00 9.2163552253273267e+00 0 0 0
227 2 8.6135000000000002e+00 6.3938655561404980e+00 6.1930174546137664e+00 0 0 0
229 2 9.8440000000000012e+00 5.6834360499026637e+00 6.1930174546137664e+00 0 0 0
231 2 9.8440000000000012e+00 4.2625770374270004e+00 6.1930174546137664e+00 0 0 0
274 2 1.1074500000000002e+01 6.3938655561404980e+00 6.1930174546137664e+00 0 0 0
470 2 8.6135000000000002e+00 4.9730065436648339e+00 9.2163552253273267e+00 0 0 0
490 2 8.6135000000000002e+00 6.3938655561404980e+00 9.2163552253273267e+00 0 0 0
492 2 9.8440000000000012e+00 4.2625770374270004e+00 9.2163552253273267e+00 0 0 0
493 2 1.1074500000000002e+01 4.9730065436648339e+00 9.2163552253273267e+00 0 0 0
514 2 1.1074500000000002e+01 6.3938655561404980e+00 9.2163552253273267e+00 0 0 0
225 2 8.6135000000000002e+00 7.8147245686161639e+00 6.1930174546137664e+00 0 0 0
272 2 1.1074500000000002e+01 7.8147245686161639e+00 6.1930174546137664e+00 0 0 0
491 2 9.8440000000000012e+00 7.1042950623783341e+00 9.2163552253273267e+00 0 0 0
110 2 0.0000000000000000e+00 9.9460130873296642e+00 6.1930174546137664e+00 0 0 0
112 2 0.0000000000000000e+00 8.5251540748539991e+00 6.1930174546137664e+00 0 0 0
139 2 2.4610000000000003e+00 9.9460130873296642e+00 6.1930174546137664e+00 0 0 0
141 2 2.4610000000000003e+00 8.5251540748539991e+00 6.1930174546137664e+00 0 0 0
431 2 0.0000000000000000e+00 8.5251540748539991e+00 9.2163552253273267e+00 0 0 0
432 2 1.2305000000000001e+00 9.2355835810918343e+00 9.2163552253273267e+00 0 0 0
446 2 2.4610000000000003e+00 8.5251540748539991e+00 9.2163552253273267e+00 0 0 0
447 2 3.6915000000000004e+00 9.2355835810918343e+00 9.2163552253273267e+00 0 0 0
135 2 1.2305000000000001e+00 1.2077301606043163e+01 6.1930174546137664e+00 0 0 0
137 2 1.2305000000000001e+00 1.0656442593567498e+01 6.1930174546137664e+00 0 0 0
172 2 3.6914999999999996e+00 1.2077301606043163e+01 6.1930174546137664e+00 0 0 0
174 2 3.6914999999999996e+00 1.0656442593567499e+01 6.1930174546137664e+00 0 0 0
430 2 0.0000000000000000e+00 1.1366872099805333e+01 9.2163552253273267e+00 0 0 0
444 2 1.2305000000000001e+00 1.0656442593567498e+01 9.2163552253273267e+00 0 0 0
445 2 2.4610000000000003e+00 1.1366872099805333e+01 9.2163552253273267e+00 0 0 0
463 2 3.6914999999999996e+00 1.0656442593567499e+01 9.2163552253273267e+00 0 0 0
176 2 4.9220000000000006e+00 9.9460130873296642e+00 6.1930174546137664e+00 0 0 0
178 2 4.9220000000000006e+00 8.5251540748539991e+00 6.1930174546137664e+00 0 0 0
221 2 7.3830000000000009e+00 9.9460130873296642e+00 6.1930174546137664e+00 0 0 0
223 2 7.3830000000000009e+00 8.5251540748539991e+00 6.1930174546137664e+00 0 0 0
465 2 4.9220000000000006e+00 8.5251540748539991e+00 9.2163552253273267e+00 0 0 0
466 2 6.1524999999999999e+00 9.2355835810918343e+00 9.2163552253273267e+00 0 0 0
488 2 7.3830000000000009e+00 8.5251540748539991e+00 9.2163552253273267e+00 0 0 0
217 2 6.1524999999999999e+00 1.2077301606043163e+01 6.1930174546137664e+00 0 0 0
219 2 6.1524999999999999e+00 1.0656442593567499e+01 6.1930174546137664e+00 0 0 0
464 2 4.9220000000000006e+00 1.1366872099805333e+01 9.2163552253273267e+00 0 0 0
486 2 6.1524999999999999e+00 1.0656442593567499e+01 9.2163552253273267e+00 0 0 0
487 2 7.3829999999999991e+00 1.1366872099805333e+01 9.2163552253273267e+00 0 0 0
268 2 9.8440000000000012e+00 9.9460130873296642e+00 6.1930174546137664e+00 0 0 0
270 2 9.8440000000000012e+00 8.5251540748539956e+00 6.1930174546137664e+00 0 0 0
489 2 8.6134999999999984e+00 9.2355835810918343e+00 9.2163552253273267e+00 0 0 0
512 2 9.8440000000000012e+00 8.5251540748539956e+00 9.2163552253273267e+00 0 0 0
513 2 1.1074500000000002e+01 9.2355835810918343e+00 9.2163552253273267e+00 0 0 0
264 2 8.6135000000000002e+00 1.2077301606043163e+01 6.1930174546137664e+00 0 0 0
266 2 8.6134999999999984e+00 1.0656442593567498e+01 6.1930174546137664e+00 0 0 0
311 2 1.1074500000000002e+01 1.2077301606043163e+01 6.1930174546137664e+00 0 0 0
313 2 1.1074500000000002e+01 1.0656442593567498e+01 6.1930174546137664e+00 0 0 0
510 2 8.6134999999999984e+00 1.0656442593567498e+01 9.2163552253273267e+00 0 0 0
511 2 9.8440000000000012e+00 1.1366872099805333e+01 9.2163552253273267e+00 0 0 0
534 2 1.1074500000000002e+01 1.0656442593567498e+01 9.2163552253273267e+00 0 0 0
535 2 1.2304999999999998e+01 1.1366872099805333e+01 9.2163552253273267e+00 0 0 0
1588 1 2.6858799718690296e+00 3.2053312653336778e+00 1.1929198235146929e+01 0 2 1
1393 1 1.2014255100792353e+01 4.1632367105508932e+00 1.2391996775864541e+01 -1 1 0
3796 1 1.1593048149148425e+01 5.2267456036294453e+00 1.5145463566375641e+01 1 0 -1
687 1 8.3519668450252347e+00 1.2621024795342008e+00 1.1819517248671145e+01 0 0 0
3101 1 1.0381156328923536e+01 6.2548091334009444e+00 1.1687426868044062e+01 0 2 0
3758 1 3.0119641354606137e+00 5.5278754042901679e-01 1.2095108793642536e+01 1 1 0
1627 1 4.8062416930619563e+00 6.8209240847702022e+00 1.2459304099825676e+01 1 1 0
1503 1 8.0275026292982528e+00 4.3712417611110483e+00 1.1942907990388756e+01 1 1 -1
883 1 5.3418841773125116e+00 4.5725867867374994e+00 1.1438993517610307e+01 1 1 0
2952 1 9.2578054044034932e+00 9.9446446382523224e+00 1.1647735207088644e+01 0 0 0
836 1 2.1961764886273976e+00 7.0296833685398719e+00 1.1944887794283295e+01 2 0 0
1585 1 6.3260809945410612e+00 9.2170813897688522e+00 1.1999083778689442e+01 0 0 0
2145 1 4.7060679938562515e+00 1.1414210708763276e+01 1.2260358338250402e+01 1 1 -1
2253 1 1.1245092662016235e+01 9.8816720312538087e-01 1.1549700620294200e+01 0 0 0
2244 1 9.5028124177830122e+00 1.0952174021766508e+01 1.5479690026316471e+01 0 -1 1
1445 1 4.0321359544998631e-02 4.1862606504235726e+00 1.1651209991291884e+01 1 0 0
2221 1 4.0589579110961633e+00 5.7364959361249113e-01 1.4892973550588826e+01 -1 1 0
1481 1 1.4082521970650788e+00 2.9912108634803496e+00 1.6010438058646642e+01 1 1 0
2231 1 8.4046158588062099e+00 2.9128086051607922e+00 1.4442142987615339e+01 0 0 0
2881 1 1.0778298598830302e+01 6.0990442092013364e-01 1.4772276335450352e+01 0 2 0
4466 1 3.6893267132073926e+00 3.3867042305499333e+00 1.4681791959689003e+01 1 0 0
2248 1 1.4199114167570308e+00 8.0784952703756083e+00 1.4666042210707133e+01 0 1 -1
4449 1 5.4740316611520043e+00 5.9439280307699001e+00 1.4636301784089587e+01 0 0 0
4437 1 4.8739261425684033e+00 1.0168037181027550e+01 1.5197700830992483e+01 1 1 -1
674 1 1.1692271520249593e+01 9.2732439928400154e+00 1.4926612964077586e+01 1 1 0
2245 1 8.1675663285960791e+00 6.2575695798524720e+00 1.4312339299520788e+01 -1 0 -1
1664 1 1.4444066169119525e+00 1.1130317387891100e+01 1.5115035402478155e+01 1 0 1
69 1 8.0308775380887791e+00 8.9506856537749773e+00 1.4253052115057221e+01 0 1 0
4375 1 3.9500440040179887e+00 7.6680160889216644e+00 1.6313679947262926e+01 1 0 0
34 1 1.1845401479833567e+01 8.6969850634324235e+00 1.2147734085087089e+01 0 0 0
3782 1 1.6723965373245619e-01 9.1332976878119023e+00 1.1378411351199020e+01 0 1 0
2996 1 1.7095729787944347e+00 1.1478573767239007e+01 1.2310538743175647e+01 0 0 0
2232 1 1.0070010315426192e+01 7.3381209377761483e+00 1.6429541876577485e+01 1 1 0
2213 1 6.3187511010978605e+00 3.1624429785737020e+00 1.6438299995637465e+01 0 2 0
4486 1 6.8383846520483615e+00 3.3719812754341150e-01 1.4577459975013969e+01 0 0 1
859 1 5.2513322475018387e-01 5.5134936449826988e+00 1.6196773600884235e+01 1 1 0
1394 1 1.0639030982227506e+01 3.0300880710525191e+00 1.6503121907878622e+01 0 1 0
733 1 1.5759298512362616e+00 1.3705544447506006e+00 1.8530778251201852e+01 -1 1 -1
40 1 7.6038260327029485e+00 9.3969817802262074e+00 3.0601055870660659e+01 0 0 -1
725 1 5.4490902855861938e+00 1.0678856219166205e+01 2.9844487636025193e+01 1 0 0
3665 1 5.5050238326656853e+00 4.5054736930794430e+00 2.0218835025746522e+01 1 1 -1
787 1 4.1570956476624801e+00 1.9321695382072013e+00 1.9687014959292462e+01 0 1 0
4391 1 8.2980379010840739e+00 1.7400835670651901e-01 1.8406978119877287e+01 1 1 0
1505 1 8.7392378697452191e+00 2.8651177592738439e+00 1.8421003827914959e+01 0 0 0
2230 1 8.6170410451354069e+00 5.1649959138850337e+00 2.0276012790079221e+01 0 1 0
884 1 1.1955432819384564e+01 7.8937403011298395e+00 3.0630880507890453e+01 0 1 0
1629 1 5.4960703551654602e+00 6.2304147264564158e-01 1.7729706184113844e+01 0 1 0
2292 1 5.3634080464544756e+00 6.6703253944195771e+00 1.8605034080149188e+01 0 1 0
1396 1 7.9889209673178510e+00 7.8194593883400412e+00 1.8787243842312122e+01 1 1 0
4508 1 4.1450415949893680e+00 8.2004857323785547e+00 2.0935934597651624e+01 0 1 0
1414 1 1.1629399364845039e+01 1.0738102743359363e+01 3.0795619446329617e+01 1 0 0
631 1 1.0992017540884495e+01 1.7257834021227167e+00 2.5017496662853475e+01 1 -1 0
3028 1 2.7339005197480648e+00 1.0003680146842925e+01 1.9537946749252704e+01 0 0 -2
3751 1 1.6069614268191517e+00 7.3099717697370288e+00 1.8068693565252055e+01 1 0 0
10 1 5.3820025068544970e+00 1.1011473764853822e+01 1.9548041330409774e+01 1 1 0
2856 1 2.0805215341390149e+00 1.3991338191312369e-01 2.3419319730955699e+01 1 1 -1
1570 1 8.0519984512795109e+00 9.9587540641910870e+00 2.1043825353921392e+01 0 1 0
1497 1 3.2615809964195761e+00 1.1681581633257681e+01 1.7284300719188828e+01 0 0 0
4415 1 1.0999961772547669e+01 6.4418824940503274e+00 1.9136284463404252e+01 0 0 -1
1593 1 1.0314118495733209e+00 1.2234258614569205e+01 2.5060644007000988e+01 -1 1 0
4539 1 9.5676979304686629e+00 1.1087511632198099e+01 1.8568317596137355e+01 1 0 0
43 1 6.5060853181598768e+00 4.9903694864294762e-01 2.4027889066832934e+01 0 0 1
2273 1 4.3748595110950568e+00 6.4340440494788897e-01 2.2337543678680632e+01 0 1 0
1367 1 8.9271929209620726e+00 6.3282817630633925e-01 2.2525582231800129e+01 0 1 0
2264 1 8.9635710279742078e+00 3.9755789852544545e+00 2.5073927812317429e+01 0 0 0
3749 1 1.0065925186992850e+00 1.0882327501687401e+01 3.0703326912944782e+01 0 -1 0
3068 1 9.3212868138205014e+00 1.1797294468316557e+00 2.7833628868846738e+01 1 1 0
619 1 3.6474999999511932e+00 5.3553390819687712e+00 2.2023557367272154e+01 1 0 -1
4518 1 3.7516496967429740e+00 4.1857683190318902e+00 2.4586311800844520e+01 0 1 0
4402 1 6.2866852358859875e+00 6.4204104953283165e+00 2.5012015225085470e+01 0 1 0
2367 1 5.6458375769902309e+00 9.8465443999033031e+00 2.2561288201057728e+01 0 1 0
2907 1 9.3332303750308938e+00 7.7324253402233891e+00 2.2288725936743894e+01 0 1 0
2941 1 9.1985003750515553e+00 6.6575365344892266e+00 2.4952798111548013e+01 0 1 0
3124 1 1.0811365949616437e+01 4.9700018225443419e+00 2.2661540055467867e+01 2 -1 0
3870 1 2.9919764468031387e+00 1.1247248470014403e+01 2.3444509901422968e+01 0 1 0
3687 1 1.4927038287556960e+00 7.9766888766169011e+00 2.1999220898525977e+01 0 0 0
677 1 1.1596853852297386e+01 8.9540171649702600e+00 2.0310725383810805e+01 0 1 -1
4510 1 7.9291948354752790e+00 8.3297175030421009e+00 2.7769039481280480e+01 1 0 0
2991 1 1.0039334122357088e+01 2.7151172068523195e+00 2.1285634252417267e+01 1 0 -1
2386 1 9.9879066974584489e+00 1.1140769169078041e+01 2.5931434078536675e+01 0 0 0
2345 1 1.2656237181482155e+00 5.8821454603864032e+00 2.0380636541588167e+01 0 1 -1
2279 1 1.6511050228696829e+00 2.3617750202860068e+00 2.4720389820159376e+01 0 0 0
3094 1 3.9549065066060654e+00 4.4494949046433891e+00 2.7572459687250237e+01 -1 0 0
702 1 6.2051380910739784e+00 2.9922612488924791e+00 2.5133982150538849e+01 0 1 0
2382 1 1.6119529901570395e+00 2.1607939249055317e+00 2.7451257398760731e+01 0 0 0
2882 1 4.6633638785006086e+00 9.2644238408676582e-01 2.7156848574270050e+01 1 0 0
793 1 8.9767655723052595e+00 4.4482521547060569e+00 2.7905619878354216e+01 -1 0 0
2379 1 1.2797422467581101e+00 1.1548222834186310e+01 2.1216475384041452e+01 1 -1 -1
1601 1 2.0779410633092872e+00 6.7621481817759035e+00 2.4677165634409342e+01 1 0 0
2236 1 1.0547880726325078e+00 6.1542621186371740e+00 2.7312719289350952e+01 -1 0 0
1619 1 7.5717032813900911e+00 9.5906329393178442e+00 2.5152829376680536e+01 0 0 -1
856 1 3.1213311020099228e+00 6.8979274707441380e+00 2.9280694923108229e+01 1 1 0
4417 1 1.0494502470335329e+01 7.3821610998655149e+00 2.7997598278479693e+01 0 0 1
3069 1 6.4471723026080348e+00 6.0817415614948800e+00 2.7774553607809075e+01 0 1 -1
4460 1 1.9432578306059294e+00 1.0656907826289924e+01 2.7777974991722012e+01 1 0 0
613 1 4.3840066048558537e+00 8.5121700930073647e+00 2.5066635520211733e+01 0 1 0
2153 1 4.1391131178437597e+00 9.1687215779709081e+00 2.7814957482195503e+01 0 0 0
1653 1 1.1685289495125781e+01 1.0072304748531801e+01 2.7926021762532990e+01 0 1 0
705 1 6.3503770053645967e+00 1.1308583065176482e+01 2.7113586217137751e+01 1 0 1
1521 1 9.1060354557348759e+00 1.1572662853290145e+01 3.0874263016330680e+01 0 1 0
2341 1 2.8813674538486911e+00 3.1769380843966797e+00 3.0364056973349946e+01 0 1 0
1606 1 4.1811909801126799e+00 7.3087071498701761e-01 3.0230408256585726e+01 0 0 0
4474 1 6.5086596501219454e+00 2.2926584903865357e+00 3.1087310377591727e+01 0 0 0
3056 1 1.1000851208276096e+01 3.6213187058368770e+00 2.9836507920581226e+01 0 0 -2
23 1 6.6691027872742872e+00 2.7660668103399009e+00 2.8237244294345807e+01 -1 -1 2
3133 1 1.1837585426476460e+01 5.6123660862683549e+00 2.5942024034272542e+01 -1 0 -1
2268 1 7.7877316080065437e+00 6.4872887618853463e+00 3.0556445898821458e+01 0 0 -1
4341 1 5.2347739810533964e+00 4.9993939229521231e+00 3.0651946547042577e+01 0 0 0
3067 1 1.1855912482332882e+00 6.0480904802238706e+00 3.1057461815902407e+01 0 0 0
1531 1 9.2759256673179440e+00 1.6301115796682581e+00 3.0686954595729752e+01 2 0 0
3877 1 1.0289973220070799e+01 5.7299201209562494e+00 3.1179243781472834e+01 0 0 0
3828 1 1.1889817617398199e+01 1.2071046737918703e+01 2.3348451739036115e+01 1 0 0
31 1 1.1455135127778703e+01 9.4002540791908302e+00 2.3528532594613530e+01 0 1 1
4531 1 6.9630437866881243e+00 9.9071273357956020e+00 1.7184078716611829e+01 0 1 1
56 1 1.2255869153095102e+01 2.1666744950965353e+00 1.9546252854688262e+01 1 0 0
132 2 0.0000000000000000e+00 1.2787731112280996e+01 3.1696796839009389e+00 0 0 0
134 2 1.2305000000000001e+00 1.3498160618518829e+01 3.1696796839009389e+00 0 0 0
169 2 2.4610000000000003e+00 1.2787731112280996e+01 3.1696796839009389e+00 0 0 0
171 2 3.6915000000000004e+00 1.3498160618518829e+01 3.1696796839009389e+00 0 0 0
130 2 0.0000000000000000e+00 1.5629449137232333e+01 3.1696796839009389e+00 0 0 0
165 2 1.2305000000000001e+00 1.4919019630994494e+01 3.1696796839009389e+00 0 0 0
167 2 2.4610000000000003e+00 1.5629449137232328e+01 3.1696796839009389e+00 0 0 0
210 2 3.6915000000000004e+00 1.4919019630994494e+01 3.1696796839009389e+00 0 0 0
214 2 4.9220000000000006e+00 1.2787731112280996e+01 3.1696796839009389e+00 0 0 0
216 2 6.1524999999999990e+00 1.3498160618518829e+01 3.1696796839009389e+00 0 0 0
261 2 7.3829999999999991e+00 1.2787731112280996e+01 3.1696796839009389e+00 0 0 0
212 2 4.9220000000000006e+00 1.5629449137232333e+01 3.1696796839009389e+00 0 0 0
257 2 6.1524999999999990e+00 1.4919019630994494e+01 3.1696796839009389e+00 0 0 0
259 2 7.3829999999999991e+00 1.5629449137232333e+01 3.1696796839009389e+00 0 0 0
263 2 8.6135000000000002e+00 1.3498160618518835e+01 3.1696796839009389e+00 0 0 0
308 2 9.8440000000000012e+00 1.2787731112280996e+01 3.1696796839009389e+00 0 0 0
310 2 1.1074500000000002e+01 1.3498160618518829e+01 3.1696796839009389e+00 0 0 0
304 2 8.6135000000000002e+00 1.4919019630994494e+01 3.1696796839009389e+00 0 0 0
306 2 9.8440000000000012e+00 1.5629449137232328e+01 3.1696796839009389e+00 0 0 0
346 2 1.1074500000000002e+01 1.4919019630994494e+01 3.1696796839009389e+00 0 0 0
161 2 0.0000000000000000e+00 1.7050308149707998e+01 3.1696796839009389e+00 0 0 0
206 2 2.4610000000000003e+00 1.7050308149707998e+01 3.1696796839009389e+00 0 0 0
159 2 0.0000000000000000e+00 1.9892026174659328e+01 3.1696796839009389e+00 0 0 0
163 2 1.2305000000000001e+00 1.7760737655945832e+01 3.1696796839009389e+00 0 0 0
202 2 1.2305000000000001e+00 1.9181596668421495e+01 3.1696796839009389e+00 0 0 0
204 2 2.4610000000000003e+00 1.9892026174659328e+01 3.1696796839009389e+00 0 0 0
208 2 3.6914999999999996e+00 1.7760737655945832e+01 3.1696796839009389e+00 0 0 0
249 2 3.6914999999999996e+00 1.9181596668421495e+01 3.1696796839009389e+00 0 0 0
253 2 4.9220000000000006e+00 1.7050308149707998e+01 3.1696796839009389e+00 0 0 0
300 2 7.3830000000000009e+00 1.7050308149707998e+01 3.1696796839009389e+00 0 0 0
251 2 4.9220000000000006e+00 1.9892026174659328e+01 3.1696796839009389e+00 0 0 0
255 2 6.1524999999999999e+00 1.7760737655945832e+01 3.1696796839009389e+00 0 0 0
296 2 6.1524999999999999e+00 1.9181596668421495e+01 3.1696796839009389e+00 0 0 0
298 2 7.3829999999999991e+00 1.9892026174659328e+01 3.1696796839009389e+00 0 0 0
342 2 9.8440000000000012e+00 1.7050308149707998e+01 3.1696796839009389e+00 0 0 0
376 2 1.2304999999999998e+01 1.7050308149707998e+01 3.1696796839009389e+00 0 0 0
302 2 8.6134999999999984e+00 1.7760737655945832e+01 3.1696796839009389e+00 0 0 0
338 2 8.6135000000000002e+00 1.9181596668421495e+01 3.1696796839009389e+00 0 0 0
340 2 9.8440000000000012e+00 1.9892026174659335e+01 3.1696796839009389e+00 0 0 0
344 2 1.1074500000000002e+01 1.7760737655945835e+01 3.1696796839009389e+00 0 0 0
372 2 1.1074500000000002e+01 1.9181596668421495e+01 3.1696796839009389e+00 0 0 0
196 2 0.0000000000000000e+00 2.4154603212086325e+01 3.1696796839009389e+00 0 0 0
198 2 0.0000000000000000e+00 2.1312885187134999e+01 3.1696796839009389e+00 0 0 0
200 2 1.2304999999999993e+00 2.2023314693372832e+01 3.1696796839009389e+00 0 0 0
241 2 1.2304999999999993e+00 2.3444173705848499e+01 3.1696796839009389e+00 0 0 0
243 2 2.4610000000000003e+00 2.4154603212086325e+01 3.1696796839009389e+00 0 0 0
245 2 2.4610000000000003e+00 2.1312885187134995e+01 3.1696796839009389e+00 0 0 0
247 2 3.6914999999999996e+00 2.2023314693372832e+01 3.1696796839009389e+00 0 0 0
288 2 3.6915000000000004e+00 2.3444173705848499e+01 3.1696796839009389e+00 0 0 0
290 2 4.9220000000000006e+00 2.4154603212086325e+01 3.1696796839009389e+00 0 0 0
292 2 4.9220000000000006e+00 2.1312885187134995e+01 3.1696796839009389e+00 0 0 0
294 2 6.1524999999999990e+00 2.2023314693372832e+01 3.1696796839009389e+00 0 0 0
330 2 6.1524999999999999e+00 2.3444173705848499e+01 3.1696796839009389e+00 0 0 0
332 2 7.3830000000000009e+00 2.4154603212086336e+01 3.1696796839009389e+00 0 0 0
334 2 7.3829999999999991e+00 2.1312885187134999e+01 3.1696796839009389e+00 0 0 0
336 2 8.6135000000000002e+00 2.2023314693372832e+01 3.1696796839009389e+00 0 0 0
364 2 8.6134999999999984e+00 2.3444173705848499e+01 3.1696796839009389e+00 0 0 0
366 2 9.8440000000000012e+00 2.4154603212086336e+01 3.1696796839009389e+00 0 0 0
368 2 9.8440000000000012e+00 2.1312885187134999e+01 3.1696796839009389e+00 0 0 0
370 2 1.1074500000000002e+01 2.2023314693372832e+01 3.1696796839009389e+00 0 0 0
390 2 1.1074500000000002e+01 2.3444173705848499e+01 3.1696796839009389e+00 0 0 0
133 2 0.0000000000000000e+00 1.2787731112280996e+01 6.1930174546137664e+00 0 0 0
170 2 2.4610000000000003e+00 1.2787731112280996e+01 6.1930174546137664e+00 0 0 0
442 2 0.0000000000000000e+00 1.2787731112280996e+01 9.2163552253273267e+00 0 0 0
443 2 1.2305000000000001e+00 1.3498160618518829e+01 9.2163552253273267e+00 0 0 0
461 2 2.4610000000000003e+00 1.2787731112280996e+01 9.2163552253273267e+00 0 0 0
462 2 3.6915000000000004e+00 1.3498160618518829e+01 9.2163552253273267e+00 0 0 0
131 2 0.0000000000000000e+00 1.4208590124756663e+01 6.1930174546137664e+00 0 0 0