LAMMPS data file via write_data, version 16 Mar 2018, timestep = 8000000

4545 atoms
2 atom types

0.0000000000000000e+00 4.9219999999999999e+01 xlo xhi
0.0000000000000000e+00 4.9019635930410494e+01 ylo yhi
5.2291890295882126e-01 3.3112420883556972e+01 zlo zhi

Masses

1 18.015
2 12.01

Atoms # atomic

91 2 0.0000000000000000e+00 2.8417180249513345e+00 2.1477752346730643e+00 0 0 0
93 2 0.0000000000000000e+00 0.0000000000000000e+00 2.1477752346730643e+00 0 0 0
95 2 1.2305000000000001e+00 7.1042950623783474e-01 2.1477752346730643e+00 0 0 0
102 2 1.2305000000000001e+00 2.1312885187134998e+00 2.1477752346730643e+00 0 0 0
104 2 2.4610000000000003e+00 2.8417180249513345e+00 2.1477752346730643e+00 0 0 0
106 2 2.4610000000000003e+00 0.0000000000000000e+00 2.1477752346730643e+00 0 0 0
108 2 3.6915000000000004e+00 7.1042950623783474e-01 2.1477752346730643e+00 0 0 0
123 2 3.6914999999999996e+00 2.1312885187134998e+00 2.1477752346730643e+00 0 0 0
125 2 4.9220000000000006e+00 2.8417180249513332e+00 2.1477752346730643e+00 0 0 0
127 2 4.9220000000000006e+00 0.0000000000000000e+00 2.1477752346730643e+00 0 0 0
129 2 6.1524999999999999e+00 7.1042950623783407e-01 2.1477752346730643e+00 0 0 0
152 2 6.1524999999999999e+00 2.1312885187134989e+00 2.1477752346730643e+00 0 0 0
154 2 7.3829999999999991e+00 2.8417180249513345e+00 2.1477752346730643e+00 0 0 0
156 2 7.3829999999999991e+00 0.0000000000000000e+00 2.1477752346730643e+00 0 0 0
158 2 8.6134999999999984e+00 7.1042950623783407e-01 2.1477752346730643e+00 0 0 0
189 2 8.6134999999999984e+00 2.1312885187135002e+00 2.1477752346730643e+00 0 0 0
191 2 9.8440000000000012e+00 2.8417180249513332e+00 2.1477752346730643e+00 0 0 0
193 2 9.8440000000000012e+00 0.0000000000000000e+00 2.1477752346730643e+00 0 0 0
195 2 1.1074500000000002e+01 7.1042950623783330e-01 2.1477752346730643e+00 0 0 0
234 2 1.1074500000000002e+01 2.1312885187135002e+00 2.1477752346730643e+00 0 0 0
98 2 0.0000000000000000e+00 4.2625770374269996e+00 2.1477752346730643e+00 0 0 0
100 2 1.2305000000000001e+00 4.9730065436648339e+00 2.1477752346730643e+00 0 0 0
115 2 1.2305000000000001e+00 6.3938655561404980e+00 2.1477752346730643e+00 0 0 0
119 2 2.4610000000000003e+00 4.2625770374269996e+00 2.1477752346730643e+00 0 0 0
121 2 3.6914999999999996e+00 4.9730065436648339e+00 2.1477752346730643e+00 0 0 0
144 2 3.6914999999999996e+00 6.3938655561404980e+00 2.1477752346730643e+00 0 0 0
96 2 0.0000000000000000e+00 7.1042950623783341e+00 2.1477752346730643e+00 0 0 0
117 2 2.4610000000000003e+00 7.1042950623783341e+00 2.1477752346730643e+00 0 0 0
148 2 4.9220000000000006e+00 4.2625770374269978e+00 2.1477752346730643e+00 0 0 0
150 2 6.1524999999999999e+00 4.9730065436648339e+00 2.1477752346730643e+00 0 0 0
181 2 6.1524999999999999e+00 6.3938655561404980e+00 2.1477752346730643e+00 0 0 0
185 2 7.3829999999999991e+00 4.2625770374269996e+00 2.1477752346730643e+00 0 0 0
146 2 4.9220000000000006e+00 7.1042950623783341e+00 2.1477752346730643e+00 0 0 0
183 2 7.3830000000000009e+00 7.1042950623783341e+00 2.1477752346730643e+00 0 0 0
187 2 8.6135000000000002e+00 4.9730065436648339e+00 2.1477752346730643e+00 0 0 0
226 2 8.6135000000000002e+00 6.3938655561404980e+00 2.1477752346730643e+00 0 0 0
230 2 9.8440000000000012e+00 4.2625770374270004e+00 2.1477752346730643e+00 0 0 0
232 2 1.1074500000000002e+01 4.9730065436648339e+00 2.1477752346730643e+00 0 0 0
273 2 1.1074500000000002e+01 6.3938655561404980e+00 2.1477752346730643e+00 0 0 0
228 2 9.8440000000000012e+00 7.1042950623783341e+00 2.1477752346730643e+00 0 0 0
111 2 0.0000000000000000e+00 8.5251540748539991e+00 2.1477752346730643e+00 0 0 0
113 2 1.2305000000000001e+00 9.2355835810918343e+00 2.1477752346730643e+00 0 0 0
140 2 2.4610000000000003e+00 8.5251540748539991e+00 2.1477752346730643e+00 0 0 0
142 2 3.6915000000000004e+00 9.2355835810918343e+00 2.1477752346730643e+00 0 0 0
109 2 0.0000000000000000e+00 1.1366872099805333e+01 2.1477752346730643e+00 0 0 0
136 2 1.2305000000000001e+00 1.0656442593567498e+01 2.1477752346730643e+00 0 0 0
138 2 2.4610000000000003e+00 1.1366872099805333e+01 2.1477752346730643e+00 0 0 0
173 2 3.6914999999999996e+00 1.0656442593567499e+01 2.1477752346730643e+00 0 0 0
177 2 4.9220000000000006e+00 8.5251540748539991e+00 2.1477752346730643e+00 0 0 0
179 2 6.1524999999999999e+00 9.2355835810918343e+00 2.1477752346730643e+00 0 0 0
222 2 7.3830000000000009e+00 8.5251540748539991e+00 2.1477752346730643e+00 0 0 0
175 2 4.9220000000000006e+00 1.1366872099805333e+01 2.1477752346730643e+00 0 0 0
218 2 6.1524999999999999e+00 1.0656442593567499e+01 2.1477752346730643e+00 0 0 0
220 2 7.3829999999999991e+00 1.1366872099805333e+01 2.1477752346730643e+00 0 0 0
224 2 8.6134999999999984e+00 9.2355835810918343e+00 2.1477752346730643e+00 0 0 0
269 2 9.8440000000000012e+00 8.5251540748539956e+00 2.1477752346730643e+00 0 0 0
271 2 1.1074500000000002e+01 9.2355835810918343e+00 2.1477752346730643e+00 0 0 0
265 2 8.6134999999999984e+00 1.0656442593567498e+01 2.1477752346730643e+00 0 0 0
267 2 9.8440000000000012e+00 1.1366872099805333e+01 2.1477752346730643e+00 0 0 0
312 2 1.1074500000000002e+01 1.0656442593567498e+01 2.1477752346730643e+00 0 0 0
314 2 1.2304999999999998e+01 1.1366872099805333e+01 2.1477752346730643e+00 0 0 0
92 2 0.0000000000000000e+00 1.4208590124756650e+00 5.3974878980946412e+00 0 0 0
94 2 0.0000000000000000e+00 0.0000000000000000e+00 5.3974878980946412e+00 0 0 0
103 2 1.2305000000000001e+00 2.1312885187134998e+00 5.3974878980946412e+00 0 0 0
105 2 2.4610000000000003e+00 1.4208590124756650e+00 5.3974878980946412e+00 0 0 0
107 2 2.4610000000000003e+00 0.0000000000000000e+00 5.3974878980946412e+00 0 0 0
124 2 3.6914999999999996e+00 2.1312885187134998e+00 5.3974878980946412e+00 0 0 0
420 2 0.0000000000000000e+00 2.8417180249513345e+00 8.6472005615234480e+00 0 0 0
421 2 0.0000000000000000e+00 0.0000000000000000e+00 8.6472005615234480e+00 0 0 0
422 2 1.2305000000000001e+00 7.1042950623783474e-01 8.6472005615234480e+00 0 0 0
426 2 1.2305000000000001e+00 2.1312885187134998e+00 8.6472005615234480e+00 0 0 0
427 2 2.4610000000000003e+00 2.8417180249513345e+00 8.6472005615234480e+00 0 0 0
428 2 2.4610000000000003e+00 0.0000000000000000e+00 8.6472005615234480e+00 0 0 0
429 2 3.6915000000000004e+00 7.1042950623783474e-01 8.6472005615234480e+00 0 0 0
437 2 3.6914999999999996e+00 2.1312885187134998e+00 8.6472005615234480e+00 0 0 0
101 2 1.2305000000000001e+00 3.5521475311891644e+00 5.3974878980946412e+00 0 0 0
122 2 3.6914999999999996e+00 3.5521475311891644e+00 5.3974878980946412e+00 0 0 0
126 2 4.9220000000000006e+00 1.4208590124756650e+00 5.3974878980946412e+00 0 0 0
128 2 4.9220000000000006e+00 0.0000000000000000e+00 5.3974878980946412e+00 0 0 0
153 2 6.1524999999999999e+00 2.1312885187134989e+00 5.3974878980946412e+00 0 0 0
155 2 7.3829999999999991e+00 1.4208590124756659e+00 5.3974878980946412e+00 0 0 0
157 2 7.3829999999999991e+00 0.0000000000000000e+00 5.3974878980946412e+00 0 0 0
438 2 4.9220000000000006e+00 2.8417180249513332e+00 8.6472005615234480e+00 0 0 0
439 2 4.9220000000000006e+00 0.0000000000000000e+00 8.6472005615234480e+00 0 0 0
440 2 6.1524999999999999e+00 7.1042950623783407e-01 8.6472005615234480e+00 0 0 0
452 2 6.1524999999999999e+00 2.1312885187134989e+00 8.6472005615234480e+00 0 0 0
453 2 7.3829999999999991e+00 2.8417180249513345e+00 8.6472005615234480e+00 0 0 0
454 2 7.3829999999999991e+00 0.0000000000000000e+00 8.6472005615234480e+00 0 0 0
151 2 6.1524999999999999e+00 3.5521475311891644e+00 5.3974878980946412e+00 0 0 0
190 2 8.6134999999999984e+00 2.1312885187135002e+00 5.3974878980946412e+00 0 0 0
192 2 9.8440000000000012e+00 1.4208590124756659e+00 5.3974878980946412e+00 0 0 0
194 2 9.8440000000000012e+00 0.0000000000000000e+00 5.3974878980946412e+00 0 0 0
235 2 1.1074500000000002e+01 2.1312885187135002e+00 5.3974878980946412e+00 0 0 0
455 2 8.6134999999999984e+00 7.1042950623783407e-01 8.6472005615234480e+00 0 0 0
471 2 8.6134999999999984e+00 2.1312885187135002e+00 8.6472005615234480e+00 0 0 0
472 2 9.8440000000000012e+00 2.8417180249513332e+00 8.6472005615234480e+00 0 0 0
473 2 9.8440000000000012e+00 0.0000000000000000e+00 8.6472005615234480e+00 0 0 0
474 2 1.1074500000000002e+01 7.1042950623783330e-01 8.6472005615234480e+00 0 0 0
494 2 1.1074500000000002e+01 2.1312885187135002e+00 8.6472005615234480e+00 0 0 0
188 2 8.6134999999999984e+00 3.5521475311891657e+00 5.3974878980946412e+00 0 0 0
233 2 1.1074500000000002e+01 3.5521475311891644e+00 5.3974878980946412e+00 0 0 0
97 2 0.0000000000000000e+00 5.6834360499026637e+00 5.3974878980946412e+00 0 0 0
99 2 0.0000000000000000e+00 4.2625770374269996e+00 5.3974878980946412e+00 0 0 0
116 2 1.2305000000000001e+00 6.3938655561404980e+00 5.3974878980946412e+00 0 0 0
118 2 2.4610000000000003e+00 5.6834360499026637e+00 5.3974878980946412e+00 0 0 0
120 2 2.4610000000000003e+00 4.2625770374269996e+00 5.3974878980946412e+00 0 0 0
145 2 3.6914999999999996e+00 6.3938655561404980e+00 5.3974878980946412e+00 0 0 0
424 2 0.0000000000000000e+00 4.2625770374269996e+00 8.6472005615234480e+00 0 0 0
425 2 1.2305000000000001e+00 4.9730065436648339e+00 8.6472005615234480e+00 0 0 0
433 2 1.2305000000000001e+00 6.3938655561404980e+00 8.6472005615234480e+00 0 0 0
435 2 2.4610000000000003e+00 4.2625770374269996e+00 8.6472005615234480e+00 0 0 0
436 2 3.6914999999999996e+00 4.9730065436648339e+00 8.6472005615234480e+00 0 0 0
448 2 3.6914999999999996e+00 6.3938655561404980e+00 8.6472005615234480e+00 0 0 0
114 2 1.2305000000000001e+00 7.8147245686161639e+00 5.3974878980946412e+00 0 0 0
143 2 3.6914999999999996e+00 7.8147245686161639e+00 5.3974878980946412e+00 0 0 0
423 2 0.0000000000000000e+00 7.1042950623783341e+00 8.6472005615234480e+00 0 0 0
434 2 2.4610000000000003e+00 7.1042950623783341e+00 8.6472005615234480e+00 0 0 0
147 2 4.9220000000000006e+00 5.6834360499026637e+00 5.3974878980946412e+00 0 0 0
149 2 4.9220000000000006e+00 4.2625770374269978e+00 5.3974878980946412e+00 0 0 0
182 2 6.1524999999999999e+00 6.3938655561404980e+00 5.3974878980946412e+00 0 0 0
184 2 7.3829999999999991e+00 5.6834360499026637e+00 5.3974878980946412e+00 0 0 0
186 2 7.3829999999999991e+00 4.2625770374269996e+00 5.3974878980946412e+00 0 0 0
450 2 4.9220000000000006e+00 4.2625770374269978e+00 8.6472005615234480e+00 0 0 0
451 2 6.1524999999999999e+00 4.9730065436648339e+00 8.6472005615234480e+00 0 0 0
467 2 6.1524999999999999e+00 6.3938655561404980e+00 8.6472005615234480e+00 0 0 0
469 2 7.3829999999999991e+00 4.2625770374269996e+00 8.6472005615234480e+00 0 0 0
180 2 6.1524999999999999e+00 7.8147245686161639e+00 5.3974878980946412e+00 0 0 0
449 2 4.9220000000000006e+00 7.1042950623783341e+00 8.6472005615234480e+00 0 0 0
468 2 7.3830000000000009e+00 7.1042950623783341e+00 8.6472005615234480e+00 0 0 0
227 2 8.6135000000000002e+00 6.3938655561404980e+00 5.3974878980946412e+00 0 0 0
229 2 9.8440000000000012e+00 5.6834360499026637e+00 5.3974878980946412e+00 0 0 0
231 2 9.8440000000000012e+00 4.2625770374270004e+00 5.3974878980946412e+00 0 0 0
274 2 1.1074500000000002e+01 6.3938655561404980e+00 5.3974878980946412e+00 0 0 0
470 2 8.6135000000000002e+00 4.9730065436648339e+00 8.6472005615234480e+00 0 0 0
490 2 8.6135000000000002e+00 6.3938655561404980e+00 8.6472005615234480e+00 0 0 0
492 2 9.8440000000000012e+00 4.2625770374270004e+00 8.6472005615234480e+00 0 0 0
493 2 1.1074500000000002e+01 4.9730065436648339e+00 8.6472005615234480e+00 0 0 0
514 2 1.1074500000000002e+01 6.3938655561404980e+00 8.6472005615234480e+00 0 0 0
225 2 8.6135000000000002e+00 7.8147245686161639e+00 5.3974878980946412e+00 0 0 0
272 2 1.1074500000000002e+01 7.8147245686161639e+00 5.3974878980946412e+00 0 0 0
491 2 9.8440000000000012e+00 7.1042950623783341e+00 8.6472005615234480e+00 0 0 0
110 2 0.0000000000000000e+00 9.9460130873296642e+00 5.3974878980946412e+00 0 0 0
112 2 0.0000000000000000e+00 8.5251540748539991e+00 5.3974878980946412e+00 0 0 0
139 2 2.4610000000000003e+00 9.9460130873296642e+00 5.3974878980946412e+00 0 0 0
141 2 2.4610000000000003e+00 8.5251540748539991e+00 5.3974878980946412e+00 0 0 0
431 2 0.0000000000000000e+00 8.5251540748539991e+00 8.6472005615234480e+00 0 0 0
432 2 1.2305000000000001e+00 9.2355835810918343e+00 8.6472005615234480e+00 0 0 0
446 2 2.4610000000000003e+00 8.5251540748539991e+00 8.6472005615234480e+00 0 0 0
447 2 3.6915000000000004e+00 9.2355835810918343e+00 8.6472005615234480e+00 0 0 0
135 2 1.2305000000000001e+00 1.2077301606043163e+01 5.3974878980946412e+00 0 0 0
137 2 1.2305000000000001e+00 1.0656442593567498e+01 5.3974878980946412e+00 0 0 0
172 2 3.6914999999999996e+00 1.2077301606043163e+01 5.3974878980946412e+00 0 0 0
174 2 3.6914999999999996e+00 1.0656442593567499e+01 5.3974878980946412e+00 0 0 0
430 2 0.0000000000000000e+00 1.1366872099805333e+01 8.6472005615234480e+00 0 0 0
444 2 1.2305000000000001e+00 1.0656442593567498e+01 8.6472005615234480e+00 0 0 0
445 2 2.4610000000000003e+00 1.1366872099805333e+01 8.6472005615234480e+00 0 0 0
463 2 3.6914999999999996e+00 1.0656442593567499e+01 8.6472005615234480e+00 0 0 0
176 2 4.9220000000000006e+00 9.9460130873296642e+00 5.3974878980946412e+00 0 0 0
178 2 4.9220000000000006e+00 8.5251540748539991e+00 5.3974878980946412e+00 0 0 0
221 2 7.3830000000000009e+00 9.9460130873296642e+00 5.3974878980946412e+00 0 0 0
223 2 7.3830000000000009e+00 8.5251540748539991e+00 5.3974878980946412e+00 0 0 0
465 2 4.9220000000000006e+00 8.5251540748539991e+00 8.6472005615234480e+00 0 0 0
466 2 6.1524999999999999e+00 9.2355835810918343e+00 8.6472005615234480e+00 0 0 0
488 2 7.3830000000000009e+00 8.5251540748539991e+00 8.6472005615234480e+00 0 0 0
217 2 6.1524999999999999e+00 1.2077301606043163e+01 5.3974878980946412e+00 0 0 0
219 2 6.1524999999999999e+00 1.0656442593567499e+01 5.3974878980946412e+00 0 0 0
464 2 4.9220000000000006e+00 1.1366872099805333e+01 8.6472005615234480e+00 0 0 0
486 2 6.1524999999999999e+00 1.0656442593567499e+01 8.6472005615234480e+00 0 0 0
487 2 7.3829999999999991e+00 1.1366872099805333e+01 8.6472005615234480e+00 0 0 0
268 2 9.8440000000000012e+00 9.9460130873296642e+00 5.3974878980946412e+00 0 0 0
270 2 9.8440000000000012e+00 8.5251540748539956e+00 5.3974878980946412e+00 0 0 0
489 2 8.6134999999999984e+00 9.2355835810918343e+00 8.6472005615234480e+00 0 0 0
512 2 9.8440000000000012e+00 8.5251540748539956e+00 8.6472005615234480e+00 0 0 0
513 2 1.1074500000000002e+01 9.2355835810918343e+00 8.6472005615234480e+00 0 0 0
264 2 8.6135000000000002e+00 1.2077301606043163e+01 5.3974878980946412e+00 0 0 0
266 2 8.6134999999999984e+00 1.0656442593567498e+01 5.3974878980946412e+00 0 0 0
311 2 1.1074500000000002e+01 1.2077301606043163e+01 5.3974878980946412e+00 0 0 0
313 2 1.1074500000000002e+01 1.0656442593567498e+01 5.3974878980946412e+00 0 0 0
510 2 8.6134999999999984e+00 1.0656442593567498e+01 8.6472005615234480e+00 0 0 0
511 2 9.8440000000000012e+00 1.1366872099805333e+01 8.6472005615234480e+00 0 0 0
534 2 1.1074500000000002e+01 1.0656442593567498e+01 8.6472005615234480e+00 0 0 0
535 2 1.2304999999999998e+01 1.1366872099805333e+01 8.6472005615234480e+00 0 0 0
3029 1 5.6529341313020387e+00 1.1600320565409726e+01 1.1540605162880500e+01 2 1 -1
730 1 1.0115193123932320e+01 1.1477367772235185e+01 1.3726189998044257e+01 -1 1 1
731 1 4.5816998018011041e+00 3.9929445334024782e-01 1.1040298083506066e+01 1 -2 0
2913 1 4.9062980084332022e+00 3.2593023641047991e+00 1.1389886577158364e+01 -1 -3 0
616 1 1.1943907273240656e+01 4.1462886500974747e+00 1.0991723192805123e+01 -1 0 0
3735 1 9.3321334059302394e+00 2.8945542195774068e+00 1.1738284802451284e+01 -1 1 0
723 1 5.9129026600467138e-01 9.0118776267514367e+00 1.5249509895921127e+01 -2 4 -1
649 1 2.4509571849157350e+00 4.8234687310128956e+00 1.0993378955508247e+01 -2 -1 0
606 1 2.7635549922557234e+00 7.4153125244982148e+00 1.2075182038301396e+01 3 2 0
3779 1 7.2764385485432905e+00 4.6378072104224337e+00 1.1087979230122848e+01 -1 0 0
1575 1 7.4247476982550387e+00 7.3116551690514582e+00 1.1169563338209350e+01 1 2 1
1583 1 9.8369904928043592e+00 8.6558928277585441e+00 1.4297071378548939e+01 -1 2 0
3803 1 8.4998810619398713e-01 9.1018750936023682e+00 1.1122270836750758e+01 6 3 -1
806 1 1.1492928356353009e+00 1.1727067890198738e+01 1.1608747836348609e+01 0 1 1
4344 1 1.2011791144747258e+01 6.8710953248097333e+00 1.1248636152818724e+01 -3 -3 0
4350 1 5.0320523836547943e+00 8.8545374345346275e+00 1.1202620899817884e+01 1 -1 0
779 1 9.9358369876759944e+00 8.7018083221427052e+00 1.1382904782781138e+01 1 1 -1
2358 1 1.0269816455181113e+01 1.1475045154859293e+01 1.1006047825083701e+01 0 1 1
2971 1 5.4813266407990486e+00 8.5688143846137148e+00 1.5026679490618116e+01 0 3 0
1446 1 1.2030251400853341e+01 4.0620007807774163e+00 1.4992068414993792e+01 2 2 0
2387 1 4.9661400772863216e+00 3.1009787073297752e+00 1.4447635096518791e+01 0 2 0
705 1 4.6727219196366088e+00 5.8077569018375730e-01 1.5172703706420396e+01 2 2 1
1455 1 5.7805569762325737e+00 1.1506688347445397e+01 1.4376795312186999e+01 -2 1 0
712 1 9.6983531302910908e+00 2.4783667253243928e+00 1.4489421887697052e+01 0 -1 0
3714 1 1.2171784577379405e+00 1.1622176155019995e+01 1.4403924536388415e+01 1 3 0
4484 1 2.6990203279010845e+00 4.5517949982234205e+00 1.5210733107990272e+01 1 -1 0
2330 1 2.9351781337956715e+00 7.4596389222541433e+00 1.4839443060838317e+01 0 1 0
661 1 7.4278236984810277e+00 4.1770505742798445e+00 1.5016526381683168e+01 1 1 0
1353 1 7.6835594903447095e+00 7.0760345716645787e+00 1.3858776640937696e+01 2 -1 1
4466 1 1.9028827899249373e-01 3.7322762712891118e+00 1.4275686578261579e+01 -5 -4 0
2249 1 1.1975025872021472e+01 6.8198054436332667e+00 1.3913217030535874e+01 -3 0 -2
69 1 9.0905885809009739e+00 8.3509964852159196e-02 1.0981073420707276e+01 3 -2 0
4451 1 3.7789537931145684e-01 6.2022463605678899e+00 2.5205585679527569e+01 -1 1 -1
1436 1 4.5737182835351273e+00 3.1916462888206580e+00 1.8847675396647684e+01 2 2 1
1355 1 4.4378292594923430e+00 4.8820278703834025e-01 1.7854001878308555e+01 0 -2 0
2136 1 9.4667707918145538e+00 2.9373567890044843e+00 1.8410920372354738e+01 1 -1 0
2932 1 1.1592863972132332e+00 1.1695387617439939e+01 2.1518357403779181e+01 -2 -2 0
4475 1 3.1501126996546787e+00 7.4849911873915431e+00 1.8160290429868546e+01 4 3 0
19 1 2.5693356424746487e+00 4.7926158377361352e+00 1.7760871227939411e+01 3 2 0
654 1 7.0586680006864970e+00 4.3122671581570415e+00 1.7842553992305572e+01 -1 4 0
4341 1 7.8055172971542630e+00 7.0742853734736828e+00 1.8410113565507267e+01 0 4 0
840 1 5.1164292910381226e+00 6.4073206083145022e+00 3.2609275880893108e+01 2 2 0
4423 1 1.1757010471949838e+00 1.1847029130986561e+01 3.1762657352756399e+01 1 -3 1
66 1 6.6782445141443214e-01 8.7655582874538904e+00 1.7988077872343815e+01 -1 0 0
4430 1 1.1987184561555718e+01 4.1408323975025523e+00 1.7685380458526271e+01 0 -1 1
2312 1 5.5226618039976954e+00 8.7163706116675392e+00 1.7722303304056275e+01 0 -1 0
3043 1 5.6824550302340411e+00 1.1446501248538963e+01 1.8429083694913459e+01 0 1 0
4477 1 1.0093450751183797e+01 8.3077782887644709e+00 1.7369674821059533e+01 0 3 -1
711 1 1.0439359537067880e+01 1.1056147141575600e+01 1.8160368525343348e+01 -1 0 0
2904 1 1.2167677170080621e+01 4.2148672919206938e+00 2.2003418202409360e+01 4 2 0
2860 1 1.2161117486496515e+01 9.8557841386335614e+00 3.2150245983014806e+01 -2 -1 0
1406 1 5.4307987963272053e+00 7.3188464286818289e-01 2.2919602692932365e+01 -1 -1 0
623 1 5.1406701728466011e+00 3.4459931081443709e+00 2.1657289471322073e+01 2 0 0
2227 1 9.6200370456512481e+00 3.2155798023691440e+00 2.1290214546688105e+01 1 -1 -1
3108 1 9.7136625738686213e+00 6.1953035898919318e-01 2.2526128559883844e+01 1 5 0
1596 1 3.0923896329338603e+00 7.1849000928052176e+00 2.0880284207349302e+01 -2 -3 0
1457 1 2.8219571781754809e+00 4.4923575746098425e+00 2.2098874141100207e+01 2 -1 0
744 1 7.6950962926204722e+00 7.5583899015752039e+00 2.0948229928672728e+01 1 -1 -1
2385 1 7.6024951521496567e+00 4.9769946614471570e+00 2.2210432083295288e+01 -2 2 0
2209 1 7.8923823685025960e+00 5.0108625458319844e+00 2.5210938888500475e+01 2 1 -1
3051 1 1.0014734131552078e+01 1.1423012535179160e+01 3.1406592480454258e+01 -1 -3 0
2343 1 5.3017992858203016e+00 1.1606759690913247e+01 3.1444408002939195e+01 3 -1 0
872 1 1.1848426464011034e+01 1.4362811828533260e+00 3.1648971911090129e+01 -1 -3 0
3817 1 1.1266982593091046e+00 8.8374939347818326e+00 2.1962751301334155e+01 -1 -4 -1
1565 1 5.5337983000137003e-01 9.1290109482532138e+00 2.4867746241123854e+01 -2 -2 0
2390 1 5.0403977064829086e-01 6.2629753169151181e+00 2.8169281785225149e+01 1 0 1
863 1 5.8299441128393497e+00 1.1575816634549890e+01 2.1179542086762698e+01 -1 -1 0
2236 1 5.4117458112718673e+00 8.8109219352378574e+00 2.1831877961258289e+01 -1 1 0
690 1 5.2356698504875876e+00 8.9540458395525864e+00 2.4782031926875526e+01 1 -2 1
825 1 1.0434363451216869e+01 1.1136486662962058e+01 2.0893737322877296e+01 -1 1 1
1380 1 1.0173998158476778e+01 8.4620722947946287e+00 2.1829670621997742e+01 -2 0 0
790 1 1.0277978375995218e+01 8.7341329119575395e+00 2.4604897574043544e+01 4 -1 0
2848 1 1.5453956777687792e+00 4.4599595358301980e-01 2.6438532209713976e+01 2 0 0
778 1 3.4433718717579578e+00 2.4600224040563012e+00 2.6360983818226941e+01 -1 0 1
727 1 5.7276073371625369e+00 9.7346205032314403e-01 2.5637738624550522e+01 -1 -2 0
1547 1 7.9711917319710661e+00 2.5527669920448037e+00 2.6541345979779496e+01 0 -1 -1
2849 1 4.5615613566223772e+00 3.5281400707419288e+00 2.8810874723221492e+01 0 1 0
2981 1 9.7676318330580152e+00 7.3163610489653241e-01 2.5302277907847490e+01 2 -1 0
3761 1 9.8010915623618917e+00 3.0566414344308872e+00 2.9222935604747363e+01 1 -3 0
2364 1 1.2131094794794906e+01 1.7972292983756084e+00 2.8370173291617654e+01 0 1 1
2167 1 2.8158618098836294e+00 4.7194128935665569e+00 2.4897470365194799e+01 6 0 -1
50 1 3.3963945698077671e+00 1.0142407916880268e+01 3.2421174417310979e+01 -5 -2 1
1589 1 5.1616175117964040e+00 6.0662179745512406e+00 2.5517241101498531e+01 2 2 0
2340 1 4.9726238908204987e+00 6.0960731484951145e+00 2.8162529453959014e+01 0 -1 1
591 1 7.3289989099260362e+00 7.4658440569855458e+00 2.9110697994279512e+01 1 -2 1
4540 1 1.0410698229437973e+01 6.1012777039731247e+00 2.5277824189053621e+01 -2 2 0
2200 1 9.5214106808444985e+00 5.8489875075671049e+00 2.8053891629439306e+01 1 -1 -1
3842 1 1.0459518697134853e+00 1.1848945732786470e+01 2.8992998185171185e+01 2 0 0
2282 1 3.1817610260952676e+00 1.0229313055461173e+01 2.8052535005626378e+01 1 0 0
1545 1 2.9269443672850022e+00 1.0264540786943055e+01 2.5384648904099908e+01 -2 1 -1
2133 1 5.4876682185080137e+00 1.1913480981736480e+01 2.8739001599793585e+01 2 -1 0
3815 1 7.6624904641462726e+00 1.0052751040551977e+01 2.8160941128757280e+01 4 0 0
3717 1 7.6972983467376723e+00 1.0149915233185597e+01 2.5565323271913339e+01 -1 0 -1
3052 1 1.0115981387100057e+01 1.1293205611256081e+01 2.8757330256348876e+01 -2 -2 -1
1563 1 2.0237514213969456e+00 1.9528850962099997e+00 2.9338299678149198e+01 -3 -1 0
2137 1 1.6876027891892635e+00 2.3155154198661521e+00 3.2255856326626215e+01 2 2 0
1637 1 6.9791632157367296e+00 2.3424027831081324e+00 2.9294338424107838e+01 3 -2 1
2843 1 6.8147555326677169e+00 2.2208796442318803e+00 3.1946244211287542e+01 3 -4 0
613 1 4.2422320657997750e+00 3.5449922074829860e+00 3.1978845560227011e+01 0 -1 0
1591 1 9.6517607238883905e+00 3.2263321700397176e+00 3.2033252960576739e+01 3 3 1
1421 1 9.6092311510805679e+00 5.9826360434703441e+00 3.2402555422747497e+01 3 0 0
2985 1 7.6686079126398576e+00 1.0178694681306641e+01 3.2415571978691801e+01 -4 0 0
3769 1 2.8920109850959252e+00 7.6802986653433116e+00 2.8956735152992859e+01 1 1 0
732 1 2.6324707497447180e+00 7.5886839047184278e+00 3.1781931435887003e+01 4 1 0
81 1 7.3449970796342772e+00 7.5025987513844532e+00 3.1678810592081454e+01 1 1 0
1356 1 9.0887287712818454e-01 1.1556318864403917e+01 1.8731522596527476e+01 2 1 0
3007 1 9.3446000986852464e+00 1.3471379374419204e-01 1.7914849096838360e+01 -4 4 -1
23 1 1.2107881832989721e+01 7.1972559519096251e+00 3.1693886863400476e+01 3 -5 2
653 1 1.3177971753463083e-01 3.6235796391050035e+00 1.8649209419430694e+01 4 2 0
1556 1 1.2183086016481706e+01 1.9913770259683228e+00 2.5717047048390921e+01 -5 5 -1
4411 1 1.1769499158730323e+01 7.3854497010094082e+00 2.9098407609663855e+01 -2 2 0
3878 1 8.9195705004378567e-02 3.4074306224114181e+00 2.1517013034844631e+01 1 3 0
3875 1 1.6904867645529009e-01 6.5461140518228715e+00 3.2486809395563697e+01 1 0 1
132 2 0.0000000000000000e+00 1.2787731112280996e+01 2.1477752346730643e+00 0 0 0
134 2 1.2305000000000001e+00 1.3498160618518829e+01 2.1477752346730643e+00 0 0 0
169 2 2.4610000000000003e+00 1.2787731112280996e+01 2.1477752346730643e+00 0 0 0
171 2 3.6915000000000004e+00 1.3498160618518829e+01 2.1477752346730643e+00 0 0 0
130 2 0.0000000000000000e+00 1.5629449137232333e+01 2.1477752346730643e+00 0 0 0
165 2 1.2305000000000001e+00 1.4919019630994494e+01 2.1477752346730643e+00 0 0 0
167 2 2.4610000000000003e+00 1.5629449137232328e+01 2.1477752346730643e+00 0 0 0
210 2 3.6915000000000004e+00 1.4919019630994494e+01 2.1477752346730643e+00 0 0 0
214 2 4.9220000000000006e+00 1.2787731112280996e+01 2.1477752346730643e+00 0 0 0
216 2 6.1524999999999990e+00 1.3498160618518829e+01 2.1477752346730643e+00 0 0 0
261 2 7.3829999999999991e+00 1.2787731112280996e+01 2.1477752346730643e+00 0 0 0
212 2 4.9220000000000006e+00 1.5629449137232333e+01 2.1477752346730643e+00 0 0 0
257 2 6.1524999999999990e+00 1.4919019630994494e+01 2.1477752346730643e+00 0 0 0
259 2 7.3829999999999991e+00 1.5629449137232333e+01 2.1477752346730643e+00 0 0 0
263 2 8.6135000000000002e+00 1.3498160618518835e+01 2.1477752346730643e+00 0 0 0
308 2 9.8440000000000012e+00 1.2787731112280996e+01 2.1477752346730643e+00 0 0 0
310 2 1.1074500000000002e+01 1.3498160618518829e+01 2.1477752346730643e+00 0 0 0
304 2 8.6135000000000002e+00 1.4919019630994494e+01 2.1477752346730643e+00 0 0 0
306 2 9.8440000000000012e+00 1.5629449137232328e+01 2.1477752346730643e+00 0 0 0
346 2 1.1074500000000002e+01 1.4919019630994494e+01 2.1477752346730643e+00 0 0 0
161 2 0.0000000000000000e+00 1.7050308149707998e+01 2.1477752346730643e+00 0 0 0
206 2 2.4610000000000003e+00 1.7050308149707998e+01 2.1477752346730643e+00 0 0 0
159 2 0.0000000000000000e+00 1.9892026174659328e+01 2.1477752346730643e+00 0 0 0
163 2 1.2305000000000001e+00 1.7760737655945832e+01 2.1477752346730643e+00 0 0 0
202 2 1.2305000000000001e+00 1.9181596668421495e+01 2.1477752346730643e+00 0 0 0
204 2 2.4610000000000003e+00 1.9892026174659328e+01 2.1477752346730643e+00 0 0 0
208 2 3.6914999999999996e+00 1.7760737655945832e+01 2.1477752346730643e+00 0 0 0
249 2 3.6914999999999996e+00 1.9181596668421495e+01 2.1477752346730643e+00 0 0 0
253 2 4.9220000000000006e+00 1.7050308149707998e+01 2.1477752346730643e+00 0 0 0
300 2 7.3830000000000009e+00 1.7050308149707998e+01 2.1477752346730643e+00 0 0 0
251 2 4.9220000000000006e+00 1.9892026174659328e+01 2.1477752346730643e+00 0 0 0
255 2 6.1524999999999999e+00 1.7760737655945832e+01 2.1477752346730643e+00 0 0 0
296 2 6.1524999999999999e+00 1.9181596668421495e+01 2.1477752346730643e+00 0 0 0
298 2 7.3829999999999991e+00 1.9892026174659328e+01 2.1477752346730643e+00 0 0 0
342 2 9.8440000000000012e+00 1.7050308149707998e+01 2.1477752346730643e+00 0 0 0
376 2 1.2304999999999998e+01 1.7050308149707998e+01 2.1477752346730643e+00 0 0 0
302 2 8.6134999999999984e+00 1.7760737655945832e+01 2.1477752346730643e+00 0 0 0
338 2 8.6135000000000002e+00 1.9181596668421495e+01 2.1477752346730643e+00 0 0 0
340 2 9.8440000000000012e+00 1.9892026174659335e+01 2.1477752346730643e+00 0 0 0
344 2 1.1074500000000002e+01 1.7760737655945835e+01 2.1477752346730643e+00 0 0 0
372 2 1.1074500000000002e+01 1.9181596668421495e+01 2.1477752346730643e+00 0 0 0
196 2 0.0000000000000000e+00 2.4154603212086325e+01 2.1477752346730643e+00 0 0 0
198 2 0.0000000000000000e+00 2.1312885187134999e+01 2.1477752346730643e+00 0 0 0
200 2 1.2304999999999993e+00 2.2023314693372832e+01 2.1477752346730643e+00 0 0 0
241 2 1.2304999999999993e+00 2.3444173705848499e+01 2.1477752346730643e+00 0 0 0
243 2 2.4610000000000003e+00 2.4154603212086325e+01 2.1477752346730643e+00 0 0 0
245 2 2.4610000000000003e+00 2.1312885187134995e+01 2.1477752346730643e+00 0 0 0
247 2 3.6914999999999996e+00 2.2023314693372832e+01 2.1477752346730643e+00 0 0 0
288 2 3.6915000000000004e+00 2.3444173705848499e+01 2.1477752346730643e+00 0 0 0
290 2 4.9220000000000006e+00 2.4154603212086325e+01 2.1477752346730643e+00 0 0 0
292 2 4.9220000000000006e+00 2.1312885187134995e+01 2.1477752346730643e+00 0 0 0
294 2 6.1524999999999990e+00 2.2023314693372832e+01 2.1477752346730643e+00 0 0 0
330 2 6.1524999999999999e+00 2.3444173705848499e+01 2.1477752346730643e+00 0 0 0
332 2 7.3830000000000009e+00 2.4154603212086336e+01 2.1477752346730643e+00 0 0 0
334 2 7.3829999999999991e+00 2.1312885187134999e+01 2.1477752346730643e+00 0 0 0
336 2 8.6135000000000002e+00 2.2023314693372832e+01 2.1477752346730643e+00 0 0 0
364 2 8.6134999999999984e+00 2.3444173705848499e+01 2.1477752346730643e+00 0 0 0
366 2 9.8440000000000012e+00 2.4154603212086336e+01 2.1477752346730643e+00 0 0 0
368 2 9.8440000000000012e+00 2.1312885187134999e+01 2.1477752346730643e+00 0 0 0
370 2 1.1074500000000002e+01 2.2023314693372832e+01 2.1477752346730643e+00 0 0 0
390 2 1.1074500000000002e+01 2.3444173705848499e+01 2.1477752346730643e+00 0 0 0
133 2 0.0000000000000000e+00 1.2787731112280996e+01 5.3974878980946412e+00 0 0 0
170 2 2.4610000000000003e+00 1.2787731112280996e+01 5.3974878980946412e+00 0 0 0
442 2 0.0000000000000000e+00 1.2787731112280996e+01 8.6472005615234480e+00 0 0 0
443 2 1.2305000000000001e+00 1.3498160618518829e+01 8.6472005615234480e+00 0 0 0
461 2 2.4610000000000003e+00 1.2787731112280996e+01 8.6472005615234480e+00 0 0 0
462 2 3.6915000000000004e+00 1.3498160618518829e+01 8.6472005615234480e+00 0 0 0
131 2 0.0000000000000000e+00 1.4208590124756663e+01 5.3974878980946412e+00 0 0 0
166 2 1.2305000000000001e+00 1.4919019630994494e+01 5.3974878980946412e+00 0 0 0