LAMMPS data file via write_data, version 16 Mar 2018, timestep = 100000

6328 atoms
2 atom types

0.0000000000000000e+00 4.9219999999999999e+01 xlo xhi
0.0000000000000000e+00 4.9019635930410494e+01 ylo yhi
3.5351011594370085e+00 5.6526898840562808e+01 zlo zhi

Masses

1 18.015
2 12.01

Atoms # atomic

382 1 5.1391577498330081e+00 2.9283288692823795e+00 1.2133755993386000e+01 0 0 0
4684 1 5.1742649199249957e+00 2.3673506194284015e+00 5.0782670955605376e+00 0 0 0
3157 1 1.0171596676146562e+01 1.4584352860582442e+01 1.2585967824985030e+01 0 1 0
3269 1 6.4494851098931738e+00 7.5078266771262048e-01 1.4075266796493374e+01 0 -1 0
6122 1 8.4534118563576204e+00 3.5794660551822890e+00 8.5141056955212360e+00 1 1 1
360 1 1.0175863653482731e+01 1.7199840113898812e+00 9.9828067766452477e+00 -1 0 0
1344 1 2.7656902057226960e+00 1.1051620634177397e+01 1.3227055158858501e+01 1 0 1
6324 1 1.0232964123015407e+01 3.1782764840038005e+00 4.0787866492959655e+00 1 -1 0
35 1 7.8191184157466331e+00 1.6055075211476591e+01 1.1650023115468272e+01 0 0 0
344 1 1.5604911114852100e+00 6.6760464526249672e+00 6.4484912267943244e+00 2 1 1
4583 1 9.3549840519755989e+00 4.7863244045022419e+00 6.2085634587307066e+00 0 1 1
1654 1 6.3904321992844548e-01 6.1727650768626781e+00 1.3444568545132165e+01 1 1 0
1917 1 3.4894683169195835e+00 8.4897893422710826e+00 5.3515442869575693e+00 0 0 0
3223 1 6.4060607059723678e+00 9.8732470018359653e+00 1.1088573675859724e+01 0 0 1
3224 1 1.2147005669954112e+01 8.0786536967379874e+00 6.2937358075650929e+00 0 -1 0
6123 1 2.6402819926725694e+00 1.1608936885831984e+01 5.3859413605878430e+00 0 0 1
1770 1 7.7356207554803316e+00 1.0878653407303210e+01 7.2570646631410636e+00 0 0 1
352 1 7.5962810460636225e+00 1.4878014140287471e+01 8.0271864399384967e+00 0 0 0
1737 1 8.4948325655417172e+00 9.2712890343715166e+00 3.7875370321658908e+00 0 1 1
321 1 5.4785785037797670e+00 1.1778720133264860e+01 1.3118316883466308e+01 0 0 0
2137 1 3.2858692517104302e+00 1.5185939432750715e+01 7.4209322405010223e+00 -1 0 1
397 1 8.5897647034827216e+00 3.1364478720751925e+00 1.3186221762291334e+01 1 0 1
433 1 5.7574951161831098e+00 1.4393241326993319e+01 5.9231777311277085e+00 1 0 1
3275 1 8.3230949509413890e+00 1.2258719447770595e+01 4.7327248612701531e+00 1 1 1
1879 1 1.1176149509693847e+01 1.1937530443148475e+01 5.5487209271967490e+00 0 2 0
6062 1 5.6502680381553452e+00 6.9819870775676467e+00 4.2036805218106084e+00 1 0 0
1479 1 1.1676192745346092e+00 1.4939044641630559e+00 7.6463846054075058e+00 0 0 1
5104 1 1.4163977704655486e+00 5.4361667128092686e+00 1.0917898367801826e+01 1 1 0
4666 1 1.1330899463015367e+01 8.3709967598318402e-01 7.8664774658732677e+00 -1 0 1
5293 1 5.3938623723445700e-01 1.1863834023529561e+01 9.3400508734840741e+00 -1 0 0
3254 1 5.8507129941011300e+00 7.4576301788323400e+00 1.2458563201226779e+01 0 -1 0
6286 1 1.9849635040443889e+00 4.1981257235226863e+00 8.0006895475418496e+00 0 1 0
4522 1 5.4740288546065790e+00 6.2041815985113811e+00 8.5257951493421267e+00 0 1 1
3556 1 4.5887676495255292e+00 3.6556327097670391e+00 7.5297819993965920e+00 -1 1 0
4416 1 7.9479586158900242e+00 7.3685715345879572e+00 5.8206645362212015e+00 1 1 0
286 1 9.7158726394674311e+00 6.2189537558756838e+00 1.0012613717523800e+01 0 0 0
5267 1 1.1398759459992249e+01 5.7359502840518592e+00 7.6803165897341117e+00 0 1 1
6 1 1.7143712025144213e+00 9.7897432087206830e+00 1.0994206758842587e+01 0 0 0
1854 1 2.8830414106954425e+00 1.2648043162450451e+01 8.1430185568103077e+00 0 1 0
5013 1 1.5953970796259254e+00 5.3350907807349426e+00 3.9773073584324021e+00 0 0 0
1867 1 4.0927979560026424e+00 1.0194863926994016e+01 9.2119674978534150e+00 1 -1 1
4599 1 5.4338181247984476e+00 9.0969255419576172e+00 7.2431972527655981e+00 1 1 1
1581 1 7.9411795695677725e+00 8.1306494694282261e+00 8.6086219895489293e+00 0 2 0
2982 1 1.0405998176690796e+01 9.9205857602832364e+00 7.3639774839269734e+00 1 0 1
342 1 9.5077203186042958e+00 6.3028811583188848e-01 5.5088054697076601e+00 0 0 0
3183 1 9.1468019305336306e+00 1.6798464750874811e-01 1.2313386928185889e+01 1 0 1
4603 1 6.9827497482230418e+00 1.2529734408877966e+01 9.7102142623835022e+00 0 -1 1
5116 1 5.7415308089471724e+00 1.4679725214154134e+01 1.1259965496603506e+01 0 1 0
3657 1 9.5740619139695156e+00 1.2835412748835804e+01 1.0304766518511062e+01 0 0 0
1601 1 1.0276144116637923e+01 1.4045629599195239e+01 7.6176490950555813e+00 0 0 1
6159 1 3.7978538744869716e+00 1.5088104711790681e-01 1.3556438586251499e+01 0 0 1
1795 1 2.2220680835590967e+00 2.7977577991568188e+00 1.1963719168752000e+01 1 1 0
5055 1 3.7774222033651164e+00 1.3474199034312781e+01 3.8162057291062266e+00 1 0 0
2049 1 3.9067915347110596e+00 5.4378498637818478e+00 1.3133162659849281e+01 -1 1 0
350 1 1.1548161890672878e+01 4.3234645228390320e+00 1.3102076200368119e+01 0 1 0
6209 1 1.1962978418561509e+01 3.9471297710224809e+00 1.0383380979149726e+01 0 1 0
6277 1 3.5000197348267785e+00 7.2474793749225244e+00 1.0461315443352005e+01 0 0 0
6173 1 4.2417733971110820e+00 4.5945414040452590e+00 3.6447960911856883e+00 0 1 1
444 1 3.2566379676231936e+00 1.5075416955610230e+01 1.3445429748285202e+01 1 -1 1
4664 1 7.0120509090416858e+00 4.7896264251743155e+00 1.0499869464007684e+01 1 1 0
4833 1 7.2530433356989032e+00 1.5273929509661692e+00 6.9451760388620700e+00 -1 1 0
3518 1 8.4350331138931445e+00 6.2741128081833555e+00 1.2854262253846921e+01 0 0 0
542 1 5.1799148540641911e+00 1.8764762946291194e+00 9.4997780043682170e+00 0 0 1
4765 1 1.3453606153796067e+00 1.6249946272474258e+01 1.1783812796987256e+01 2 0 0
5253 1 1.1613977900784274e+01 1.0824161138081077e+01 9.7973849452082753e+00 1 0 0
213 1 9.0772844374576813e+00 9.6397792183243904e+00 1.0986601978735196e+01 0 -1 0
3589 1 9.6888769732899949e+00 8.6825573815150534e+00 1.3551350374202935e+01 1 0 0
319 1 2.9867764464064890e+00 9.2989308031606910e-01 4.8330236056558888e+00 0 0 1
3670 1 1.1749481154657495e+01 6.9577812451214092e+00 1.3649457726341115e+01 0 -1 0
4887 1 6.8831338510803267e-02 1.2108358850487717e+01 4.7321145827278555e+00 -1 0 0
1885 1 7.5099758224051119e+00 6.5072572765291922e-02 9.4349899699012667e+00 0 1 0
4486 1 2.2752728030404872e+00 8.1790732984769743e-01 1.5897920649783073e+01 0 0 1
9 1 1.7357745770745476e+00 1.3304712951610286e+01 1.4512196093122901e+01 0 1 1
3441 1 1.9098114191127920e+00 4.3796350194753755e+00 2.4260233570020539e+01 -1 1 0
345 1 1.0740001842488970e+01 1.6905907426782836e-02 1.6347939585826559e+01 1 1 0
6317 1 2.1531542361974174e+00 3.8148800154278040e+00 1.6670285382600895e+01 0 0 1
1878 1 6.9069080734761201e-01 9.2364956409483998e+00 1.9341840856841763e+01 1 1 0
2798 1 7.3467798725170175e+00 4.6490525499109632e+00 1.5341729421631729e+01 0 0 1
3139 1 5.7139707844877927e+00 6.6863139663007267e+00 1.6260453742346389e+01 0 0 1
1940 1 7.2988720930830366e+00 8.1276551492021181e+00 1.8209095395613822e+01 0 0 0
387 1 1.0749780381083314e+01 7.5226606261506843e+00 1.6674202981266269e+01 1 1 0
270 1 4.5164298748857519e+00 1.0634278945769566e+01 1.6308827194523033e+01 1 2 1
6151 1 1.7522476177715620e+00 1.2699546458303844e+01 1.7223836927429488e+01 0 0 1
3 1 2.2530205978913918e+00 1.5781819435887730e+01 2.3834845677176194e+01 0 1 0
4731 1 8.8813599015448830e+00 9.7890363011187613e+00 1.6123672488708884e+01 0 0 0
3431 1 1.1054258089604238e+01 1.2140447044325199e+01 2.1550699348982711e+01 0 0 1
1983 1 9.7899338044573430e+00 1.2335168646292248e+01 1.6988338636222451e+01 -1 -1 1
3496 1 3.3035079843774526e+00 7.0578637493384138e+00 1.9525204081421247e+01 -1 1 0
4819 1 4.0631808093536979e+00 6.3993164753094698e+00 2.4513372249205585e+01 -1 2 1
4826 1 6.4085555395306013e+00 1.4282401842195915e+01 1.4389067973369418e+01 1 -1 1
1872 1 1.2082611314963678e+01 1.2616553171880769e+01 2.4217587341159454e+01 0 0 0
3035 1 6.2909272736518007e+00 1.2229546473598587e+00 2.4402191102508517e+01 0 1 1
1966 1 1.1559075034581252e+01 1.5264754213679989e+01 2.3845549039437113e+01 0 1 0
1288 1 6.1446169993662139e+00 2.2587870789981817e+00 1.6727565637142625e+01 0 1 1
4614 1 1.2132312095998314e+01 2.2084321901991459e+00 1.8615322664408886e+01 1 0 0
1363 1 9.3749980197167577e+00 1.4292638649226177e+00 1.9007283288678032e+01 0 1 0
3369 1 3.8033969274982611e+00 2.6577175060459548e+00 1.8442833658088773e+01 1 0 0
4964 1 2.5361738599329580e+00 8.9150211344786747e+00 1.7280523290649629e+01 -1 1 1
99 1 5.1730809988462996e+00 5.3023999661836712e+00 1.8805907632952085e+01 0 0 0
284 1 9.5544718186645667e+00 5.0260125955759083e+00 1.7016854838346628e+01 0 0 1
473 1 3.4472450059566371e+00 1.9413724334816138e+00 2.4168545199728101e+01 0 0 1
3626 1 9.7654055629231724e+00 4.5808326309430205e+00 1.9773431902155519e+01 0 0 0
6187 1 5.6407773598166981e+00 1.0447063817778268e+01 1.8949675237922982e+01 1 1 0
5161 1 7.6830943015783504e+00 8.8168509833455815e+00 2.1588380469747548e+01 0 0 0
5135 1 1.9753465957502951e+00 1.4846596969680743e+01 2.1148184780621289e+01 0 0 -1
6237 1 9.6933066147356861e+00 7.4153609891050980e+00 1.9806464251150270e+01 0 1 0
5169 1 3.3878087950034819e+00 1.2893945593522947e+01 1.9745116002771724e+01 -1 1 0
160 1 5.5109636439917109e+00 1.3254717576971412e+01 1.6794256991435191e+01 1 0 0
6294 1 7.5907607714810093e+00 1.4017289374270879e+01 1.8558574145156349e+01 0 1 1
5313 1 1.0172189222081816e+01 2.5645345551787093e+00 1.5388513790375901e+01 0 1 0
4998 1 1.1450386342251281e+01 1.3400684308522392e+01 1.8813419711328095e+01 0 1 0
4560 1 1.1705807083936477e+01 1.5283032511171587e+01 2.1173333737037435e+01 0 1 1
2986 1 3.5293809604224169e+00 2.6413060230287200e+00 2.1591399000379241e+01 1 0 1
168 1 6.2974107692171621e+00 9.0849067942693367e+00 1.4582591626317052e+01 0 1 1
3637 1 6.1698339355784828e+00 1.3174587554182557e+01 2.3697583605133723e+01 0 -1 0
5067 1 5.4308371432438998e+00 4.7329965950497561e+00 2.1752809937351284e+01 -1 1 0
4842 1 5.7467159931572667e+00 7.7536792965933110e-01 2.1164488993776931e+01 -1 0 0
4537 1 8.0121235620364981e+00 3.1683387779408161e+00 2.3736435421373276e+01 -1 0 0
4573 1 9.8720757414661375e-01 3.3533626788308628e+00 1.4306257556786239e+01 -1 0 1
4930 1 9.5967815033229122e+00 8.3188885412555003e-01 2.1875897211320471e+01 1 2 0
3390 1 6.4062005406669105e+00 1.0402744272138731e+01 2.4459586812214258e+01 0 0 1
3473 1 8.1698919029943706e+00 7.7888817314258336e+00 2.4042857220291882e+01 0 -1 0
3457 1 1.3604635395413442e+00 8.9559130810944634e+00 1.4606680232699134e+01 1 0 0
222 1 2.0643425098296131e+00 5.3549874335312690e+00 2.1632399346809216e+01 0 0 0
3252 1 7.5516968503140669e+00 3.2907517561480457e+00 2.1050222910050799e+01 0 1 1
4812 1 1.1012378808820428e+01 8.2835343508534045e+00 2.4183342636227927e+01 1 0 0
1815 1 9.3777392869102378e+00 1.4517878148912061e+01 1.5341613283098193e+01 1 1 0
1573 1 1.1749269179469692e+01 3.4783256099366917e+00 2.1241728543343466e+01 0 1 0
1299 1 4.8082385190695893e+00 8.8732681234136876e+00 2.1168350116347916e+01 0 1 1
3714 1 1.8238877143251255e+00 1.1334614695744454e+01 2.3665288176015341e+01 0 0 0
4981 1 3.8375586792012011e+00 9.2052779970607848e+00 2.4115055887151431e+01 0 1 0
4971 1 2.5980099046278826e+00 1.0741687451660511e+01 2.1193756134508504e+01 0 1 0
1582 1 6.3341705883110109e+00 1.2788747290957694e+01 2.0964591838120764e+01 1 -1 0
3501 1 3.6134075468494236e+00 1.5102107200610860e+01 1.7447732308677558e+01 0 0 0
4649 1 7.5008423416569387e+00 1.5505736380102153e+01 2.1228188794882936e+01 0 0 1
1403 1 1.1936804200634835e+01 7.8599877586042117e+00 2.1459228004189892e+01 1 0 1
4789 1 1.0049832656409405e+01 1.0904716984218876e+01 2.4502320683462592e+01 0 0 0
4922 1 7.1571539956058361e+00 1.5650998112333356e+01 2.4089459891551694e+01 -1 0 0
256 1 8.4240059333201298e+00 1.1401164806721495e+01 2.1997550814474696e+01 1 0 1
4736 1 2.9758564645808794e+00 6.5879268654978640e+00 1.5746674437807382e+01 1 0 1
1587 1 1.0884945797226640e+01 2.9977154348658388e+00 2.4100224493500910e+01 1 1 0
2904 1 6.6354203893230661e+00 5.5336489226631649e+00 2.4460098256899276e+01 0 0 1
5109 1 1.4347182937679166e+00 1.3829046682137738e-01 2.3684775810066174e+01 1 1 0
1694 1 1.2082091610001987e+01 5.4650241148494763e+00 2.4338592866799903e+01 0 0 0
4663 1 3.4307403012606530e+00 1.3523181134986389e+01 2.4307266324508788e+01 -1 0 1
552 2 0.0000000000000000e+00 2.8417180249513345e+00 2.6868706320547922e+01 0 0 0
554 2 0.0000000000000000e+00 0.0000000000000000e+00 2.6868706320547922e+01 0 0 0
556 2 1.2305000000000001e+00 7.1042950623783474e-01 2.6868706320547922e+01 0 0 0
563 2 1.2305000000000001e+00 2.1312885187134998e+00 2.6868706320547922e+01 0 0 0
565 2 2.4610000000000003e+00 2.8417180249513345e+00 2.6868706320547922e+01 0 0 0
567 2 2.4610000000000003e+00 0.0000000000000000e+00 2.6868706320547922e+01 0 0 0
569 2 3.6915000000000004e+00 7.1042950623783474e-01 2.6868706320547922e+01 0 0 0
584 2 3.6914999999999996e+00 2.1312885187134998e+00 2.6868706320547922e+01 0 0 0
586 2 4.9220000000000006e+00 2.8417180249513332e+00 2.6868706320547922e+01 0 0 0
588 2 4.9220000000000006e+00 0.0000000000000000e+00 2.6868706320547922e+01 0 0 0
590 2 6.1524999999999999e+00 7.1042950623783407e-01 2.6868706320547922e+01 0 0 0
613 2 6.1524999999999999e+00 2.1312885187134989e+00 2.6868706320547922e+01 0 0 0
615 2 7.3829999999999991e+00 2.8417180249513345e+00 2.6868706320547922e+01 0 0 0
617 2 7.3829999999999991e+00 0.0000000000000000e+00 2.6868706320547922e+01 0 0 0
619 2 8.6134999999999984e+00 7.1042950623783407e-01 2.6868706320547922e+01 0 0 0
650 2 8.6134999999999984e+00 2.1312885187135002e+00 2.6868706320547922e+01 0 0 0
652 2 9.8440000000000012e+00 2.8417180249513332e+00 2.6868706320547922e+01 0 0 0
654 2 9.8440000000000012e+00 0.0000000000000000e+00 2.6868706320547922e+01 0 0 0
656 2 1.1074500000000002e+01 7.1042950623783330e-01 2.6868706320547922e+01 0 0 0
695 2 1.1074500000000002e+01 2.1312885187135002e+00 2.6868706320547922e+01 0 0 0
559 2 0.0000000000000000e+00 4.2625770374269996e+00 2.6868706320547922e+01 0 0 0
561 2 1.2305000000000001e+00 4.9730065436648339e+00 2.6868706320547922e+01 0 0 0
576 2 1.2305000000000001e+00 6.3938655561404980e+00 2.6868706320547922e+01 0 0 0
580 2 2.4610000000000003e+00 4.2625770374269996e+00 2.6868706320547922e+01 0 0 0
582 2 3.6914999999999996e+00 4.9730065436648339e+00 2.6868706320547922e+01 0 0 0
605 2 3.6914999999999996e+00 6.3938655561404980e+00 2.6868706320547922e+01 0 0 0
557 2 0.0000000000000000e+00 7.1042950623783341e+00 2.6868706320547922e+01 0 0 0
578 2 2.4610000000000003e+00 7.1042950623783341e+00 2.6868706320547922e+01 0 0 0
609 2 4.9220000000000006e+00 4.2625770374269978e+00 2.6868706320547922e+01 0 0 0
611 2 6.1524999999999999e+00 4.9730065436648339e+00 2.6868706320547922e+01 0 0 0
642 2 6.1524999999999999e+00 6.3938655561404980e+00 2.6868706320547922e+01 0 0 0
646 2 7.3829999999999991e+00 4.2625770374269996e+00 2.6868706320547922e+01 0 0 0
607 2 4.9220000000000006e+00 7.1042950623783341e+00 2.6868706320547922e+01 0 0 0
644 2 7.3830000000000009e+00 7.1042950623783341e+00 2.6868706320547922e+01 0 0 0
648 2 8.6135000000000002e+00 4.9730065436648339e+00 2.6868706320547922e+01 0 0 0
687 2 8.6135000000000002e+00 6.3938655561404980e+00 2.6868706320547922e+01 0 0 0
691 2 9.8440000000000012e+00 4.2625770374270004e+00 2.6868706320547922e+01 0 0 0
693 2 1.1074500000000002e+01 4.9730065436648339e+00 2.6868706320547922e+01 0 0 0
734 2 1.1074500000000002e+01 6.3938655561404980e+00 2.6868706320547922e+01 0 0 0
689 2 9.8440000000000012e+00 7.1042950623783341e+00 2.6868706320547922e+01 0 0 0
572 2 0.0000000000000000e+00 8.5251540748539991e+00 2.6868706320547922e+01 0 0 0
574 2 1.2305000000000001e+00 9.2355835810918343e+00 2.6868706320547922e+01 0 0 0
601 2 2.4610000000000003e+00 8.5251540748539991e+00 2.6868706320547922e+01 0 0 0
603 2 3.6915000000000004e+00 9.2355835810918343e+00 2.6868706320547922e+01 0 0 0
570 2 0.0000000000000000e+00 1.1366872099805333e+01 2.6868706320547922e+01 0 0 0
597 2 1.2305000000000001e+00 1.0656442593567498e+01 2.6868706320547922e+01 0 0 0
599 2 2.4610000000000003e+00 1.1366872099805333e+01 2.6868706320547922e+01 0 0 0
634 2 3.6914999999999996e+00 1.0656442593567499e+01 2.6868706320547922e+01 0 0 0
638 2 4.9220000000000006e+00 8.5251540748539991e+00 2.6868706320547922e+01 0 0 0
640 2 6.1524999999999999e+00 9.2355835810918343e+00 2.6868706320547922e+01 0 0 0
683 2 7.3830000000000009e+00 8.5251540748539991e+00 2.6868706320547922e+01 0 0 0
636 2 4.9220000000000006e+00 1.1366872099805333e+01 2.6868706320547922e+01 0 0 0
679 2 6.1524999999999999e+00 1.0656442593567499e+01 2.6868706320547922e+01 0 0 0
681 2 7.3829999999999991e+00 1.1366872099805333e+01 2.6868706320547922e+01 0 0 0
685 2 8.6134999999999984e+00 9.2355835810918343e+00 2.6868706320547922e+01 0 0 0
730 2 9.8440000000000012e+00 8.5251540748539956e+00 2.6868706320547922e+01 0 0 0
732 2 1.1074500000000002e+01 9.2355835810918343e+00 2.6868706320547922e+01 0 0 0
726 2 8.6134999999999984e+00 1.0656442593567498e+01 2.6868706320547922e+01 0 0 0
728 2 9.8440000000000012e+00 1.1366872099805333e+01 2.6868706320547922e+01 0 0 0
773 2 1.1074500000000002e+01 1.0656442593567498e+01 2.6868706320547922e+01 0 0 0
775 2 1.2304999999999998e+01 1.1366872099805333e+01 2.6868706320547922e+01 0 0 0
593 2 0.0000000000000000e+00 1.2787731112280996e+01 2.6868706320547922e+01 0 0 0
595 2 1.2305000000000001e+00 1.3498160618518829e+01 2.6868706320547922e+01 0 0 0
630 2 2.4610000000000003e+00 1.2787731112280996e+01 2.6868706320547922e+01 0 0 0
632 2 3.6915000000000004e+00 1.3498160618518829e+01 2.6868706320547922e+01 0 0 0
591 2 0.0000000000000000e+00 1.5629449137232333e+01 2.6868706320547922e+01 0 0 0
626 2 1.2305000000000001e+00 1.4919019630994494e+01 2.6868706320547922e+01 0 0 0
628 2 2.4610000000000003e+00 1.5629449137232328e+01 2.6868706320547922e+01 0 0 0
671 2 3.6915000000000004e+00 1.4919019630994494e+01 2.6868706320547922e+01 0 0 0
675 2 4.9220000000000006e+00 1.2787731112280996e+01 2.6868706320547922e+01 0 0 0
677 2 6.1524999999999990e+00 1.3498160618518829e+01 2.6868706320547922e+01 0 0 0
722 2 7.3829999999999991e+00 1.2787731112280996e+01 2.6868706320547922e+01 0 0 0
673 2 4.9220000000000006e+00 1.5629449137232333e+01 2.6868706320547922e+01 0 0 0
718 2 6.1524999999999990e+00 1.4919019630994494e+01 2.6868706320547922e+01 0 0 0
720 2 7.3829999999999991e+00 1.5629449137232333e+01 2.6868706320547922e+01 0 0 0
724 2 8.6135000000000002e+00 1.3498160618518835e+01 2.6868706320547922e+01 0 0 0
769 2 9.8440000000000012e+00 1.2787731112280996e+01 2.6868706320547922e+01 0 0 0
771 2 1.1074500000000002e+01 1.3498160618518829e+01 2.6868706320547922e+01 0 0 0
765 2 8.6135000000000002e+00 1.4919019630994494e+01 2.6868706320547922e+01 0 0 0
767 2 9.8440000000000012e+00 1.5629449137232328e+01 2.6868706320547922e+01 0 0 0
807 2 1.1074500000000002e+01 1.4919019630994494e+01 2.6868706320547922e+01 0 0 0
553 2 0.0000000000000000e+00 1.4208590124756650e+00 3.0030999999999974e+01 0 0 0
555 2 0.0000000000000000e+00 0.0000000000000000e+00 3.0030999999999974e+01 0 0 0
564 2 1.2305000000000001e+00 2.1312885187134998e+00 3.0030999999999974e+01 0 0 0
566 2 2.4610000000000003e+00 1.4208590124756650e+00 3.0030999999999974e+01 0 0 0
568 2 2.4610000000000003e+00 0.0000000000000000e+00 3.0030999999999974e+01 0 0 0
585 2 3.6914999999999996e+00 2.1312885187134998e+00 3.0030999999999974e+01 0 0 0
562 2 1.2305000000000001e+00 3.5521475311891644e+00 3.0030999999999974e+01 0 0 0
583 2 3.6914999999999996e+00 3.5521475311891644e+00 3.0030999999999974e+01 0 0 0
587 2 4.9220000000000006e+00 1.4208590124756650e+00 3.0030999999999974e+01 0 0 0
589 2 4.9220000000000006e+00 0.0000000000000000e+00 3.0030999999999974e+01 0 0 0
614 2 6.1524999999999999e+00 2.1312885187134989e+00 3.0030999999999974e+01 0 0 0
616 2 7.3829999999999991e+00 1.4208590124756659e+00 3.0030999999999974e+01 0 0 0
618 2 7.3829999999999991e+00 0.0000000000000000e+00 3.0030999999999974e+01 0 0 0
612 2 6.1524999999999999e+00 3.5521475311891644e+00 3.0030999999999974e+01 0 0 0
651 2 8.6134999999999984e+00 2.1312885187135002e+00 3.0030999999999974e+01 0 0 0
653 2 9.8440000000000012e+00 1.4208590124756659e+00 3.0030999999999974e+01 0 0 0
655 2 9.8440000000000012e+00 0.0000000000000000e+00 3.0030999999999974e+01 0 0 0
696 2 1.1074500000000002e+01 2.1312885187135002e+00 3.0030999999999974e+01 0 0 0
649 2 8.6134999999999984e+00 3.5521475311891657e+00 3.0030999999999974e+01 0 0 0
694 2 1.1074500000000002e+01 3.5521475311891644e+00 3.0030999999999974e+01 0 0 0
558 2 0.0000000000000000e+00 5.6834360499026637e+00 3.0030999999999974e+01 0 0 0
560 2 0.0000000000000000e+00 4.2625770374269996e+00 3.0030999999999974e+01 0 0 0
577 2 1.2305000000000001e+00 6.3938655561404980e+00 3.0030999999999974e+01 0 0 0
579 2 2.4610000000000003e+00 5.6834360499026637e+00 3.0030999999999974e+01 0 0 0
581 2 2.4610000000000003e+00 4.2625770374269996e+00 3.0030999999999974e+01 0 0 0
606 2 3.6914999999999996e+00 6.3938655561404980e+00 3.0030999999999974e+01 0 0 0
575 2 1.2305000000000001e+00 7.8147245686161639e+00 3.0030999999999974e+01 0 0 0
604 2 3.6914999999999996e+00 7.8147245686161639e+00 3.0030999999999974e+01 0 0 0
608 2 4.9220000000000006e+00 5.6834360499026637e+00 3.0030999999999974e+01 0 0 0
610 2 4.9220000000000006e+00 4.2625770374269978e+00 3.0030999999999974e+01 0 0 0
643 2 6.1524999999999999e+00 6.3938655561404980e+00 3.0030999999999974e+01 0 0 0
645 2 7.3829999999999991e+00 5.6834360499026637e+00 3.0030999999999974e+01 0 0 0
647 2 7.3829999999999991e+00 4.2625770374269996e+00 3.0030999999999974e+01 0 0 0
641 2 6.1524999999999999e+00 7.8147245686161639e+00 3.0030999999999974e+01 0 0 0
688 2 8.6135000000000002e+00 6.3938655561404980e+00 3.0030999999999974e+01 0 0 0
690 2 9.8440000000000012e+00 5.6834360499026637e+00 3.0030999999999974e+01 0 0 0
692 2 9.8440000000000012e+00 4.2625770374270004e+00 3.0030999999999974e+01 0 0 0
735 2 1.1074500000000002e+01 6.3938655561404980e+00 3.0030999999999974e+01 0 0 0
686 2 8.6135000000000002e+00 7.8147245686161639e+00 3.0030999999999974e+01 0 0 0
733 2 1.1074500000000002e+01 7.8147245686161639e+00 3.0030999999999974e+01 0 0 0
571 2 0.0000000000000000e+00 9.9460130873296642e+00 3.0030999999999974e+01 0 0 0
573 2 0.0000000000000000e+00 8.5251540748539991e+00 3.0030999999999974e+01 0 0 0
600 2 2.4610000000000003e+00 9.9460130873296642e+00 3.0030999999999974e+01 0 0 0
602 2 2.4610000000000003e+00 8.5251540748539991e+00 3.0030999999999974e+01 0 0 0
596 2 1.2305000000000001e+00 1.2077301606043163e+01 3.0030999999999974e+01 0 0 0
598 2 1.2305000000000001e+00 1.0656442593567498e+01 3.0030999999999974e+01 0 0 0
633 2 3.6914999999999996e+00 1.2077301606043163e+01 3.0030999999999974e+01 0 0 0
635 2 3.6914999999999996e+00 1.0656442593567499e+01 3.0030999999999974e+01 0 0 0
637 2 4.9220000000000006e+00 9.9460130873296642e+00 3.0030999999999974e+01 0 0 0
639 2 4.9220000000000006e+00 8.5251540748539991e+00 3.0030999999999974e+01 0 0 0
682 2 7.3830000000000009e+00 9.9460130873296642e+00 3.0030999999999974e+01 0 0 0
684 2 7.3830000000000009e+00 8.5251540748539991e+00 3.0030999999999974e+01 0 0 0
678 2 6.1524999999999999e+00 1.2077301606043163e+01 3.0030999999999974e+01 0 0 0
680 2 6.1524999999999999e+00 1.0656442593567499e+01 3.0030999999999974e+01 0 0 0
729 2 9.8440000000000012e+00 9.9460130873296642e+00 3.0030999999999974e+01 0 0 0
731 2 9.8440000000000012e+00 8.5251540748539956e+00 3.0030999999999974e+01 0 0 0
725 2 8.6135000000000002e+00 1.2077301606043163e+01 3.0030999999999974e+01 0 0 0
727 2 8.6134999999999984e+00 1.0656442593567498e+01 3.0030999999999974e+01 0 0 0
772 2 1.1074500000000002e+01 1.2077301606043163e+01 3.0030999999999974e+01 0 0 0
774 2 1.1074500000000002e+01 1.0656442593567498e+01 3.0030999999999974e+01 0 0 0
594 2 0.0000000000000000e+00 1.2787731112280996e+01 3.0030999999999974e+01 0 0 0
631 2 2.4610000000000003e+00 1.2787731112280996e+01 3.0030999999999974e+01 0 0 0
592 2 0.0000000000000000e+00 1.4208590124756663e+01 3.0030999999999974e+01 0 0 0
627 2 1.2305000000000001e+00 1.4919019630994494e+01 3.0030999999999974e+01 0 0 0
629 2 2.4610000000000003e+00 1.4208590124756663e+01 3.0030999999999974e+01 0 0 0
672 2 3.6915000000000004e+00 1.4919019630994494e+01 3.0030999999999974e+01 0 0 0
676 2 4.9220000000000006e+00 1.2787731112280996e+01 3.0030999999999974e+01 0 0 0
723 2 7.3829999999999991e+00 1.2787731112280996e+01 3.0030999999999974e+01 0 0 0
674 2 4.9220000000000006e+00 1.4208590124756663e+01 3.0030999999999974e+01 0 0 0
719 2 6.1524999999999990e+00 1.4919019630994494e+01 3.0030999999999974e+01 0 0 0
721 2 7.3830000000000009e+00 1.4208590124756663e+01 3.0030999999999974e+01 0 0 0
770 2 9.8440000000000012e+00 1.2787731112280996e+01 3.0030999999999974e+01 0 0 0
766 2 8.6135000000000002e+00 1.4919019630994494e+01 3.0030999999999974e+01 0 0 0
768 2 9.8440000000000012e+00 1.4208590124756663e+01 3.0030999999999974e+01 0 0 0
806 2 1.1074500000000002e+01 1.6339878643470161e+01 3.0030999999999974e+01 0 0 0
808 2 1.1074500000000002e+01 1.4919019630994494e+01 3.0030999999999974e+01 0 0 0
810 2 1.2304999999999998e+01 1.4208590124756658e+01 3.0030999999999974e+01 0 0 0
881 2 0.0000000000000000e+00 2.8417180249513345e+00 3.3193293679448033e+01 0 0 0
882 2 0.0000000000000000e+00 0.0000000000000000e+00 3.3193293679448033e+01 0 0 0
883 2 1.2305000000000001e+00 7.1042950623783474e-01 3.3193293679448033e+01 0 0 0
887 2 1.2305000000000001e+00 2.1312885187134998e+00 3.3193293679448033e+01 0 0 0
888 2 2.4610000000000003e+00 2.8417180249513345e+00 3.3193293679448033e+01 0 0 0
889 2 2.4610000000000003e+00 0.0000000000000000e+00 3.3193293679448033e+01 0 0 0
890 2 3.6915000000000004e+00 7.1042950623783474e-01 3.3193293679448033e+01 0 0 0
898 2 3.6914999999999996e+00 2.1312885187134998e+00 3.3193293679448033e+01 0 0 0
899 2 4.9220000000000006e+00 2.8417180249513332e+00 3.3193293679448033e+01 0 0 0
900 2 4.9220000000000006e+00 0.0000000000000000e+00 3.3193293679448033e+01 0 0 0
901 2 6.1524999999999999e+00 7.1042950623783407e-01 3.3193293679448033e+01 0 0 0
913 2 6.1524999999999999e+00 2.1312885187134989e+00 3.3193293679448033e+01 0 0 0
914 2 7.3829999999999991e+00 2.8417180249513345e+00 3.3193293679448033e+01 0 0 0
915 2 7.3829999999999991e+00 0.0000000000000000e+00 3.3193293679448033e+01 0 0 0
916 2 8.6134999999999984e+00 7.1042950623783407e-01 3.3193293679448033e+01 0 0 0
932 2 8.6134999999999984e+00 2.1312885187135002e+00 3.3193293679448033e+01 0 0 0
933 2 9.8440000000000012e+00 2.8417180249513332e+00 3.3193293679448033e+01 0 0 0
934 2 9.8440000000000012e+00 0.0000000000000000e+00 3.3193293679448033e+01 0 0 0
935 2 1.1074500000000002e+01 7.1042950623783330e-01 3.3193293679448033e+01 0 0 0
955 2 1.1074500000000002e+01 2.1312885187135002e+00 3.3193293679448033e+01 0 0 0
885 2 0.0000000000000000e+00 4.2625770374269996e+00 3.3193293679448033e+01 0 0 0
886 2 1.2305000000000001e+00 4.9730065436648339e+00 3.3193293679448033e+01 0 0 0
894 2 1.2305000000000001e+00 6.3938655561404980e+00 3.3193293679448033e+01 0 0 0
896 2 2.4610000000000003e+00 4.2625770374269996e+00 3.3193293679448033e+01 0 0 0
897 2 3.6914999999999996e+00 4.9730065436648339e+00 3.3193293679448033e+01 0 0 0
909 2 3.6914999999999996e+00 6.3938655561404980e+00 3.3193293679448033e+01 0 0 0
884 2 0.0000000000000000e+00 7.1042950623783341e+00 3.3193293679448033e+01 0 0 0
895 2 2.4610000000000003e+00 7.1042950623783341e+00 3.3193293679448033e+01 0 0 0
911 2 4.9220000000000006e+00 4.2625770374269978e+00 3.3193293679448033e+01 0 0 0
912 2 6.1524999999999999e+00 4.9730065436648339e+00 3.3193293679448033e+01 0 0 0
928 2 6.1524999999999999e+00 6.3938655561404980e+00 3.3193293679448033e+01 0 0 0
930 2 7.3829999999999991e+00 4.2625770374269996e+00 3.3193293679448033e+01 0 0 0
910 2 4.9220000000000006e+00 7.1042950623783341e+00 3.3193293679448033e+01 0 0 0
929 2 7.3830000000000009e+00 7.1042950623783341e+00 3.3193293679448033e+01 0 0 0
931 2 8.6135000000000002e+00 4.9730065436648339e+00 3.3193293679448033e+01 0 0 0
951 2 8.6135000000000002e+00 6.3938655561404980e+00 3.3193293679448033e+01 0 0 0
953 2 9.8440000000000012e+00 4.2625770374270004e+00 3.3193293679448033e+01 0 0 0
954 2 1.1074500000000002e+01 4.9730065436648339e+00 3.3193293679448033e+01 0 0 0
975 2 1.1074500000000002e+01 6.3938655561404980e+00 3.3193293679448033e+01 0 0 0
952 2 9.8440000000000012e+00 7.1042950623783341e+00 3.3193293679448033e+01 0 0 0
892 2 0.0000000000000000e+00 8.5251540748539991e+00 3.3193293679448033e+01 0 0 0
893 2 1.2305000000000001e+00 9.2355835810918343e+00 3.3193293679448033e+01 0 0 0
907 2 2.4610000000000003e+00 8.5251540748539991e+00 3.3193293679448033e+01 0 0 0
908 2 3.6915000000000004e+00 9.2355835810918343e+00 3.3193293679448033e+01 0 0 0
891 2 0.0000000000000000e+00 1.1366872099805333e+01 3.3193293679448033e+01 0 0 0
905 2 1.2305000000000001e+00 1.0656442593567498e+01 3.3193293679448033e+01 0 0 0
906 2 2.4610000000000003e+00 1.1366872099805333e+01 3.3193293679448033e+01 0 0 0
924 2 3.6914999999999996e+00 1.0656442593567499e+01 3.3193293679448033e+01 0 0 0
926 2 4.9220000000000006e+00 8.5251540748539991e+00 3.3193293679448033e+01 0 0 0
927 2 6.1524999999999999e+00 9.2355835810918343e+00 3.3193293679448033e+01 0 0 0
949 2 7.3830000000000009e+00 8.5251540748539991e+00 3.3193293679448033e+01 0 0 0
925 2 4.9220000000000006e+00 1.1366872099805333e+01 3.3193293679448033e+01 0 0 0
947 2 6.1524999999999999e+00 1.0656442593567499e+01 3.3193293679448033e+01 0 0 0
948 2 7.3829999999999991e+00 1.1366872099805333e+01 3.3193293679448033e+01 0 0 0
950 2 8.6134999999999984e+00 9.2355835810918343e+00 3.3193293679448033e+01 0 0 0
973 2 9.8440000000000012e+00 8.5251540748539956e+00 3.3193293679448033e+01 0 0 0
974 2 1.1074500000000002e+01 9.2355835810918343e+00 3.3193293679448033e+01 0 0 0
971 2 8.6134999999999984e+00 1.0656442593567498e+01 3.3193293679448033e+01 0 0 0
972 2 9.8440000000000012e+00 1.1366872099805333e+01 3.3193293679448033e+01 0 0 0
995 2 1.1074500000000002e+01 1.0656442593567498e+01 3.3193293679448033e+01 0 0 0
996 2 1.2304999999999998e+01 1.1366872099805333e+01 3.3193293679448033e+01 0 0 0