LAMMPS data file via write_data, version 16 Mar 2018, timestep = 8000000

6328 atoms
2 atom types

0.0000000000000000e+00 4.9219999999999999e+01 xlo xhi
0.0000000000000000e+00 4.9019635930410494e+01 ylo yhi
1.9671722270690246e+00 5.8094827772908964e+01 zlo zhi

Masses

1 18.015
2 12.01

Atoms # atomic

6292 1 1.0249647468340453e+00 3.3174042767888743e+00 5.3367222750971131e+00 1 2 0
6134 1 8.8340244244632482e-01 3.4436888041703582e+00 2.3928297986410851e+00 4 0 1
6239 1 1.1651425895315286e+01 1.4180145134361085e+01 5.6624326514358625e+00 4 4 0
4778 1 8.8184564397233487e+00 9.2752568769399069e-01 5.3744827297821729e+00 -1 1 0
5308 1 8.9529878336501181e+00 9.7107186386516975e-01 2.6425893635460316e+00 -3 0 1
5302 1 5.3413113014617837e+00 1.3641704957316755e+01 1.2587761152472490e+01 4 2 1
1575 1 2.1723607896824211e+00 7.6507201107136913e+00 2.3804857581553049e+00 1 2 0
1724 1 2.3594473576568542e+00 7.6112712106148326e+00 5.3316807248063931e+00 -2 1 0
2840 1 5.3909921434695516e+00 4.2857757652820396e+00 5.3935529989483069e+00 -2 -3 1
17 1 5.3537633821140025e+00 4.4726926382949674e+00 2.5693798570730864e+00 -4 1 0
4937 1 9.7395219681691305e+00 5.3328394712725586e+00 2.5093577038516841e+00 5 3 1
5148 1 9.7481434766077513e+00 5.3178682065190035e+00 5.2403819985927358e+00 -4 -1 0
4453 1 1.0996517323762829e+01 2.1649880943751054e-01 9.2636414856558886e+00 1 4 1
5265 1 3.2746279865472174e+00 1.1753044674763485e+01 2.7084527694161848e+00 2 -1 1
337 1 3.0754731936311646e+00 1.2042456140413936e+01 5.3676057648984195e+00 2 2 0
6030 1 6.5246499023208582e+00 8.6850376691910895e+00 5.5567316978029480e+00 -3 -2 1
3413 1 6.3412110670803852e+00 8.7401116105768040e+00 2.8721479577278726e+00 2 0 0
1299 1 1.0703437159722434e+01 9.6746449843583981e+00 2.7351417366626327e+00 -2 4 1
368 1 1.0758030567718949e+01 9.8099782068138506e+00 5.5538605828276300e+00 -3 -1 1
1686 1 9.1981177385968333e+00 1.4930384761653213e+01 1.2565651313518153e+01 0 -2 0
2094 1 7.6820180864899656e+00 1.2960468676461554e+01 5.7134641659506222e+00 4 1 0
6240 1 7.3442945034059752e+00 1.2841472000586867e+01 2.8638065079682495e+00 1 5 1
1484 1 1.5571194945620890e+00 6.3204550442404994e-01 1.2843077027864291e+01 1 -2 1
1328 1 1.1015422884553257e-02 1.5101224875478259e+01 5.5411414230754019e+00 2 5 1
2869 1 1.1703644853655637e+01 1.4257105794119246e+01 2.8869403982489534e+00 0 -3 1
3454 1 3.4838575720430307e+00 2.4754150461808200e+00 6.2093084399876162e+00 1 0 0
2119 1 3.7012994578477953e+00 2.2381803392159041e+00 9.0590187118960976e+00 5 -1 1
4615 1 7.9229337426507094e+00 3.3761506908723695e+00 8.7656394953111985e+00 2 0 0
2801 1 8.0433901526003755e+00 3.6211356375699828e+00 6.0339229894794117e+00 -1 3 0
1461 1 5.8087428012005549e-01 1.2725530545081936e+01 9.9196309612376012e+00 -3 -2 1
6111 1 1.0136760013772401e+00 1.2231603531807393e+01 1.2556187267163200e+01 0 1 1
413 1 8.3710552912539224e+00 1.0393004153337214e+01 1.2680652608550684e+01 5 0 0
3237 1 4.4088246325158265e+00 1.6327449929357993e+01 5.1950926260682255e+00 -1 -3 0
3566 1 4.5128868966197526e+00 6.6537748638299616e+00 6.2018516775486807e+00 2 -1 0
6323 1 4.5163134014079702e+00 6.8013274962582120e+00 9.0304737143260319e+00 5 -1 1
1656 1 8.9488922162557554e+00 7.5456478155246609e+00 6.3259396943381656e+00 0 0 1
3405 1 9.3801316459126536e+00 1.4715163304125157e+01 9.9431339286138538e+00 -2 -4 1
1665 1 5.3474233432507399e+00 1.3515685508012995e+01 1.0044167393254446e+01 0 -1 0
1290 1 1.3473185243447483e+00 1.0067026050345635e+01 5.9041528937933947e+00 3 5 1
3582 1 1.2477039847321483e+00 1.0353250271554433e+01 8.7062912290409429e+00 -1 0 1
5287 1 5.9378952611466556e+00 1.1025291414835285e+01 8.9657472277039645e+00 0 1 -1
2146 1 5.7391096024685924e+00 1.1200002445472627e+01 6.2742857473167284e+00 -3 2 0
1984 1 8.8523697690996244e+00 7.7141035187163656e+00 9.1948803139730160e+00 5 3 1
5246 1 2.7812618816797712e+00 1.4087083088503968e+01 9.0223770840496478e+00 5 -3 1
5104 1 2.5977434826750687e+00 1.4523594747623033e+01 5.9594539962093256e+00 6 1 0
156 1 6.9294192202687173e+00 1.5386754857371050e+01 9.1087022221798453e+00 3 -4 0
1645 1 6.9819473603084710e+00 1.5656042568495616e+01 6.3908075101153043e+00 1 2 1
1742 1 9.9944751241077050e+00 1.2183757349236773e+01 6.6731227254983772e+00 -2 -2 0
3056 1 1.0155931248285873e+01 1.2398657061503368e+01 9.3575068170529381e+00 0 2 1
42 1 4.9169149216301994e-01 5.9683607266211736e+00 6.2713348033146685e+00 1 -2 0
5011 1 1.6646771000449732e+00 5.7519024586376244e-01 1.0300504890688437e+01 -2 -3 1
4610 1 6.3973687193046764e+00 1.6103095430659939e+00 9.8404493052305781e+00 1 6 1
79 1 6.0388123763678081e+00 1.6067241283152833e+00 1.2588624635913833e+01 -1 0 1
1903 1 1.0237095253662822e+01 2.3997392888201134e+00 1.2890412084539143e+01 0 4 0
351 1 9.9210809650682084e+00 2.5765204503283772e+00 1.0101460836886883e+01 1 4 0
143 1 3.0609660451878145e+00 5.0673654316163734e+00 1.2449518049430194e+01 1 -1 0
3716 1 2.7118213166856266e+00 4.8384387292318243e+00 9.7617007540013425e+00 -2 2 1
4442 1 7.0198381281545910e+00 5.7983858074582972e+00 9.9267287540005587e+00 -3 2 1
81 1 7.4776600610124770e+00 6.0073044859948821e+00 1.2765085776560536e+01 0 -1 -1
5083 1 1.1672046647325862e+01 7.1266113290005251e+00 1.2586581052599216e+01 0 -6 0
170 1 1.1376303803000944e+01 6.7254254573507062e+00 9.8775491514420040e+00 0 0 0
4554 1 3.7622380998204892e+00 8.9335250998372313e+00 1.2386492433887646e+01 4 -1 1
1956 1 3.9187154752265476e+00 9.6789692437102417e+00 9.5654385446643815e+00 -6 5 0
4747 1 8.3708628794549416e+00 1.0314702916256994e+01 9.9744730251639258e+00 0 5 1
4666 1 1.8711791606346495e-01 5.9000502116675380e+00 9.0263855742917052e+00 0 -3 1
3552 1 1.2123535682536639e+01 4.5710942992017856e+00 6.2819785748682575e+00 0 0 1
127 1 1.2301537062357173e+01 4.1239699458238048e+00 9.3237439642800020e+00 -5 -4 1
4769 1 4.3157903808695748e+00 3.3274775768295288e-02 2.5398752937711282e+00 3 0 1
2990 1 4.2115136728545526e+00 1.6136827706671525e+01 2.5657735854734334e+00 0 -2 1
354 1 9.1784717666625664e+00 1.4758849369669583e+01 1.9720583344760598e+00 1 3 0
4891 1 3.2739355358738149e+00 2.3453672926358768e+00 1.6067978717672027e+01 0 -3 1
3244 1 1.1365192698354946e+01 1.9473266155824298e-01 1.3836712930610982e+01 -2 -2 0
4771 1 8.0276046151421152e+00 3.2282802662426651e+00 1.6607555872713277e+01 -3 0 1
1588 1 5.3428764360530945e-01 5.5920816054749345e+00 1.3542216863108825e+01 5 0 1
4792 1 9.7926004744986290e+00 5.5271231931968883e+00 2.4182158136702842e+01 0 1 0
3013 1 5.6835343088638117e+00 1.0978178351267662e+01 1.3340243302094269e+01 3 0 1
5177 1 5.6052195324461118e-01 5.8507134004722214e+00 1.6459676775981400e+01 2 1 0
383 1 4.8427360110489177e+00 6.6896249668055603e+00 1.6277695209106110e+01 -2 1 1
40 1 1.1422033484176918e+01 2.2090869640230712e-01 2.3439732587972468e+01 -2 1 1
2913 1 9.2291366397255814e+00 7.8707536573155084e+00 1.6083841963770780e+01 0 0 1
4447 1 4.2664594758320975e+00 7.8037681205792353e-02 2.0001261380989312e+01 1 -4 1
6147 1 1.1533818315467240e+01 2.8862131202216312e-01 2.0728037994046062e+01 -2 -2 1
1349 1 9.2424278628665810e+00 7.9495361771619848e+00 1.3427163303847960e+01 -2 -5 1
14 1 1.5558593407038463e+00 1.0142464346024411e+01 1.6403895611975429e+01 1 -1 1
5997 1 5.5996506181162697e+00 1.1276181042976200e+01 1.6361026406019242e+01 -1 -2 1
5112 1 3.9258306947835958e-01 1.5026739538358242e+01 1.9826054725928394e+01 -4 3 0
3542 1 2.6663409885250653e+00 1.4642635005453640e+01 1.6179855405286673e+01 5 3 0
6202 1 3.4094855515366209e+00 2.3702614767811427e+00 1.3306581320826158e+01 -1 0 0
2829 1 6.7799978566030497e+00 1.5710632568704053e+01 1.6255594820704772e+01 4 -2 1
6304 1 1.1010619908737770e+01 9.7074971297684254e+00 2.4334397193359951e+01 -1 -3 0
408 1 6.8481457842464977e+00 1.5849361188404483e+01 1.3376777474790606e+01 1 1 0
3326 1 3.6327477841230149e-01 1.5106817327996337e+01 1.7170030248450978e+01 -3 -1 0
5210 1 9.8321768155979310e+00 1.2617834474137105e+01 1.6236422631226823e+01 2 0 0
3030 1 1.2219474559971533e+00 3.3842414292624334e+00 1.7411925981711100e+01 -2 2 1
1283 1 1.3159146665794339e+00 3.0055669200920545e+00 2.0150005718823977e+01 2 -2 0
3383 1 5.4581105368840692e+00 4.3953895572829529e+00 1.9947956012769932e+01 -1 0 0
4812 1 8.0438395145136479e+00 3.5730656933742870e+00 2.0620775027959233e+01 4 -1 0
2110 1 8.4492434044630844e+00 5.3692269028280215e-01 1.7190112006681360e+01 2 -1 1
2034 1 9.0318207101067856e+00 7.7605236359842933e-01 1.9933393654749334e+01 -6 -1 0
1718 1 2.4778834998476644e+00 7.7837396023322096e+00 1.7185923592242020e+01 -2 1 1
3032 1 2.1526697790057678e+00 7.7917773856635026e+00 1.9919011730772475e+01 -3 1 1
4624 1 1.2120705985173927e+01 4.4501366074450841e+00 1.3528231030725733e+01 -2 1 0
6121 1 5.3508174711355148e+00 4.1689376133961478e+00 1.7119049997951336e+01 -1 0 1
4579 1 9.8626765296867571e+00 5.3163627902515262e+00 1.7072284115743045e+01 -1 1 0
6146 1 9.8015897546181510e+00 5.4392818828713354e+00 1.9806497320929466e+01 3 -5 1
3246 1 9.0882812906599852e+00 7.7854803122270697e+00 2.0712141218734594e+01 0 -1 1
3125 1 3.3124330063407017e+00 1.2197943176213595e+01 1.7318182959526119e+01 2 -4 1
3098 1 3.3137827777559279e+00 1.1855051273394935e+01 1.9948103129505988e+01 1 1 0
1976 1 6.7594201517835444e+00 8.7574962427447005e+00 1.6942471185371449e+01 -2 -1 0
3286 1 6.7574047808127009e+00 9.0321826049495790e+00 1.9571719377596974e+01 -1 2 0
4634 1 1.0622339168972863e+01 1.0106676063592857e+01 1.7119207121070858e+01 -1 -2 1
2847 1 1.0960715246058882e+01 9.6158398689962326e+00 1.9995214255853718e+01 2 3 1
1549 1 1.0334399387503341e+01 1.2306649944086073e+01 2.3401969874802457e+01 -5 2 1
1966 1 6.8442995913940035e+00 8.8689052713442749e+00 2.4214733979083462e+01 0 0 0
3085 1 7.3831193342763735e+00 1.3348731202034521e+01 1.7347968948415236e+01 -3 1 1
2973 1 7.8525339510824983e+00 1.3307148312176549e+01 1.9904728727131456e+01 2 1 1
1797 1 7.0359676623644445e+00 1.5659010402047119e+01 2.0669539398408229e+01 2 0 0
6116 1 6.1538232615333310e+00 1.1426357899203948e+01 2.0702114395311352e+01 2 1 0
1730 1 1.2267296622918455e+01 4.7813098955256983e+00 2.0846635881914167e+01 0 0 0
2822 1 3.8872414437538514e+00 2.3895027331223369e+00 2.1228954256142295e+01 5 -3 0
4445 1 3.6055080594675126e+00 2.6644256334311498e+00 2.4058435641882362e+01 -2 1 1
2118 1 6.0210374276388212e-01 5.6174937170983146e+00 2.0938184611004683e+01 -1 1 0
2077 1 8.2652947398064978e+00 3.4975359178856915e+00 2.3347097449244135e+01 -2 0 -1
433 1 2.5966113688821832e+00 1.4384073169251003e+01 2.3426493098424238e+01 3 -2 1
4577 1 6.7914288560665357e+00 1.5304785213818105e+01 2.3340312635538226e+01 -3 2 1
3416 1 1.1683834057291071e+01 1.4381399919487624e+01 1.9781655912974774e+01 -3 6 0
1502 1 1.0054637122217674e+01 1.2272436062898263e+01 2.0498048922541525e+01 -3 -1 0
1490 1 2.7853949521880321e+00 1.4274172334158864e+01 1.3431539589670644e+01 -3 -4 1
1996 1 5.9263502410525177e+00 1.1532711143435870e+01 2.3330634302558071e+01 -1 3 0
521 1 4.7731727428776480e+00 7.1916267173149393e+00 2.0802062211227501e+01 -1 0 1
293 1 4.8304863225205343e+00 7.0047397475104134e+00 2.3523763035198705e+01 3 -1 0
4438 1 2.7366080511771420e+00 1.4489511812338041e+01 2.0733205611684362e+01 -1 2 1
1836 1 9.2843024958923284e+00 8.0491794381848152e+00 2.3449716791075019e+01 2 -1 0
5140 1 1.3005881812241240e+00 1.0216824003984923e+01 2.0861747746517779e+01 1 5 1
3425 1 1.4991727786850471e+00 1.0171283054760583e+01 2.3599997702878238e+01 -1 -4 0
5319 1 1.2094673292232843e+01 4.3908425991928377e+00 2.3463349157670432e+01 -3 2 1
4555 1 1.6385004392334657e+00 9.8008607420777469e+00 1.3759510278306731e+01 1 -4 0
1462 1 4.8684410226256674e+00 6.5946963026391998e+00 1.3570425790535115e+01 -3 -1 1
405 1 1.6557668139473825e-01 5.5768036875892530e+00 2.3626942704694393e+01 1 5 0
1498 1 1.0160079996767230e+01 1.2408954364045295e+01 1.3460879206271228e+01 -3 -1 1
4966 1 4.3511639330515912e+00 1.6268259330911302e+01 1.7431285321334322e+01 0 1 1
246 1 8.8438671871723962e+00 9.9009985099788367e-01 2.4277835014776400e+01 3 1 0
6317 1 1.1615998072187699e+01 1.4310811806007131e+01 1.7290307579298460e+01 1 1 1
3187 1 2.0453770265646543e+00 7.5785356748201043e+00 2.4194995503615900e+01 0 4 0
4682 1 1.2188323820754283e+01 1.4302691490990762e+01 2.4003836914952807e+01 3 2 0
5173 1 1.2547101035251279e-01 1.5334546858545295e+01 2.4310798721436605e+01 -1 1 -1
3280 1 7.8116814300680399e+00 3.4607361280690463e+00 1.3998018236846322e+01 3 -1 0
3079 1 4.6716094505196004e+00 1.6185820976672609e+01 1.9912435595750161e+01 3 -1 0
6291 1 5.6660509038845159e+00 4.4852362773990651e+00 2.4048691605492575e+01 1 0 1
3003 1 7.8238128051739375e+00 1.2942402475470521e+01 2.4280788870757810e+01 -1 3 0
552 2 0.0000000000000000e+00 2.8417180249513345e+00 2.6681573520012932e+01 0 0 0
554 2 0.0000000000000000e+00 0.0000000000000000e+00 2.6681573520012932e+01 0 0 0
556 2 1.2305000000000001e+00 7.1042950623783474e-01 2.6681573520012932e+01 0 0 0
563 2 1.2305000000000001e+00 2.1312885187134998e+00 2.6681573520012932e+01 0 0 0
565 2 2.4610000000000003e+00 2.8417180249513345e+00 2.6681573520012932e+01 0 0 0
567 2 2.4610000000000003e+00 0.0000000000000000e+00 2.6681573520012932e+01 0 0 0
569 2 3.6915000000000004e+00 7.1042950623783474e-01 2.6681573520012932e+01 0 0 0
584 2 3.6914999999999996e+00 2.1312885187134998e+00 2.6681573520012932e+01 0 0 0
586 2 4.9220000000000006e+00 2.8417180249513332e+00 2.6681573520012932e+01 0 0 0
588 2 4.9220000000000006e+00 0.0000000000000000e+00 2.6681573520012932e+01 0 0 0
590 2 6.1524999999999999e+00 7.1042950623783407e-01 2.6681573520012932e+01 0 0 0
613 2 6.1524999999999999e+00 2.1312885187134989e+00 2.6681573520012932e+01 0 0 0
615 2 7.3829999999999991e+00 2.8417180249513345e+00 2.6681573520012932e+01 0 0 0
617 2 7.3829999999999991e+00 0.0000000000000000e+00 2.6681573520012932e+01 0 0 0
619 2 8.6134999999999984e+00 7.1042950623783407e-01 2.6681573520012932e+01 0 0 0
650 2 8.6134999999999984e+00 2.1312885187135002e+00 2.6681573520012932e+01 0 0 0
652 2 9.8440000000000012e+00 2.8417180249513332e+00 2.6681573520012932e+01 0 0 0
654 2 9.8440000000000012e+00 0.0000000000000000e+00 2.6681573520012932e+01 0 0 0
656 2 1.1074500000000002e+01 7.1042950623783330e-01 2.6681573520012932e+01 0 0 0
695 2 1.1074500000000002e+01 2.1312885187135002e+00 2.6681573520012932e+01 0 0 0
559 2 0.0000000000000000e+00 4.2625770374269996e+00 2.6681573520012932e+01 0 0 0
561 2 1.2305000000000001e+00 4.9730065436648339e+00 2.6681573520012932e+01 0 0 0
576 2 1.2305000000000001e+00 6.3938655561404980e+00 2.6681573520012932e+01 0 0 0
580 2 2.4610000000000003e+00 4.2625770374269996e+00 2.6681573520012932e+01 0 0 0
582 2 3.6914999999999996e+00 4.9730065436648339e+00 2.6681573520012932e+01 0 0 0
605 2 3.6914999999999996e+00 6.3938655561404980e+00 2.6681573520012932e+01 0 0 0
557 2 0.0000000000000000e+00 7.1042950623783341e+00 2.6681573520012932e+01 0 0 0
578 2 2.4610000000000003e+00 7.1042950623783341e+00 2.6681573520012932e+01 0 0 0
609 2 4.9220000000000006e+00 4.2625770374269978e+00 2.6681573520012932e+01 0 0 0
611 2 6.1524999999999999e+00 4.9730065436648339e+00 2.6681573520012932e+01 0 0 0
642 2 6.1524999999999999e+00 6.3938655561404980e+00 2.6681573520012932e+01 0 0 0
646 2 7.3829999999999991e+00 4.2625770374269996e+00 2.6681573520012932e+01 0 0 0
607 2 4.9220000000000006e+00 7.1042950623783341e+00 2.6681573520012932e+01 0 0 0
644 2 7.3830000000000009e+00 7.1042950623783341e+00 2.6681573520012932e+01 0 0 0
648 2 8.6135000000000002e+00 4.9730065436648339e+00 2.6681573520012932e+01 0 0 0
687 2 8.6135000000000002e+00 6.3938655561404980e+00 2.6681573520012932e+01 0 0 0
691 2 9.8440000000000012e+00 4.2625770374270004e+00 2.6681573520012932e+01 0 0 0
693 2 1.1074500000000002e+01 4.9730065436648339e+00 2.6681573520012932e+01 0 0 0
734 2 1.1074500000000002e+01 6.3938655561404980e+00 2.6681573520012932e+01 0 0 0
689 2 9.8440000000000012e+00 7.1042950623783341e+00 2.6681573520012932e+01 0 0 0
572 2 0.0000000000000000e+00 8.5251540748539991e+00 2.6681573520012932e+01 0 0 0
574 2 1.2305000000000001e+00 9.2355835810918343e+00 2.6681573520012932e+01 0 0 0
601 2 2.4610000000000003e+00 8.5251540748539991e+00 2.6681573520012932e+01 0 0 0
603 2 3.6915000000000004e+00 9.2355835810918343e+00 2.6681573520012932e+01 0 0 0
570 2 0.0000000000000000e+00 1.1366872099805333e+01 2.6681573520012932e+01 0 0 0
597 2 1.2305000000000001e+00 1.0656442593567498e+01 2.6681573520012932e+01 0 0 0
599 2 2.4610000000000003e+00 1.1366872099805333e+01 2.6681573520012932e+01 0 0 0
634 2 3.6914999999999996e+00 1.0656442593567499e+01 2.6681573520012932e+01 0 0 0
638 2 4.9220000000000006e+00 8.5251540748539991e+00 2.6681573520012932e+01 0 0 0
640 2 6.1524999999999999e+00 9.2355835810918343e+00 2.6681573520012932e+01 0 0 0
683 2 7.3830000000000009e+00 8.5251540748539991e+00 2.6681573520012932e+01 0 0 0
636 2 4.9220000000000006e+00 1.1366872099805333e+01 2.6681573520012932e+01 0 0 0
679 2 6.1524999999999999e+00 1.0656442593567499e+01 2.6681573520012932e+01 0 0 0
681 2 7.3829999999999991e+00 1.1366872099805333e+01 2.6681573520012932e+01 0 0 0
685 2 8.6134999999999984e+00 9.2355835810918343e+00 2.6681573520012932e+01 0 0 0
730 2 9.8440000000000012e+00 8.5251540748539956e+00 2.6681573520012932e+01 0 0 0
732 2 1.1074500000000002e+01 9.2355835810918343e+00 2.6681573520012932e+01 0 0 0
726 2 8.6134999999999984e+00 1.0656442593567498e+01 2.6681573520012932e+01 0 0 0
728 2 9.8440000000000012e+00 1.1366872099805333e+01 2.6681573520012932e+01 0 0 0
773 2 1.1074500000000002e+01 1.0656442593567498e+01 2.6681573520012932e+01 0 0 0
775 2 1.2304999999999998e+01 1.1366872099805333e+01 2.6681573520012932e+01 0 0 0
593 2 0.0000000000000000e+00 1.2787731112280996e+01 2.6681573520012932e+01 0 0 0
595 2 1.2305000000000001e+00 1.3498160618518829e+01 2.6681573520012932e+01 0 0 0
630 2 2.4610000000000003e+00 1.2787731112280996e+01 2.6681573520012932e+01 0 0 0
632 2 3.6915000000000004e+00 1.3498160618518829e+01 2.6681573520012932e+01 0 0 0
591 2 0.0000000000000000e+00 1.5629449137232333e+01 2.6681573520012932e+01 0 0 0
626 2 1.2305000000000001e+00 1.4919019630994494e+01 2.6681573520012932e+01 0 0 0
628 2 2.4610000000000003e+00 1.5629449137232328e+01 2.6681573520012932e+01 0 0 0
671 2 3.6915000000000004e+00 1.4919019630994494e+01 2.6681573520012932e+01 0 0 0
675 2 4.9220000000000006e+00 1.2787731112280996e+01 2.6681573520012932e+01 0 0 0
677 2 6.1524999999999990e+00 1.3498160618518829e+01 2.6681573520012932e+01 0 0 0
722 2 7.3829999999999991e+00 1.2787731112280996e+01 2.6681573520012932e+01 0 0 0
673 2 4.9220000000000006e+00 1.5629449137232333e+01 2.6681573520012932e+01 0 0 0
718 2 6.1524999999999990e+00 1.4919019630994494e+01 2.6681573520012932e+01 0 0 0
720 2 7.3829999999999991e+00 1.5629449137232333e+01 2.6681573520012932e+01 0 0 0
724 2 8.6135000000000002e+00 1.3498160618518835e+01 2.6681573520012932e+01 0 0 0
769 2 9.8440000000000012e+00 1.2787731112280996e+01 2.6681573520012932e+01 0 0 0
771 2 1.1074500000000002e+01 1.3498160618518829e+01 2.6681573520012932e+01 0 0 0
765 2 8.6135000000000002e+00 1.4919019630994494e+01 2.6681573520012932e+01 0 0 0
767 2 9.8440000000000012e+00 1.5629449137232328e+01 2.6681573520012932e+01 0 0 0
807 2 1.1074500000000002e+01 1.4919019630994494e+01 2.6681573520012932e+01 0 0 0
553 2 0.0000000000000000e+00 1.4208590124756650e+00 3.0030999999989088e+01 0 0 0
555 2 0.0000000000000000e+00 0.0000000000000000e+00 3.0030999999989088e+01 0 0 0
564 2 1.2305000000000001e+00 2.1312885187134998e+00 3.0030999999989088e+01 0 0 0
566 2 2.4610000000000003e+00 1.4208590124756650e+00 3.0030999999989088e+01 0 0 0
568 2 2.4610000000000003e+00 0.0000000000000000e+00 3.0030999999989088e+01 0 0 0
585 2 3.6914999999999996e+00 2.1312885187134998e+00 3.0030999999989088e+01 0 0 0
562 2 1.2305000000000001e+00 3.5521475311891644e+00 3.0030999999989088e+01 0 0 0
583 2 3.6914999999999996e+00 3.5521475311891644e+00 3.0030999999989088e+01 0 0 0
587 2 4.9220000000000006e+00 1.4208590124756650e+00 3.0030999999989088e+01 0 0 0
589 2 4.9220000000000006e+00 0.0000000000000000e+00 3.0030999999989088e+01 0 0 0
614 2 6.1524999999999999e+00 2.1312885187134989e+00 3.0030999999989088e+01 0 0 0
616 2 7.3829999999999991e+00 1.4208590124756659e+00 3.0030999999989088e+01 0 0 0
618 2 7.3829999999999991e+00 0.0000000000000000e+00 3.0030999999989088e+01 0 0 0
612 2 6.1524999999999999e+00 3.5521475311891644e+00 3.0030999999989088e+01 0 0 0
651 2 8.6134999999999984e+00 2.1312885187135002e+00 3.0030999999989088e+01 0 0 0
653 2 9.8440000000000012e+00 1.4208590124756659e+00 3.0030999999989088e+01 0 0 0
655 2 9.8440000000000012e+00 0.0000000000000000e+00 3.0030999999989088e+01 0 0 0
696 2 1.1074500000000002e+01 2.1312885187135002e+00 3.0030999999989088e+01 0 0 0
649 2 8.6134999999999984e+00 3.5521475311891657e+00 3.0030999999989088e+01 0 0 0
694 2 1.1074500000000002e+01 3.5521475311891644e+00 3.0030999999989088e+01 0 0 0
558 2 0.0000000000000000e+00 5.6834360499026637e+00 3.0030999999989088e+01 0 0 0
560 2 0.0000000000000000e+00 4.2625770374269996e+00 3.0030999999989088e+01 0 0 0
577 2 1.2305000000000001e+00 6.3938655561404980e+00 3.0030999999989088e+01 0 0 0
579 2 2.4610000000000003e+00 5.6834360499026637e+00 3.0030999999989088e+01 0 0 0
581 2 2.4610000000000003e+00 4.2625770374269996e+00 3.0030999999989088e+01 0 0 0
606 2 3.6914999999999996e+00 6.3938655561404980e+00 3.0030999999989088e+01 0 0 0
575 2 1.2305000000000001e+00 7.8147245686161639e+00 3.0030999999989088e+01 0 0 0
604 2 3.6914999999999996e+00 7.8147245686161639e+00 3.0030999999989088e+01 0 0 0
608 2 4.9220000000000006e+00 5.6834360499026637e+00 3.0030999999989088e+01 0 0 0
610 2 4.9220000000000006e+00 4.2625770374269978e+00 3.0030999999989088e+01 0 0 0
643 2 6.1524999999999999e+00 6.3938655561404980e+00 3.0030999999989088e+01 0 0 0
645 2 7.3829999999999991e+00 5.6834360499026637e+00 3.0030999999989088e+01 0 0 0
647 2 7.3829999999999991e+00 4.2625770374269996e+00 3.0030999999989088e+01 0 0 0
641 2 6.1524999999999999e+00 7.8147245686161639e+00 3.0030999999989088e+01 0 0 0
688 2 8.6135000000000002e+00 6.3938655561404980e+00 3.0030999999989088e+01 0 0 0
690 2 9.8440000000000012e+00 5.6834360499026637e+00 3.0030999999989088e+01 0 0 0
692 2 9.8440000000000012e+00 4.2625770374270004e+00 3.0030999999989088e+01 0 0 0
735 2 1.1074500000000002e+01 6.3938655561404980e+00 3.0030999999989088e+01 0 0 0
686 2 8.6135000000000002e+00 7.8147245686161639e+00 3.0030999999989088e+01 0 0 0
733 2 1.1074500000000002e+01 7.8147245686161639e+00 3.0030999999989088e+01 0 0 0
571 2 0.0000000000000000e+00 9.9460130873296642e+00 3.0030999999989088e+01 0 0 0
573 2 0.0000000000000000e+00 8.5251540748539991e+00 3.0030999999989088e+01 0 0 0
600 2 2.4610000000000003e+00 9.9460130873296642e+00 3.0030999999989088e+01 0 0 0
602 2 2.4610000000000003e+00 8.5251540748539991e+00 3.0030999999989088e+01 0 0 0
596 2 1.2305000000000001e+00 1.2077301606043163e+01 3.0030999999989088e+01 0 0 0
598 2 1.2305000000000001e+00 1.0656442593567498e+01 3.0030999999989088e+01 0 0 0
633 2 3.6914999999999996e+00 1.2077301606043163e+01 3.0030999999989088e+01 0 0 0
635 2 3.6914999999999996e+00 1.0656442593567499e+01 3.0030999999989088e+01 0 0 0
637 2 4.9220000000000006e+00 9.9460130873296642e+00 3.0030999999989088e+01 0 0 0
639 2 4.9220000000000006e+00 8.5251540748539991e+00 3.0030999999989088e+01 0 0 0
682 2 7.3830000000000009e+00 9.9460130873296642e+00 3.0030999999989088e+01 0 0 0
684 2 7.3830000000000009e+00 8.5251540748539991e+00 3.0030999999989088e+01 0 0 0
678 2 6.1524999999999999e+00 1.2077301606043163e+01 3.0030999999989088e+01 0 0 0
680 2 6.1524999999999999e+00 1.0656442593567499e+01 3.0030999999989088e+01 0 0 0
729 2 9.8440000000000012e+00 9.9460130873296642e+00 3.0030999999989088e+01 0 0 0
731 2 9.8440000000000012e+00 8.5251540748539956e+00 3.0030999999989088e+01 0 0 0
725 2 8.6135000000000002e+00 1.2077301606043163e+01 3.0030999999989088e+01 0 0 0
727 2 8.6134999999999984e+00 1.0656442593567498e+01 3.0030999999989088e+01 0 0 0
772 2 1.1074500000000002e+01 1.2077301606043163e+01 3.0030999999989088e+01 0 0 0
774 2 1.1074500000000002e+01 1.0656442593567498e+01 3.0030999999989088e+01 0 0 0
594 2 0.0000000000000000e+00 1.2787731112280996e+01 3.0030999999989088e+01 0 0 0
631 2 2.4610000000000003e+00 1.2787731112280996e+01 3.0030999999989088e+01 0 0 0
592 2 0.0000000000000000e+00 1.4208590124756663e+01 3.0030999999989088e+01 0 0 0
627 2 1.2305000000000001e+00 1.4919019630994494e+01 3.0030999999989088e+01 0 0 0
629 2 2.4610000000000003e+00 1.4208590124756663e+01 3.0030999999989088e+01 0 0 0
672 2 3.6915000000000004e+00 1.4919019630994494e+01 3.0030999999989088e+01 0 0 0
676 2 4.9220000000000006e+00 1.2787731112280996e+01 3.0030999999989088e+01 0 0 0
723 2 7.3829999999999991e+00 1.2787731112280996e+01 3.0030999999989088e+01 0 0 0
674 2 4.9220000000000006e+00 1.4208590124756663e+01 3.0030999999989088e+01 0 0 0
719 2 6.1524999999999990e+00 1.4919019630994494e+01 3.0030999999989088e+01 0 0 0
721 2 7.3830000000000009e+00 1.4208590124756663e+01 3.0030999999989088e+01 0 0 0
770 2 9.8440000000000012e+00 1.2787731112280996e+01 3.0030999999989088e+01 0 0 0
766 2 8.6135000000000002e+00 1.4919019630994494e+01 3.0030999999989088e+01 0 0 0
768 2 9.8440000000000012e+00 1.4208590124756663e+01 3.0030999999989088e+01 0 0 0
806 2 1.1074500000000002e+01 1.6339878643470161e+01 3.0030999999989088e+01 0 0 0
808 2 1.1074500000000002e+01 1.4919019630994494e+01 3.0030999999989088e+01 0 0 0
810 2 1.2304999999999998e+01 1.4208590124756658e+01 3.0030999999989088e+01 0 0 0
881 2 0.0000000000000000e+00 2.8417180249513345e+00 3.3380426479970112e+01 0 0 0
882 2 0.0000000000000000e+00 0.0000000000000000e+00 3.3380426479970112e+01 0 0 0
883 2 1.2305000000000001e+00 7.1042950623783474e-01 3.3380426479970112e+01 0 0 0
887 2 1.2305000000000001e+00 2.1312885187134998e+00 3.3380426479970112e+01 0 0 0
888 2 2.4610000000000003e+00 2.8417180249513345e+00 3.3380426479970112e+01 0 0 0
889 2 2.4610000000000003e+00 0.0000000000000000e+00 3.3380426479970112e+01 0 0 0
890 2 3.6915000000000004e+00 7.1042950623783474e-01 3.3380426479970112e+01 0 0 0
898 2 3.6914999999999996e+00 2.1312885187134998e+00 3.3380426479970112e+01 0 0 0
899 2 4.9220000000000006e+00 2.8417180249513332e+00 3.3380426479970112e+01 0 0 0
900 2 4.9220000000000006e+00 0.0000000000000000e+00 3.3380426479970112e+01 0 0 0
901 2 6.1524999999999999e+00 7.1042950623783407e-01 3.3380426479970112e+01 0 0 0
913 2 6.1524999999999999e+00 2.1312885187134989e+00 3.3380426479970112e+01 0 0 0
914 2 7.3829999999999991e+00 2.8417180249513345e+00 3.3380426479970112e+01 0 0 0
915 2 7.3829999999999991e+00 0.0000000000000000e+00 3.3380426479970112e+01 0 0 0
916 2 8.6134999999999984e+00 7.1042950623783407e-01 3.3380426479970112e+01 0 0 0
932 2 8.6134999999999984e+00 2.1312885187135002e+00 3.3380426479970112e+01 0 0 0
933 2 9.8440000000000012e+00 2.8417180249513332e+00 3.3380426479970112e+01 0 0 0
934 2 9.8440000000000012e+00 0.0000000000000000e+00 3.3380426479970112e+01 0 0 0
935 2 1.1074500000000002e+01 7.1042950623783330e-01 3.3380426479970112e+01 0 0 0
955 2 1.1074500000000002e+01 2.1312885187135002e+00 3.3380426479970112e+01 0 0 0
885 2 0.0000000000000000e+00 4.2625770374269996e+00 3.3380426479970112e+01 0 0 0
886 2 1.2305000000000001e+00 4.9730065436648339e+00 3.3380426479970112e+01 0 0 0
894 2 1.2305000000000001e+00 6.3938655561404980e+00 3.3380426479970112e+01 0 0 0
896 2 2.4610000000000003e+00 4.2625770374269996e+00 3.3380426479970112e+01 0 0 0
897 2 3.6914999999999996e+00 4.9730065436648339e+00 3.3380426479970112e+01 0 0 0
909 2 3.6914999999999996e+00 6.3938655561404980e+00 3.3380426479970112e+01 0 0 0
884 2 0.0000000000000000e+00 7.1042950623783341e+00 3.3380426479970112e+01 0 0 0
895 2 2.4610000000000003e+00 7.1042950623783341e+00 3.3380426479970112e+01 0 0 0
911 2 4.9220000000000006e+00 4.2625770374269978e+00 3.3380426479970112e+01 0 0 0
912 2 6.1524999999999999e+00 4.9730065436648339e+00 3.3380426479970112e+01 0 0 0
928 2 6.1524999999999999e+00 6.3938655561404980e+00 3.3380426479970112e+01 0 0 0
930 2 7.3829999999999991e+00 4.2625770374269996e+00 3.3380426479970112e+01 0 0 0
910 2 4.9220000000000006e+00 7.1042950623783341e+00 3.3380426479970112e+01 0 0 0
929 2 7.3830000000000009e+00 7.1042950623783341e+00 3.3380426479970112e+01 0 0 0
931 2 8.6135000000000002e+00 4.9730065436648339e+00 3.3380426479970112e+01 0 0 0
951 2 8.6135000000000002e+00 6.3938655561404980e+00 3.3380426479970112e+01 0 0 0
953 2 9.8440000000000012e+00 4.2625770374270004e+00 3.3380426479970112e+01 0 0 0
954 2 1.1074500000000002e+01 4.9730065436648339e+00 3.3380426479970112e+01 0 0 0
975 2 1.1074500000000002e+01 6.3938655561404980e+00 3.3380426479970112e+01 0 0 0
952 2 9.8440000000000012e+00 7.1042950623783341e+00 3.3380426479970112e+01 0 0 0
892 2 0.0000000000000000e+00 8.5251540748539991e+00 3.3380426479970112e+01 0 0 0
893 2 1.2305000000000001e+00 9.2355835810918343e+00 3.3380426479970112e+01 0 0 0
907 2 2.4610000000000003e+00 8.5251540748539991e+00 3.3380426479970112e+01 0 0 0
908 2 3.6915000000000004e+00 9.2355835810918343e+00 3.3380426479970112e+01 0 0 0
891 2 0.0000000000000000e+00 1.1366872099805333e+01 3.3380426479970112e+01 0 0 0
905 2 1.2305000000000001e+00 1.0656442593567498e+01 3.3380426479970112e+01 0 0 0
906 2 2.4610000000000003e+00 1.1366872099805333e+01 3.3380426479970112e+01 0 0 0
924 2 3.6914999999999996e+00 1.0656442593567499e+01 3.3380426479970112e+01 0 0 0
926 2 4.9220000000000006e+00 8.5251540748539991e+00 3.3380426479970112e+01 0 0 0
927 2 6.1524999999999999e+00 9.2355835810918343e+00 3.3380426479970112e+01 0 0 0
949 2 7.3830000000000009e+00 8.5251540748539991e+00 3.3380426479970112e+01 0 0 0
925 2 4.9220000000000006e+00 1.1366872099805333e+01 3.3380426479970112e+01 0 0 0
947 2 6.1524999999999999e+00 1.0656442593567499e+01 3.3380426479970112e+01 0 0 0
948 2 7.3829999999999991e+00 1.1366872099805333e+01 3.3380426479970112e+01 0 0 0
992 2 9.8440000000000012e+00 1.5629449137232328e+01 3.3380426479970112e+01 0 0 0