
# Create simulation box and atoms

read_data data.ML_graphite_1atm_240K
  orthogonal box = (0 0 3.54202) to (49.22 49.0196 56.52)
  4 by 3 by 5 MPI processor grid
  reading atoms ...
  6328 atoms
  reading velocities ...
  6328 velocities
group water type 1
3568 atoms in group water
group graphite type 2
2760 atoms in group graphite

# Define potential

pair_style sw
pair_coeff * * MLC_e.sw mW C


# Fix graphite atoms in place

fix 5 graphite setforce 0.0 0.0 0.0
velocity graphite set 0.0 0.0 0.0


# Equilibration of molecular water

# Add velocity/set timestep

velocity	    water create ${TEMP} ${SEED} rot yes dist gaussian
velocity	    water create 240 ${SEED} rot yes dist gaussian
velocity	    water create 240 19569 rot yes dist gaussian
timestep	    5.0

# Define output

compute			1 water msd
compute			3 water temp
thermo	    	50
thermo_style	custom step temp press vol etotal ke pe c_1[4] c_3

# Neighbor lists

neigh_modify    delay 0 every 1 check yes

# Set fixes

fix             1 water momentum 10 linear 1 1 1 rescale
fix             2 water nve
fix             3 water temp/csvr ${TEMP} ${TEMP} 500.0 ${SEED}
fix             3 water temp/csvr 240 ${TEMP} 500.0 ${SEED}
fix             3 water temp/csvr 240 240 500.0 ${SEED}
fix             3 water temp/csvr 240 240 500.0 19569
fix             4 water press/berendsen z ${PRES} ${PRES} 1000.0 modulus 20000
fix             4 water press/berendsen z 1 ${PRES} 1000.0 modulus 20000
fix             4 water press/berendsen z 1 1 1000.0 modulus 20000

# Run 0.5 ns equilibration

dump		    1 all atom 2000 ${DIR}/eq.${NAME}-${TEMP}.dump
dump		    1 all atom 2000 run_4/eq.${NAME}-${TEMP}.dump
dump		    1 all atom 2000 run_4/eq.het_freeze_4-${TEMP}.dump
dump		    1 all atom 2000 run_4/eq.het_freeze_4-240.dump

reset_timestep  0

run	            100000
Neighbor list info ...
  update every 1 steps, delay 0 steps, check yes
  max neighbors/atom: 2000, page size: 100000
  master list distance cutoff = 6.67472
  ghost atom cutoff = 6.67472
  binsize = 3.33736, bins = 15 15 16
  1 neighbor lists, perpetual/occasional/extra = 1 0 0
  (1) pair sw, perpetual
      attributes: full, newton on
      pair build: full/bin/atomonly
      stencil: full/bin/3d
      bin: standard
Per MPI rank memory allocation (min/avg/max) = 4.076 | 4.18 | 4.498 Mbytes
Step Temp Press Volume TotEng KinEng PotEng c_1[4] c_3 
       0    135.30583    -313.6114    127822.38   -33814.648    2551.8119    -36366.46            0          240 
      50    134.69239   -336.78816     127840.6   -33868.249    2540.2426   -36408.492   0.49379444     238.9119 
     100    136.31301   -180.45005    127808.06   -33820.356    2570.8069   -36391.163   0.82729397     241.7865 
     150    137.42124   -274.58403     127820.7   -33869.192    2591.7076     -36460.9     1.087166    243.75223 
     200    134.32304      190.199    127908.99   -33869.618    2533.2768   -36402.895    1.3337454    238.25676 
     250    132.99791    -109.9673    128003.86   -33904.738    2508.2853   -36413.023    1.5915922    235.90629 
     300    134.68788   -151.89997    128096.26   -33858.566    2540.1575   -36398.723     1.778457     238.9039 
     350    134.53722   -79.774083       128109    -33853.35    2537.3162   -36390.666    1.9607233    238.63667 
     400    136.28461    6.2698793       128198   -33796.733    2570.2713   -36367.005    2.1567273    241.73612 
     450    134.52974   -242.79071    128292.29   -33827.651    2537.1751   -36364.826    2.4385465     238.6234 
     500    135.21163   -460.93763    128273.14   -33851.046    2550.0352   -36401.081    2.6161278     239.8329 
     550    135.69199   -320.18335    128202.22   -33876.813    2559.0946   -36435.908    2.7773887    240.68495 
     600    134.32533   -404.12378    128177.51   -33896.205    2533.3199   -36429.525    3.0190373    238.26082 
     650    134.07458   -279.93618    128067.62   -33901.828    2528.5909   -36430.419    3.1786024    237.81605 
     700    134.76994   -425.45349    128010.79   -33898.615    2541.7051    -36440.32    3.3177093    239.04945 
     750    135.69365   -298.30942    127974.63   -33925.406    2559.1259   -36484.532    3.5485167    240.68789 
     800    132.83104   -438.39818    128026.34   -33964.165    2505.1383   -36469.303    3.7543037    235.61032 
     850     134.4769   -469.94865    127921.02   -33904.355    2536.1786   -36440.534     4.005089    238.52968 
     900    135.14557   -392.52334    127889.69   -33851.695    2548.7894   -36400.484    4.1835579    239.71573 
     950    135.91316   -130.57665     127901.5   -33829.829    2563.2658   -36393.095    4.4760196    241.07726 
    1000    135.32338   -14.765308     128002.1   -33845.343    2552.1428   -36397.486    4.7779384    240.03113 
    1050    136.52868   -122.41879    128030.45   -33809.835    2574.8743   -36384.709    4.9550099    242.16904 
    1100    136.23983    -238.7906    128015.62   -33815.668    2569.4266   -36385.095    5.1307032    241.65668 
    1150    135.61455   -104.57503    128048.78   -33857.042    2557.6341   -36414.676    5.3638972    240.54759 
    1200    136.65139   -470.34639    128000.88   -33893.596    2577.1886   -36470.784    5.5889002     242.3867 
    1250    134.21996   -439.06968    127899.77   -33917.352    2531.3328   -36448.685    5.7930349    238.07392 
    1300    130.34158   -322.04387    127991.63   -33936.903    2458.1881   -36395.091    5.9634029    231.19461 
    1350    137.33274   -290.30062    128039.04   -33921.485    2590.0385   -36511.523    6.1081163    243.59525 
    1400    135.35976   -98.261793    128081.35   -33954.798    2552.8289   -36507.627    6.3585106    240.09565 
    1450    133.50364    -463.4035     128028.2   -33968.186    2517.8232   -36486.009    6.6107585    236.80334 
    1500    133.72204   -157.25545    128081.74   -33953.315    2521.9423   -36475.258    6.6819554    237.19074 
    1550    134.43925   -425.17355    128066.04   -33972.852    2535.4686   -36508.321    6.7404647     238.4629 
    1600    134.10309    104.66128    128022.65   -33935.634    2529.1286   -36464.763    6.9313954    237.86662 
    1650    133.01764   -180.30914    128019.97   -33946.574    2508.6576   -36455.231     7.281342     235.9413 
    1700    132.86915   -199.52443    128032.88   -33972.366     2505.857   -36478.223     7.524665    235.67791 
    1750    135.89508   -35.277414    128021.69   -33933.892    2562.9249   -36496.817    7.7245338    241.04519 
    1800    133.28307   -71.785514    127985.93   -33947.394    2513.6634   -36461.057    7.9204901    236.41211 
    1850     133.0836   -40.721964    127993.82   -33957.775    2509.9016   -36467.676    8.0343659     236.0583 
    1900    133.02546   -227.76365    127973.16   -33976.305    2508.8051    -36485.11    8.1932377    235.95518 
    1950     134.1035   -222.53303    128015.13   -33993.432    2529.1363   -36522.569    8.3333856    237.86734 
    2000    135.12355   -257.83141    128033.94   -33932.718    2548.3742   -36481.092    8.4699055    239.67668 
    2050    134.14251   -52.693361    128072.73   -33901.601    2529.8721   -36431.473    8.5431743    237.93655 
    2100    136.32948   -218.35813    128175.38   -33861.736    2571.1174   -36432.854    8.7780619     241.8157 
    2150    132.80454    8.1647408    128263.06   -33918.582    2504.6385   -36423.221    9.0486861    235.56331 
    2200    133.13821   -283.12682    128215.21   -33893.622    2510.9314   -36404.553    9.2675838    236.15516 
    2250    132.59178   -264.50981    128157.96   -33898.116    2500.6259   -36398.742    9.5156961    235.18592 
    2300    135.16151   -442.96495    128058.78   -33859.284      2549.09   -36408.374     9.805404    239.74401 
    2350    135.35636   -259.18944     128008.8   -33844.545    2552.7648   -36397.309    10.091999    240.08963 
    2400     138.2283   -157.93767    128060.86   -33813.074    2606.9284   -36420.003    10.279529    245.18375 
    2450    137.43205   -395.09655    128160.81   -33798.493    2591.9115   -36390.405    10.522328     243.7714 
    2500    135.73491   -501.82586    128105.54   -33831.554    2559.9041   -36391.458    10.717851    240.76108 
    2550    135.40124   -132.26948    128068.53   -33863.887    2553.6112   -36417.498    10.876761    240.16922 
    2600    135.02086   -320.28332    128034.09   -33828.709    2546.4375   -36375.146    11.102814    239.49453 
    2650    135.45792   -198.87281    127991.89   -33817.383    2554.6803   -36372.063    11.472031    240.26977 
    2700    135.71619   -242.67077    127972.86   -33828.349     2559.551     -36387.9    11.699401    240.72787 
    2750    134.14503   -170.27659    127960.97   -33800.484    2529.9196   -36330.403    11.838588    237.94101 
    2800    133.29472   -616.99179     127873.9   -33858.589    2513.8832   -36372.472    12.024507    236.43277 
    2850    132.09527   -179.02302    127810.15   -33888.293     2491.262   -36379.555    12.225913    234.30524 
    2900    133.79195   -421.81573     127842.9    -33908.81    2523.2607    -36432.07    12.473154    237.31474 
    2950    133.32323   -277.87418    127825.11   -33921.126    2514.4208   -36435.547    12.734223    236.48334 
    3000    132.83573   -420.79574    127774.72    -33945.37    2505.2267   -36450.597    13.045256    235.61863 
    3050    132.34656   -157.43178    127748.68   -33932.283    2496.0012   -36428.284    13.295544    234.75097 
    3100     134.5111   -99.531508    127750.85   -33892.273    2536.8236   -36429.097    13.475115    238.59034 
    3150    132.08611    -485.1142    127718.35   -33923.642    2491.0892   -36414.731     13.65101    234.28898 
    3200    133.27242   -478.05087    127656.49   -33900.638    2513.4625     -36414.1     13.83298    236.39321 
    3250    131.41315   -375.05377    127528.82   -33921.316    2478.3976   -36399.714    13.991255    233.09533 
    3300       134.39   -276.75536    127548.72   -33920.822    2534.5396   -36455.362    14.164755    238.37553 
    3350    131.35639   -356.92664    127555.96   -33935.198     2477.327   -36412.525    14.395699    232.99463 
    3400    134.84222   -176.50067     127514.6   -33896.536    2543.0684   -36439.605    14.563113    239.17767 
    3450    135.97563   -137.88851    127565.87   -33873.605    2564.4441   -36438.049    14.740492    241.18807 
    3500    136.57992   -480.20608    127554.41   -33857.357    2575.8406   -36433.198     15.02482    242.25992 
    3550    133.11246   -245.84338    127507.73   -33880.731    2510.4457   -36391.177    15.423659    236.10948 
    3600    134.77789   -292.23021    127456.53   -33854.833    2541.8552   -36396.688    15.652054    239.06357 
    3650    130.52401    -54.66047    127555.48   -33905.045    2461.6286   -36366.673    15.831061    231.51819 
    3700    133.97717   -225.24719    127526.82   -33890.718    2526.7538   -36417.472    16.087218    237.64327 
    3750    133.52448   -280.09322    127529.29   -33857.774    2518.2164    -36375.99    16.396945    236.84032 
    3800    133.51984   -428.40338    127571.47   -33866.179    2518.1288   -36384.308    16.542045    236.83208 
    3850    132.60587   -17.820887    127652.67   -33866.958    2500.8918    -36367.85    16.769754    235.21092 
    3900    137.03507   -216.84701    127700.31   -33831.037    2584.4246   -36415.462    17.135512    243.06725 
    3950    133.80894    34.718749    127805.32   -33907.844    2523.5812   -36431.425    17.443545    237.34488 
    4000    129.22136   -77.897458    127851.26   -33931.447    2437.0612   -36368.508    17.563828    229.20761 
    4050    134.46523   -76.656623    127948.96   -33928.467    2535.9585   -36464.425    17.580237    238.50898 
    4100    132.31679   -174.82578    127981.93   -33940.856    2495.4398   -36436.296    17.779213    234.69816 
    4150    134.80663   -221.91369    127890.55   -33937.384    2542.3971   -36479.781    18.072393    239.11454 
    4200    135.01479    -155.6466    127915.97   -33961.574    2546.3229   -36507.897     18.37292    239.48376 
    4250    135.34087   -293.69644     127883.9   -33938.217    2552.4727    -36490.69    18.671415    240.06215 
    4300    134.01029   -394.61896    127846.25    -33924.25    2527.3785   -36451.629    18.973466    237.70203 
    4350    133.41702   -159.59607    127820.67   -33911.288    2516.1897   -36427.478    19.098877     236.6497 
    4400    136.71232   -463.68727    127836.83   -33849.544    2578.3377   -36427.882    19.332085    242.49478 
    4450    134.53063   -570.35096    127807.78   -33914.889    2537.1919   -36452.081    19.675286    238.62498 
    4500    136.71958   -380.29921    127816.08   -33938.039    2578.4746   -36516.514    20.040871    242.50765 
    4550    134.00339     -486.871    127766.52   -33963.255    2527.2483   -36490.503     20.27903    237.68977 
    4600    134.56387   -104.39113    127765.21   -33963.231    2537.8188    -36501.05    20.461101    238.68394 
    4650     132.7656   -423.01525    127773.53   -33968.293    2503.9042   -36472.197    20.791188    235.49424 
    4700     131.4581   -64.276706    127849.92   -33920.465    2479.2453   -36399.711    21.059455    233.17506 
    4750    133.60984   -356.11892    127821.84    -33914.24    2519.8262   -36434.066    21.325065    236.99172 
    4800     131.9627   -255.89778    127770.83    -33903.75    2488.7618   -36392.511    21.504439    234.07009 
    4850    135.45772   -294.77653    127715.73    -33911.78    2554.6765   -36466.457    21.843693    240.26942 
    4900    132.20026   -406.54135    127587.62   -33887.273    2493.2422   -36380.515    22.047138    234.49147 
    4950    134.67248   -354.81689    127426.92    -33859.23    2539.8672   -36399.098    22.225103    238.87659 
    5000    135.44635   -438.32469    127328.48   -33811.389     2554.462   -36365.851    22.272552    240.24924 
    5050    134.37781   -457.15737    127255.26   -33825.669    2534.3098   -36359.979    22.581728    238.35392 
    5100    135.09889   -194.14435    127304.34   -33800.682    2547.9091   -36348.591    22.717499    239.63294 
    5150    136.45395    -273.5392    127385.55   -33766.948     2573.465   -36340.413    22.988881    242.03649 
    5200    137.28464   -529.31963    127359.54   -33777.977    2589.1314   -36367.108    23.193981    243.50994 
    5250    136.35506    175.35513    127421.67   -33829.438    2571.5998   -36401.037    23.502914    241.86107 
    5300    134.13148   -52.123502    127464.25   -33849.444     2529.664   -36379.108     23.83117    237.91697 
    5350    136.31083   -217.51291    127355.43   -33891.131    2570.7656   -36461.897    24.072756    241.78262 
    5400    130.81833   -254.16509    127371.84   -33923.429    2467.1794   -36390.609    24.397622    232.04024 
    5450    133.48328   -439.84485    127408.03   -33942.058    2517.4393   -36459.497     24.77737    236.76723 
    5500    132.14794   -401.16221    127328.49    -33936.58    2492.2553   -36428.835    25.048217    234.39866 
    5550    134.94686   -93.027856    127308.43   -33947.364    2545.0418   -36492.406    25.262959    239.36327 
    5600    135.49133   -453.84884    127293.66   -33885.564    2555.3102   -36440.874    25.445313    240.32902 
    5650     131.8649   -143.32396    127319.96   -33899.574    2486.9172   -36386.491    25.599938    233.89661 
    5700     135.1716   -155.31004    127378.79   -33860.618    2549.2802   -36409.898    25.787749     239.7619 
    5750    132.32429   -86.692248    127413.29   -33875.743    2495.5812   -36371.324    25.956038    234.71146 
    5800    131.84424   -192.94095    127454.32   -33823.095    2486.5277   -36309.623     26.14959    233.85997 
    5850    137.91318   -168.05284     127529.7   -33820.355    2600.9854    -36421.34    26.438772    244.62481 
    5900    137.70328   -290.54806    127610.69   -33807.912    2597.0267   -36404.939     26.60648     244.2525 
    5950    134.05244   -445.94098    127698.04   -33838.975    2528.1734   -36367.149    26.941269    237.77678 
    6000     135.5911   -283.44931     127647.9   -33850.957     2557.192   -36408.149    27.256004      240.506 
    6050    134.38753   -390.13319    127647.56   -33845.209     2534.493   -36379.702    27.418616    238.37115 
    6100    134.72641   -256.39662     127588.8   -33865.597    2540.8841   -36406.482    27.526893    238.97224 
    6150    137.51853   -241.72127    127527.23   -33884.518    2593.5424    -36478.06    27.689351    243.92479 
    6200    135.61251   -255.16836    127536.22   -33856.905    2557.5957   -36414.501     27.86702    240.54398 
    6250     134.5836   -412.14247    127557.35   -33867.924    2538.1908   -36406.115    28.097099    238.71893 
    6300    134.64769   -448.48924    127547.78    -33867.55    2539.3995    -36406.95    28.362627    238.83261 
    6350    134.10907     -119.354    127571.56   -33902.154    2529.2415   -36431.395    28.644145    237.87724 
    6400     139.4519   -292.96568    127602.69   -33864.353     2630.005   -36494.358    28.753861    247.35413 
    6450    137.54846    114.40247    127604.01   -33867.818    2594.1069   -36461.925    29.089749    243.97788 
    6500    134.96935    76.417085    127662.97   -33882.971     2545.466   -36428.437    29.369776    239.40316 
    6550    134.65502   -61.267044    127717.44   -33881.445    2539.5377   -36420.983    29.491256    238.84561 
    6600    134.35669   -308.66572    127707.75   -33874.459    2533.9114    -36408.37    29.598569    238.31645 
    6650    136.80292   -368.46147     127725.4   -33828.309    2580.0463   -36408.355     29.83245    242.65547 
    6700    134.12884   -401.46768    127637.53   -33865.264    2529.6143   -36394.878    30.131799     237.9123 
    6750     135.1652   -277.59694    127609.76   -33868.886    2549.1596   -36418.046    30.389307    239.75055 
    6800    134.60708   -79.031578    127645.17   -33873.936    2538.6336   -36412.569    30.658805    238.76057 
    6850    133.78176   -221.21229    127630.52   -33872.447    2523.0686   -36395.515    30.724726    237.29667 
    6900    133.19566   -217.06104    127655.36   -33892.951     2512.015   -36404.966    30.899791    236.25707 
    6950    132.58939   -546.80065    127618.05   -33864.655    2500.5809   -36365.236    31.068475    235.18169 
    7000    137.11533   -74.673875    127570.71   -33853.182    2585.9383    -36439.12    31.221811    243.20962 
    7050    137.77752   -131.40984    127624.55   -33815.856    2598.4268   -36414.283    31.318048    244.38417 
    7100    134.56637   -227.86338    127645.79   -33831.288     2537.866   -36369.154    31.521375    238.68838 
    7150    136.43862   -158.42432    127649.16   -33816.745    2573.1757   -36389.921     31.84765    242.00929 
    7200    138.66741   -353.31907     127620.5   -33814.576    2615.2098   -36429.785    31.990843    245.96263 
    7250    137.80068   -149.77895    127576.32   -33770.939    2598.8636   -36369.802    32.117325    244.42526 
    7300    138.23155   -114.17334    127619.41   -33761.875    2606.9897   -36368.865    32.438938    245.18952 
    7350     134.6969   -161.43418    127695.44   -33803.835    2540.3277   -36344.163    32.577118     238.9199 
    7400    132.91071   -250.32453    127676.91   -33920.698    2506.6409   -36427.339    32.987274    235.75164 
    7450    132.00472   -205.94146    127612.18   -33954.619    2489.5543   -36444.173    33.298799    234.14463 
    7500    135.73574    7.9837394    127649.86   -33876.931    2559.9197    -36436.85    33.774343    240.76254 
    7550    136.36276   -53.786546    127778.59   -33810.073     2571.745   -36381.819    33.915266    241.87473 
    7600    135.70827   -17.458557    127838.79   -33817.296    2559.4016   -36376.698    34.233721    240.71383 
    7650    137.27285   -286.05514    128042.58   -33825.858     2588.909   -36414.767    34.320981    243.48902 
    7700    137.85761    85.029168    128151.29   -33815.437    2599.9373   -36415.374    34.341825    244.52624 
    7750    136.65624   -81.889999     128262.3   -33831.571    2577.2799   -36408.851    34.645444    242.39529 
    7800    134.49553   -133.11145    128403.25   -33850.896      2536.53   -36387.426    34.856758    238.56273 
    7850    135.66084   -303.93365    128416.65   -33828.435    2558.5071   -36386.942    35.190687    240.62969 
    7900    133.04163   -409.00354    128446.05   -33884.306      2509.11   -36393.416    35.448901    235.98385 
    7950    134.29474   -381.93584    128453.82    -33910.62    2532.7431   -36443.364     35.65662    238.20657 
    8000    131.73842   -437.31856    128452.43   -33944.491     2484.532   -36429.023    35.966675    233.67228 
    8050    134.55034   -462.78269    128281.35   -33918.363    2537.5636   -36455.927    36.340053    238.65994 
    8100    136.34748   -592.07215    128268.73   -33864.717    2571.4569   -36436.174    36.770828    241.84763 
    8150    133.76437   -411.67666    128275.65   -33891.921    2522.7406   -36414.661      36.8726    237.26583 
    8200    134.87045   -252.38229    128292.67     -33873.3    2543.6007   -36416.901    36.913665    239.22773 
    8250    140.17506   -206.11468    128335.78   -33805.887    2643.6434    -36449.53    37.138376    248.63683 
    8300    137.10526   -405.45958    128353.79   -33850.799    2585.7483   -36436.547    37.497367    243.19175 
    8350    135.38089   -520.06946    128321.47   -33897.696    2553.2274   -36450.923    37.654493    240.13313 
    8400    138.54238   -325.30878    128236.91   -33840.508    2612.8518    -36453.36    37.809866    245.74086 
    8450    136.60462   -606.58054    128216.51   -33870.873    2576.3064    -36447.18    37.818365    242.30373 
    8500    134.92328   -466.83952    128178.98   -33816.036    2544.5971   -36360.634    37.963595    239.32144 
    8550    137.26708    -183.8714    128168.36   -33839.391    2588.8002   -36428.191    38.053768    243.47879 
    8600    137.18427   -147.83217    128129.31   -33834.359    2587.2385   -36421.597    38.222139     243.3319 
    8650     134.3933   -293.17247    128148.87   -33819.719     2534.602   -36354.321     38.48415     238.3814 
    8700    135.98744   -338.38507    128042.57   -33809.039    2564.6667   -36373.706    38.661001    241.20901 
    8750    134.04433   -530.18817    127956.26   -33836.095    2528.0204   -36364.115    38.915308    237.76239 
    8800    133.33834    -269.4767    127899.99   -33867.248    2514.7058   -36381.954    39.039749    236.51014 
    8850    136.68388   -234.98302    127923.15   -33886.417    2577.8013   -36464.219    39.262072    242.44433 
    8900    134.27175    -240.8841    127987.99   -33910.041    2532.3094    -36442.35    39.416547    238.16578 
    8950    132.99798   -33.098125    127982.11   -33911.069    2508.2867   -36419.356    39.574932    235.90642 
    9000    133.25223   -317.69348    127932.69   -33920.898    2513.0817    -36433.98    39.765393     236.3574 
    9050    133.35746   -329.93265    127968.26   -33943.975    2515.0664   -36459.041    39.897436    236.54406 
    9100     134.4312   -31.753575    127993.99   -33986.298    2535.3167   -36521.614    40.025205    238.44862 
    9150    133.44025   -72.062615    128051.71   -33974.272    2516.6278   -36490.899    40.288033    236.69091 
    9200    131.57812   -253.31306    128031.44   -34002.555    2481.5088   -36484.064     40.56311    233.38794 
    9250    132.22527   -70.939549    128002.16   -34016.072    2493.7137   -36509.786    40.824472    234.53582 
    9300    134.43026    -35.22074    128047.11   -34000.087    2535.2989   -36535.385    41.046175    238.44694 
    9350    132.55302   -177.79825    127986.18   -33990.068     2499.895   -36489.963    41.330683    235.11718 
    9400    131.57318   -64.174812    127967.11   -33968.269    2481.4156   -36449.685    41.605214    233.37918 
    9450    132.16888   -259.01242    128013.49   -34000.048    2492.6503   -36492.698    41.596054    234.43581 
    9500    135.92092    39.606072     128019.6   -33929.863    2563.4122   -36493.276    41.670753    241.09102 
    9550    135.83675   -373.55056    128083.98   -33889.231    2561.8248   -36451.055    41.789305    240.94173 
    9600    133.70853   -356.79953    128037.57   -33923.189    2521.6874   -36444.876    41.989193    237.16677 
    9650    133.05527   -603.30756    128062.25   -33950.646    2509.3672   -36460.013    42.245915    236.00805 
    9700    134.90433   -314.33712    128014.42   -33952.282    2544.2398   -36496.521     42.45366    239.28784 
    9750    131.49712    -450.5904    127929.79   -34017.441    2479.9812   -36497.422    42.463898    233.24427 
    9800    131.83898   -442.39023    127931.98    -34010.01    2486.4285   -36496.439    42.488104    233.85064 
    9850    136.12387   -263.88056    127959.95   -33953.553    2567.2397   -36520.792    42.477648      241.451 
    9900    134.06534   -154.71547    127996.96   -33915.835    2528.4167   -36444.251    42.544552    237.79966 
    9950    135.33719   -266.70218    128037.67   -33901.925    2552.4032   -36454.328     42.69556    240.05562 
   10000    132.56782   -257.79254    128032.74   -33876.762    2500.1741   -36376.936    42.825552    235.14342 
   10050    133.71829   -355.34517    128017.82   -33871.896    2521.8715   -36393.767    42.951971    237.18408 
   10100    134.88046   -148.11793    127983.91   -33929.816    2543.7896   -36473.606    42.964286     239.2455 
   10150    131.98933   -488.02738    127867.16   -33876.287     2489.264   -36365.551    43.077197    234.11732 
   10200    131.67294   -104.37744    127823.44   -33879.656     2483.297   -36362.953    43.329151    233.55612 
   10250    132.28838    14.350171    127882.69   -33899.862     2494.904   -36394.766    43.534333    234.64777 
   10300    135.45803    -238.2578    127960.59   -33874.317    2554.6823   -36428.999    43.713104    240.26996 
   10350    135.29934   -90.559374    127992.91   -33860.761    2551.6894    -36412.45    43.940489    239.98848 
   10400    134.56771   -192.56679    128060.01   -33827.735    2537.8911   -36365.626    44.229307    238.69074 
   10450    133.51802   -431.85322    128070.86   -33863.922    2518.0945   -36382.016    44.549821    236.82885 
   10500    134.18049   -481.14702    127961.11   -33845.594    2530.5885   -36376.183    45.086427    238.00392 
   10550    132.05569   -382.16436    127868.66   -33837.248    2490.5156   -36327.764    45.129937    234.23504 
   10600    135.14763   -105.35332    127863.52   -33894.146    2548.8282   -36442.974    45.401365    239.71938 
   10650    136.34417   -6.6460645    127900.02     -33867.9    2571.3946   -36439.294    45.504827    241.84177 
   10700    133.28513   -342.33713    127839.56   -33893.285    2513.7023   -36406.987    45.799846    236.41577 
   10750    132.88681    22.538963    127861.24   -33865.078    2506.1901   -36371.268    45.979485    235.70923 
   10800    134.67551   -222.56532    127855.91   -33855.715    2539.9243   -36395.639    45.961728    238.88197 
   10850    134.56717   -393.06664    127832.67   -33884.322    2537.8811   -36422.203    46.130237     238.6898 
   10900    132.43583   -580.25981    127779.38   -33862.046    2497.6849   -36359.731    46.403123    234.90931 
   10950    135.13443   -189.77161    127774.02    -33861.58    2548.5793   -36410.159    46.595688    239.69598 
   11000    136.72145   -231.58428    127735.84    -33887.54    2578.5099    -36466.05    46.901091    242.51097 
   11050    131.07249   -49.745816    127774.19   -33928.625    2471.9727   -36400.598    47.077442    232.49106 
   11100    134.81977   -300.76152    127746.13   -33894.611     2542.645   -36437.256    47.304234    239.13785 
   11150    132.53661   -136.22648    127727.41   -33901.733    2499.5854   -36401.318    47.691773    235.08806 
   11200    133.18948   -102.26014    127698.24   -33908.809    2511.8984   -36420.708    48.079927    236.24611 
   11250    133.54924   -302.31409    127716.63   -33951.602    2518.6833   -36470.286    48.477834    236.88423 
   11300     136.4599   -285.17048     127631.2   -33909.488    2573.5771   -36483.065    48.712786    242.04703 
   11350    133.81541   -389.02714     127604.2    -33933.88    2523.7031   -36457.583    48.921026    237.35634 
   11400    132.26621   -531.11451    127507.19   -33954.803    2494.4859   -36449.288    49.350082    234.60844 
   11450    134.14996    -178.1522    127395.86   -33927.457    2530.0126    -36457.47    49.464063    237.94976 
   11500    134.03635   -357.35027    127410.74   -33888.371    2527.8699   -36416.241     49.78078    237.74824 
   11550    133.38311   -156.86435    127473.19   -33908.239    2515.5502   -36423.789    50.128499    236.58956 
   11600    136.99659   -44.802274    127539.41   -33871.457    2583.6988   -36455.156    50.513182    242.99899 
   11650    139.25699   -235.11212    127519.93   -33794.279    2626.3291   -36420.608    50.860131    247.00841 
   11700    134.99621   -194.23714     127557.1   -33812.731    2545.9725   -36358.703    50.997461     239.4508 
   11750     137.4573    70.729295    127613.39   -33820.065    2592.3876   -36412.453    51.199725    243.81618 
   11800    135.07392   -201.04768     127691.4   -33795.886    2547.4382   -36343.325     51.41278    239.58865 
   11850    133.43778   -252.77413    127678.49   -33825.449    2516.5812    -36342.03    51.800348    236.68653 
   11900    132.92271   -133.33118    127638.66    -33854.32    2506.8671   -36361.187    51.939352    235.77291 
   11950      135.269   -125.02485    127598.13   -33845.886    2551.1173   -36397.004     51.98638    239.93468 
   12000    133.89685   -118.10224    127601.84   -33846.229     2525.239   -36371.468    52.210156     237.5008 
   12050     135.3378    60.452597    127688.11   -33836.105    2552.4147    -36388.52    52.520592     240.0567 
   12100     133.8538   -209.55004    127743.16   -33831.501    2524.4272   -36355.928    52.725351    237.42445 
   12150    133.70818   -181.00341    127852.12    -33809.93    2521.6807   -36331.611    53.106458    237.16614 
   12200    133.72194   -201.02092    127953.83   -33832.551    2521.9404   -36354.491    53.344992    237.19056 
   12250    136.15403   -267.08449    127960.71   -33806.882    2567.8085   -36374.691    53.577976     241.5045 
   12300    135.58182   -129.82827    127958.03   -33822.218    2557.0168   -36379.235    53.738551    240.48953 
   12350    133.27546   -257.27001    127879.99   -33855.529      2513.52   -36369.049    53.993844    236.39861 
   12400    134.32548   -470.82037    127779.07   -33856.169    2533.3229   -36389.492    54.161576     238.2611 
   12450    134.04311   -313.44774    127780.44   -33844.855    2527.9974   -36372.853    54.159394    237.76023 
   12500    137.25588   -48.511974    127863.62   -33822.294     2588.589   -36410.883    54.390272    243.45892 
   12550    136.37542   -426.51401    127914.82   -33841.848    2571.9839   -36413.832     54.57894     241.8972 
   12600    135.31645    39.191852    127968.48   -33890.731    2552.0122   -36442.743    54.773878    240.01884 
   12650    132.02058   -74.219357    127961.39   -33892.672    2489.8534   -36382.525     54.87666    234.17276 
   12700    132.61029   -321.99152    127855.62   -33914.982     2500.975   -36415.957    55.162279    235.21875 
   12750     134.8475    -210.8546    127843.64    -33937.66    2543.1679   -36480.827    55.290668    239.18703 
   12800    136.35702    41.239705    127974.47   -33903.182    2571.6368   -36474.818    55.495747    241.86455 
   12850     135.2498   -317.60954    127975.76   -33890.723    2550.7552   -36441.478    55.645038    239.90062 
   12900    132.91741   -318.83456    127947.18   -33891.782    2506.7673   -36398.549    55.989572    235.76352 
   12950    135.93307   -329.01337    127959.73    -33849.28    2563.6414   -36412.922    56.273756    241.11258 
   13000    135.32349    -299.4348    127988.58   -33854.461    2552.1449   -36406.605     56.67416    240.03132 
   13050    133.91866   -357.12789     128000.9   -33896.637    2525.6503   -36422.287    57.117441    237.53949 
   13100    133.24823    -445.6986    128009.35   -33917.014    2513.0064   -36430.021    57.250417    236.35031 
   13150    132.97976   -168.47109    127966.96   -33859.507    2507.9431    -36367.45    57.495104     235.8741 
   13200     133.2214   -329.31191    127981.23   -33862.046    2512.5003   -36374.547    57.875559    236.30272 
   13250    133.88302   -499.04437    127991.75   -33854.725    2524.9782   -36379.704    58.324211    237.47627 
   13300    134.99152   -136.55234    127997.96   -33887.405    2545.8841   -36433.289    58.581978    239.44249 
   13350    134.43504   -323.79047    128043.71   -33898.093     2535.389   -36433.482    59.035299    238.45542 
   13400    139.92159   -485.11685    127947.02   -33900.885    2638.8632   -36539.749    59.434376    248.18725 
   13450    135.19696   -144.08877    127944.62   -33884.741    2549.7586     -36434.5    59.727797    239.80689 
   13500     135.8227   -404.50492    127860.39   -33892.105    2561.5597   -36453.665    60.024341    240.91679 
   13550    133.44263    145.01447    127874.36   -33893.254    2516.6726   -36409.927    60.218772    236.69512 
   13600    134.36576   -182.98086    127934.84   -33862.702    2534.0825   -36396.784    60.387061    238.33254 
   13650    133.13666   -4.6220528    127992.41   -33852.149    2510.9022   -36363.051    60.555867    236.15241 
   13700    137.49355   -86.321546     128064.4   -33780.123    2593.0712   -36373.194    60.657072    243.88048 
   13750    132.06679    10.291895    128104.01   -33809.577    2490.7248   -36300.302    60.873004    234.25471 
   13800    134.15331   -411.52128    128089.49   -33797.925    2530.0757   -36328.001    60.959082     237.9557 
   13850     138.0592   -473.82808    127942.08   -33778.577    2603.7392   -36382.317    61.072604    244.88381 
   13900    136.32507   -400.69069    127847.95   -33774.703    2571.0343   -36345.737    61.276298    241.80789 
   13950    137.19597   -126.59503    127890.49   -33785.032     2587.459   -36372.491    61.408092    243.35264 
   14000    137.74676   -133.56867    127882.95   -33803.983    2597.8468    -36401.83    61.707176    244.32962 
   14050    134.55517   -300.34428    127908.12   -33824.648    2537.6546   -36362.303    61.833131     238.6685 
   14100    138.33511   -367.61359    127906.08   -33798.077    2608.9428    -36407.02    62.163449    245.37321 
   14150    135.50682    -161.5414    127786.02    -33828.96    2555.6024   -36384.563    62.317263     240.3565 
   14200    136.16157   -155.13376     127777.8    -33801.67    2567.9508    -36369.62    62.483351    241.51788 
   14250    138.12412   -348.26321    127853.13   -33763.423    2604.9636   -36368.386    62.660556    244.99896 
   14300     137.5541   -211.13927    127897.82   -33704.699    2594.2133   -36298.913    62.835944    243.98789 
   14350    138.04186   -345.37865    127922.06   -33741.969    2603.4122   -36345.381    63.250761    244.85305 
   14400    136.82517   -502.78913    127791.96    -33818.22     2580.466   -36398.686    63.566664    242.69494 
   14450    135.51513   -384.77276    127754.11   -33867.131    2555.7591    -36422.89    63.759428    240.37124 
   14500    135.87135   -194.50914    127695.58   -33809.692    2562.4774   -36372.169    64.130675     241.0031 
   14550    136.95173   -354.27197    127730.12   -33799.514    2582.8528   -36382.367    64.551273    242.91943 
   14600    136.54803    9.3358639    127711.77   -33825.062    2575.2392   -36400.302    64.655637    242.20336 
   14650    135.93371   -3.4398554    127799.67   -33836.944    2563.6534   -36400.597    64.729607     241.1137 
   14700    136.80862   -92.322802    127843.75   -33765.225    2580.1538   -36345.379    64.951697    242.66559 
   14750    138.45933   -240.17258    127905.24   -33787.481    2611.2855   -36398.767    65.177127    245.59354 
   14800    137.35358   -262.32231    127927.77   -33836.326    2590.4315   -36426.758    65.297507    243.63221 
   14850    135.28425   -140.07214    127975.98     -33858.7    2551.4048   -36410.105    65.287766    239.96172 
   14900    134.18545    -492.1345    127970.41   -33871.455     2530.682   -36402.137    65.427616    238.01272 
   14950    131.62104   -219.24483    127987.27   -33892.683    2482.3182   -36375.001    65.577127    233.46407 
   15000    133.66084   -169.12762    128012.04   -33840.454     2520.788   -36361.242    65.682986    237.08218 
   15050    134.95509   -269.81827    128083.53   -33849.249    2545.1969   -36394.446     66.01747    239.37786 
   15100    135.46675   -100.77979    128069.82   -33880.171    2554.8468   -36435.017    65.801282    240.28544 
   15150    135.00094   -310.85578    128086.19   -33879.121    2546.0618   -36425.183    65.903801     239.4592 
   15200    135.32769   -327.88361    128046.68    -33883.25     2552.224   -36435.474    66.058696    240.03877 
   15250    133.30125   -542.43161    128041.77   -33917.884    2514.0063    -36431.89    65.931197    236.44436 
   15300    133.66346    -164.3341    128117.41   -33943.041    2520.8373   -36463.878     66.21195    237.08682 
   15350    135.04095   -272.60988    128205.23    -33904.83    2546.8163   -36451.646    66.406246    239.53016 
   15400    133.69926   -264.99749    128237.71   -33920.921    2521.5125   -36442.433    66.463207    237.15032 
   15450    135.07225   -500.02422    128193.85   -33909.288    2547.4066   -36456.695    66.530615    239.58568 
   15500    131.62166    -301.7677     128188.1   -33911.214    2482.3299   -36393.544    66.498008    233.46517 
   15550    133.55159   -272.29378    128184.53   -33883.643    2518.7276   -36402.371    66.565321    236.88839 
   15600    134.92331   -221.71999    128138.46   -33858.595    2544.5976   -36403.193    66.760706     239.3215 
   15650    132.34961   -57.469239    128170.79   -33900.488    2496.0587   -36396.546    66.873319    234.75637 
   15700     136.9074   -451.78845    128174.88   -33888.368    2582.0167   -36470.384    67.101031    242.84079 
   15750    131.82822   -146.25353    128172.92   -33935.253    2486.2255   -36421.479    67.078278    233.83155 
   15800    133.70031   -492.61919    128134.58   -33948.759    2521.5324   -36470.291    67.177827    237.15219 
   15850    133.64504   -389.54758    128098.54   -33965.292      2520.49   -36485.782    67.406002    237.05415 
   15900    135.19821   -107.10456    128100.51   -33973.598    2549.7822   -36523.381    67.663232    239.80911 
   15950    136.32462   -343.60041    128216.96   -33923.016    2571.0257   -36494.041    67.943936    241.80708 
   16000    129.19625   -334.98691    128187.79   -33983.381    2436.5877   -36419.968    68.209957    229.16307 
   16050    137.29425   -143.54585    128200.63   -33928.706    2589.3127   -36518.018    68.321231    243.52698 
   16100    134.16222   -285.89668    128260.32   -33931.872    2530.2439   -36462.116    68.382337    237.97151 
   16150    138.03717   -166.49725    128224.69   -33933.132    2603.3238   -36536.456    68.212823    244.84474 
   16200    134.60835   -337.58849     128200.6   -33938.885    2538.6577   -36477.543    68.218313    238.76284 
   16250    134.61534   -356.64206    128150.04   -33923.149    2538.7895   -36461.938    68.386924    238.77523 
   16300    136.44943   -197.65055    128131.67   -33879.541    2573.3796   -36452.921    68.559863    242.02846 
   16350    135.73474   -31.529288    128167.36    -33884.19    2559.9009   -36444.091    68.703102    240.76078 
   16400     135.6933   -20.453079    128234.42   -33880.203    2559.1193   -36439.322    68.811048    240.68727 
   16450    135.94185   -391.22116    128244.13   -33781.247    2563.8069   -36345.054    69.091247    241.12814 
   16500    135.17458   -219.89261    128185.19   -33834.913    2549.3365   -36384.249    69.051519    239.76719 
   16550    139.20614   -224.75378    128209.16   -33798.896      2625.37   -36424.266     69.32664     246.9182 
   16600    137.28434   -365.97004    128163.42   -33835.987    2589.1257   -36425.113    69.591467     243.5094 
   16650    136.36504    192.55134     128178.8   -33881.057     2571.788   -36452.845    69.883476    241.87877 
   16700    137.76907   -133.19563    128175.95   -33898.052    2598.2674   -36496.319    70.243537    244.36918 
   16750    134.58016   -77.918155    128128.75   -33880.512    2538.1259   -36418.638    70.568129    238.71282 
   16800    134.40597   -225.21277    128139.65   -33892.051    2534.8409   -36426.892    70.956815    238.40387 
   16850    137.70218   -181.84028    128097.21   -33883.708     2597.006   -36480.714    71.398298    244.25054 
   16900    136.35346    48.611317    128143.84   -33854.589    2571.5696   -36426.159    71.751948    241.85823 
   16950    139.84247    58.964659     128208.1   -33860.059     2637.371    -36497.43    72.127581     248.0469 
   17000    135.52727   -25.342216    128249.97   -33859.837     2555.988   -36415.825    72.543615    240.39277 
   17050     136.0185   -99.769916    128224.09   -33901.155    2565.2524   -36466.407    72.534478     241.2641 
   17100    134.93886   -365.04107    128195.12   -33947.046    2544.8909   -36491.937    72.591121    239.34907 
   17150    133.63317   -231.48708    128166.29    -33914.37    2520.2661   -36434.636    72.581579    237.03309 
   17200    135.11229   -317.27525    128107.85   -33884.512    2548.1618   -36432.674     72.68713    239.65671 
   17250    139.13353   -416.79436    128217.64   -33852.732    2624.0006   -36476.733    72.928891    246.78941 
   17300     137.6005   -208.22293     128348.1     -33866.8    2595.0884   -36461.888    73.082439    244.07019 
   17350    137.13908   -380.74628    128327.32    -33871.82    2586.3862   -36458.206    73.078887    243.25175 
   17400    137.78331     323.1516    128325.76   -33866.243    2598.5361   -36464.779    73.194949    244.39445 
   17450    133.02531   -104.19266    128426.03   -33927.728    2508.8023    -36436.53    73.385586    235.95491 
   17500    135.21658   -509.04027    128347.47   -33940.489    2550.1285   -36490.618    73.386843    239.84168 
   17550    132.60672   -280.34023    128293.76   -33945.071    2500.9077   -36445.979    73.486038    235.21242 
   17600    132.95174   -433.25569    128235.86   -33946.361    2507.4146   -36453.775    73.640769     235.8244 
   17650    134.03932   -529.13805    128228.34   -33942.186    2527.9259   -36470.112    73.988382    237.75351 
   17700    134.12266   -438.73273    128129.16   -33927.902    2529.4978     -36457.4    73.942637    237.90134 
   17750    135.29761   -234.32551    128102.28   -33905.289    2551.6568   -36456.946    74.211715    239.98541 
   17800     137.1572   -244.82194    128177.06   -33943.073    2586.7279   -36529.801    74.277341    243.28389 
   17850    136.99748   -329.50248    128263.16   -33942.189    2583.7156   -36525.905    74.467745    243.00057 
   17900     133.9486   -458.05071    128267.85   -33932.554    2526.2151   -36458.769    74.488425     237.5926 
   17950    135.62175   -396.76636    128170.83    -33926.19      2557.77    -36483.96    74.627654    240.56037 
   18000    134.94788   -175.22606    128094.87   -33915.179    2545.0611    -36460.24    74.826512    239.36508 
   18050    136.11192   -319.04327    128106.01   -33860.674    2567.0143   -36427.688    74.829452    241.42981 
   18100    136.30582   -105.03498    128149.31   -33864.384    2570.6712   -36435.055    74.862299    241.77374 
   18150    135.01584   -44.578345    128255.47   -33891.424    2546.3427   -36437.767    75.062496    239.48562 
   18200    134.86656   -275.78809    128279.78   -33917.718    2543.5274   -36461.246    75.115282    239.22084 
   18250    134.16803   -413.69983     128273.4    -33964.01    2530.3533   -36494.363    75.170508    237.98181 
   18300    133.14199   -224.14521    128208.16    -33994.55    2511.0027   -36505.553    75.563257    236.16186 
   18350    134.60156   -74.767047    128143.29   -33939.697    2538.5296   -36478.227    75.902317    238.75079 
   18400     132.0069   -357.04141    128125.52   -33957.565    2489.5954    -36447.16    76.125118    234.14849 
   18450    133.76295   -407.13605    128174.77   -33951.649    2522.7137   -36474.363    76.196845     237.2633 
   18500    133.95734   -399.63699     128115.9   -33955.145    2526.3799   -36481.524    76.186202    237.60811 
   18550    134.87392   -293.71356    128121.69   -33918.744    2543.6662   -36462.411    76.308623    239.23389 
   18600    134.69181   -179.41857    128228.36   -33901.649    2540.2316    -36441.88    76.351942    238.91086 
   18650    137.09511   -164.04631    128233.33   -33885.322    2585.5569   -36470.879    76.407861    243.17375 
   18700    138.54172   -303.34724    128263.91   -33831.434    2612.8393   -36444.273    76.418644    245.73968 
   18750    136.66975   -324.56192    128239.54   -33836.661    2577.5347   -36414.196    76.585496    242.41925 
   18800    133.03226   -438.53692    128199.42   -33881.577    2508.9333    -36390.51    76.842073    235.96723 
   18850    136.39557   -215.65959    128183.01   -33890.755    2572.3638   -36463.119    76.967386    241.93293 
   18900    133.37217   -344.77668    128202.95   -33894.014    2515.3437   -36409.357    77.107491    236.57014 
   18950    132.69854   -384.66556     128237.4   -33962.685    2502.6395   -36465.324    77.395602    235.37529 
   19000    134.68303   -310.48152    128222.96   -33934.982    2540.0661   -36475.048    77.451517     238.8953 
   19050    134.77177   -168.31582    128286.96   -33903.933    2541.7397   -36445.672    77.417238     239.0527 
   19100    136.02378   -440.54517    128320.43   -33939.291    2565.3521   -36504.643     77.75816    241.27347 
   19150    135.48126   -390.09682    128295.26   -33957.064    2555.1203   -36512.184    78.102113    240.31116 
   19200     132.0263   -281.69784    128183.42   -33998.996    2489.9613   -36488.958    78.417414     234.1829 
   19250    134.14042   -177.50217    128275.26   -33981.234    2529.8327   -36511.066    78.581101    237.93284 
   19300    134.23625   -459.35624     128340.7   -33968.846      2531.64   -36500.486    78.794026    238.10281 
   19350    134.00035   -310.17503    128286.58   -33955.572    2527.1911   -36482.763    78.860207    237.68439 
   19400     134.5315    -392.7546     128317.2   -33927.439    2537.2082   -36464.648     79.11582    238.62651 
   19450     135.0178   -333.18101    128296.61    -33953.55    2546.3797    -36499.93    79.155166     239.4891 
   19500    135.59148    32.164615    128357.63   -33942.641     2557.199    -36499.84    79.388163    240.50666 
   19550    138.28814   -275.06406    128434.41   -33907.722     2608.057   -36515.779    79.426462     245.2899 
   19600    140.00212   -458.12471     128382.2    -33911.87     2640.382   -36552.252    79.662742    248.33009 
   19650    134.96369    -213.4373    128336.32   -33911.361    2545.3592    -36456.72    79.794159    239.39312 
   19700    131.87602   -352.67129    128359.14   -33934.768    2487.1271   -36421.895    80.026759    233.91634 
   19750    135.05942   -249.50287    128379.39   -33931.175    2547.1647    -36478.34     80.26321    239.56293 
   19800    133.64524   -133.21985    128387.47   -33922.308    2520.4938   -36442.802    80.380101    237.05451 
   19850    136.73293    -108.2008    128511.62   -33871.929    2578.7263   -36450.655     80.48287    242.53132 
   19900    135.56801   -538.48187    128483.35   -33867.328    2556.7564   -36424.085    80.779327    240.46504 
   19950    136.43247   -246.61751    128390.31   -33835.721    2573.0598   -36408.781    81.406059    241.99838 
   20000     134.7703   -340.41029    128296.77   -33856.741    2541.7119   -36398.453    81.430611    239.05009 
   20050    133.81739   -455.86275    128297.99   -33838.967    2523.7404   -36362.707    81.552349    237.35985 
   20100    135.11146   -339.42814    128291.43    -33800.26    2548.1461   -36348.406    81.883552    239.65523 
   20150    135.89632   -655.47176    128201.94   -33779.362    2562.9483    -36342.31    82.231077    241.04739 
   20200    136.55424    -404.9012    128155.01   -33852.592    2575.3563   -36427.949    82.535978    242.21437 
   20250    135.33091     -133.598    128140.07     -33859.6    2552.2848   -36411.884    82.631265    240.04448 
   20300    133.69999   -204.43369    128209.05   -33938.653    2521.5264    -36460.18    82.777154    237.15162 
   20350      135.385    -252.6351    128226.82   -33875.004    2553.3049   -36428.309    83.026783    240.14042 
   20400    134.32984   -241.93106    128161.51   -33885.888     2533.405   -36419.293     83.12309    238.26882 
   20450    134.16692   -461.61214    128106.65   -33876.003    2530.3324   -36406.335    83.602761    237.97984 
   20500    132.91943   -416.02485    128087.36   -33853.923    2506.8053   -36360.729     83.85278    235.76709 
   20550    133.29861   -298.97474    127988.92   -33832.382    2513.9565   -36346.338     84.02613    236.43967 
   20600    134.05623    -359.3465    127772.55   -33885.167    2528.2448   -36413.412    84.284757     237.7835 
   20650     131.7707   -438.21591    127660.75   -33932.439    2485.1408    -36417.58    84.526605    233.72953 
   20700     133.6205    -161.5998    127622.34   -33881.924    2520.0272   -36401.951     84.92671    237.01063 
   20750    134.78949   -67.755351    127696.87     -33892.9    2542.0739   -36434.974    85.167981    239.08413 
   20800    134.05876   -317.94267    127714.46   -33830.378    2528.2926   -36358.671     85.41015    237.78799 
   20850    135.21006   -169.93402    127728.84   -33845.415    2550.0056   -36395.421    85.942255    239.83012 
   20900     134.2253   -302.95168       127716   -33895.717    2531.4335    -36427.15    86.041313    238.08339 
   20950    135.17192   -227.77201    127720.15   -33899.991    2549.2863   -36449.277    85.984441    239.76247 
   21000    135.58587   -530.15286    127657.21   -33887.904    2557.0932   -36444.998    86.215544    240.49672 
   21050    135.34793     -434.266    127616.73   -33870.839    2552.6058   -36423.445    86.512138    240.07467 
   21100    134.89092    -57.05956     127653.8    -33890.28    2543.9868   -36434.267    86.775268    239.26404 
   21150    135.21534   -303.26631    127673.14   -33894.568    2550.1053   -36444.673    86.852942     239.8395 
   21200    135.58684   -78.042099    127761.52   -33869.706    2557.1115   -36426.817    86.900956    240.49843 
   21250    136.25759   -468.25612    127791.67   -33904.756    2569.7615   -36474.517    86.921171    241.68818 
   21300    134.41989   -425.95539    127753.14   -33907.277    2535.1034   -36442.381    87.026283    238.42855 
   21350    135.42616   -311.17921     127693.8   -33893.529    2554.0812    -36447.61    87.196477    240.21343 
   21400     132.2327    34.924525    127659.44    -33952.32     2493.854   -36446.174    87.278725    234.54901 
   21450     130.9503   -465.34858    127712.84   -33940.031    2469.6683   -36409.699    87.491877    232.27433 
   21500    135.35793   -495.82849    127716.33   -33949.635    2552.7943   -36502.429    87.516565     240.0924 
   21550    134.49779   -324.78157    127722.51   -33940.762    2536.5725   -36477.334    87.643541    238.56672 
   21600    135.68835   -144.36324    127679.75   -33907.015    2559.0261   -36466.041    87.849544     240.6785 
   21650    135.22434   -28.995946    127756.68   -33921.828    2550.2751   -36472.103    88.096196    239.85546 
   21700    132.69203   -232.12135    127777.13   -33994.849    2502.5166   -36497.366    88.324355    235.36374 
   21750    133.49529   -321.64582    127728.25   -33986.494    2517.6658    -36504.16    88.778069    236.78854 
   21800    131.70784   -343.88716    127715.54   -34024.848    2483.9552   -36508.803    89.223618    233.61803 
   21850    134.61271   -237.70685    127673.38   -34021.268    2538.7398   -36560.007    89.451025    238.77056 
   21900    131.24784   -96.180812    127688.98    -34005.03    2475.2797    -36480.31     89.60742    232.80209 
   21950    133.46407   -32.468486    127757.73   -33958.594     2517.077   -36475.671    89.873565    236.73316 
   22000    134.92697   -431.63491    127803.03   -33965.094    2544.6668    -36509.76    90.014883      239.328 
   22050    135.09271   -87.469146     127793.4   -33926.602    2547.7924   -36474.395    90.158573    239.62197 
   22100    134.36537   -217.62548     127838.2   -33954.567    2534.0752   -36488.642    90.603526    238.33185 
   22150    134.93634   -96.064339    127899.28   -33903.743    2544.8434   -36448.587    90.702416    239.34461 
   22200    136.03184   -170.54299    128072.33   -33904.983    2565.5041   -36470.487    91.068864    241.28777 
   22250    134.62861   -331.61175    128139.13   -33871.526    2539.0397   -36410.565    91.385614    238.79877 
   22300    135.72934   -454.99625     128165.2   -33842.205     2559.799   -36402.004    91.607028    240.75119 
   22350    136.50629   -138.43902    128203.95   -33871.294     2574.452   -36445.746    92.035126    242.12933 
   22400    136.65283    -382.2502    128200.46   -33879.578    2577.2156   -36456.794    92.341786    242.38924 
   22450    135.90026   -296.94802    128166.79   -33822.083    2563.0225   -36385.105    92.425036    241.05437 
   22500    137.63132   -482.78547    128187.97   -33770.379    2595.6696   -36366.048    92.708591    244.12486 
   22550    136.95458   -477.10439    128084.05   -33814.484    2582.9065    -36397.39    93.096252    242.92448 
   22600    131.62974   -87.277193    128064.23   -33911.512    2482.4823   -36393.994    93.380159     233.4795 
   22650    133.15431   -582.08329    127997.68   -33934.939     2511.235   -36446.174    93.788866    236.18372 
   22700    135.38007   -357.02874    127966.92   -33937.134     2553.212   -36490.346    94.027033    240.13169 
   22750    134.22846   -430.20523    127963.69   -33947.195     2531.493   -36478.688     94.10658      238.089 
   22800    132.50183   -139.92911    127965.61   -33952.564    2498.9295   -36451.493    94.261789    235.02637 
   22850    134.28279   -414.55502    127968.47   -33915.728    2532.5178   -36448.246    94.380287    238.18537 
   22900    133.82915   -252.44785     127862.1   -33885.463    2523.9622   -36409.425    94.486971    237.38072 
   22950    136.89367   -418.34394    127819.99   -33882.571    2581.7578   -36464.329    94.591576    242.81644 
   23000    133.97306   -334.95987    127743.02   -33842.434    2526.6764   -36369.111    94.871608    237.63599 
   23050    136.74224    -142.9053    127734.91   -33842.888    2578.9019    -36421.79    95.106536    242.54784 
   23100    133.82434   -84.124615    127804.54   -33827.083    2523.8715   -36350.954    95.359093    237.37218 
   23150    139.77612   -500.57869     127857.9   -33806.505    2636.1197   -36442.625    95.550703    247.92922 
   23200    136.61615   -489.53986     127845.6   -33831.281    2576.5238   -36407.805    95.834481    242.32418 
   23250    139.35213   -208.79771    127829.25   -33791.397    2628.1233    -36419.52    96.009832    247.17716 
   23300    138.20956    -271.7027    127857.37   -33776.435    2606.5749    -36383.01    96.522095    245.15051 
   23350     135.2198   -130.13941    127867.85   -33842.805    2550.1894   -36392.995     96.62857     239.8474 
   23400    135.45215   -152.84385    128025.57   -33802.373    2554.5714   -36356.945      96.8624    240.25954 
   23450    137.91058   -450.61006    128084.15   -33842.658    2600.9363   -36443.594    97.091172     244.6202 
   23500    134.31731   -208.88031    128114.53   -33830.029    2533.1687   -36363.197    97.129857    238.24659 
   23550    135.77272   -339.97707     128099.1   -33854.078    2560.6172   -36414.695    97.588647    240.82815 
   23600     134.0694   -429.85301    128116.83   -33916.858    2528.4933   -36445.352    97.883929    237.80687 
   23650    130.83637   -368.32766     128039.6    -33901.15    2467.5197    -36368.67    97.980211    232.07225 
   23700    133.55587   -361.96403    127973.27   -33950.441    2518.8083   -36469.249    98.000583    236.89599 
   23750    133.49203   -154.53475    127986.12   -33918.321    2517.6044   -36435.926    97.922686    236.78276 
   23800     134.7249   -181.71782     127987.9   -33920.693    2540.8557   -36461.549    98.107343    238.96957 
   23850    137.77224   -347.17369    127970.43   -33892.217    2598.3274   -36490.544    98.250715    244.37482 
   23900    133.82302   -240.82732    128049.49   -33862.229    2523.8467   -36386.075    98.813981    237.36985 
   23950    137.78684   -306.85091    128050.35   -33833.447    2598.6027    -36432.05    99.025925    244.40072 
   24000    135.09587   -370.63502    127977.42   -33860.109     2547.852   -36407.961    99.144548    239.62757 
   24050    138.54588    -71.65529    127885.54   -33872.975    2612.9178   -36485.892    99.536097    245.74706 
   24100    135.83882   -251.10387    127884.16   -33817.201    2561.8639   -36379.065     99.84614     240.9454 
   24150    137.03084   -121.43125    127904.21    -33808.15    2584.3449   -36392.495    100.05816    243.05976 
   24200    138.76122   -87.110264    127966.55     -33793.7     2616.979   -36410.679    100.35587    246.12902 
   24250    137.54823    24.558506    128029.64   -33810.382    2594.1026   -36404.485    100.57924    243.97748 
   24300    139.03514    45.466035    128154.62    -33787.86    2622.1451   -36410.005    100.70439     246.6149 
   24350     132.8826   -273.35412    128197.62   -33795.702    2506.1107   -36301.813    100.85159    235.70177 
   24400    135.21674   -450.29782    128172.18   -33878.047    2550.1316   -36428.179    101.10677    239.84196 
   24450    135.38074   -342.96299    128233.89   -33892.119    2553.2246   -36445.343    101.34901    240.13287 
   24500    136.33403   -93.806325    128278.17   -33861.998    2571.2033   -36433.201    101.64016    241.82378 
   24550    137.78571   -188.85458    128299.11   -33884.584    2598.5814   -36483.165    101.78358    244.39871 
   24600    134.63343   -258.07741    128331.23   -33849.796    2539.1306   -36388.927      102.097    238.80732 
   24650    134.64098   -131.44953    128291.06   -33895.623     2539.273   -36434.896    102.17477    238.82071 
   24700    138.07714   -171.03159    128310.33   -33901.763    2604.0775    -36505.84    102.14572    244.91563 
   24750    134.18558   -263.73459    128351.56   -33855.192    2530.6843   -36385.876    102.70184    238.01294 
   24800    132.75174   -263.60892     128326.7   -33900.145    2503.6427   -36403.788    102.84025    235.46965 
   24850    131.97758   -266.20687    128334.64   -33905.092    2489.0424   -36394.134    103.21794    234.09648 
   24900     138.4295   -421.27676    128234.92   -33865.679     2610.723   -36476.402    103.46332    245.54064 
   24950    135.48112   -207.99392    128136.62   -33862.545    2555.1177   -36417.663    103.75258    240.31092 
   25000     133.9033   -300.15524    128023.13   -33841.612    2525.3607   -36366.973    104.09136    237.51225 
   25050    134.30133   -335.96007    127906.26   -33868.218    2532.8674   -36401.085    104.02315    238.21826 
   25100    136.61386   -318.33114    127896.77   -33910.443    2576.4808   -36486.924    104.16427    242.32013 
   25150    135.64469   -264.83071     127894.5   -33927.985    2558.2025   -36486.188    104.39926    240.60104 
   25200    137.64241   -139.31346    127893.95   -33912.374    2595.8788   -36508.253    104.47897    244.14454 
   25250    132.37551   -253.82577    127954.61   -33992.367    2496.5472   -36488.914    104.67368    234.80231 
   25300    135.15577   -172.43145    127908.11   -33999.952    2548.9818   -36548.934    104.66703    239.73383 
   25350    134.64933   -84.818382    127916.18   -34021.259    2539.4306    -36560.69    104.74074    238.83553 
   25400    133.63175   -211.67716    127901.34    -33998.78    2520.2393   -36519.019    104.95418    237.03057 
   25450    133.87375    -475.8349    127796.39   -33993.549    2524.8035   -36518.353    105.29976    237.45984 
   25500    134.20186   -462.98299    127768.49   -33949.672    2530.9914   -36480.664    105.50546    238.04182 
   25550    134.31774   -266.60907    127707.24     -33938.8    2533.1768   -36471.977    105.60444    238.24736 
   25600    137.26841   -264.34781    127745.76   -33944.174    2588.8253   -36532.999    105.81398    243.48114 
   25650    134.74332   -206.17912    127739.85   -33939.341    2541.2031   -36480.544    106.22242    239.00224 
   25700    135.73045   -13.004654    127846.11   -33948.844      2559.82   -36508.664    106.59164    240.75317 
   25750    134.74368   -149.14493    127933.94   -33943.824    2541.2099   -36485.033     106.9886    239.00287 
   25800    133.74175    109.98471    127920.65   -33946.761     2522.314   -36469.075    106.86422     237.2257 
   25850    133.88192   -340.51159    127993.65   -33974.368    2524.9574   -36499.325    106.90067    237.47431 
   25900    131.64425   -363.26422    127998.49   -33964.115    2482.7559   -36446.871    107.07591    233.50523 
   25950     135.8886   -271.42564    127907.36   -33945.974    2562.8027   -36508.777    107.12756     241.0337 
   26000    134.51465   -333.22705    127984.87   -33985.549    2536.8905    -36522.44    107.28244    238.59663 
   26050    132.89502   -295.69268    127982.94   -33943.996     2506.345   -36450.341    107.73224     235.7238 
   26100    134.19886   -409.77674    127949.04   -33924.364    2530.9348   -36455.299    107.81049    238.03649 
   26150    132.64817   -398.74381    127873.35   -33943.237    2501.6895   -36444.926    107.95795    235.28595 
   26200    130.13994   -369.29819    127871.84   -33949.868    2454.3852   -36404.254    108.33317    230.83694 
   26250    132.49528     -64.8494    127819.95   -33965.731    2498.8061   -36464.537    108.72444    235.01476 
   26300    136.06562   -501.41948    127854.86   -33897.187    2566.1412   -36463.328    108.54964    241.34768 
   26350    132.31157   -250.32335    127858.67   -33921.611    2495.3414   -36416.952    108.72603    234.68891 
   26400    130.46522   -156.07424    127870.72   -33922.708      2460.52   -36383.228    108.86712    231.41392 
   26450    136.16882   -295.23808    127913.38    -33949.45    2568.0875   -36517.538    108.83467    241.53074 
   26500    136.15727   -316.17535    127976.07   -33893.394    2567.8696   -36461.264    109.35284    241.51024 
   26550    137.09731   -207.75661     127919.1   -33904.824    2585.5984   -36490.422     109.2049    243.17765 
   26600    136.61873   -27.685086    127952.15   -33880.161    2576.5727   -36456.734    109.19694    242.32877 
   26650     137.5188   -181.86516    128029.17   -33869.039    2593.5475   -36462.586    109.81337    243.92527 
   26700    135.78319   -342.94309    128035.54   -33911.666    2560.8147   -36472.481     110.1813    240.84672 
   26750    134.13624   -437.74839    128041.67   -33923.566    2529.7539    -36453.32    110.48331    237.92543 
   26800    135.13846   -298.50017    128009.22   -33918.767    2548.6552   -36467.422    110.57326    239.70312 
   26850    137.53452   -348.24644    128041.88   -33825.487    2593.8441   -36419.331     110.6723    243.95316 
   26900    130.59978   -326.32471    128032.86   -33864.713    2463.0577   -36327.771    110.71696     231.6526 
   26950    138.07045   -113.88976    128036.29   -33793.543    2603.9514   -36397.494    110.92188    244.90376 
   27000    134.70475   -504.21799    128123.44   -33846.932    2540.4757   -36387.408    111.31157    238.93383 
   27050     135.3933    -212.9331    128093.52   -33857.313    2553.4614   -36410.774     111.5523    240.15514 
   27100    138.10842   -342.80366    128030.14   -33820.262    2604.6676   -36424.929    111.68893    244.97113 
   27150    136.58064   -274.85118    127982.62   -33814.096    2575.8542    -36389.95    112.11824     242.2612 
   27200    136.94402   -209.33424     127946.6   -33806.328    2582.7074   -36389.036    112.54698    242.90575 
   27250    134.55938   -282.94539    127930.59   -33779.668    2537.7341   -36317.402    112.80067    238.67597 
   27300    137.00131   -209.54359    127945.59   -33794.789    2583.7879   -36378.577    112.85491    243.00737 
   27350    132.48281   -388.54702    127892.37   -33836.486    2498.5709   -36335.057    112.93263    234.99264 
   27400    136.09003   -400.53723    127864.79   -33854.852    2566.6015   -36421.453    112.98287    241.39098 
   27450    134.46172   -110.24275    127809.09   -33848.634    2535.8922   -36384.526      113.279    238.50274 
   27500    137.24779   -108.10728    127823.47   -33859.518    2588.4363   -36447.954    113.37833    243.44456 
   27550    136.19147    21.635868     127958.9   -33876.237    2568.5146   -36444.751     113.4817     241.5709 
   27600    136.60623   -159.22501    128000.03   -33896.006    2576.3368   -36472.343    113.61608    242.30659 
   27650    133.54578   -235.28878    127997.17   -33899.786     2518.618   -36418.404    113.97225    236.87809 
   27700    133.72592   -349.41032     127919.2   -33956.164    2522.0153   -36478.179    113.95619    237.19761 
   27750    135.48129   -1.9961783    127913.39   -33917.755     2555.121   -36472.876    114.04625    240.31122 
   27800    136.67259   -79.055843    127977.47   -33913.025    2577.5884   -36490.613    114.22304    242.42431 
   27850    133.66008   -267.10076     127969.9   -33929.217    2520.7738   -36449.991    114.20259    237.08084 
   27900    136.55948   -7.6133836    127935.27   -33918.486    2575.4551   -36493.941     114.1914    242.22367 
   27950    132.39962   -274.62828    127938.82   -33922.511    2497.0019   -36419.513    114.67286    234.84508 
   28000    132.79026    -82.89002    127945.05   -33980.494    2504.3693   -36484.863    114.94976    235.53799 
   28050     133.3142    134.42554    127946.13   -33983.674    2514.2506   -36497.924    114.85173    236.46733 
   28100    135.38399   -200.40056    128046.01   -33993.209    2553.2858   -36546.494    115.16376    240.13863 
   28150    131.77887   -137.59193    128109.35   -34024.108    2485.2948   -36509.402     115.5011    233.74402 
   28200    131.14565   -341.31129    128024.23   -34013.139    2473.3526   -36486.492    115.78592    232.62084 
   28250    135.64186   -245.60275    128003.66    -34007.29    2558.1492   -36565.439    115.86747    240.59603 
   28300    131.66395    -326.9964    127992.44   -33979.075    2483.1274   -36462.202    116.00737    233.54017 
   28350    133.84719   -262.66244    127929.12   -33925.931    2524.3025   -36450.234    116.38408    237.41272 
   28400    134.68779   -179.79966    127930.82   -33934.632    2540.1559   -36474.788    116.34066    238.90375 
   28450    133.35853   -31.402577    127932.45   -33891.273    2515.0866   -36406.359    116.44472    236.54596 
   28500    138.50026    -55.80103    127924.45   -33881.931    2612.0574   -36493.989    116.62359    245.66614 
   28550    135.70912   -145.04097     127896.4   -33882.445    2559.4177   -36441.862     116.8417    240.71533 
   28600    136.02584    28.883442    127914.23   -33883.909    2565.3909     -36449.3      116.961    241.27711 
   28650    134.96023    41.297115    127999.65   -33864.651     2545.294   -36409.945     117.1476    239.38699 
   28700    135.85619    34.853661    128119.73   -33882.859    2562.1914   -36445.051    117.49234     240.9762 
   28750    136.01159   -551.00536    128058.26   -33880.461    2565.1223   -36445.584    117.79921    241.25185 
   28800    132.86011   -418.92276    127971.69   -33876.415    2505.6865   -36382.101    117.89356    235.66187 
   28850    132.87917    40.997402    128032.64   -33899.775     2506.046   -36405.821    117.99219    235.69568 
   28900    133.51499   -277.49708    128040.11   -33913.091    2518.0373   -36431.128    118.50829    236.82347 
   28950    136.18295    -364.2052    127981.74   -33890.463     2568.354   -36458.817    118.69334     241.5558 
   29000    135.53032    -253.8069    128036.14   -33876.007    2556.0456   -36432.053    119.01022    240.39819 
   29050    131.70354   -438.05259    128027.66   -33961.327    2483.8741   -36445.201    119.05469     233.6104 
   29100     133.4129   -488.94643     128093.8   -33940.459     2516.112   -36456.571    119.15473     236.6424 
   29150    133.37935   -356.08486    128079.74   -33915.088    2515.4792   -36430.567    118.74994    236.58288 
   29200    137.21337   -277.17748     128038.3    -33853.85    2587.7873   -36441.638    118.88285    243.38351 
   29250     134.6361   -71.337178    128080.72    -33885.64     2539.181   -36424.822    118.64572    238.81206 
   29300    135.84824   -346.09915    128048.82   -33883.505    2562.0414   -36445.546    118.99188    240.96209 
   29350    134.25163   -204.27451    128054.24   -33932.148      2531.93   -36464.078    119.06104     238.1301 
   29400     133.3271   -77.885766    128060.66    -33903.46    2514.4939   -36417.954    119.17722    236.49021 
   29450    135.94344   -78.245298    128017.21   -33899.889    2563.8368   -36463.726    119.46412    241.13096 
   29500    133.46164   -292.32342    127945.04   -33915.443    2517.0311   -36432.474    119.37147    236.72884 
   29550    134.55589   -16.899105    128002.47   -33950.877    2537.6682   -36488.545    119.35077    238.66977 
   29600    135.94691   -23.345364    128082.11   -33951.889    2563.9024   -36515.791    119.35886    241.13712 
   29650    133.20319   -132.57266     128120.5   -33933.971    2512.1569   -36446.128    119.76598    236.27042 
   29700    134.83548    -156.6255    128082.33   -33917.193    2542.9413   -36460.135    119.69933    239.16572 
   29750     135.0213   -136.43167    128091.13   -33958.211    2546.4457   -36504.657    119.73828    239.49531 
   29800    134.73451   -188.03858    128040.84   -33929.454    2541.0369    -36470.49     120.1158     238.9866 
   29850    136.07279   -88.135544    128130.53   -33904.633    2566.2764    -36470.91    120.27541     241.3604 
   29900    136.26592    2.1938438    128201.48   -33892.748    2569.9188   -36462.667    120.63208    241.70297 
   29950    135.95804   -236.58717    128266.71   -33909.102    2564.1121   -36473.214    120.82079    241.15685 
   30000    132.82694    71.409513    128309.42   -33949.378    2505.0611   -36454.439    120.88662    235.60305 
   30050    135.69358   -128.34642    128308.54   -33916.429    2559.1246   -36475.554    120.92602    240.68777 
   30100    133.67319   -24.502938    128363.89   -33933.035    2521.0209   -36454.056    121.06916    237.10408 
   30150    133.30686   -102.18443    128371.23    -33910.88    2514.1121   -36424.992    121.58027     236.4543 
   30200    135.87801   -127.43107    128344.96   -33938.189    2562.6029   -36500.791    121.66028     241.0149 
   30250    134.66204   -86.028531    128332.63   -33890.505    2539.6703   -36430.175    121.58898    238.85807 
   30300    136.41795   -292.05798    128215.02   -33865.672    2572.7859   -36438.458    121.91236    241.97262 
   30350    134.43837   -251.73493    128097.34   -33846.843    2535.4518   -36382.295    122.20132    238.46132 
   30400    133.91214   -443.77474    127974.91   -33822.751    2525.5274   -36348.279    122.30725    237.52793 
   30450    133.84883   -247.62608    127841.62   -33842.565    2524.3333   -36366.898    122.14404    237.41562 
   30500    136.71386   -289.53429    127871.04   -33844.431    2578.3666   -36422.798    122.15014     242.4975 
   30550     133.9822   -79.295089    127851.92   -33910.935    2526.8488   -36437.784    122.42344     237.6522 
   30600     136.5994   -164.14511    127843.17    -33896.32     2576.208   -36472.528    122.46828    242.29447 
   30650    130.71265   -301.93552    127853.18   -33984.905    2465.1863   -36450.091    122.53658    231.85279 
   30700    131.79215   -466.81791    127852.36   -33991.435    2485.5454    -36476.98    122.48528    233.76758 
   30750    129.52945   -241.68768    127837.84   -34005.927    2442.8717   -36448.798     122.6185    229.75409 
   30800    132.49202   -205.37393    127817.94    -33924.96    2498.7446   -36423.704    122.76973    235.00898 
   30850    135.12056   -204.90324    127789.47   -33916.587    2548.3176   -36464.904    123.15026    239.67136 
   30900    134.54313   -294.72255    127843.55     -33943.3    2537.4276   -36480.728    123.66551    238.64715 
   30950     132.1558   -416.89491    127898.33   -33987.414    2492.4036   -36479.818    123.65875     234.4126 
   31000    134.80383    119.28294     127926.8   -33900.005    2542.3443   -36442.349      124.141    239.10957 
   31050    131.71619   -47.378528    127960.19   -33849.257    2484.1127   -36333.369      124.448    233.63284 
   31100    136.93892   -376.96893    127970.35   -33850.625    2582.6112   -36433.236    124.66496     242.8967 
   31150    136.51919   -26.327957    127961.19   -33817.543    2574.6952   -36392.238    124.92789     242.1522 
   31200    138.34635   -27.331339    128105.68   -33760.892    2609.1548   -36370.047    125.12363    245.39315 
   31250    139.04362   -204.46269    128111.31   -33761.459    2622.3049   -36383.764    125.52828    246.62993 
   31300    135.96241   -126.06896    128107.68   -33765.333    2564.1946   -36329.528    125.54944    241.16461 
   31350    139.83825   -12.211137    128177.88   -33807.683    2637.2913   -36444.974    125.83172    248.03942 
   31400    135.50805   -262.03276    128243.74    -33845.96    2555.6257   -36401.585    125.89768    240.35869 
   31450    138.46684    -423.5301    128247.91   -33778.195    2611.4272   -36389.622    126.20967    245.60687 
   31500    135.57972   -250.54756    128265.68    -33767.35    2556.9774   -36324.327     126.3247    240.48582 
   31550    138.99596   -131.76066    128326.99   -33770.609    2621.4062   -36392.015    126.74118     246.5454 
   31600    139.30887   -109.29888    128432.53   -33742.748    2627.3075   -36370.056    127.33975    247.10043 
   31650    135.08851   -192.70909    128430.17    -33782.81    2547.7133   -36330.524    127.65317    239.61452 
   31700    132.10602   -240.56329     128426.7   -33843.561    2491.4647   -36335.026     128.0534     234.3243 
   31750    137.27185   -195.17366    128359.98   -33813.643    2588.8901   -36402.533    128.10488    243.48724 
   31800    137.39056   -31.529537    128336.54   -33826.211     2591.129    -36417.34    127.98367    243.69781 
   31850    135.17187   -274.05233    128289.77   -33818.855    2549.2854   -36368.141     128.3854    239.76239 
   31900    135.20922   -425.46418    128215.21   -33789.305    2549.9899   -36339.295    128.94557    239.82864 
   31950     135.0543   -99.977185    128258.51   -33763.684    2547.0681   -36310.752    129.17397    239.55385 
   32000    137.27557   -193.10934    128263.68   -33773.532    2588.9604   -36362.492    129.12704    243.49385 
   32050    138.89428   -355.57273    128163.53   -33783.065    2619.4885   -36402.553    129.11284    246.36505 
   32100    134.01142   -441.34485    128177.34   -33838.977    2527.3997   -36366.377    129.63962    237.70402 
   32150    136.25693   -412.83876    128128.58   -33876.422    2569.7492   -36446.171    130.10222    241.68702 
   32200    135.16212   -391.43372    128074.73   -33830.739    2549.1016   -36379.841    130.37271     239.7451 
   32250    134.98577   -69.523066    128059.54   -33860.316    2545.7757   -36406.092    130.41044    239.43229 
   32300    135.36976   -317.61628    128147.45    -33889.27    2553.0175   -36442.287    130.48702    240.11339 
   32350    134.76673   -340.42548    128096.66   -33925.522    2541.6447   -36467.167    130.64426    239.04377 
   32400    132.12308   -471.97161     128074.3   -33937.234    2491.7865   -36429.021     131.0315    234.35457 
   32450    134.15393   -257.71916    128039.19   -33921.089    2530.0874   -36451.176    131.28125     237.9568 
   32500    131.88907     -418.039    128070.45   -33944.725    2487.3732   -36432.098    131.43855    233.93949 
   32550    131.48913   -352.14755    128079.45   -33950.287    2479.8305   -36430.117    131.56225    233.23009 
   32600    135.28426   -105.44945    127994.28   -33932.017     2551.405   -36483.422    131.63665    239.96173 
   32650    133.13813   -320.53304    128025.15   -33921.597      2510.93   -36432.527    131.94241    236.15502 
   32700    131.63998   -303.04646     128002.1   -33910.159    2482.6753   -36392.835    132.23078    233.49765 
   32750    134.70182   -282.72061    127942.95   -33850.683    2540.4204   -36391.103      132.517    238.92862 
   32800    134.65155   -112.66551    127972.31   -33815.765    2539.4724   -36355.238    132.88925    238.83946 
   32850     136.3421    -250.4468    128028.83   -33783.314    2571.3555    -36354.67    133.31999     241.8381 
   32900    134.84212   -317.84608    127955.25   -33837.817    2543.0664   -36380.883    133.16162    239.17748 
   32950    136.42486   -389.03887    127822.61   -33788.335    2572.9163   -36361.251    133.50954    241.98489 
   33000     136.7652   -145.15495    127822.34   -33767.213     2579.335   -36346.548    133.72031    242.58857 
   33050    136.66279   -211.16036    127852.75    -33747.44    2577.4036   -36324.843    133.93845    242.40693 
   33100     134.9846   -361.91318    127838.45   -33749.875    2545.7535   -36295.628    133.90412    239.43021 
   33150    135.06591   -106.58093    127854.33   -33752.679     2547.287   -36299.966    134.23498    239.57443 
   33200    137.26905   -171.86769    127860.42   -33702.093    2588.8374   -36290.931    134.46257    243.48228 
   33250    136.00809   -260.11372    127803.91    -33736.45    2565.0561   -36301.506    134.41717    241.24563 
   33300     135.7746    -415.3394       127759    -33731.14    2560.6526   -36291.793    134.84277    240.83148 
   33350    137.30457   -243.70904    127678.54   -33702.269    2589.5072   -36291.776    135.27247    243.54528 
   33400    134.88004   -198.01728    127646.04   -33696.186    2543.7817   -36239.968    135.59009    239.24475 
   33450    134.65024   -592.96655    127599.17   -33709.126    2539.4477   -36248.574    135.91551    238.83714 
   33500    137.05587   -237.67948    127529.93   -33692.205    2584.8169   -36277.022    136.16343    243.10415 
   33550       133.67   -270.81437    127557.03   -33777.807    2520.9607   -36298.768    136.09482    237.09843 
   33600    135.71555   -388.08157    127582.73   -33810.198    2559.5389   -36369.737    136.28798    240.72673 
   33650    133.82563   -195.32086    127647.38   -33831.619    2523.8959   -36355.515    136.44909    237.37448 
   33700    135.69975   -272.71418    127622.23   -33813.796    2559.2409   -36373.036    136.70196    240.69871 
   33750     135.8571   -70.891601     127666.5   -33839.778    2562.2085   -36401.987    136.66774    240.97781 
   33800    135.87242   -229.03261       127761   -33846.662    2562.4975    -36409.16    137.07677      241.005 
   33850    136.51914    12.676062    127841.91    -33824.75    2574.6944   -36399.444    137.64871    242.15212 
   33900     135.1149   -199.01983    127844.16    -33849.77    2548.2111   -36397.981    138.20896    239.66134 
   33950    135.64368    -472.3274    127836.89   -33839.305    2558.1835   -36397.488    138.54142    240.59926 
[...]
   92000    134.79292   -110.84576    128365.34   -33916.921    2542.1386    -36459.06    391.35237    239.09022 
   92050    137.11895   -249.19174    128433.62   -33903.202    2586.0065   -36489.208    391.23189    243.21604 
   92100    136.19019   -213.28753    128405.05   -33929.756    2568.4905   -36498.246    391.41731    241.56864 
   92150    134.78613   -330.72579    128412.76   -33943.692    2542.0105   -36485.703    391.25304    239.07817 
   92200     134.0077   -287.78426    128390.98   -33912.904    2527.3297   -36440.234    391.28079    237.69743 
   92250    137.81501   -207.35187    128405.24   -33875.458    2599.1339   -36474.592    391.28172    244.45067 
   92300    136.72242   -462.57651    128431.55   -33916.585    2578.5282   -36495.113    391.16033    242.51269 
   92350    135.16881   -186.30427    128422.58   -33937.633    2549.2277   -36486.861    391.36113    239.75696 
   92400    136.21557   -106.89994     128474.7   -33934.974    2568.9691   -36503.943     391.3862    241.61366 
   92450    134.62118   -341.87558    128575.35   -33900.734    2538.8995   -36439.633     392.1877    238.78558 
   92500    136.11823   -262.61065    128570.89   -33935.827    2567.1333   -36502.961    392.39901    241.44099 
   92550    133.88445   -348.94518    128530.15   -33914.475    2525.0052    -36439.48    392.95314    237.47881 
   92600     138.2597   -247.92132    128482.08   -33842.352    2607.5205   -36449.872    392.88985    245.23945 
   92650    136.30833   -184.00536    128462.55   -33899.651    2570.7185    -36470.37     392.2574    241.77818 
   92700    134.94265   -181.70317    128459.84   -33898.244    2544.9623   -36443.206    392.41308    239.35579 
   92750    136.02577   -193.26239    128536.47   -33932.934    2565.3895   -36498.324    392.54452    241.27699 
   92800    134.92193   -166.58953    128569.35   -33927.368    2544.5717    -36471.94    392.98427    239.31906 
   92850     136.9676    215.04218    128697.72   -33929.911     2583.152   -36513.063    393.61782    242.94757 
   92900    133.73226   -160.30625    128777.21   -33941.229    2522.1349   -36463.364    393.54271    237.20886 
   92950    134.36885   -461.87164     128747.4   -33942.387    2534.1408   -36476.528    393.17688    238.33802 
   93000    136.99115   -284.88899    128714.82   -33910.364    2583.5963    -36493.96     392.9438    242.98935 
   93050    137.12295    58.777457    128705.23   -33879.593     2586.082   -36465.675    393.30246    243.22313 
   93100    138.84604   -180.31972    128686.85   -33856.095    2618.5788   -36474.673    393.37085    246.27948 
   93150    138.09428   -249.28396    128676.95   -33836.504    2604.4008   -36440.904     393.5918    244.94603 
   93200    136.32436    248.21725    128718.05   -33851.483    2571.0209   -36422.504    393.71863    241.80662 
   93250     136.0923   -174.33181    128719.34   -33843.397    2566.6444   -36410.041    393.64471    241.39501 
   93300    136.44532   -482.96803    128734.97   -33821.896    2573.3021   -36395.198    393.78654    242.02117 
   93350    135.01641   -601.43588    128681.52   -33849.729    2546.3534   -36396.082    393.62295    239.48663 
   93400    134.88736   -291.99824    128632.11   -33853.764    2543.9196   -36397.684    393.96915    239.25773 
   93450     136.1423   -119.47819       128559    -33884.82    2567.5874   -36452.408    394.14804     241.4837 
   93500     136.9646   -285.65985    128599.61   -33904.553    2583.0956   -36487.648    395.20264    242.94226 
   93550    136.56838   -188.93756    128569.77   -33884.191     2575.623   -36459.814     396.3394    242.23946 
   93600    134.75752   -382.76163    128571.56   -33898.832     2541.471   -36440.303    397.26077    239.02743 
   93650    136.65331   -400.38817    128483.64   -33870.377    2577.2248   -36447.602    397.45494    242.39011 
   93700    136.36326    52.464379    128479.82   -33899.221    2571.7544   -36470.976    397.96736    241.87561 
   93750    134.08262   -330.70022    128501.35    -33927.25    2528.7426   -36455.993    398.56172    237.83031 
   93800    136.32181   -234.91289    128456.83   -33895.458    2570.9727    -36466.43    399.48792    241.80209 
   93850    136.50971   -257.42922     128415.9   -33873.082    2574.5165   -36447.598    399.58212    242.13539 
   93900     135.5457   -256.67347    128379.04   -33855.828    2556.3357   -36412.164    400.10487    240.42547 
   93950    135.69939   -257.01443    128310.61   -33885.716    2559.2342    -36444.95    401.03262    240.69808 
   94000    132.30689   -188.04706    128304.77   -33906.805    2495.2531   -36402.058    401.44932     234.6806 
   94050     133.9838   -268.09966    128318.98   -33895.337    2526.8789   -36422.216    401.51898    237.65503 
   94100    132.74668   -268.38313    128302.04   -33936.758    2503.5473   -36440.305    401.68887    235.46068 
   94150    134.64952   -35.829989    128362.15   -33917.384     2539.434   -36456.818    401.83585    238.83586 
   94200    136.28885   -305.19107    128366.73   -33891.782    2570.3512   -36462.133    401.84598    241.74364 
   94250    136.26171   -509.53075    128339.52   -33883.317    2569.8394   -36453.157    402.13418     241.6955 
   94300    135.29772    -144.5096    128328.73   -33865.425    2551.6589   -36417.084    403.14325    239.98561 
   94350    138.00587   -274.48725    128414.43   -33808.246    2602.7335   -36410.979    403.84864    244.78922 
   94400    135.30591   -362.02604    128270.45   -33832.392    2551.8134   -36384.206    404.26528    240.00014 
   94450    134.31792   -361.40828    128240.68   -33813.675    2533.1802   -36346.855    404.01607    238.24767 
   94500    136.11304   -224.58985    128185.19   -33832.414    2567.0356   -36399.449    404.24872     241.4318 
   94550    136.17551   -226.75829    128121.44   -33843.442    2568.2136   -36411.656    404.33853    241.54259 
   94600    134.96677   -160.43294     128086.3    -33861.09    2545.4173   -36406.508    405.32933    239.39859 
   94650    136.93549   -199.68877    128173.89   -33828.812    2582.5465   -36411.358    405.99509    242.89062 
   94700    137.77256    -12.33883    128246.16   -33839.712    2598.3333   -36438.045    406.66368    244.37538 
   94750    135.12139    -256.1445    128172.97   -33852.448    2548.3333   -36400.781    406.73652    239.67284 
   94800    133.92806   -184.81916    128112.17   -33862.958    2525.8276   -36388.786    406.99373    237.55616 
   94850     136.5002   -639.20609     128020.9   -33823.451    2574.3372   -36397.788    407.62484    242.11853 
   94900    136.75355   -177.68088    127902.19   -33776.784    2579.1152   -36355.899    407.59496     242.5679 
   94950     136.2009   -267.49091    127797.94   -33808.062    2568.6924   -36376.754    407.89335    241.58763 
   95000    135.80595     3.671028    127702.89   -33844.928    2561.2439   -36406.171      408.186    240.88709 
   95050     136.1615    -57.75379    127788.68   -33856.724    2567.9494   -36424.673    408.75173    241.51775 
   95100    134.29827   -331.56521    127767.87   -33928.746    2532.8096   -36461.556    409.05746    238.21282 
   95150    140.23715    160.34175    127768.08   -33898.402    2644.8144   -36543.217    408.85717    248.74697 
   95200    134.28438   -83.413725    127851.77   -33878.803    2532.5477    -36411.35     408.8991    238.18819 
   95250    138.27905   -217.66277    127837.42   -33840.567    2607.8855   -36448.453    409.11042    245.27377 
   95300    135.24912    26.963521    127895.48   -33937.431    2550.7424   -36488.173    409.84839    239.89941 
   95350    135.37236    -227.4545    127927.15   -33906.471    2553.0666   -36459.537    410.21281    240.11801 
   95400    133.05108     197.1387    127954.08   -33946.844    2509.2882   -36456.132    410.33406    236.00061 
   95450    134.64158   -146.29249    128065.38   -33990.482    2539.2843   -36529.766    409.85543    238.82178 
   95500    133.69606   -59.872742    128124.77   -33959.096    2521.4522   -36480.548    409.80572    237.14465 
   95550    133.38394   -33.157613    128206.08   -33979.476    2515.5658   -36495.042    409.96881    236.59103 
   95600    133.22167   -256.59233     128251.5    -33965.91    2512.5054   -36478.415    409.89479    236.30319 
   95650    135.23541   -80.721687    128283.61   -33912.361    2550.4838   -36462.845    409.47992    239.87509 
   95700    133.98482   -211.88562    128288.48   -33941.108    2526.8981   -36468.006    409.75892    237.65684 
   95750    133.17441   -274.08026    128226.78   -33961.239    2511.6142   -36472.853    410.00443    236.21937 
   95800    133.71246   -195.04353    128232.83   -33962.935    2521.7616   -36484.696    409.82354    237.17375 
   95850    133.22288   -517.54707    128229.82   -33946.817    2512.5282   -36459.345    410.13016    236.30534 
   95900     135.0199   -334.15806    128211.51   -33925.544    2546.4192   -36471.963    410.02303    239.49282 
   95950    133.44206    -268.5709    128188.74   -33925.426     2516.662   -36442.088    409.49603    236.69412 
   96000    134.59404   -51.320819    128133.35   -33969.622    2538.3878    -36508.01     409.5233    238.73746 
   96050    133.29115    -137.4949    128081.18   -33982.715    2513.8159   -36496.531    409.76318    236.42644 
   96100    136.05728   -137.76507    128047.41   -33983.138    2565.9839   -36549.122     409.9414    241.33289 
   96150    132.94304   -267.11751    127972.33   -33969.106    2507.2506   -36476.357    409.37035    235.80898 
   96200    135.54858   -550.39614    127906.09   -33905.625    2556.3899   -36462.015     408.8087    240.43057 
   96250    137.63679   -368.68201    127821.62   -33857.101    2595.7728   -36452.874    408.24791    244.13457 
   96300    136.23565   -296.61916    127773.46   -33838.959    2569.3479   -36408.307    408.39584    241.64928 
   96350    136.48659   -143.34952    127858.71   -33862.081    2574.0805   -36436.162    409.36965    242.09438 
   96400    137.75909   -160.94643    127824.78   -33877.678    2598.0792   -36475.757    409.83633    244.35148 
   96450    135.39862    46.069994    127807.03   -33933.272    2553.5618   -36486.834    409.96409    240.16459 
   96500    133.62348   -88.244916    127807.55   -33969.426    2520.0834    -36489.51    410.04642    237.01591 
   96550    133.70678   -162.55966    127852.22   -33961.097    2521.6543   -36482.751    410.20782    237.16366 
   96600    135.30765   -323.08526    127784.42   -33945.288    2551.8461   -36497.135    410.71146    240.00322 
   96650    137.24614    -74.08744    127712.35   -33887.011    2588.4052   -36475.416    411.00011    243.44163 
   96700    136.97514   -71.455073    127724.18   -33908.237    2583.2944   -36491.531    411.18511    242.96095 
   96750    131.76636   -222.08141    127774.07   -33939.454    2485.0589   -36424.513    410.90543    233.72182 
   96800    133.63995   -143.45333    127794.49   -33961.131     2520.394   -36481.525    410.62452    237.04512 
   96850    136.62348   -94.348342       127834   -33905.814    2576.6622   -36482.477    410.54707    242.33719 
   96900    133.19714   -284.51518    127896.54   -33908.799    2512.0427   -36420.842    410.81764    236.25968 
   96950     137.6978   -180.96195    127975.22   -33909.912    2596.9233   -36506.835    411.75327    244.24277 
   97000    132.93553   -264.59934    128031.39    -33924.53     2507.109   -36431.639    412.38776    235.79566 
   97050    137.10548    -302.4982    128041.22   -33887.498    2585.7525    -36473.25    412.42596    243.19215 
   97100     133.7403   -424.97731    128058.53   -33896.367    2522.2866   -36418.654     412.8333    237.22312 
   97150    133.59609   -274.11715    128117.71   -33905.353    2519.5669    -36424.92    413.25874    236.96733 
   97200    134.31207    -353.7644    128185.89   -33981.326      2533.07   -36514.396    414.05462    238.23731 
   97250    133.27566   -228.39177    128148.15   -33998.711    2513.5237   -36512.234    414.13041    236.39897 
   97300     134.4139   -453.29282    128037.33   -34033.977    2534.9904   -36568.968    414.07989    238.41793 
   97350    134.77507   -288.63201    127925.67   -33986.035     2541.802   -36527.837    414.54045    239.05856 
   97400     133.1527   -152.32848    127925.97   -34000.798    2511.2048   -36512.003     414.4738    236.18087 
   97450    132.48224   -255.99502    127891.51   -34018.354      2498.56   -36516.915    414.60408    234.99162 
   97500    134.11357   -423.06598    127879.39   -33998.585    2529.3262   -36527.912    414.61371    237.88521 
   97550    136.35233   -12.686708    127993.21   -33993.793    2571.5483   -36565.341    414.60232    241.85623 
   97600    134.65511   -17.312862    128071.21   -33992.904    2539.5395   -36532.444    414.61639    238.84577 
   97650    134.13687   -214.79116    128119.73   -33962.276    2529.7657   -36492.041    415.05827    237.92654 
   97700    134.32615   -276.14381    128183.34   -33910.406    2533.3354   -36443.742    415.65604    238.26227 
   97750    135.75281   -331.38215    128156.93   -33911.546    2560.2417   -36471.788    416.12921    240.79283 
   97800    134.46965    -261.2443    128177.27     -33942.7    2536.0418   -36478.742    416.53813    238.51681 
   97850    135.93076   -278.08339    128163.58   -33927.425    2563.5977   -36491.022    416.69327    241.10847 
   97900    134.73314   -249.85561    128095.27   -33940.379    2541.0111    -36481.39     416.6156    238.98418 
   97950    136.85396   -294.29584    128103.63   -33941.787    2581.0089   -36522.795    417.11116      242.746 
   98000    134.55445   -312.55568    128090.12   -33950.984    2537.6411   -36488.625    417.06642    238.66723 
   98050    134.09774   -304.51385    128068.22   -33959.016    2529.0278   -36488.044    417.25701    237.85714 
   98100     132.3684   -285.30541    128024.91    -33938.59    2496.4131   -36435.003    417.35057     234.7897 
   98150    135.38175   -310.03587    128029.14   -33919.735    2553.2437   -36472.978    417.72404    240.13467 
   98200    133.65068   -410.43273    127956.08   -33905.692    2520.5963   -36426.288     417.7837    237.06415 
   98250     133.4563   -351.93113    127862.99   -33903.516    2516.9304   -36420.447    417.37601    236.71937 
   98300    133.31208   -259.86378     127932.7   -33954.989    2514.2105   -36469.199    417.88127    236.46356 
   98350    132.53079    -370.1679    127903.95   -33925.326    2499.4756   -36424.801    418.31652    235.07773 
   98400    131.37802   -404.35944    127838.76   -33990.581    2477.7349   -36468.316     418.6965      233.033 
   98450    133.25262    -331.0089    127785.66    -33956.38    2513.0891   -36469.469    418.45125     236.3581 
   98500    133.23726   -156.17011    127804.52   -33942.921    2512.7994    -36455.72    418.48866    236.33085 
   98550    132.69282   -110.08527       127912   -33981.899    2502.5315   -36484.431    418.97604    235.36515 
   98600    133.93155   -110.95637     128018.3   -33910.848    2525.8935   -36436.741    418.48115    237.56236 
   98650    133.20416   -432.66036    127973.03   -33954.252    2512.1751   -36466.427    418.99853    236.27213 
   98700    132.94617   -258.91649    127942.73   -33931.951    2507.3096   -36439.261    419.02705    235.81452 
   98750    135.02816   -138.65876    127975.31   -33903.335    2546.5751    -36449.91    418.99352    239.50748 
   98800    136.60679   -39.610518    128013.55   -33885.392    2576.3474   -36461.739    419.37565    242.30759 
   98850    136.21087   -116.84633    128085.72   -33898.419    2568.8806     -36467.3    419.72514    241.60532 
   98900    136.18638   -288.86757     128119.4   -33868.482    2568.4187   -36436.901    420.02106    241.56189 
   98950    134.29982   -247.47538     128142.3   -33880.629    2532.8389   -36413.468    420.61269    238.21557 
   99000    136.32806   -329.71238    128074.47   -33843.686    2571.0906   -36414.777    420.21294    241.81318 
   99050    135.42197   -294.75552    128199.93   -33853.851    2554.0021   -36407.853    420.51535    240.20599 
   99100    136.40292   -235.53977    128172.26   -33849.342    2572.5025   -36421.844    420.73387    241.94597 
   99150    134.65365   -354.92351     128162.4   -33875.793     2539.512   -36415.305    420.67377    238.84319 
   99200    135.26599   -256.70668     128169.1   -33858.909    2551.0604    -36409.97    421.22744    239.92932 
   99250    133.85517   -30.748316    128252.95   -33804.165    2524.4529   -36328.618    421.48866    237.42687 
   99300    133.21479   -600.62525    128219.79   -33834.765    2512.3757   -36347.141    421.40742      236.291 
   99350    132.73447   -395.07924     128167.9   -33850.728     2503.317   -36354.045    421.03252    235.43902 
   99400    136.69777   -243.36264    128207.96   -33822.688    2578.0632   -36400.751    421.15374    242.46896 
   99450    135.85226   -361.14062    128219.13   -33772.625    2562.1173   -36334.742    421.80506    240.96923 
   99500    135.78681   -144.87853    128188.36   -33829.871     2560.883   -36390.754    421.60074    240.85315 
   99550    135.02639   -283.39918    128139.42   -33827.805    2546.5417   -36374.347    421.83276    239.50434 
   99600    135.37163   -273.15711    128162.38   -33848.537    2553.0527    -36401.59    422.31645     240.1167 
   99650     134.2645   -98.096459    128093.97   -33857.824    2532.1728   -36389.997    423.10127    238.15292 
   99700    132.73765   -276.39561    128073.67   -33853.708     2503.377   -36357.085     423.6258    235.44467 
   99750     137.1442   -192.35269    128004.19   -33812.196    2586.4828   -36398.679    423.79951    243.26083 
   99800     135.1289   -361.31499    128016.49   -33835.342    2548.4751   -36383.817    423.74682    239.68617 
   99850    137.55427    -97.29742    127943.75   -33789.891    2594.2164   -36384.107    424.08597    243.98819 
   99900    135.84034   -236.21531    127920.26     -33795.3    2561.8924   -36357.192    423.49517    240.94808 
   99950    136.86562   -173.42478     127925.8   -33767.666    2581.2288   -36348.895    423.81593    242.76668 
  100000    135.99519   -239.86164    127855.77   -33778.668    2564.8129   -36343.481    424.16246    241.22276 
Loop time of 98.397 on 60 procs for 100000 steps with 6328 atoms

Performance: 439.038 ns/day, 0.055 hours/ns, 1016.291 timesteps/s
99.7% CPU use with 60 MPI tasks x no OpenMP threads

MPI task timing breakdown:
Section |  min time  |  avg time  |  max time  |%varavg| %total
---------------------------------------------------------------
Pair    | 18.979     | 41.112     | 66.489     | 320.1 | 41.78
Neigh   | 0.93752    | 2.0103     | 5.6282     | 115.9 |  2.04
Comm    | 18.252     | 42.337     | 64.104     | 301.8 | 43.03
Output  | 0.20423    | 0.20805    | 0.22312    |   0.5 |  0.21
Modify  | 8.1198     | 11.369     | 13.952     |  52.7 | 11.55
Other   |            | 1.361      |            |       |  1.38

Nlocal:    105.467 ave 245 max 64 min
Histogram: 47 1 0 0 0 0 0 0 4 8
Nghost:    806.567 ave 1061 max 513 min
Histogram: 24 0 0 0 0 0 0 0 24 12
Neighs:    0 ave 0 max 0 min
Histogram: 60 0 0 0 0 0 0 0 0 0
FullNghs:  8626.83 ave 30820 max 2552 min
Histogram: 48 0 0 0 0 0 0 0 2 10

Total # of neighbors = 517610
Ave neighs/atom = 81.7968
Neighbor list builds = 5988
Dangerous builds = 0

write_data		${DIR}/data.eq-${NAME}-${TEMP}
write_data		run_4/data.eq-${NAME}-${TEMP}
write_data		run_4/data.eq-het_freeze_4-${TEMP}
write_data		run_4/data.eq-het_freeze_4-240
undump          1

reset_timestep  0

unfix           2
unfix           3
unfix           4


################################################
#######         Run Simulation         #########
################################################

log				${DIR}/log.run_${NAME}
log				run_4/log.run_${NAME}
log				run_4/log.run_het_freeze_4
