LAMMPS data file via write_data, version 16 Mar 2018, timestep = 6000000

5021 atoms
2 atom types

0.0000000000000000e+00 4.9219999999999999e+01 xlo xhi
0.0000000000000000e+00 4.9019635930410494e+01 ylo yhi
1.6615160639717530e-01 3.9833848393584077e+01 zlo zhi

Masses

1 18.015
2 12.01

Atoms # atomic

201 2 0.0000000000000000e+00 2.8417180249513345e+00 1.9685338278326494e+00 0 0 0
203 2 0.0000000000000000e+00 0.0000000000000000e+00 1.9685338278326494e+00 0 0 0
205 2 1.2305000000000001e+00 7.1042950623783474e-01 1.9685338278326494e+00 0 0 0
212 2 1.2305000000000001e+00 2.1312885187134998e+00 1.9685338278326494e+00 0 0 0
214 2 2.4610000000000003e+00 2.8417180249513345e+00 1.9685338278326494e+00 0 0 0
216 2 2.4610000000000003e+00 0.0000000000000000e+00 1.9685338278326494e+00 0 0 0
218 2 3.6915000000000004e+00 7.1042950623783474e-01 1.9685338278326494e+00 0 0 0
233 2 3.6914999999999996e+00 2.1312885187134998e+00 1.9685338278326494e+00 0 0 0
235 2 4.9220000000000006e+00 2.8417180249513332e+00 1.9685338278326494e+00 0 0 0
237 2 4.9220000000000006e+00 0.0000000000000000e+00 1.9685338278326494e+00 0 0 0
239 2 6.1524999999999999e+00 7.1042950623783407e-01 1.9685338278326494e+00 0 0 0
262 2 6.1524999999999999e+00 2.1312885187134989e+00 1.9685338278326494e+00 0 0 0
264 2 7.3829999999999991e+00 2.8417180249513345e+00 1.9685338278326494e+00 0 0 0
266 2 7.3829999999999991e+00 0.0000000000000000e+00 1.9685338278326494e+00 0 0 0
268 2 8.6134999999999984e+00 7.1042950623783407e-01 1.9685338278326494e+00 0 0 0
299 2 8.6134999999999984e+00 2.1312885187135002e+00 1.9685338278326494e+00 0 0 0
208 2 0.0000000000000000e+00 4.2625770374269996e+00 1.9685338278326494e+00 0 0 0
210 2 1.2305000000000001e+00 4.9730065436648339e+00 1.9685338278326494e+00 0 0 0
225 2 1.2305000000000001e+00 6.3938655561404980e+00 1.9685338278326494e+00 0 0 0
229 2 2.4610000000000003e+00 4.2625770374269996e+00 1.9685338278326494e+00 0 0 0
231 2 3.6914999999999996e+00 4.9730065436648339e+00 1.9685338278326494e+00 0 0 0
254 2 3.6914999999999996e+00 6.3938655561404980e+00 1.9685338278326494e+00 0 0 0
206 2 0.0000000000000000e+00 7.1042950623783341e+00 1.9685338278326494e+00 0 0 0
227 2 2.4610000000000003e+00 7.1042950623783341e+00 1.9685338278326494e+00 0 0 0
258 2 4.9220000000000006e+00 4.2625770374269978e+00 1.9685338278326494e+00 0 0 0
260 2 6.1524999999999999e+00 4.9730065436648339e+00 1.9685338278326494e+00 0 0 0
291 2 6.1524999999999999e+00 6.3938655561404980e+00 1.9685338278326494e+00 0 0 0
295 2 7.3829999999999991e+00 4.2625770374269996e+00 1.9685338278326494e+00 0 0 0
297 2 8.6135000000000002e+00 4.9730065436648339e+00 1.9685338278326494e+00 0 0 0
336 2 8.6135000000000002e+00 6.3938655561404980e+00 1.9685338278326494e+00 0 0 0
256 2 4.9220000000000006e+00 7.1042950623783341e+00 1.9685338278326494e+00 0 0 0
293 2 7.3830000000000009e+00 7.1042950623783341e+00 1.9685338278326494e+00 0 0 0
221 2 0.0000000000000000e+00 8.5251540748539991e+00 1.9685338278326494e+00 0 0 0
223 2 1.2305000000000001e+00 9.2355835810918343e+00 1.9685338278326494e+00 0 0 0
250 2 2.4610000000000003e+00 8.5251540748539991e+00 1.9685338278326494e+00 0 0 0
252 2 3.6915000000000004e+00 9.2355835810918343e+00 1.9685338278326494e+00 0 0 0
219 2 0.0000000000000000e+00 1.1366872099805333e+01 1.9685338278326494e+00 0 0 0
246 2 1.2305000000000001e+00 1.0656442593567498e+01 1.9685338278326494e+00 0 0 0
248 2 2.4610000000000003e+00 1.1366872099805333e+01 1.9685338278326494e+00 0 0 0
283 2 3.6914999999999996e+00 1.0656442593567499e+01 1.9685338278326494e+00 0 0 0
287 2 4.9220000000000006e+00 8.5251540748539991e+00 1.9685338278326494e+00 0 0 0
289 2 6.1524999999999999e+00 9.2355835810918343e+00 1.9685338278326494e+00 0 0 0
332 2 7.3830000000000009e+00 8.5251540748539991e+00 1.9685338278326494e+00 0 0 0
334 2 8.6134999999999984e+00 9.2355835810918343e+00 1.9685338278326494e+00 0 0 0
285 2 4.9220000000000006e+00 1.1366872099805333e+01 1.9685338278326494e+00 0 0 0
328 2 6.1524999999999999e+00 1.0656442593567499e+01 1.9685338278326494e+00 0 0 0
330 2 7.3829999999999991e+00 1.1366872099805333e+01 1.9685338278326494e+00 0 0 0
375 2 8.6134999999999984e+00 1.0656442593567498e+01 1.9685338278326494e+00 0 0 0
202 2 0.0000000000000000e+00 1.4208590124756650e+00 5.2691689608025909e+00 0 0 0
204 2 0.0000000000000000e+00 0.0000000000000000e+00 5.2691689608025909e+00 0 0 0
213 2 1.2305000000000001e+00 2.1312885187134998e+00 5.2691689608025909e+00 0 0 0
215 2 2.4610000000000003e+00 1.4208590124756650e+00 5.2691689608025909e+00 0 0 0
217 2 2.4610000000000003e+00 0.0000000000000000e+00 5.2691689608025909e+00 0 0 0
234 2 3.6914999999999996e+00 2.1312885187134998e+00 5.2691689608025909e+00 0 0 0
211 2 1.2305000000000001e+00 3.5521475311891644e+00 5.2691689608025909e+00 0 0 0
232 2 3.6914999999999996e+00 3.5521475311891644e+00 5.2691689608025909e+00 0 0 0
530 2 0.0000000000000000e+00 2.8417180249513345e+00 8.5698040937775151e+00 0 0 0
531 2 0.0000000000000000e+00 0.0000000000000000e+00 8.5698040937775151e+00 0 0 0
532 2 1.2305000000000001e+00 7.1042950623783474e-01 8.5698040937775151e+00 0 0 0
536 2 1.2305000000000001e+00 2.1312885187134998e+00 8.5698040937775151e+00 0 0 0
537 2 2.4610000000000003e+00 2.8417180249513345e+00 8.5698040937775151e+00 0 0 0
538 2 2.4610000000000003e+00 0.0000000000000000e+00 8.5698040937775151e+00 0 0 0
539 2 3.6915000000000004e+00 7.1042950623783474e-01 8.5698040937775151e+00 0 0 0
547 2 3.6914999999999996e+00 2.1312885187134998e+00 8.5698040937775151e+00 0 0 0
236 2 4.9220000000000006e+00 1.4208590124756650e+00 5.2691689608025909e+00 0 0 0
238 2 4.9220000000000006e+00 0.0000000000000000e+00 5.2691689608025909e+00 0 0 0
263 2 6.1524999999999999e+00 2.1312885187134989e+00 5.2691689608025909e+00 0 0 0
265 2 7.3829999999999991e+00 1.4208590124756659e+00 5.2691689608025909e+00 0 0 0
267 2 7.3829999999999991e+00 0.0000000000000000e+00 5.2691689608025909e+00 0 0 0
300 2 8.6134999999999984e+00 2.1312885187135002e+00 5.2691689608025909e+00 0 0 0
261 2 6.1524999999999999e+00 3.5521475311891644e+00 5.2691689608025909e+00 0 0 0
298 2 8.6134999999999984e+00 3.5521475311891657e+00 5.2691689608025909e+00 0 0 0
548 2 4.9220000000000006e+00 2.8417180249513332e+00 8.5698040937775151e+00 0 0 0
549 2 4.9220000000000006e+00 0.0000000000000000e+00 8.5698040937775151e+00 0 0 0
550 2 6.1524999999999999e+00 7.1042950623783407e-01 8.5698040937775151e+00 0 0 0
562 2 6.1524999999999999e+00 2.1312885187134989e+00 8.5698040937775151e+00 0 0 0
563 2 7.3829999999999991e+00 2.8417180249513345e+00 8.5698040937775151e+00 0 0 0
564 2 7.3829999999999991e+00 0.0000000000000000e+00 8.5698040937775151e+00 0 0 0
565 2 8.6134999999999984e+00 7.1042950623783407e-01 8.5698040937775151e+00 0 0 0
581 2 8.6134999999999984e+00 2.1312885187135002e+00 8.5698040937775151e+00 0 0 0
207 2 0.0000000000000000e+00 5.6834360499026637e+00 5.2691689608025909e+00 0 0 0
209 2 0.0000000000000000e+00 4.2625770374269996e+00 5.2691689608025909e+00 0 0 0
226 2 1.2305000000000001e+00 6.3938655561404980e+00 5.2691689608025909e+00 0 0 0
228 2 2.4610000000000003e+00 5.6834360499026637e+00 5.2691689608025909e+00 0 0 0
230 2 2.4610000000000003e+00 4.2625770374269996e+00 5.2691689608025909e+00 0 0 0
255 2 3.6914999999999996e+00 6.3938655561404980e+00 5.2691689608025909e+00 0 0 0
224 2 1.2305000000000001e+00 7.8147245686161639e+00 5.2691689608025909e+00 0 0 0
253 2 3.6914999999999996e+00 7.8147245686161639e+00 5.2691689608025909e+00 0 0 0
534 2 0.0000000000000000e+00 4.2625770374269996e+00 8.5698040937775151e+00 0 0 0
535 2 1.2305000000000001e+00 4.9730065436648339e+00 8.5698040937775151e+00 0 0 0
543 2 1.2305000000000001e+00 6.3938655561404980e+00 8.5698040937775151e+00 0 0 0
545 2 2.4610000000000003e+00 4.2625770374269996e+00 8.5698040937775151e+00 0 0 0
546 2 3.6914999999999996e+00 4.9730065436648339e+00 8.5698040937775151e+00 0 0 0
558 2 3.6914999999999996e+00 6.3938655561404980e+00 8.5698040937775151e+00 0 0 0
533 2 0.0000000000000000e+00 7.1042950623783341e+00 8.5698040937775151e+00 0 0 0
544 2 2.4610000000000003e+00 7.1042950623783341e+00 8.5698040937775151e+00 0 0 0
257 2 4.9220000000000006e+00 5.6834360499026637e+00 5.2691689608025909e+00 0 0 0
259 2 4.9220000000000006e+00 4.2625770374269978e+00 5.2691689608025909e+00 0 0 0
292 2 6.1524999999999999e+00 6.3938655561404980e+00 5.2691689608025909e+00 0 0 0
294 2 7.3829999999999991e+00 5.6834360499026637e+00 5.2691689608025909e+00 0 0 0
296 2 7.3829999999999991e+00 4.2625770374269996e+00 5.2691689608025909e+00 0 0 0
337 2 8.6135000000000002e+00 6.3938655561404980e+00 5.2691689608025909e+00 0 0 0
290 2 6.1524999999999999e+00 7.8147245686161639e+00 5.2691689608025909e+00 0 0 0
335 2 8.6135000000000002e+00 7.8147245686161639e+00 5.2691689608025909e+00 0 0 0
560 2 4.9220000000000006e+00 4.2625770374269978e+00 8.5698040937775151e+00 0 0 0
561 2 6.1524999999999999e+00 4.9730065436648339e+00 8.5698040937775151e+00 0 0 0
577 2 6.1524999999999999e+00 6.3938655561404980e+00 8.5698040937775151e+00 0 0 0
579 2 7.3829999999999991e+00 4.2625770374269996e+00 8.5698040937775151e+00 0 0 0
580 2 8.6135000000000002e+00 4.9730065436648339e+00 8.5698040937775151e+00 0 0 0
600 2 8.6135000000000002e+00 6.3938655561404980e+00 8.5698040937775151e+00 0 0 0
559 2 4.9220000000000006e+00 7.1042950623783341e+00 8.5698040937775151e+00 0 0 0
578 2 7.3830000000000009e+00 7.1042950623783341e+00 8.5698040937775151e+00 0 0 0
220 2 0.0000000000000000e+00 9.9460130873296642e+00 5.2691689608025909e+00 0 0 0
222 2 0.0000000000000000e+00 8.5251540748539991e+00 5.2691689608025909e+00 0 0 0
249 2 2.4610000000000003e+00 9.9460130873296642e+00 5.2691689608025909e+00 0 0 0
251 2 2.4610000000000003e+00 8.5251540748539991e+00 5.2691689608025909e+00 0 0 0
245 2 1.2305000000000001e+00 1.2077301606043163e+01 5.2691689608025909e+00 0 0 0
247 2 1.2305000000000001e+00 1.0656442593567498e+01 5.2691689608025909e+00 0 0 0
282 2 3.6914999999999996e+00 1.2077301606043163e+01 5.2691689608025909e+00 0 0 0
284 2 3.6914999999999996e+00 1.0656442593567499e+01 5.2691689608025909e+00 0 0 0
541 2 0.0000000000000000e+00 8.5251540748539991e+00 8.5698040937775151e+00 0 0 0
542 2 1.2305000000000001e+00 9.2355835810918343e+00 8.5698040937775151e+00 0 0 0
556 2 2.4610000000000003e+00 8.5251540748539991e+00 8.5698040937775151e+00 0 0 0
557 2 3.6915000000000004e+00 9.2355835810918343e+00 8.5698040937775151e+00 0 0 0
540 2 0.0000000000000000e+00 1.1366872099805333e+01 8.5698040937775151e+00 0 0 0
554 2 1.2305000000000001e+00 1.0656442593567498e+01 8.5698040937775151e+00 0 0 0
555 2 2.4610000000000003e+00 1.1366872099805333e+01 8.5698040937775151e+00 0 0 0
573 2 3.6914999999999996e+00 1.0656442593567499e+01 8.5698040937775151e+00 0 0 0
286 2 4.9220000000000006e+00 9.9460130873296642e+00 5.2691689608025909e+00 0 0 0
288 2 4.9220000000000006e+00 8.5251540748539991e+00 5.2691689608025909e+00 0 0 0
331 2 7.3830000000000009e+00 9.9460130873296642e+00 5.2691689608025909e+00 0 0 0
333 2 7.3830000000000009e+00 8.5251540748539991e+00 5.2691689608025909e+00 0 0 0
327 2 6.1524999999999999e+00 1.2077301606043163e+01 5.2691689608025909e+00 0 0 0
329 2 6.1524999999999999e+00 1.0656442593567499e+01 5.2691689608025909e+00 0 0 0
374 2 8.6135000000000002e+00 1.2077301606043163e+01 5.2691689608025909e+00 0 0 0
376 2 8.6134999999999984e+00 1.0656442593567498e+01 5.2691689608025909e+00 0 0 0
575 2 4.9220000000000006e+00 8.5251540748539991e+00 8.5698040937775151e+00 0 0 0
576 2 6.1524999999999999e+00 9.2355835810918343e+00 8.5698040937775151e+00 0 0 0
598 2 7.3830000000000009e+00 8.5251540748539991e+00 8.5698040937775151e+00 0 0 0
599 2 8.6134999999999984e+00 9.2355835810918343e+00 8.5698040937775151e+00 0 0 0
574 2 4.9220000000000006e+00 1.1366872099805333e+01 8.5698040937775151e+00 0 0 0
596 2 6.1524999999999999e+00 1.0656442593567499e+01 8.5698040937775151e+00 0 0 0
597 2 7.3829999999999991e+00 1.1366872099805333e+01 8.5698040937775151e+00 0 0 0
620 2 8.6134999999999984e+00 1.0656442593567498e+01 8.5698040937775151e+00 0 0 0
2265 1 1.5367830405673448e+00 1.3523326770677317e+00 1.4476664463550920e+01 2 2 0
1366 1 2.0037409181706467e+00 1.7076064931643287e+00 1.1618360744120439e+01 0 2 0
3475 1 4.4304090801283644e+00 3.2005105375566187e+00 1.1339529045735825e+01 2 1 0
2551 1 6.1009478696231465e+00 9.3634328747370410e-01 1.4246548916681869e+01 -1 1 -1
4917 1 6.6011511210644178e+00 1.2872260868954948e+00 1.1607155063353099e+01 -1 0 0
971 1 9.0208720169974761e+00 2.6080002620262230e+00 1.1039312595640792e+01 -1 2 0
1019 1 2.0569807990832381e+00 7.4271430490425159e+00 1.1388413919937419e+01 -1 1 0
2372 1 4.1690226977275699e+00 5.9248507249006694e+00 1.1130852289193077e+01 2 2 0
149 1 4.2951521820295362e+00 5.3893472133923410e+00 1.4043114483782650e+01 0 1 0
3769 1 6.6919270940669549e+00 7.1190254048435300e+00 1.1058571944250637e+01 0 2 -1
4890 1 8.3226316989075872e+00 5.2092056358728822e+00 1.3969921289042940e+01 -1 1 -1
1442 1 8.8627181924945280e+00 5.2222194814418961e+00 1.1373916074871232e+01 1 -1 0
3629 1 2.2589965154434672e+00 1.0132729231788673e+01 1.1084681518257312e+01 1 -3 1
4805 1 2.1747449624904598e+00 1.0357843349821549e+01 1.3949101212568301e+01 0 2 1
3514 1 4.7547781548476857e+00 1.1329596245718017e+01 1.0876568283796507e+01 1 0 1
3455 1 4.4954126027185515e+00 1.1176633751530611e+01 1.4974365908006471e+01 1 -1 -1
4641 1 9.2389423795151764e+00 1.0423457140927589e+01 1.4448118607382870e+01 0 0 0
996 1 9.7080619291585553e+00 1.0601314685606875e+01 1.1153065544013385e+01 0 1 0
1428 1 7.1024311098894817e+00 9.6700309748331481e+00 1.7889446067183901e+01 0 -2 0
3917 1 1.6339588550778983e-01 1.1686752153651581e+01 1.5072967111239659e+01 -1 1 0
4926 1 6.6141021915465519e+00 9.3208835921916915e+00 1.4493334056094843e+01 -3 2 -1
4675 1 6.8869573347614130e+00 9.8006651514659033e+00 1.1614587444374854e+01 0 1 0
1048 1 3.9510070935407779e+00 2.7060804010736024e+00 1.4797602043990544e+01 2 2 0
1046 1 1.6467674133111252e+00 1.9008539098073274e+00 1.8393051129868386e+01 0 0 0
50 1 3.9036137619898272e+00 3.1108505010974330e+00 1.7711278884150943e+01 2 1 0
3611 1 8.1726378762129723e+00 2.4902694193552231e+00 1.4807915394613156e+01 2 3 -1
4970 1 6.1080980452379405e+00 1.4879903715871274e+00 1.8564377275274481e+01 4 1 -1
2292 1 8.6713147612701693e+00 2.1907792074805124e+00 1.7690639106019013e+01 2 3 0
1374 1 2.1230854355007169e+00 7.4751637460734557e+00 1.4493395136767528e+01 1 3 0
2506 1 2.5337443125358532e+00 7.5339277422477382e+00 1.7332055916927366e+01 0 1 -1
3438 1 4.5896537999042089e+00 5.8886472143733046e+00 1.8350818029237836e+01 3 -3 0
2521 1 6.6441324712190495e+00 6.7230617113884907e+00 1.4697045120245942e+01 -1 1 0
1174 1 9.1312839831826906e+00 4.9651784727930366e+00 1.8120329370585473e+01 1 0 1
16 1 7.2253298524318357e+00 6.7266753288626893e+00 1.7638509620039468e+01 3 1 1
3716 1 2.3400343420613807e+00 1.0174737955568945e+01 1.8318616763097843e+01 -1 0 -1
3515 1 4.7832396888614097e+00 1.1146875526483118e+01 1.7756027648164419e+01 1 0 0
3969 1 8.7848662027693716e-02 1.1428799012619660e+01 1.7722176745153259e+01 1 1 1
4635 1 9.5313799716692102e+00 1.0861124224267797e+01 1.7164147113729491e+01 -2 0 -1
935 1 1.2949559268907870e-01 5.9685388721283505e+00 1.8460334869274639e+01 2 0 0
3585 1 2.7276413850623982e-01 1.1824200647400515e+01 1.0834298392016001e+01 1 1 0
1476 1 1.8451610412574255e+00 1.9152958490020251e+00 2.1321805375226301e+01 2 1 0
166 1 4.9983834365577779e+00 1.0957770363028901e+01 2.8274438414148399e+01 0 -2 0
3953 1 9.3618755944261736e+00 7.9872199790417193e+00 2.1342744308636661e+01 -1 -2 0
2305 1 6.1141403974680903e+00 1.1853096234799296e+00 2.1427001931939238e+01 0 1 -1
1184 1 2.0982132198150047e+00 4.7183873090739539e+00 2.1780568048311157e+01 3 2 -1
131 1 4.3890715406403631e+00 5.9475512857354413e+00 2.0940823451277012e+01 2 0 0
2162 1 2.0672116515515815e+00 4.3852144756674569e+00 2.4556079692227993e+01 0 -2 -1
1423 1 6.2577646902709558e+00 3.9282496781810785e+00 2.1905787393795322e+01 3 -2 0
2267 1 8.9228517341912088e+00 4.8963137754927137e+00 2.1026025419536559e+01 2 0 1
2610 1 5.4305607208379547e-01 1.1541817918418607e+01 2.8340362884126620e+01 3 2 0
3406 1 4.9590425475679725e+00 8.6196229952481431e+00 2.1336819594169331e+01 -1 2 0
2546 1 2.2840816464234730e+00 9.7312822121353193e+00 2.0958756474588071e+01 0 -2 1
2401 1 4.6429850821172787e+00 8.4956478372590229e+00 2.4354525974001742e+01 0 2 0
190 1 9.6162991399570288e+00 1.0268811617422045e+01 2.5421774281299541e+01 0 0 0
5018 1 7.3957035341224442e+00 9.7753176365306107e+00 2.0775781895941243e+01 0 0 0
3770 1 4.1246463346846731e+00 2.9354633272654600e+00 2.5407963134584605e+01 0 -1 0
3592 1 2.0977840345109420e+00 1.7356016510157586e+00 2.9108298371979146e+01 0 1 1
2414 1 4.2008496473183126e+00 3.2419271151280782e+00 2.8320000736444847e+01 0 2 -1
100 1 6.5097342804433085e+00 4.1831591448324694e+00 2.4725915073906396e+01 -1 4 0
118 1 8.7236207236466345e+00 2.5965899519659121e+00 2.5410252873708000e+01 -2 -1 0
3715 1 8.6879197041338685e+00 2.4633804897780944e+00 2.8143346477881607e+01 3 -2 -1
1068 1 6.3643034178807554e+00 1.5294875342580534e+00 2.8991772836487375e+01 2 2 -1
1121 1 2.2191738839163113e+00 7.1723887233225350e+00 2.5388422526236035e+01 2 1 0
4807 1 2.1279965712232869e+00 7.3493243854350014e+00 2.8166991419770671e+01 0 -1 0
2275 1 4.3555785283296364e+00 5.8412130959849646e+00 2.8984278069803612e+01 -4 1 0
924 1 6.8358133615637380e+00 6.6985543522800794e+00 2.8105036034605664e+01 -1 3 -1
199 1 6.6978359995510433e+00 7.0905999269724029e+00 2.5268479570734396e+01 0 -2 0
3929 1 8.8945419692463759e+00 5.1024701620335700e+00 2.8800274291066700e+01 -1 4 0
1222 1 9.2501104211688716e+00 7.8218995215569782e+00 2.4083932839984669e+01 0 0 0
3526 1 7.0618798048744846e-01 1.1356223635675192e+01 2.5549007038505550e+01 2 1 0
3731 1 2.5212998670233127e+00 9.9758427616970486e+00 2.9150087324532890e+01 1 0 0
955 1 4.9628294387243956e+00 1.1060304316474902e+01 2.5486098516511202e+01 -2 -1 0
2224 1 4.1284073148652567e-02 5.8513012168449743e+00 2.9145062682790350e+01 1 1 -1
195 1 7.3276659387529781e+00 9.3026680575991278e+00 2.8957207487270711e+01 0 2 0
3632 1 4.1570767872492391e+00 7.0707124730925386e-02 2.4737755218750824e+01 1 -1 -1
2253 1 9.7401542534390089e+00 1.0521005851915437e+01 2.8145562436343358e+01 -1 -1 0
4721 1 7.4313787062019259e+00 1.2069071652164652e+01 2.4765504085500424e+01 0 2 0
4876 1 5.7410311626796322e-02 8.6907743384233367e+00 2.4694408930848425e+01 3 0 0
3606 1 1.7376878411399423e+00 1.7279541350409480e+00 3.1550294473707947e+01 2 -2 0
4938 1 4.0265544459094764e+00 2.8859854833385268e+00 3.2486423854490113e+01 0 0 -1
1473 1 6.3486028872772042e+00 1.8188575877238267e+00 3.1797052087405120e+01 1 3 1
2468 1 8.8125006635728393e+00 2.7606594968481866e+00 3.2607898880806488e+01 0 -1 -1
2377 1 2.6863649821505682e+00 7.1232651402356364e+00 3.2475827834849170e+01 -2 1 0
4662 1 4.8682142689707755e+00 5.5127576695629221e+00 3.1727248734368580e+01 1 -2 0
3723 1 5.1046771815313541e+00 8.0164985858608766e+00 3.8677894666561357e+01 2 0 0
1133 1 7.2312994639935431e+00 6.6242778057939891e+00 3.2573083708682645e+01 2 1 -1
142 1 9.3856526298800418e+00 5.2796965026756615e+00 3.1579265521147939e+01 -1 0 1
3574 1 2.6353587671963217e+00 9.6044568508077930e+00 3.1882513784149410e+01 1 -1 0
1372 1 4.6333607163329926e-01 1.1469221984960377e+01 3.2464398499118531e+01 2 1 0
2161 1 4.9802362076535989e+00 1.1027520111929418e+01 3.2723313207258215e+01 -1 1 0
1277 1 7.0427264104936187e+00 9.2345521509286232e+00 3.1682498516330551e+01 0 1 -1
3973 1 5.2177830392145204e+00 1.1148298776766675e+01 3.5541683338071977e+01 -1 0 0
1196 1 4.5744692597740571e+00 2.8980193250418695e+00 3.9156031898632307e+01 0 -2 0
31 1 4.3229185188517638e+00 3.0612566381871069e+00 3.5304457993190297e+01 0 -2 0
73 1 6.9191886519467538e-01 1.1796026647401522e+01 3.5412923245521498e+01 5 2 0
10 1 5.0728465837328214e+00 8.5592198901034990e+00 3.6047407385919357e+01 0 0 0
1305 1 4.1592290343178506e+00 2.9904044724889522e-01 3.8450709586163001e+01 1 -2 0
1395 1 9.0581827656627762e+00 2.2237101860951785e+00 3.5878020887828654e+01 0 0 0
3678 1 9.2596553429485251e+00 2.6144864514473474e+00 3.8884882513203792e+01 2 0 0
145 1 6.8953330939231812e+00 3.9827862706288162e+00 3.8603764702161385e+01 0 -1 0
1260 1 5.4815196272568834e+00 1.0857535097690679e+01 3.8935870284513214e+01 1 -2 0
1142 1 1.8925104144000240e+00 4.7494528894490919e+00 3.5743847968818358e+01 0 4 -1
3662 1 2.5047161571625787e+00 7.4954623078258953e+00 3.5179130930790535e+01 0 2 0
48 1 2.4207496931640513e+00 4.4786546549701134e+00 3.8437896259606688e+01 1 0 0
3510 1 2.6147750562424945e+00 7.1194349558223919e+00 3.9342670129158677e+01 1 1 -1
1401 1 7.0435089598369602e+00 6.6808882669314205e+00 3.5360735996180608e+01 -1 0 -1
4667 1 9.5553758150548056e+00 7.7833770227505426e+00 3.8721059900130911e+01 -2 0 0
1127 1 2.5752368393988545e-01 9.0188541201026204e+00 3.6287800749699130e+01 3 -1 0
2614 1 6.8062964934875785e+00 3.9678083604998373e+00 3.5852878173465058e+01 1 0 0
3609 1 7.2735539369748219e+00 6.5151852678462561e+00 3.9254898979931681e+01 -3 2 0
2484 1 6.3256661182628438e-01 8.7727164424542998e+00 3.9003834611249104e+01 2 0 -1
4694 1 4.1123123020416424e-01 1.1472542734085751e+01 3.8806873921079486e+01 1 3 0
12 1 9.7826456329311178e+00 1.0405847192118959e+01 3.5028642721085632e+01 3 0 0
3729 1 9.4476328205306999e+00 1.0504512441177576e+01 3.2233759462335541e+01 0 0 0
3673 1 9.3798283639510380e+00 7.9598774209672349e+00 3.6190138886204693e+01 0 -2 -1
4873 1 7.7364534153886897e+00 1.2075586274357837e+01 3.8601638736528813e+01 -2 1 0
4827 1 4.1393556239928877e+00 2.8267989263356696e-01 3.5627848361856067e+01 3 1 -1
242 2 0.0000000000000000e+00 1.2787731112280996e+01 1.9685338278326494e+00 0 0 0
244 2 1.2305000000000001e+00 1.3498160618518829e+01 1.9685338278326494e+00 0 0 0
279 2 2.4610000000000003e+00 1.2787731112280996e+01 1.9685338278326494e+00 0 0 0
281 2 3.6915000000000004e+00 1.3498160618518829e+01 1.9685338278326494e+00 0 0 0
240 2 0.0000000000000000e+00 1.5629449137232333e+01 1.9685338278326494e+00 0 0 0
275 2 1.2305000000000001e+00 1.4919019630994494e+01 1.9685338278326494e+00 0 0 0
277 2 2.4610000000000003e+00 1.5629449137232328e+01 1.9685338278326494e+00 0 0 0
320 2 3.6915000000000004e+00 1.4919019630994494e+01 1.9685338278326494e+00 0 0 0
324 2 4.9220000000000006e+00 1.2787731112280996e+01 1.9685338278326494e+00 0 0 0
326 2 6.1524999999999990e+00 1.3498160618518829e+01 1.9685338278326494e+00 0 0 0
371 2 7.3829999999999991e+00 1.2787731112280996e+01 1.9685338278326494e+00 0 0 0
373 2 8.6135000000000002e+00 1.3498160618518835e+01 1.9685338278326494e+00 0 0 0
322 2 4.9220000000000006e+00 1.5629449137232333e+01 1.9685338278326494e+00 0 0 0
367 2 6.1524999999999990e+00 1.4919019630994494e+01 1.9685338278326494e+00 0 0 0
369 2 7.3829999999999991e+00 1.5629449137232333e+01 1.9685338278326494e+00 0 0 0
414 2 8.6135000000000002e+00 1.4919019630994494e+01 1.9685338278326494e+00 0 0 0
271 2 0.0000000000000000e+00 1.7050308149707998e+01 1.9685338278326494e+00 0 0 0
316 2 2.4610000000000003e+00 1.7050308149707998e+01 1.9685338278326494e+00 0 0 0
269 2 0.0000000000000000e+00 1.9892026174659328e+01 1.9685338278326494e+00 0 0 0
273 2 1.2305000000000001e+00 1.7760737655945832e+01 1.9685338278326494e+00 0 0 0
312 2 1.2305000000000001e+00 1.9181596668421495e+01 1.9685338278326494e+00 0 0 0
314 2 2.4610000000000003e+00 1.9892026174659328e+01 1.9685338278326494e+00 0 0 0
318 2 3.6914999999999996e+00 1.7760737655945832e+01 1.9685338278326494e+00 0 0 0
359 2 3.6914999999999996e+00 1.9181596668421495e+01 1.9685338278326494e+00 0 0 0
363 2 4.9220000000000006e+00 1.7050308149707998e+01 1.9685338278326494e+00 0 0 0
410 2 7.3830000000000009e+00 1.7050308149707998e+01 1.9685338278326494e+00 0 0 0
361 2 4.9220000000000006e+00 1.9892026174659328e+01 1.9685338278326494e+00 0 0 0
365 2 6.1524999999999999e+00 1.7760737655945832e+01 1.9685338278326494e+00 0 0 0
406 2 6.1524999999999999e+00 1.9181596668421495e+01 1.9685338278326494e+00 0 0 0
408 2 7.3829999999999991e+00 1.9892026174659328e+01 1.9685338278326494e+00 0 0 0
412 2 8.6134999999999984e+00 1.7760737655945832e+01 1.9685338278326494e+00 0 0 0
448 2 8.6135000000000002e+00 1.9181596668421495e+01 1.9685338278326494e+00 0 0 0
306 2 0.0000000000000000e+00 2.4154603212086325e+01 1.9685338278326494e+00 0 0 0
308 2 0.0000000000000000e+00 2.1312885187134999e+01 1.9685338278326494e+00 0 0 0
310 2 1.2304999999999993e+00 2.2023314693372832e+01 1.9685338278326494e+00 0 0 0
351 2 1.2304999999999993e+00 2.3444173705848499e+01 1.9685338278326494e+00 0 0 0
353 2 2.4610000000000003e+00 2.4154603212086325e+01 1.9685338278326494e+00 0 0 0
355 2 2.4610000000000003e+00 2.1312885187134995e+01 1.9685338278326494e+00 0 0 0
357 2 3.6914999999999996e+00 2.2023314693372832e+01 1.9685338278326494e+00 0 0 0
398 2 3.6915000000000004e+00 2.3444173705848499e+01 1.9685338278326494e+00 0 0 0
400 2 4.9220000000000006e+00 2.4154603212086325e+01 1.9685338278326494e+00 0 0 0
402 2 4.9220000000000006e+00 2.1312885187134995e+01 1.9685338278326494e+00 0 0 0
404 2 6.1524999999999990e+00 2.2023314693372832e+01 1.9685338278326494e+00 0 0 0
440 2 6.1524999999999999e+00 2.3444173705848499e+01 1.9685338278326494e+00 0 0 0
442 2 7.3830000000000009e+00 2.4154603212086336e+01 1.9685338278326494e+00 0 0 0
444 2 7.3829999999999991e+00 2.1312885187134999e+01 1.9685338278326494e+00 0 0 0
446 2 8.6135000000000002e+00 2.2023314693372832e+01 1.9685338278326494e+00 0 0 0
474 2 8.6134999999999984e+00 2.3444173705848499e+01 1.9685338278326494e+00 0 0 0
243 2 0.0000000000000000e+00 1.2787731112280996e+01 5.2691689608025909e+00 0 0 0
280 2 2.4610000000000003e+00 1.2787731112280996e+01 5.2691689608025909e+00 0 0 0
241 2 0.0000000000000000e+00 1.4208590124756663e+01 5.2691689608025909e+00 0 0 0
276 2 1.2305000000000001e+00 1.4919019630994494e+01 5.2691689608025909e+00 0 0 0
278 2 2.4610000000000003e+00 1.4208590124756663e+01 5.2691689608025909e+00 0 0 0
321 2 3.6915000000000004e+00 1.4919019630994494e+01 5.2691689608025909e+00 0 0 0
552 2 0.0000000000000000e+00 1.2787731112280996e+01 8.5698040937775151e+00 0 0 0
553 2 1.2305000000000001e+00 1.3498160618518829e+01 8.5698040937775151e+00 0 0 0
571 2 2.4610000000000003e+00 1.2787731112280996e+01 8.5698040937775151e+00 0 0 0
572 2 3.6915000000000004e+00 1.3498160618518829e+01 8.5698040937775151e+00 0 0 0
551 2 0.0000000000000000e+00 1.5629449137232333e+01 8.5698040937775151e+00 0 0 0
569 2 1.2305000000000001e+00 1.4919019630994494e+01 8.5698040937775151e+00 0 0 0
570 2 2.4610000000000003e+00 1.5629449137232328e+01 8.5698040937775151e+00 0 0 0
592 2 3.6915000000000004e+00 1.4919019630994494e+01 8.5698040937775151e+00 0 0 0
325 2 4.9220000000000006e+00 1.2787731112280996e+01 5.2691689608025909e+00 0 0 0
372 2 7.3829999999999991e+00 1.2787731112280996e+01 5.2691689608025909e+00 0 0 0
323 2 4.9220000000000006e+00 1.4208590124756663e+01 5.2691689608025909e+00 0 0 0
368 2 6.1524999999999990e+00 1.4919019630994494e+01 5.2691689608025909e+00 0 0 0
370 2 7.3830000000000009e+00 1.4208590124756663e+01 5.2691689608025909e+00 0 0 0
415 2 8.6135000000000002e+00 1.4919019630994494e+01 5.2691689608025909e+00 0 0 0
594 2 4.9220000000000006e+00 1.2787731112280996e+01 8.5698040937775151e+00 0 0 0
595 2 6.1524999999999990e+00 1.3498160618518829e+01 8.5698040937775151e+00 0 0 0
618 2 7.3829999999999991e+00 1.2787731112280996e+01 8.5698040937775151e+00 0 0 0
619 2 8.6135000000000002e+00 1.3498160618518835e+01 8.5698040937775151e+00 0 0 0
593 2 4.9220000000000006e+00 1.5629449137232333e+01 8.5698040937775151e+00 0 0 0
616 2 6.1524999999999990e+00 1.4919019630994494e+01 8.5698040937775151e+00 0 0 0
617 2 7.3829999999999991e+00 1.5629449137232333e+01 8.5698040937775151e+00 0 0 0
640 2 8.6135000000000002e+00 1.4919019630994494e+01 8.5698040937775151e+00 0 0 0
272 2 0.0000000000000000e+00 1.7050308149707998e+01 5.2691689608025909e+00 0 0 0
274 2 1.2305000000000001e+00 1.6339878643470165e+01 5.2691689608025909e+00 0 0 0
317 2 2.4610000000000003e+00 1.7050308149707998e+01 5.2691689608025909e+00 0 0 0
319 2 3.6915000000000004e+00 1.6339878643470165e+01 5.2691689608025909e+00 0 0 0
270 2 0.0000000000000000e+00 1.8471167162183658e+01 5.2691689608025909e+00 0 0 0
313 2 1.2305000000000001e+00 1.9181596668421495e+01 5.2691689608025909e+00 0 0 0
315 2 2.4610000000000003e+00 1.8471167162183658e+01 5.2691689608025909e+00 0 0 0
360 2 3.6914999999999996e+00 1.9181596668421495e+01 5.2691689608025909e+00 0 0 0
567 2 0.0000000000000000e+00 1.7050308149707998e+01 8.5698040937775151e+00 0 0 0
590 2 2.4610000000000003e+00 1.7050308149707998e+01 8.5698040937775151e+00 0 0 0
566 2 0.0000000000000000e+00 1.9892026174659328e+01 8.5698040937775151e+00 0 0 0
568 2 1.2305000000000001e+00 1.7760737655945832e+01 8.5698040937775151e+00 0 0 0
588 2 1.2305000000000001e+00 1.9181596668421495e+01 8.5698040937775151e+00 0 0 0
589 2 2.4610000000000003e+00 1.9892026174659328e+01 8.5698040937775151e+00 0 0 0
591 2 3.6914999999999996e+00 1.7760737655945832e+01 8.5698040937775151e+00 0 0 0
612 2 3.6914999999999996e+00 1.9181596668421495e+01 8.5698040937775151e+00 0 0 0
364 2 4.9220000000000006e+00 1.7050308149707998e+01 5.2691689608025909e+00 0 0 0
366 2 6.1524999999999999e+00 1.6339878643470165e+01 5.2691689608025909e+00 0 0 0
411 2 7.3830000000000009e+00 1.7050308149707998e+01 5.2691689608025909e+00 0 0 0
413 2 8.6134999999999984e+00 1.6339878643470165e+01 5.2691689608025909e+00 0 0 0
362 2 4.9220000000000006e+00 1.8471167162183658e+01 5.2691689608025909e+00 0 0 0
407 2 6.1524999999999999e+00 1.9181596668421495e+01 5.2691689608025909e+00 0 0 0
409 2 7.3829999999999991e+00 1.8471167162183658e+01 5.2691689608025909e+00 0 0 0
449 2 8.6135000000000002e+00 1.9181596668421495e+01 5.2691689608025909e+00 0 0 0
614 2 4.9220000000000006e+00 1.7050308149707998e+01 8.5698040937775151e+00 0 0 0
638 2 7.3830000000000009e+00 1.7050308149707998e+01 8.5698040937775151e+00 0 0 0
613 2 4.9220000000000006e+00 1.9892026174659328e+01 8.5698040937775151e+00 0 0 0