
# Create simulation box and atoms

read_data data.ML_graphite_m500atm_240K
  orthogonal box = (0 0 1.53529) to (49.22 49.0196 38.4647)
  5 by 4 by 4 MPI processor grid
  reading atoms ...
  5021 atoms
  reading velocities ...
  5021 velocities
group water type 1
2261 atoms in group water
group graphite type 2
2760 atoms in group graphite

# Define potential

pair_style sw
pair_coeff * * MLC_e.sw mW C


# Fix graphite atoms in place

fix 5 graphite setforce 0.0 0.0 0.0
velocity graphite set 0.0 0.0 0.0


# Equilibration of molecular water

# Add velocity/set timestep

velocity	    water create ${TEMP} ${SEED} rot yes dist gaussian
velocity	    water create 240 ${SEED} rot yes dist gaussian
velocity	    water create 240 12133 rot yes dist gaussian
timestep	    5.0

# Define output

compute			1 water msd
compute			3 water temp
thermo	    	50
thermo_style	custom step temp press vol etotal ke pe c_1[4] c_3

# Neighbor lists

neigh_modify    delay 0 every 1 check yes

# Set fixes

fix             1 water momentum 10 linear 1 1 1 rescale
fix             2 water nve
fix             3 water temp/csvr ${TEMP} ${TEMP} 500.0 ${SEED}
fix             3 water temp/csvr 240 ${TEMP} 500.0 ${SEED}
fix             3 water temp/csvr 240 240 500.0 ${SEED}
fix             3 water temp/csvr 240 240 500.0 12133
fix             4 water press/berendsen z ${PRES} ${PRES} 1000.0 modulus 20000
fix             4 water press/berendsen z -500 ${PRES} 1000.0 modulus 20000
fix             4 water press/berendsen z -500 -500 1000.0 modulus 20000

# Run 0.5 ns equilibration

dump		    1 all atom 2000 ${DIR}/eq.${NAME}-${TEMP}.dump
dump		    1 all atom 2000 run_13/eq.${NAME}-${TEMP}.dump
dump		    1 all atom 2000 run_13/eq.het_freeze_13-${TEMP}.dump
dump		    1 all atom 2000 run_13/eq.het_freeze_13-240.dump

reset_timestep  0

run	            100000
Neighbor list info ...
  update every 1 steps, delay 0 steps, check yes
  max neighbors/atom: 2000, page size: 100000
  master list distance cutoff = 6.67472
  ghost atom cutoff = 6.67472
  binsize = 3.33736, bins = 15 15 12
  1 neighbor lists, perpetual/occasional/extra = 1 0 0
  (1) pair sw, perpetual
      attributes: full, newton on
      pair build: full/bin/atomonly
      stencil: full/bin/3d
      bin: standard
Per MPI rank memory allocation (min/avg/max) = 4.069 | 4.188 | 4.476 Mbytes
Step Temp Press Volume TotEng KinEng PotEng c_1[4] c_3 
       0    108.04781   -816.58172    89101.337   -21796.007    1616.7914   -23412.799            0          240 
      50     106.5301   -830.58669     89130.84   -21825.648    1594.0808   -23419.729   0.47129356     236.6288 
     100    106.75503    -934.9869    89073.025   -21821.345    1597.4466   -23418.792   0.78552813    237.12843 
     150    110.85672   -694.03722    89038.669   -21796.014    1658.8229   -23454.837     1.000773    246.23926 
     200    110.79486   -761.84055    89049.213   -21771.451    1657.8973   -23429.349    1.2276139    246.10185 
     250    108.47322   -1031.3616    88991.611   -21793.825    1623.1571   -23416.982    1.4061863    240.94494 
     300    106.69743    -858.5763    88938.804   -21818.398    1596.5848   -23414.983    1.6200603    237.00049 
     350    106.97783   -665.20326    88860.168   -21805.003    1600.7806   -23405.784    1.8373923    237.62333 
     400    104.48332   -935.17602    88924.671   -21841.876    1563.4535    -23405.33    2.0421491    232.08242 
     450    105.22701   -422.78951    88948.287   -21884.846    1574.5818   -23459.427    2.1969611    233.73432 
     500    108.23537   -835.87782    88982.242   -21844.365     1619.598   -23463.963    2.3478678    240.41662 
     550    106.97302   -785.47219    89108.335   -21849.017    1600.7085   -23449.725    2.5393501    237.61263 
     600    102.82333    -919.6121    89053.119   -21864.442     1538.614   -23403.056    2.7027409    228.39518 
     650    105.87057   -856.09271    89057.567   -21853.113    1584.2119   -23437.324    2.9328689    235.16384 
     700    105.18532   -956.89893     89027.54   -21831.561    1573.9581   -23405.519     3.239894    233.64173 
     750    105.80896   -888.01083    88980.297   -21837.475    1583.2899   -23420.765    3.4259315    235.02697 
     800    104.83469   -747.39666    88956.604   -21850.834    1568.7114   -23419.545     3.583299     232.8629 
     850    107.07364   -653.53889    88970.285   -21843.776    1602.2142    -23445.99    3.7778451    237.83614 
     900    106.15895   -839.55984     89020.27   -21871.831    1588.5271   -23460.358    3.9562372     235.8044 
     950     107.4772   -761.19599    89036.339   -21822.537     1608.253    -23430.79    4.1137511    238.73254 
    1000    109.44964    -818.4167    89060.369   -21837.695    1637.7679   -23475.463    4.2158428     243.1138 
    1050    106.29151   -929.36354    89055.491   -21808.604    1590.5106   -23399.115    4.3559287    236.09883 
    1100    110.38122   -1137.2379    89048.615   -21818.729    1651.7078   -23470.437    4.4849772    245.18307 
    1150    109.87528   -803.12707    89109.742   -21789.621    1644.1371   -23433.758    4.5796147    244.05926 
    1200    110.38977    -677.4515    89162.236   -21789.782    1651.8356   -23441.618    4.6954781    245.20205 
    1250    105.40829   -695.23971    89252.555   -21827.001    1577.2944   -23404.295    4.8782807    234.13699 
    1300    110.91839   -703.59184    89315.599   -21822.087    1659.7458   -23481.832    5.0165098    246.37625 
    1350    106.61314   -852.26003    89314.467   -21861.673    1595.3234   -23456.997    5.1362169    236.81325 
    1400      105.946    -722.9316    89285.387   -21875.543    1585.3406   -23460.884    5.2321654    235.33139 
    1450    107.23176    -1001.004    89192.229   -21883.618    1604.5804   -23488.199    5.4239844    238.18737 
    1500    109.70278   -862.48128    89202.385   -21874.098    1641.5558   -23515.654     5.527777    243.67608 
    1550    105.86656    -990.7774    89222.862   -21887.238    1584.1519    -23471.39    5.6813328    235.15492 
    1600    108.56136   -1170.1468    89266.169    -21831.08    1624.4759   -23455.555    5.8859422    241.14071 
    1650    111.03941   -866.23522    89221.758   -21862.696    1661.5568   -23524.253    6.0022722    246.64507 
    1700    107.89437   -685.25239    89247.888   -21852.489    1614.4953   -23466.985    6.1997742    239.65917 
    1750    105.92947   -1027.3287    89257.518   -21901.432    1585.0932   -23486.525    6.4013096    235.29466 
    1800    105.08549   -858.30705    89219.725   -21914.963    1572.4642   -23487.427    6.5115547    233.41998 
    1850    108.98723    -631.0551    89228.034   -21887.066    1630.8485   -23517.914    6.6148908    242.08667 
    1900    108.82042   -737.15734    89235.036   -21869.235    1628.3525   -23497.587    6.7338485    241.71616 
    1950    105.53242   -867.42949     89173.17   -21857.484    1579.1519   -23436.636     6.878911    234.41272 
    2000    105.86983   -1163.6845    89168.571   -21868.259    1584.2008   -23452.459    7.0269633    235.16219 
    2050    106.15029   -1166.4977    89151.835   -21827.189    1588.3975   -23415.586    7.1812877    235.78516 
    2100    108.34861   -860.71303    89079.817   -21839.595    1621.2924   -23460.887     7.310912    240.66814 
    2150    108.02631    -974.6509    89066.337   -21829.946    1616.4696   -23446.415    7.4595204    239.95224 
    2200    107.65166   -789.30946    88996.053   -21856.712    1610.8636   -23467.576    7.7261249    239.12006 
    2250    108.23936   -1018.0741    88982.741   -21858.299    1619.6576   -23477.957    8.0044194    240.42547 
    2300    105.57062   -992.22866    88921.117    -21861.53    1579.7236   -23441.253    8.1382447    234.49757 
    2350    106.19433   -692.33646    88940.131    -21821.51    1589.0565   -23410.567    8.3424774    235.88298 
    2400     106.9595   -763.60578    88938.197    -21849.18    1600.5063   -23449.687    8.5348067    237.58261 
    2450    109.96907   -890.21859    88928.718   -21854.151    1645.5405   -23499.691    8.6395848    244.26759 
    2500    105.55308   -619.26383    88984.653   -21902.104     1579.461   -23481.565    8.6930632     234.4586 
    2550    107.75795   -592.54787    89004.896    -21880.09    1612.4541   -23492.544     8.798768    239.35616 
    2600    106.19702   -727.14027     89024.69   -21862.736    1589.0968   -23451.833    8.9314443    235.88896 
    2650    105.79223   -630.77573    89133.838   -21855.725    1583.0396   -23438.765    9.1681295    234.98981 
    2700    108.47637   -981.37647    89164.226   -21820.552    1623.2042   -23443.756    9.4666833    240.95194 
    2750    105.73727   -541.49946    89155.524   -21835.527    1582.2172   -23417.744     9.692751    234.86773 
    2800    107.09828   -925.86448    89194.276   -21841.847     1602.583    -23444.43    9.7979556    237.89087 
    2850    106.74389   -513.21294    89144.187   -21846.039    1597.2799   -23443.319    9.8697984    237.10368 
    2900    108.40776    -949.7912    89187.416   -21809.422    1622.1776     -23431.6    9.8618156    240.79955 
    2950    108.45623   -768.75288    89210.309   -21782.345    1622.9028   -23405.247    9.8818096    240.90719 
    3000    107.60896   -742.58738    89173.894   -21804.215    1610.2246    -23414.44    9.8623996    239.02521 
    3050    107.21253   -949.71831    89193.564   -21789.754    1604.2926   -23394.047    9.9751321    238.14466 
    3100    109.34635   -816.77477    89171.192   -21795.061    1636.2223   -23431.283    10.114146    242.88437 
    3150    108.09593   -846.53832    89124.959   -21764.453    1617.5114   -23381.964     10.27541    240.10688 
    3200    109.61045   -432.81281    89231.925   -21744.287    1640.1742   -23384.461    10.415417      243.471 
    3250    112.17464   -957.69732    89266.086   -21721.992     1678.544   -23400.536     10.66646    249.16669 
    3300    111.71657   -1117.0946    89227.913   -21695.982    1671.6895   -23367.671    10.781438     248.1492 
    3350     108.8597   -817.38645    89207.722   -21754.374    1628.9403   -23383.315    10.833341    241.80341 
    3400    109.64024   -996.43724    89211.575   -21762.605      1640.62   -23403.225    10.883951    243.53717 
    3450    108.01939   -898.09699    89155.713   -21769.633    1616.3661   -23385.999     11.01126    239.93687 
    3500    109.11655   -957.16108    89084.502   -21757.331    1632.7836   -23390.114    11.284924    242.37392 
    3550    109.03529   -1011.6775    89028.754   -21729.546    1631.5677   -23361.113     11.52217    242.19342 
    3600    108.81867   -766.30268    89024.276   -21775.743    1628.3263   -23404.069    11.701716    241.71227 
    3650    108.40916   -587.30461    89024.082   -21770.029    1622.1985   -23392.227    11.824396    240.80265 
    3700    105.49916   -927.92544    89012.145   -21812.577    1578.6542   -23391.232    11.954432    234.33883 
    3750    106.61557   -941.28275    88978.948   -21873.679    1595.3599   -23469.039    12.087851    236.81866 
    3800    105.29725   -550.05333    89053.353   -21858.007    1575.6329   -23433.639    12.162717    233.89035 
    3850    105.91574   -853.22891    89045.968   -21865.443    1584.8878   -23450.331    12.300084    235.26416 
    3900    108.15161   -896.50957    89035.657   -21839.159    1618.3446   -23457.504    12.547786    240.23057 
    3950    104.90503   -827.95086    89067.721   -21823.418    1569.7639   -23393.182    12.613529    233.01914 
    4000    106.66363   -758.58792    89097.497    -21789.74     1596.079   -23385.819    12.511681    236.92542 
    4050    109.42097   -591.99567    89061.152   -21778.286    1637.3389   -23415.624     12.74888    243.05012 
    4100    106.64213   -462.15088    89056.898   -21778.989    1595.7573   -23374.746    12.931668    236.87766 
    4150    108.94801   -786.60372    89088.842   -21783.554    1630.2616   -23413.816    13.005012    241.99956 
    4200    109.66224   -611.15898    89104.865   -21768.623    1640.9491   -23409.573    13.281739    243.58603 
    4250    107.78775   -746.91549    89194.484   -21809.407    1612.8999   -23422.307    13.569011    239.42234 
    4300    108.77497   -993.43241    89231.579   -21787.989    1627.6723   -23415.661    13.744436    241.61519 
    4350     107.6614   -1158.6902    89178.321   -21788.709    1611.0093   -23399.718    13.740442    239.14169 
    4400    108.68993   -733.92496    89121.931   -21779.607    1626.3999   -23406.007    13.822041    241.42632 
    4450     107.5225   -993.98999    89102.226   -21764.993    1608.9308   -23373.924    14.054605    238.83316 
    4500     110.0645   -1120.4473    89045.327    -21749.42    1646.9685   -23396.389    14.298854    244.47956 
    4550     108.8157   -774.29107    89078.779   -21763.847    1628.2819   -23392.129    14.548051    241.70568 
    4600    111.07067   -871.16839    89013.101   -21723.798    1662.0245   -23385.823    14.899199     246.7145 
    4650     107.3165   -960.45854    88966.235   -21766.181    1605.8484    -23372.03    15.142311     238.3756 
    4700    108.27528   -853.62132    88974.163   -21760.407    1620.1951   -23380.602    15.313449    240.50526 
    4750    110.43854   -945.28026    88952.231    -21751.92    1652.5655   -23404.486    15.486216    245.31039 
    4800    108.16571    -894.4282    88924.802   -21784.285    1618.5555    -23402.84    15.536762    240.26188 
    4850    110.62069   -692.87358    88931.765    -21781.98    1655.2911   -23437.271     15.63114    245.71498 
    4900    106.94116    -1139.262    88890.073   -21777.674    1600.2319   -23377.906    15.912265    237.54187 
    4950    106.10632   -703.83002     88935.13   -21795.545    1587.7397   -23383.284    16.102458     235.6875 
    5000    107.58618   -925.06845    88927.148    -21781.52    1609.8838   -23391.404    16.318612    238.97462 
    5050    106.91563   -1102.8778     88912.58   -21788.963    1599.8498   -23388.813    16.445146    237.48516 
    5100    106.77357   -490.85838    88879.432   -21826.402    1597.7241   -23424.126    16.554257    237.16961 
    5150    107.20179   -600.97916    88925.702   -21827.046    1604.1319   -23431.178    16.720154     238.1208 
    5200    104.79518   -852.57549    88895.285   -21835.058    1568.1201   -23403.178    16.797847    232.77513 
    5250     107.2272    -967.8146    88868.762    -21832.45    1604.5121   -23436.962    16.914801    238.17723 
    5300    106.80615   -555.09603    88896.776   -21808.367    1598.2115   -23406.579    17.021662    237.24197 
    5350    106.83892   -849.59823    88957.822   -21836.351     1598.702   -23435.053    17.121753    237.31478 
    5400    107.26247   -645.49422    88963.764   -21785.168    1605.0398   -23390.207    17.550333    238.25557 
    5450    107.85342   -919.25436    88904.208   -21776.477    1613.8826   -23390.359    17.745077    239.56822 
    5500     107.9061   -886.46002    88876.325    -21780.15    1614.6709   -23394.821    17.800224    239.68523 
    5550    108.02858   -811.80029    88950.729   -21769.501    1616.5036   -23386.004    17.943465    239.95728 
    5600    107.80558   -698.71812    88999.386   -21763.384    1613.1667   -23376.551    18.020566    239.46194 
    5650    109.09401   -638.81224    89049.319   -21774.621    1632.4463   -23407.068    18.216143    242.32386 
    5700    110.00505   -808.13489    89137.159   -21772.955    1646.0789   -23419.034    18.424481    244.34751 
    5750    108.52107   -1042.8131    89201.855   -21786.939    1623.8731   -23410.812    18.627739    241.05122 
    5800    106.95224   -688.31794    89264.637   -21796.485    1600.3976   -23396.883    18.740628    237.56648 
    5850    108.99089   -784.31794    89328.573   -21784.851    1630.9033   -23415.754    18.957075     242.0948 
    5900     109.4386   -592.74595    89405.385   -21739.263    1637.6027   -23376.866    19.067759    243.08928 
    5950    108.09556   -561.60661    89480.348   -21789.457    1617.5059   -23406.963    19.167219    240.10607 
    6000    111.65888   -661.40966    89548.214   -21760.209    1670.8263   -23431.035    19.165511    248.02106 
    6050    105.41243    -1024.851    89566.597   -21818.451    1577.3564   -23395.807    19.351269    234.14619 
    6100    109.93421   -593.87985    89538.195    -21817.53    1645.0189   -23462.549    19.411708    244.19015 
    6150    106.81305   -815.83053    89535.784    -21838.27    1598.3148   -23436.585    19.577363     237.2573 
    6200    108.16504   -788.45236     89568.98     -21835.9    1618.5456   -23454.446    19.619245     240.2604 
    6250    107.57115   -889.35155    89575.954   -21852.892    1609.6588    -23462.55     19.73947    238.94123 
    6300    108.61203   -1116.5573    89557.137   -21859.945    1625.2342   -23485.179    19.812129    241.25327 
    6350     103.9646   -1119.8964    89571.623   -21895.649    1555.6916   -23451.341    19.930172    230.93022 
    6400    106.35025   -728.75608    89528.286   -21863.358    1591.3896   -23454.748    20.111652    236.22931 
    6450    108.07005   -1020.9554    89486.918   -21827.389    1617.1242   -23444.514    20.188994    240.04941 
    6500    109.25822    -1316.359     89377.36   -21787.253    1634.9036   -23422.156    20.301963    242.68862 
    6550    110.14702   -781.01808    89366.435   -21774.866    1648.2033   -23423.069     20.51268    244.66286 
    6600     109.6175   -980.50489    89491.649   -21781.301    1640.2798   -23421.581     20.86515    243.48667 
    6650    108.88524   -1090.7669    89499.523   -21779.037    1629.3224   -23408.359    21.069932    241.86014 
    6700    107.81308   -760.61464    89506.337   -21824.822    1613.2789   -23438.101    21.161484    239.47861 
    6750    106.31109   -940.76142    89547.293       -21793    1590.8037   -23383.803    21.428745    236.14233 
    6800    107.97151   -1182.4072    89509.841   -21803.377    1615.6496   -23419.026    21.777379    239.83052 
    6850    110.83519   -1118.6542    89493.182   -21791.108    1658.5009   -23449.608    22.010133    246.19145 
    6900    110.40802   -868.93714    89505.933   -21762.682    1652.1088   -23414.791    22.070007    245.24259 
    6950    107.55696   -749.96963    89494.893   -21714.176    1609.4464   -23323.623    22.184985     238.9097 
    7000    108.01666   -658.13153    89490.708   -21751.897    1616.3253   -23368.223     22.46473    239.93081 
    7050    109.03014   -796.50229     89496.32   -21786.898    1631.4906   -23418.388    22.879884    242.18199 
    7100    109.70363   -1192.4177     89477.23   -21801.789    1641.5685   -23443.357    23.188388    243.67798 
    7150    108.58014   -815.02095    89428.192   -21837.911     1624.757   -23462.668    23.311846    241.18243 
    7200    107.04282   -602.61647     89430.07   -21869.288     1601.753   -23471.041     23.54449    237.76767 
    7250      109.205   -664.77868    89492.773   -21829.731    1634.1071   -23463.838    23.756569    242.57039 
    7300    108.28506   -1048.1813    89487.257   -21834.138    1620.3416   -23454.479    23.928202      240.527 
    7350    108.14264   -740.68154    89516.627   -21876.492    1618.2104   -23494.702     24.08146    240.21064 
    7400    106.86413    -773.1518    89592.832   -21870.746    1599.0792   -23469.825    24.283044    237.37077 
    7450    109.45496   -550.99848    89615.694   -21846.402    1637.8475    -23484.25    24.406193    243.12562 
    7500    111.05622   -614.24411    89737.568   -21809.441    1661.8082   -23471.249    24.563528     246.6824 
    7550    110.20017   -707.10487    89777.421   -21766.834    1648.9986   -23415.833    24.621425    244.78091 
    7600    111.49587   -1040.2168    89800.893   -21787.163    1668.3871    -23455.55    24.729457    247.65898 
    7650    110.10629    -720.2732    89826.961   -21783.093    1647.5938   -23430.687    24.834171    244.57237 
    7700    111.52778    -1109.734    89798.224   -21757.199    1668.8645   -23426.064    24.915861    247.72985 
    7750    109.15506   -1090.3586    89807.873   -21759.476    1633.3599   -23392.836    25.201538    242.45947 
    7800    109.39423   -1031.1452    89788.338   -21822.308    1636.9388   -23459.247    25.192889    242.99072 
    7850    108.14398   -803.71631    89770.885    -21805.96    1618.2305   -23424.191    25.320662    240.21363 
    7900    107.02537   -1065.0321    89712.967   -21814.944     1601.492   -23416.436    25.470095    237.72893 
    7950    110.75464   -1185.1511    89674.167   -21823.778    1657.2955   -23481.074    25.539659    246.01252 
    8000    107.29876   -752.66366    89682.568   -21800.148    1605.5829   -23405.731    25.843567    238.33619 
    8050    108.38183   -1063.9297    89685.847   -21821.562    1621.7895   -23443.351    25.828358    240.74194 
    8100    107.06775   -1120.2917    89684.754   -21794.742    1602.1261   -23396.868    25.996438    237.82305 
    8150    107.96603   -1099.0144    89691.757     -21772.6    1615.5676   -23388.168    26.308729    239.81834 
    8200    106.12624   -1056.4465    89676.581   -21811.821    1588.0376   -23399.859    26.525742    235.73173 
    8250    106.03293   -1081.2814    89631.666   -21849.732    1586.6414   -23436.374     26.55298    235.52447 
    8300     106.1713   -1009.1099    89563.437   -21872.468    1588.7119    -23461.18    26.838715    235.83182 
    8350    105.95294   -664.94902    89553.589   -21865.242    1585.4444   -23450.686     26.95991    235.34679 
    8400    108.07268   -704.76856    89606.527   -21833.687    1617.1636   -23450.851    26.862466    240.05525 
    8450    107.52718    -820.9182     89602.26   -21831.251    1609.0009   -23440.252    27.123703    238.84356 
    8500     110.0067    -982.3615    89588.681   -21813.792    1646.1036   -23459.895    27.356128    244.35117 
    8550    108.22796   -1008.5015     89565.46   -21848.867     1619.487   -23468.354    27.287984    240.40015 
    8600     104.1768   -909.57529    89569.892   -21880.341    1558.8668   -23439.208    27.277975    231.40156 
    8650    105.01381   -802.45927    89488.099   -21878.491    1571.3916   -23449.883    27.272502    233.26076 
    8700    105.35431   -756.58587     89481.28   -21881.328    1576.4868   -23457.815    27.495459    234.01711 
    8750    106.75035   -773.04065     89553.86   -21863.947    1597.3766   -23461.324    27.719922    237.11803 
    8800    107.21373   -686.99379      89528.3   -21866.371    1604.3106   -23470.682    27.911047    238.14732 
    8850    107.97052   -974.27191    89524.404   -21852.366    1615.6348       -23468    27.919562    239.82831 
    8900    108.13168    -547.2589    89521.448   -21858.748    1618.0464   -23476.795    28.326368    240.18631 
    8950    107.27812   -490.75593    89494.447   -21873.059     1605.274   -23478.333     28.45268    238.29034 
    9000    106.20056     -874.761    89491.444   -21915.145    1589.1498   -23504.295    28.671576    235.89682 
    9050    107.80145   -657.52773    89506.627   -21841.634    1613.1049   -23454.739    28.818459    239.45278 
    9100    112.01052   -831.11507    89555.102   -21791.415    1676.0881   -23467.503    28.994933    248.80213 
    9150    109.01016   -937.93454     89522.51   -21801.668    1631.1917   -23432.859    29.159793    242.13762 
    9200    110.47542   -1022.4848    89531.536   -21795.581    1653.1173   -23448.699    29.348701     245.3923 
    9250    108.18494    -1142.657    89561.253   -21799.543    1618.8434   -23418.386    29.711768     240.3046 
    9300    108.54753   -910.19329     89524.56   -21741.425     1624.269   -23365.694    30.040849       241.11 
    9350    109.93048   -1067.8607    89565.491   -21740.383    1644.9631   -23385.346    30.012261    244.18187 
    9400    107.58841   -948.31176    89547.128   -21701.357    1609.9171   -23311.274    30.105339    238.97956 
    9450    111.77384   -663.45537    89534.818   -21680.241    1672.5465   -23352.788    30.358912    248.27641 
    9500    105.30275   -458.76165    89666.224   -21749.826    1575.7153   -23325.541    30.481756    233.90258 
    9550    108.61724   -867.63216    89816.558   -21772.244    1625.3122   -23397.556    30.566458    241.26484 
    9600    107.68825   -858.28357    89798.173   -21775.545    1611.4111   -23386.956     30.54164    239.20134 
    9650    108.47108   -960.87475    89767.663    -21806.09    1623.1251   -23429.215    30.738176     240.9402 
    9700     110.4826   -816.75643    89808.706   -21766.388    1653.2247   -23419.612    30.924672    245.40825 
    9750    107.14841    -1071.514    89751.178   -21786.513    1603.3331   -23389.846    31.169591    238.00223 
    9800    109.98617   -801.98095    89737.139   -21774.118    1645.7964   -23419.914    31.348368    244.30556 
    9850    110.66044    -789.5476    89717.128   -21726.281    1655.8859   -23382.167    31.661019    245.80328 
    9900    108.97944   -523.64997    89746.884   -21729.938     1630.732    -23360.67    31.743194    242.06938 
    9950    107.95509   -735.20951    89798.589   -21730.868     1615.404   -23346.272    31.964257    239.79405 
   10000    109.28968   -635.09772    89810.544   -21702.139    1635.3743   -23337.513    32.012751    242.75849 
   10050    109.16988   -1065.7627    89852.807   -21713.089    1633.5816   -23346.671    32.040418    242.49238 
   10100    110.75921   -923.92662    89872.356    -21686.22    1657.3639   -23343.584    32.207907    246.02267 
   10150    108.76426   -1094.6329    89803.047   -21688.398    1627.5121    -23315.91    32.258056     241.5914 
   10200     111.2451   -938.69949    89781.155   -21732.556    1664.6345   -23397.191    32.376034    247.10194 
   10250    112.59888   -1118.6581     89793.05   -21718.171    1684.8921   -23403.063    32.545561    250.10902 
   10300    107.93497   -1008.0325    89785.125   -21761.268    1615.1028    -23376.37    32.720972    239.74935 
   10350    108.94547    -693.0964    89736.641   -21808.592    1630.2236   -23438.815    33.018656    241.99391 
   10400     108.5203   -772.59333    89682.295   -21843.997    1623.8616   -23467.859    32.804266    241.04952 
   10450    106.01059   -946.69261    89670.251   -21823.375    1586.3071   -23409.682    32.949116    235.47485 
   10500    107.60887   -860.35101    89709.527   -21837.779    1610.2233   -23448.002    32.909736    239.02502 
   10550    107.70616   -822.33574    89693.373   -21811.506     1611.679   -23423.185    33.056968    239.24112 
   10600    107.56016    -579.2189    89725.765   -21809.602    1609.4943   -23419.097    33.272628    238.91681 
   10650    109.37965   -759.89125     89751.69   -21802.515    1636.7206   -23439.236    33.399846    242.95834 
   10700    112.37865   -857.41403    89745.438   -21798.255    1681.5967   -23479.851    33.851216    249.61984 
   10750    109.15307   -1046.2017    89747.956   -21799.974    1633.3301   -23433.304    33.948006    242.45505 
   10800    112.95906   -641.74005    89837.387    -21780.03    1690.2817   -23470.312     33.88436    250.90906 
   10850    110.50894   -923.57593    89851.883     -21822.5     1653.619   -23476.119    34.137918    245.46677 
   10900     107.9471   -883.80152    89861.881   -21867.401    1615.2845   -23482.685    34.098267    239.77631 
   10950    108.38259   -876.72074    89860.583   -21908.501    1621.8009   -23530.302    34.270162    240.74363 
   11000    109.02024   -813.49547    89802.063   -21856.343    1631.3425   -23487.685    34.617488       242.16 
   11050    107.40769   -1005.5616    89722.526   -21887.647    1607.2128    -23494.86    34.833026    238.57813 
   11100    105.60075   -782.31396    89678.177    -21862.02    1580.1744   -23442.195     34.81195     234.5645 
   11150    106.32661   -1091.9568    89652.356   -21857.331     1591.036   -23448.367    35.008536    236.17682 
   11200     108.1353   -1160.3548    89516.624   -21872.734    1618.1005   -23490.835    35.018959    240.19434 
   11250    106.48756   -1026.1932     89441.56   -21865.017    1593.4444   -23458.461    35.236686    236.53432 
   11300    111.42003   -914.80085    89417.898   -21845.247    1667.2522   -23512.499    35.270089    247.49051 
   11350    106.08786   -840.55017    89466.235   -21824.805    1587.4634   -23412.269    35.490555    235.64649 
   11400    104.77142   -862.62681    89539.347   -21875.811    1567.7646   -23443.576    35.748475    232.72236 
   11450    104.63445    -774.0529    89560.859   -21866.338     1565.715   -23432.053    35.959615    232.41811 
   11500    107.92065   -521.49693    89595.046    -21854.88    1614.8886   -23469.769    35.886852    239.71755 
   11550    108.31578   -962.09352    89588.486   -21903.696    1620.8012   -23524.498    36.310548    240.59523 
   11600    108.66641   -868.19145    89572.132   -21889.729    1626.0478   -23515.777    36.415114    241.37405 
   11650    109.12306   -826.64666    89520.597   -21892.592    1632.8811   -23525.473    36.315652    242.38839 
   11700    104.64245   -817.17308    89542.375   -21871.193    1565.8347   -23437.027    36.467466    232.43588 
   11750    109.07551   -695.81441     89593.63   -21841.644    1632.1696   -23473.814    36.611912    242.28278 
   11800    108.16796   -980.99094    89645.928   -21846.503    1618.5893   -23465.093    36.619791    240.26689 
   11850    102.93471   -1045.6791    89666.258   -21839.962    1540.2807   -23380.243    36.819264    228.64259 
   11900    107.37017   -910.85724    89668.851   -21831.816    1606.6514   -23438.467    36.686561    238.49481 
   11950    107.96466   -896.22559    89673.458   -21863.185    1615.5472   -23478.732    36.751179    239.81531 
   12000    108.39927   -684.42796    89668.471    -21846.13    1622.0505    -23468.18    37.101985    240.78068 
   12050    108.23788   -938.02439    89648.108   -21838.017    1619.6355   -23457.653    37.131278    240.42219 
   12100    108.15775   -1076.7934    89650.653   -21818.913    1618.4365   -23437.349    37.257942    240.24421 
   12150    105.62117    -664.8295    89629.623   -21775.496      1580.48   -23355.976     37.43399    234.60987 
   12200    109.52541   -468.60749    89664.361   -21748.615    1638.9017   -23387.517    37.593652    243.28211 
   12250    108.46613   -675.01739    89679.104   -21791.535     1623.051   -23414.586    37.819177    240.92919 
   12300    110.63291   -875.46937    89710.818    -21796.96    1655.4739   -23452.434     37.88255    245.74212 
   12350    111.90572   -612.31665    89704.849   -21766.956    1674.5199   -23441.476     37.86865    248.56935 
   12400    111.93867   -901.43742    89721.044   -21737.576    1675.0129   -23412.589    38.089203    248.64253 
   12450    109.50509   -714.02446     89665.58   -21738.374    1638.5976   -23376.971    38.341163    243.23696 
   12500    108.17954   -881.64753    89673.904   -21768.432    1618.7625   -23387.195    38.494111     240.2926 
   12550    109.69853    -638.6764    89633.276   -21743.212    1641.4922   -23384.704    38.568317    243.66664 
   12600    111.95184   -832.46826     89636.52   -21756.479      1675.21   -23431.689    38.606767    248.67179 
   12650    111.45781   -397.63292    89633.771   -21769.183    1667.8175   -23437.001     38.79169    247.57442 
   12700    109.74467   -626.72109        89704   -21790.302    1642.1826   -23432.485    39.000231    243.76913 
   12750    108.39198   -642.98579    89743.781   -21804.757    1621.9415   -23426.698    39.064081     240.7645 
   12800    108.95458   -718.24946    89756.234   -21817.412      1630.36   -23447.772    39.299457    242.01416 
   12850    110.90942   -842.79959    89740.194   -21788.221    1659.6115   -23447.833    39.260418    246.35631 
   12900    113.04792   -554.74598    89837.743   -21808.857    1691.6113   -23500.469    39.441872    251.10644 
   12950    110.51842   -847.21486    89935.471   -21807.484    1653.7607   -23461.245    39.630222    245.48781 
   13000    106.98382   -683.53108    90014.391    -21846.68    1600.8702    -23447.55    39.886024    237.63663 
   13050    107.87905    -631.4253    90133.424   -21857.016    1614.2661   -23471.282      40.1923    239.62514 
   13100       110.07    -1074.091      90152.4   -21828.789    1647.0508    -23475.84    40.271973    244.49177 
   13150    109.66022   -797.35135     90087.45   -21828.991    1640.9189    -23469.91    40.381239    243.58155 
   13200    108.10127   -1034.4014    90043.778   -21879.878    1617.5913   -23497.469    40.360399    240.11874 
   13250    107.77201   -1017.0049    90010.612   -21935.618    1612.6644   -23548.282    40.564028    239.38739 
   13300    103.89871    -962.1073    89939.276    -21918.27    1554.7056   -23472.976     40.57043    230.78385 
   13350    108.57437   -1078.1409    89885.818   -21896.508    1624.6706   -23521.179    40.515729    241.16961 
   13400    105.72527   -747.11632    89777.398   -21934.981    1582.0377   -23517.019    40.768151    234.84109 
   13450    106.31975   -451.20026    89730.313   -21919.268    1590.9333   -23510.202    40.836297    236.16157 
   13500    107.20781   -1086.7813    89752.516   -21906.175    1604.2219   -23510.397    41.218236    238.13416 
   13550    107.43126   -791.62865    89703.276   -21932.501    1607.5656   -23540.067    41.324683    238.63051 
   13600    108.04342   -814.36701    89711.706   -21905.509    1616.7258   -23522.234    41.619025    239.99026 
   13650      108.509   -875.48645    89652.666   -21928.763    1623.6925   -23552.455    41.561301    241.02441 
   13700    105.61562   -1016.0891    89701.111   -21923.508    1580.3969   -23503.905    41.825005    234.59753 
   13750    107.90453   -796.73259    89666.968    -21927.92    1614.6474   -23542.568    42.045716    239.68174 
   13800    105.39417   -615.43254     89639.76   -21908.768    1577.0833   -23485.852    41.977717    234.10565 
   13850     104.4191   -929.67593    89666.447   -21951.256    1562.4926   -23513.749    41.819377    231.93977 
   13900     104.5357   -895.13871    89629.601   -21972.059    1564.2374   -23536.296    42.112297    232.19878 
   13950    106.65263   -952.38365    89594.419   -21931.468    1595.9144   -23527.382    42.241924    236.90098 
   14000    107.44162   -905.10223    89599.357   -21873.528    1607.7205   -23481.248    42.474976    238.65351 
   14050    109.56088   -515.90048    89636.649   -21871.776    1639.4325   -23511.208    42.817011     243.3609 
   14100    107.47486   -788.79239    89703.142   -21923.761     1608.218   -23531.979    43.039342    238.72735 
   14150    108.28341   -766.15267    89696.258    -21916.18    1620.3169   -23536.497    43.194806    240.52333 
   14200    107.80508   -851.83907    89760.833   -21952.018    1613.1592   -23565.177    43.286996    239.46083 
   14250     104.5122   -504.57705    89815.924   -21936.628    1563.8858   -23500.514    43.408664    232.14658 
   14300    104.45857   -615.77651    89861.997   -21961.468    1563.0832   -23524.551    43.473365    232.02745 
   14350    104.07981   -1015.6467    89854.583   -21956.974    1557.4155    -23514.39     43.53538    231.18612 
   14400    107.67585   -790.60556    89889.854   -21921.304    1611.2255    -23532.53    43.534595     239.1738 
   14450    105.36994    -987.2239    89918.044   -21964.043    1576.7207   -23540.764    43.600331    234.05182 
   14500    108.47066   -654.61898    89945.939   -21970.268    1623.1187   -23593.387    43.957988    240.93924 
   14550    107.15063   -981.70926    89966.622   -21953.957    1603.3663   -23557.323    44.152997    238.00715 
   14600    107.48108    -787.4534    89989.731    -21908.24     1608.311   -23516.551    44.342027    238.74115 
   14650    109.13335   -851.40476    90008.319   -21890.011    1633.0351   -23523.046    44.392024    242.41126 
   14700    104.86985   -965.59767     90014.58   -21902.487    1569.2374   -23471.724    44.615714    232.94099 
   14750    105.29321   -614.89364    90039.028   -21898.819    1575.5725   -23474.392    44.744691    233.88139 
   14800    106.84545   -773.30665     90104.64   -21866.796    1598.7997   -23465.596    44.865599    237.32928 
   14850    109.10464   -1068.3109    90095.011   -21851.882    1632.6055   -23484.488    44.939132    242.34748 
   14900    108.68246   -1175.0742    90038.349   -21856.102     1626.288    -23482.39    45.122245    241.40971 
   14950    106.72885   -773.52704    89956.338   -21851.692    1597.0548   -23448.747    45.267272    237.07027 
   15000    105.73274   -987.88209    90020.978    -21808.64    1582.1494   -23390.789    45.485179    234.85768 
   15050    110.72632   -855.04573    90075.788   -21835.516    1656.8718   -23492.387    45.592132    245.94962 
   15100    104.58976     -848.281    90163.719   -21859.958    1565.0463   -23425.004    45.689398    232.31885 
   15150    109.01266   -1076.8309    90185.842   -21878.817    1631.2291   -23510.047    45.726869    242.14317 
   15200    108.80058   -1027.3292    90148.535   -21883.765    1628.0556   -23511.821    45.696973    241.67208 
   15250    107.96636   -860.62442    90176.939   -21931.635    1615.5726   -23547.208    45.662935    239.81908 
   15300    106.73241   -644.32861    90186.598    -21944.25    1597.1082   -23541.358    45.660665    237.07819 
   15350    107.74575   -650.14585    90248.978   -21897.514    1612.2714   -23509.786    45.809193    239.32904 
   15400     107.1725   -885.99797    90337.669   -21905.902    1603.6935   -23509.596    46.142089    238.05573 
   15450    107.98651   -1076.9586    90276.697   -21917.997    1615.8741   -23533.871    46.258645    239.86384 
   15500     106.5005   -1029.0693    90215.954   -21902.297     1593.638   -23495.935    46.552942    236.56306 
   15550    107.03189   -890.12354    90232.342   -21917.125    1601.5895   -23518.715    46.454476     237.7434 
   15600    106.25951   -876.70604    90213.332   -21897.973    1590.0318   -23488.005    46.546818    236.02775 
   15650    106.01323   -967.94947    90167.821   -21908.101    1586.3466   -23494.448    46.591982    235.48071 
   15700    108.23911   -907.78256    90118.968   -21927.367    1619.6539    -23547.02    46.485647    240.42491 
   15750    105.28871   -815.66249    90099.914   -21944.229    1575.5051   -23519.734    46.877328    233.87138 
   15800    107.77007   -714.68746    90146.203   -21885.992    1612.6354   -23498.628    46.915053    239.38307 
   15850    106.99838   -504.02104    90204.934   -21858.193    1601.0881   -23459.281    47.181115    237.66897 
   15900    108.47834     -726.087    90261.448   -21832.223    1623.2337   -23455.457    47.344232    240.95631 
   15950    107.11722   -773.42768    90257.567   -21845.217    1602.8663   -23448.083    47.619347    237.93294 
   16000    109.94237   -569.29511    90255.472   -21842.476     1645.141   -23487.617    47.714242    244.20828 
   16050    106.58538   -1077.8834    90191.507   -21890.071     1594.908   -23484.979    47.865797    236.75159 
   16100    107.72509   -908.48602    90163.622   -21871.008    1611.9623    -23482.97    47.934394    239.28316 
   16150    108.61195   -663.27202    90179.128   -21858.463     1625.233   -23483.696    48.090261    241.25309 
   16200    111.01188   -597.47774    90162.382   -21867.112    1661.1448   -23528.257    48.075251    246.58392 
   16250    109.93513   -859.03317    90138.619   -21827.489    1645.0326   -23472.521    48.555939    244.19219 
   16300    108.72142   -869.22391    90090.872   -21842.396    1626.8711   -23469.267     48.41153    241.49625 
   16350    109.43721   -814.43685    90073.286   -21853.785    1637.5819   -23491.367    48.542154     243.0862 
   16400    107.86377   -1132.8589    90007.952   -21851.477    1614.0374   -23465.514    48.902135     239.5912 
   16450    108.13706   -803.00441    89952.626   -21863.329    1618.1269   -23481.456    49.123062    240.19824 
   16500    107.32007   -1120.5785    89937.564   -21927.091    1605.9017   -23532.992    49.213147    238.38351 
   16550     108.3625   -1150.5453    89861.416   -21887.563    1621.5003   -23509.063    49.454319      240.699 
   16600    106.28457   -1110.5468    89835.847   -21884.199    1590.4069   -23474.606     49.56128    236.08343 
   16650    108.06472   -931.02525    89773.895   -21905.011    1617.0444   -23522.056    49.724131    240.03756 
   16700    107.44015    -924.5548     89722.16   -21842.933    1607.6986   -23450.631    49.645384    238.65025 
   16750    108.80265   -882.87702    89732.007   -21833.186    1628.0866   -23461.272    49.853605    241.67668 
   16800    105.79988    -1027.557    89715.594   -21840.956    1583.1542    -23424.11    50.094651    235.00682 
   16850    106.74852   -782.32075    89745.528   -21874.238    1597.3493   -23471.587    50.127455    237.11398 
   16900    109.15585   -848.45517    89785.314   -21849.964    1633.3717   -23483.336    50.393367    242.46122 
   16950    107.75402   -748.37151    89830.737   -21846.234    1612.3952   -23458.629     50.72918    239.34743 
   17000    107.12078   -803.25332      89899.6   -21894.765    1602.9197   -23497.685    50.848313    237.94085 
   17050    108.07788     -855.814    89873.327   -21876.479    1617.2413    -23493.72    51.040162    240.06679 
   17100    105.20238     -770.394    89829.681   -21883.641    1574.2133   -23457.854    50.983598    233.67962 
   17150    106.78829   -912.13626    89760.478   -21888.749    1597.9443   -23486.694    50.949459     237.2023 
   17200    108.84776   -706.78753    89803.059   -21905.688    1628.7616    -23534.45    50.936132    241.77689 
   17250    109.23245   -785.05701    89873.001   -21874.079    1634.5179   -23508.596    50.749324    242.63137 
   17300    104.07021   -594.93369    89847.978   -21910.307    1557.2719   -23467.578     50.66137     231.1648 
   17350     106.5341   -991.79385    89816.061   -21901.788    1594.1408   -23495.929    50.638937     236.6377 
   17400    107.58874   -856.62865    89794.882   -21874.283     1609.922   -23484.205    50.761062    238.98029 
   17450    106.52019   -878.99603    89774.019   -21890.185    1593.9326   -23484.118    51.009989     236.6068 
   17500    108.00008   -1142.6442    89750.907   -21880.901    1616.0772   -23496.979    51.388696    239.89398 
   17550     108.2319   -970.30307    89715.095   -21860.015     1619.546   -23479.561    51.570926     240.4089 
   17600    109.94808   -819.73673    89653.906   -21827.793    1645.2265    -23473.02    51.621635    244.22096 
   17650    109.35438   -841.78133    89638.078   -21838.859    1636.3424   -23475.202    51.938058     242.9022 
   17700    106.44323   -1153.8806    89610.541   -21880.988    1592.7811   -23473.769    52.257118    236.43586 
   17750    108.81353   -1068.2529    89578.868   -21880.062    1628.2494   -23508.311     52.48611    241.70086 
   17800    104.84947   -1075.8599    89570.253   -21902.218    1568.9325    -23471.15    52.685137    232.89572 
   17850    104.58302   -1193.2778    89518.866   -21914.468    1564.9454   -23479.413    52.796949    232.30387 
   17900    107.49096   -569.96366    89544.233   -21899.934    1608.4589   -23508.393    52.966939    238.76311 
   17950    109.19094   -821.09638    89558.514   -21882.698    1633.8969   -23516.595    53.369124    242.53917 
   18000    106.25283   -885.65578    89528.735   -21860.185     1589.932   -23450.117    53.613069    236.01293 
   18050     108.5176   -670.86357    89497.043   -21839.655    1623.8212   -23463.476    53.802393    241.04352 
   18100    109.54097   -992.55393    89531.895   -21840.055    1639.1345   -23479.189    54.071152    243.31666 
   18150    105.47141   -944.43063    89443.635    -21922.08     1578.239   -23500.319    54.274803     234.2772 
   18200    105.41297   -713.56674    89304.271   -21877.144    1577.3645   -23454.509    54.519708    234.14739 
   18250    106.74499   -538.12995     89370.29   -21838.605    1597.2965   -23435.902    54.647805    237.10614 
   18300     105.5007   -583.60534    89426.824   -21860.324    1578.6773   -23439.001     54.80237    234.34226 
   18350    106.12204   -870.30887    89433.748   -21863.085    1587.9747    -23451.06    54.987801     235.7224 
   18400    105.62759   -540.56489    89469.778   -21852.909     1580.576   -23433.485    55.058315    234.62411 
   18450    107.27849   -696.49774    89499.187   -21853.742    1605.2795   -23459.022    55.216874    238.29115 
   18500      107.508    -824.8173    89511.632   -21839.313    1608.7138   -23448.027    55.338631    238.80095 
   18550    109.10928   -695.20604    89518.538   -21824.597    1632.6748   -23457.272    55.362328    242.35777 
   18600    107.91049   -633.69333    89514.009   -21853.755    1614.7366   -23468.491    55.736802    239.69499 
   18650    107.55362   -1134.2494    89481.735   -21863.396    1609.3964   -23472.793    55.853113    238.90228 
   18700    111.12553    -869.8826    89417.883    -21834.38    1662.8454   -23497.225    55.996697    246.83636 
   18750    108.29442   -819.15616    89352.343   -21858.953    1620.4815   -23479.434    56.197846    240.54777 
   18800     105.8794   -1105.0382    89395.944   -21871.995     1584.344   -23456.339    56.186001    235.18344 
   18850    106.00908   -712.89616     89355.04   -21909.682    1586.2845   -23495.966     56.29378     235.4715 
   18900    106.69061   -817.75334    89417.431   -21894.281    1596.4827   -23490.763     56.60854    236.98534 
   18950     107.8684   -620.32843    89445.895   -21867.243    1614.1067    -23481.35    56.770538    239.60148 
   19000    106.65451   -844.36778    89438.251   -21863.082    1595.9426   -23459.024    57.033931    236.90516 
   19050    108.38414   -714.26857    89443.538   -21895.215    1621.8241   -23517.039     57.48986    240.74707 
   19100    103.09912   -831.87562    89409.194   -21927.915    1542.7409   -23470.656    58.016549    229.00778 
   19150    102.86126   -589.96192     89377.85   -21965.282    1539.1816   -23504.464    58.211852    228.47944 
   19200    105.29449   -947.56699    89361.397   -21964.221    1575.5917   -23539.812    58.088894    233.88423 
   19250    102.79226   -703.88912    89359.522   -21947.141    1538.1492    -23485.29    58.279154    228.32618 
   19300    107.65044   -1231.7814    89321.137   -21934.967    1610.8452   -23545.813    58.211343    239.11734 
   19350    106.66729   -789.85629     89321.44   -21932.827    1596.1338   -23528.961     58.31949    236.93354 
   19400    104.48079   -708.63802    89341.192    -21917.32    1563.4158   -23480.735     58.21808    232.07681 
   19450    106.28633   -968.36808    89358.347   -21889.575    1590.4332   -23480.008    58.342345    236.08733 
   19500    109.79638   -959.77415    89360.077    -21877.16    1642.9564   -23520.116    58.460295    243.88399 
   19550    108.21061   -1169.9787    89341.941   -21879.524    1619.2275   -23498.751    58.827895    240.36163 
   19600    106.21929   -1010.2899    89313.481   -21873.494      1589.43   -23462.924    58.991871    235.93842 
   19650     105.1796   -664.39662    89336.545   -21909.333    1573.8724   -23483.206    59.076869    233.62901 
   19700    108.08103   -928.21463    89361.439   -21871.842    1617.2885    -23489.13    58.924187     240.0738 
   19750    107.97481   -819.78798     89366.88   -21871.103    1615.6991   -23486.802    59.014396    239.83786 
   19800    107.27915   -990.80753    89402.511   -21865.439    1605.2894   -23470.728    59.235779    238.29262 
   19850    108.19658   -598.70475    89435.353   -21869.932    1619.0175   -23488.949    59.399555    240.33045 
   19900    107.13885   -874.82191     89522.45   -21865.188    1603.1901   -23468.378    59.556428    237.98099 
   19950    111.25172   -533.44761    89618.854   -21858.049    1664.7336   -23522.782     59.75988    247.11665 
   20000    111.06573   -615.69866    89643.924   -21842.028    1661.9505   -23503.979    59.724915    246.70351 
   20050    108.78654   -829.77923    89697.965   -21840.395    1627.8454    -23468.24    59.777014    241.64089 
   20100    110.21107   -679.51765    89742.871   -21846.052    1649.1618   -23495.214    59.871141    244.80513 
   20150    106.36371   -1019.2153    89765.041   -21853.841     1591.591   -23445.432    60.314146    236.25921 
   20200    106.46213   -1039.1568    89780.625   -21903.233    1593.0638   -23496.296    60.569835    236.47783 
   20250    107.25383    -943.6642    89810.251     -21960.5    1604.9106   -23565.411    60.796426    238.23639 
   20300    106.32487   -1047.3019     89805.83   -21960.288    1591.0099   -23551.298    60.812085    236.17294 
   20350    108.23019   -891.88411    89754.539   -21957.312    1619.5205   -23576.832    60.591029    240.40512 
   20400    110.73823   -855.16709    89757.697   -21959.749      1657.05   -23616.799    60.774584    245.97608 
   20450    104.89436   -1137.6202    89749.287   -21963.204    1569.6042   -23532.809    60.980694    232.99543 
   20500    109.24292   -801.33829    89759.823   -21966.042    1634.6746   -23600.717    60.913902    242.65463 
   20550    106.00578   -1032.6959    89693.041   -21985.598    1586.2352   -23571.833    61.043797    235.46418 
   20600    110.14296   -799.53022    89709.457   -21988.766    1648.1425   -23636.909    61.259475    244.65384 
   20650    108.07938   -735.71222     89763.35   -21949.445    1617.2638   -23566.709    61.689522    240.07013 
   20700    104.82653   -525.16446    89804.161   -21968.694    1568.5893   -23537.283    62.057285    232.84478 
   20750    107.62875   -375.71818    89955.302    -21978.91    1610.5207   -23589.431    62.236922    239.06917 
   20800    104.02019   -750.32719    90078.775   -21964.007    1556.5235    -23520.53    62.722281     231.0537 
   20850    106.15498   -531.05811    90096.292    -21921.47    1588.4678   -23509.938    62.775127    235.79558 
   20900    107.58898   -607.63269    90105.482   -21910.614    1609.9255    -23520.54     62.48515    238.98082 
   20950    108.28208   -750.91737    90161.243   -21909.801    1620.2969   -23530.098    62.614154    240.52036 
   21000    108.12841   -710.96058    90180.725   -21946.332    1617.9975    -23564.33    62.896449    240.17903 
   21050    104.88617   -947.80874    90136.872    -21932.66    1569.4817   -23502.142    63.125335    232.97725 
   21100    107.62545   -614.52089    90107.197   -21904.473    1610.4713   -23514.944    62.889716    239.06183 
   21150    108.34867   -604.46695    90050.319   -21900.123    1621.2934   -23521.416    62.888512    240.66829 
   21200    106.42203    -379.9743     90069.34   -21838.613    1592.4638   -23431.077    63.093194    236.38876 
   21250    111.15002   -795.26753    90105.673   -21870.533    1663.2119   -23533.745    63.221266    246.89076 
   21300    106.39362   -467.03827    90155.531    -21889.33    1592.0387   -23481.369    63.324781    236.32566 
   21350    108.11171   -631.71886    90203.604    -21883.22    1617.7476   -23500.967    63.360834    240.14194 
   21400     105.6999   -1087.8104    90199.965   -21925.347    1581.6581   -23507.005    63.251509    234.78474 
   21450    107.89025   -594.63696    90200.544   -21897.981    1614.4337   -23512.414    63.278971    239.65002 
   21500    109.82317   -943.25653    90256.892   -21877.598    1643.3574   -23520.955    63.195229    243.94351 
   21550    109.39015   -793.12832    90304.097   -21815.682    1636.8777   -23452.559    63.357219    242.98166 
   21600    109.82526   -875.23853    90308.663   -21837.707    1643.3886   -23481.096    63.428833    243.94815 
   21650    108.11084   -695.82705    90312.596   -21858.919    1617.7345   -23476.653    63.484888       240.14 
   21700    104.80971   -974.99147    90332.859   -21857.079    1568.3376   -23425.416    63.514473    232.80742 
   21750    105.60021   -1046.9046    90284.648   -21858.006    1580.1664   -23438.172    63.964584    234.56331 
   21800    110.44448   -890.98946    90295.443   -21823.348    1652.6543   -23476.002    64.103746    245.32357 
   21850    108.62191   -1071.2111    90300.631   -21832.926     1625.382   -23458.308    63.958047    241.27522 
   21900     108.0426   -676.15341    90312.205   -21847.011    1616.7134   -23463.725    64.461661    239.98843 
   21950    106.70613       -779.7    90328.778   -21872.959    1596.7149   -23469.674    64.817641    237.01981 
   22000    106.20261   -967.38304    90299.847   -21887.889    1589.1804   -23477.069    65.102284    235.90137 
   22050    105.56775   -988.12303    90324.218   -21908.281    1579.6806   -23487.962    65.281076    234.49119 
   22100     110.4945   -1070.5438    90264.065   -21909.147    1653.4028    -23562.55    65.414337    245.43469 
   22150     106.6821   -1042.5022    90224.302   -21878.252    1596.3554   -23474.608    65.388961    236.96644 
   22200    108.99688   -1087.9713    90126.626   -21864.392    1630.9929   -23495.385    65.586526    242.10811 
   22250    105.94073   -884.73682    90022.365   -21894.761    1585.2618   -23480.023    65.672703    235.31968 
   22300    111.39329   -870.19098    90026.695   -21863.424    1666.8521   -23530.276    65.835494    247.43112 
   22350    109.28117   -975.59406    90037.757   -21903.034     1635.247   -23538.281    66.041451    242.73959 
   22400    107.47781   -927.64718    89961.458   -21897.416    1608.2621   -23505.678    66.165075    238.73389 
   22450    108.23283   -966.03671    89925.854   -21905.285      1619.56   -23524.845    66.377083    240.41098 
   22500    105.32558   -860.37138     89908.37   -21884.887    1576.0569   -23460.943    66.531422    233.95329 
   22550    108.93291   -738.44944     89895.27   -21921.304    1630.0358    -23551.34     66.58744    241.96603 
   22600    107.20888    -984.7898    89910.722   -21950.885     1604.238   -23555.123    66.957669    238.13654 
   22650    106.17908   -809.33665    89837.552   -21910.666    1588.8283   -23499.494    67.091718     235.8491 
   22700    107.97713   -695.25819    89838.449   -21896.033    1615.7338   -23511.766    67.361296    239.84301 
   22750    107.06977   -961.62651    89847.767   -21896.708    1602.1563   -23498.864    67.811028    237.82754 
   22800    107.17428    -869.0556    89819.335   -21925.317    1603.7203   -23529.038    68.318985    238.05969 
   22850    110.46043    -1189.877    89794.782   -21920.667     1652.893    -23573.56    68.459955    245.35901 
   22900    101.30784   -1082.6673    89695.144   -21914.251    1515.9367   -23430.187    68.672351    225.02891 
   22950    111.24578    -652.8634    89632.174   -21883.148    1664.6447   -23547.793    68.759932    247.10345 
   23000    106.87337   -868.11573    89669.359   -21905.891    1599.2174   -23505.109    68.893633    237.39129 
   23050    107.55443   -589.67342     89730.58   -21922.784    1609.4086   -23532.193    68.917437    238.90408 
   23100    107.83042   -584.47336     89817.21   -21925.955    1613.5384   -23539.493    69.055484    239.51713 
   23150    107.30652   -675.92366    89908.545   -21952.014     1605.699   -23557.713    69.152774    238.35342 
   23200     106.5927   -671.87655    89940.677   -21892.755    1595.0176   -23487.773    69.084573    236.76785 
   23250    107.06912    -662.3698    89968.378   -21932.372    1602.1466   -23534.519    69.314547    237.82611 
   23300    107.95035   -772.09052    89952.075   -21914.436    1615.3331   -23529.769    69.286891    239.78353 
   23350    106.22145   -1018.1203    89972.873   -21875.132    1589.4623   -23464.594    69.445952    235.94322 
   23400    106.79656   -1081.9892    89892.446   -21850.529    1598.0682   -23448.597    69.670238    237.22069 
   23450    109.63006   -713.25606    89876.885   -21833.754    1640.4676   -23474.221    69.701219    243.51455 
   23500    111.08975   -732.33672    89882.045   -21803.629      1662.31   -23465.939    69.637053    246.75688 
   23550    107.63568   -978.60811    89918.064   -21811.463    1610.6244   -23422.087    69.864988    239.08456 
   23600    109.57215   -1069.4558    89910.783   -21848.848    1639.6011    -23488.45    69.857163    243.38593 
   23650    106.42642   -1037.4066    89955.723   -21871.406    1592.5294   -23463.935    69.995777     236.3985 
   23700    108.10701   -1223.0654    89818.715   -21829.286    1617.6773   -23446.963    70.146815    240.13151 
   23750    107.88987   -839.17108     89753.63   -21856.292     1614.428    -23470.72     70.09303    239.64917 
   23800    107.50801   -599.24404    89764.358   -21840.064     1608.714   -23448.778    70.269918    238.80098 
   23850    109.15838   -709.92114    89763.391   -21843.818    1633.4096   -23477.228    70.491295    242.46685 
   23900    106.49239   -1018.2206    89746.329   -21864.701    1593.5166   -23458.218    70.906551    236.54504 
   23950    110.12843   -822.24414    89735.697   -21858.626    1647.9252   -23506.551     70.97388    244.62157 
   24000    108.81458   -940.69308    89759.589   -21850.684    1628.2651   -23478.949     71.28286    241.70318 
   24050    111.29921   -845.91247    89743.134   -21825.786    1665.4443    -23491.23    71.830236    247.22214 
   24100    107.32703   -695.78254    89712.854   -21827.921    1606.0059   -23433.927     72.48827    238.39898 
   24150    106.80612   -958.50009    89693.529     -21874.9    1598.2111   -23473.111    72.606688    237.24191 
   24200    108.71031   -877.37838    89655.094   -21827.769    1626.7049   -23454.474    72.581912    241.47158 
   24250    106.79876   -1031.2559    89583.765   -21855.242     1598.101   -23453.343     72.47128    237.22556 
   24300    107.50142   -713.70285    89522.678   -21846.917    1608.6153   -23455.532    72.376259    238.78633 
   24350    108.30142   -1158.3692    89469.121     -21865.4    1620.5863   -23485.986    72.494481    240.56333 
   24400    106.90096   -1107.4232     89429.39   -21875.767    1599.6302   -23475.397    72.422819    237.45257 
   24450    104.64771   -555.01324    89435.032   -21884.695    1565.9134   -23450.608    72.176799    232.44757 
   24500    106.20252   -750.21411    89463.485   -21828.493    1589.1791   -23417.672    72.147003    235.90117 
   24550    107.58503   -1149.5859    89414.897   -21856.662    1609.8666   -23466.528    72.320882    238.97207 
   24600      102.711   -979.04885    89328.424   -21911.797    1536.9331    -23448.73    72.604008    228.14567 
   24650    107.82351   -963.40408    89321.105   -21859.029    1613.4351   -23472.464    73.110265    239.50178 
   24700      109.649   -850.93408    89265.568   -21806.124     1640.751   -23446.875    73.016852    243.55662 
   24750    106.18487   -738.84453    89263.844   -21799.078     1588.915   -23387.993    73.123947    235.86196 
   24800    105.92245   -459.14631    89218.027   -21821.408    1584.9882   -23406.396    73.247873    235.27907 
   24850    107.27593   -619.29791    89214.417   -21818.689    1605.2413    -23423.93    73.624313    238.28548 
   24900    105.79527   -761.30944    89203.004   -21885.495    1583.0852    -23468.58    73.919556    234.99658 
   24950     106.5089   -742.04799    89225.574   -21840.154    1593.7637   -23433.918    74.106208    236.58173 
   25000    105.53317   -1027.0506    89216.416   -21851.569    1579.1632   -23430.732    74.529003    234.41439 
   25050    109.14296   -811.66831    89188.342    -21832.79    1633.1788   -23465.969    73.983183    242.43259 
   25100    105.89207   -811.62949    89168.343    -21882.48    1584.5336   -23467.014    74.164624    235.21158 
   25150    107.49149   -1054.5044    89211.302   -21863.286    1608.4669   -23471.752    74.221413    238.76429 
   25200    106.21895   -768.63586     89248.16   -21862.978    1589.4249   -23452.403    74.379871    235.93766 
   25250    106.31739   -410.74149    89291.651   -21826.021     1590.898   -23416.919    74.589562    236.15634 
   25300     107.9032   -490.30158    89289.123   -21815.804    1614.6275   -23430.432    74.923127    239.67879 
   25350    104.88433   -652.11729    89305.198   -21840.325    1569.4541   -23409.779    75.107384    232.97315 
   25400    110.51299   -842.23147    89223.337   -21822.981    1653.6795    -23476.66    74.931229    245.47575 
   25450    108.46359   -785.89402    89194.668   -21851.095     1623.013   -23474.108    74.995162    240.92356 
   25500    109.29039   -1110.5657    89161.469   -21838.179     1635.385   -23473.564    75.262439    242.76008 
   25550      109.548   -712.28459    89155.056   -21822.094    1639.2397   -23461.334    75.564712    243.33228 
   25600    107.64427    -678.6872    89167.924   -21811.193     1610.753   -23421.946    75.766319    239.10365 
   25650    109.34183   -886.27091    89186.558   -21759.106    1636.1547   -23395.261    76.193762    242.87434 
   25700    107.54423   -1057.8698    89170.894   -21787.218     1609.256   -23396.474    76.299209    238.88144 
   25750    106.02446   -945.73115    89188.009   -21796.833    1586.5147   -23383.347    76.586126    235.50566 
   25800    108.10881   -824.86637    89157.482   -21755.586    1617.7042    -23373.29    76.825369     240.1355 
   25850    110.41604   -758.53601    89147.924   -21747.573    1652.2288   -23399.802    76.969082     245.2604 
   25900    108.57526   -852.62318    89214.117    -21767.24     1624.684   -23391.924    77.282666     241.1716 
   25950     108.8586   -1115.1383    89187.823   -21796.959    1628.9238   -23425.883    77.338087    241.80096 
   26000    106.61863   -429.23071    89154.818   -21778.166    1595.4056   -23373.572    77.720493    236.82546 
   26050    109.69043    -750.3126    89202.947   -21817.549     1641.371    -23458.92    78.134751    243.64865 
   26100    109.20108   -397.90821    89213.473   -21841.046    1634.0485   -23475.095    78.234676    242.56168 
   26150    107.67155   -722.84406    89212.071   -21838.827    1611.1611   -23449.988    78.038432    239.16423 
   26200    107.37694     -573.105    89244.003    -21812.37    1606.7527   -23419.123    78.282521    238.50983 
   26250    110.36876   -621.83014    89246.486   -21772.432    1651.5213   -23423.953    78.605755    245.15539 
   26300    107.05893   -960.60673    89249.896   -21788.012    1601.9941   -23390.007    78.736214    237.80345 
   26350    107.97746   -913.33705    89199.956   -21760.426    1615.7386   -23376.164    78.555013    239.84373 
   26400    107.71455   -906.92939    89065.603   -21769.712    1611.8046   -23381.517    78.510412    239.25976 
   26450    109.67594   -818.03566    89011.566   -21800.359    1641.1542   -23441.513    78.783593    243.61648 
   26500    107.83069   -807.07944    88955.859   -21838.868    1613.5425   -23452.411    78.903807    239.51773 
   26550    104.19892   -773.81455     88944.43   -21875.435    1559.1979   -23434.633    78.992781     231.4507 
   26600    105.52389   -609.08616    88962.101   -21830.713    1579.0243   -23409.738    79.150749    234.39378 
   26650    107.97143   -883.45392    89040.548   -21812.554    1615.6485   -23428.202     79.39842    239.83035 
   26700    107.46371   -666.01724    89080.346   -21805.803    1608.0512   -23413.854    79.718643    238.70259 
   26750    108.88305   -1029.6383    89085.326     -21799.1    1629.2897    -23428.39    80.104844    241.85528 
   26800    106.18783   -512.98048    89066.043   -21821.049    1588.9593   -23410.008    80.027286    235.86855 
   26850    107.59462   -944.43595    89091.656   -21827.971    1610.0101   -23437.981    79.948985    238.99337 
   26900    107.93819   -832.22722    89072.821   -21811.473    1615.1511   -23426.624    79.896927    239.75652 
   26950    107.39835   -761.88343    89074.504    -21790.62    1607.0731   -23397.694    80.302391     238.5574 
   27000    112.05419    -948.0167    89095.104   -21767.742    1676.7416   -23444.484      80.5013    248.89914 
   27050    106.22059   -1038.6021    89112.078   -21784.587    1589.4495   -23374.037     80.43483    235.94131 
   27100    106.96369   -871.63536    89095.811   -21764.895     1600.569   -23365.464    80.669208    237.59192 
   27150    109.97543   -944.83929    89084.226   -21716.176    1645.6357   -23361.811    80.658985    244.28171 
   27200    109.77645   -913.97869    89039.442   -21737.586    1642.6581   -23380.244    80.757336    243.83972 
   27250    109.68614   -1012.0537    89029.524   -21750.166    1641.3068   -23391.473    80.896111    243.63912 
   27300    109.08081   -732.66388    89033.593   -21787.639    1632.2489   -23419.888    81.130777    242.29455 
   27350    106.16246   -798.20895     89144.29   -21828.231    1588.5796    -23416.81    81.558895    235.81219 
   27400    107.23502   -473.66218    89202.873   -21842.808    1604.6291   -23447.437    81.960775     238.1946 
   27450    106.23287   -473.29221    89375.399   -21822.951    1589.6333   -23412.585    81.832903    235.96859 
   27500    106.84535   -595.99153    89387.558   -21813.509    1598.7981   -23412.307    81.896384    237.32905 
   27550      108.985   -654.91244     89359.97   -21781.737    1630.8152   -23412.552    81.944154    242.08173 
   27600    109.87607   -689.71959    89466.795   -21754.704    1644.1488   -23398.853    82.458863      244.061 
   27650    109.39308   -1146.9234    89502.952    -21743.77    1636.9216   -23380.691    82.725937    242.98817 
   27700    111.90654   -755.48305    89499.848   -21728.821    1674.5322   -23403.353    82.895127    248.57117 
   27750    106.77968   -1055.1109     89455.46   -21747.708    1597.8155   -23345.523    83.129538    237.18317 
   27800    108.00033   -881.87651    89462.417   -21788.048     1616.081   -23404.129    83.289697    239.89455 
   27850    107.97534   -490.19472    89517.327   -21809.498     1615.707   -23425.205    83.433819    239.83904 
   27900    107.60935   -596.89524    89599.456   -21802.951    1610.2304   -23413.181    83.810385    239.02607 
   27950    107.61786   -816.17898    89587.195     -21777.5    1610.3577   -23387.858    84.142939    239.04497 
   28000    106.89051   -781.77355    89538.174   -21851.879    1599.4739   -23451.353    84.241325    237.42936 
   28050    109.61326   -769.66942    89580.942   -21835.986    1640.2163   -23476.202    84.362015    243.47725 
   28100     108.4402   -1080.3844    89522.967   -21816.761     1622.663   -23439.424    84.783494    240.87159 
   28150    108.91641   -876.82617    89462.917   -21844.299    1629.7888   -23474.088     85.04965    241.92937 
   28200    107.68224   -952.39356    89445.751   -21845.059    1611.3212    -23456.38    85.186027    239.18799 
   28250    105.71834   -778.29047    89390.708   -21892.335     1581.934   -23474.269    85.167541    234.82569 
   28300    106.18351   -903.79023    89326.629   -21856.319    1588.8947   -23445.214    85.336185    235.85895 
   28350    108.36689   -795.11625    89262.297   -21830.415    1621.5659   -23451.981     85.54199    240.70875 
   28400    111.79815   -621.25445    89295.802   -21798.898    1672.9103   -23471.808    85.821123    248.33041 
   28450    110.35556   -847.26407    89327.717   -21811.941    1651.3238   -23463.265    85.991491    245.12607 
   28500    106.64234   -807.47531    89326.331   -21819.575    1595.7605   -23415.336     86.25768    236.87813 
   28550     108.4018   -1140.9914        89353   -21810.624    1622.0884   -23432.712    86.312471     240.7863 
   28600    110.99261   -1115.4471    89398.894   -21782.597    1660.8565   -23443.454    86.261634    246.54112 
   28650    108.21084   -820.80482    89403.127   -21815.597    1619.2309   -23434.828    86.442149    240.36213 
   28700    106.02296   -677.45065    89419.715   -21831.016    1586.4923   -23417.508    86.720911    235.50234 
   28750    107.30885   -913.46079    89433.097   -21857.894    1605.7338   -23463.628    86.966215    238.35859 
   28800    106.93748   -500.07697    89443.622   -21827.524    1600.1768   -23427.701    86.713686     237.5337 
   28850    106.64949   -898.98836    89468.625   -21872.305    1595.8673   -23468.173    86.472833    236.89399 
   28900    104.67507   -974.11088    89560.127   -21834.018    1566.3228    -23400.34    86.684096    232.50833 
   28950     108.9476    -790.2169    89593.567   -21805.302    1630.2555   -23435.558     86.63128    241.99864 
   29000    107.61427   -931.67773    89603.867   -21783.643     1610.304   -23393.947    86.560478      239.037 
   29050    108.09385   -779.13259     89559.89   -21801.865    1617.4804   -23419.346    86.557438    240.10227 
   29100    110.31617   -700.12066    89552.877   -21806.241    1650.7344   -23456.975    86.738544    245.03858 
   29150    107.97921   -738.22646    89568.291   -21771.077    1615.7649   -23386.842    86.709058    239.84763 
   29200    107.10232   -739.04791    89566.324   -21790.356    1602.6434       -23393    87.027151    237.89985 
   29250    107.40358   -723.62076    89574.389   -21803.265    1607.1513   -23410.416    87.297228    238.56901 
   29300    107.08574   -833.18651    89595.345    -21789.63    1602.3953   -23392.025    87.439656    237.86301 
   29350    110.26722   -871.63034    89572.642   -21812.222    1650.0018   -23462.223    87.501738    244.92984 
   29400    106.17342   -502.55512     89513.46   -21835.973    1588.7437   -23424.717    87.867371    235.83654 
   29450    106.45528   -927.86476    89524.679   -21826.097    1592.9613   -23419.059    88.412619    236.46262 
   29500    106.75914   -823.16818    89493.867   -21830.315    1597.5082   -23427.823    88.662621    237.13756 
   29550    107.45326    -967.6684    89389.062   -21818.533    1607.8947   -23426.427    88.624306    238.67936 
   29600    108.45218   -928.96948    89393.552   -21822.424    1622.8423   -23445.266    88.843741    240.89821 
   29650    107.31402   -748.21726    89409.685   -21852.301    1605.8112   -23458.113    89.018503    238.37007 
   29700    106.02622   -1132.4289    89415.312   -21826.855     1586.541   -23413.396    89.620145    235.50957 
   29750    110.52822   -829.69987    89414.176   -21823.278    1653.9074   -23477.185    90.351073    245.50958 
   29800    108.46151   -1197.7233    89381.198   -21773.821    1622.9818   -23396.803    90.420926    240.91892 
   29850    108.52783   -1091.9376    89322.822   -21771.878    1623.9742   -23395.853    90.629496    241.06624 
   29900    109.51695   -798.54318    89265.687   -21789.756    1638.7751   -23428.531    90.704922    243.26331 
   29950    109.90065   -1106.6932    89278.418    -21792.35    1644.5166   -23436.867    90.689606    244.11559 
   30000    108.61779   -827.87363    89285.778   -21760.869    1625.3203   -23386.189    90.507659    241.26606 
   30050    107.35799   -819.58763    89249.872   -21796.928    1606.4691   -23403.397     90.33075    238.46774 
   30100    109.53538   -838.08694    89269.103    -21782.64    1639.0508    -23421.69    90.783629    243.30424 
   30150    111.59928   -945.61137    89345.059   -21747.621    1669.9343   -23417.555    91.037542    247.88866 
   30200    107.44525   -1107.1996    89400.036   -21778.145    1607.7749    -23385.92    91.060236    238.66157 
   30250    107.38064   -1091.4525    89412.301   -21786.992    1606.8081     -23393.8    91.489808    238.51806 
   30300     110.4972   -862.67333    89430.852   -21770.138    1653.4433   -23423.581    91.303273    245.44069 
   30350    110.89121   -834.75461    89412.107    -21751.14     1659.339   -23410.479    91.739284    246.31586 
   30400    109.89806   -887.18844    89398.425   -21796.241    1644.4779   -23440.719    92.100082    244.10985 
   30450    106.40416    -941.1129     89303.32   -21785.711    1592.1963   -23377.907    92.052682    236.34906 
   30500    108.02407   -1056.8236    89226.797     -21786.7    1616.4361   -23403.137    92.175942    239.94727 
   30550    109.59107   -1040.2962    89168.209   -21792.383    1639.8842   -23432.267    92.473967    243.42795 
   30600    109.03588   -773.44145      89223.8   -21797.123    1631.5766   -23428.699    92.915003    242.19475 
   30650    109.93685   -704.94883    89228.126   -21751.359    1645.0584   -23396.417    93.233171    244.19602 
   30700    108.88305   -956.84728    89151.202   -21797.528    1629.2896   -23426.818    93.778048    241.85527 
   30750    106.86164   -578.60564    89122.771   -21809.766     1599.042   -23408.808    94.217545    237.36525 
   30800    107.70965   -663.95024    89155.321   -21844.056    1611.7312   -23455.788    94.399694    239.24886 
   30850    106.80951   -912.26626     89214.38   -21847.191    1598.2619   -23445.453    94.896553    237.24945 
   30900    105.18161   -964.93075    89263.798   -21862.299    1573.9025   -23436.202     95.03097    233.63348 
   30950    109.18187    -991.0802    89235.312   -21856.171     1633.761   -23489.932    94.880105    242.51901 
   31000    105.64591   -1002.7628    89208.607   -21890.707    1580.8501   -23471.557    94.660774    234.66481 
   31050    109.35402   -1149.9358    89171.956    -21854.28     1636.337   -23490.617    94.363638     242.9014 
   31100    109.89567   -710.67031    89140.007   -21840.391    1644.4422   -23484.833    94.065843    244.10455 
   31150    107.62816   -725.87281    89178.214   -21839.104    1610.5119   -23449.616    94.119202    239.06786 
   31200    106.58752   -1046.8986    89189.997   -21866.626    1594.9401   -23461.566    94.255112    236.75636 
   31250    107.21394   -1218.7453    89064.661    -21846.44    1604.3136   -23450.753    94.009078    238.14777 
   31300     106.0781   -741.36734    89063.829   -21865.911    1587.3173   -23453.228    94.116619    235.62481 
   31350    106.55481   -1027.9027    89091.892   -21829.466    1594.4507   -23423.917    94.048268     236.6837 
   31400    106.47989   -860.55595    89054.701   -21848.774    1593.3295   -23442.104     93.97034    236.51728 
   31450     109.6533   -1001.9857    89057.622   -21813.491    1640.8154   -23454.307    94.378319    243.56618 
   31500    109.23141   -770.02379    89092.806   -21848.186    1634.5024   -23482.689    94.720815    242.62907 
   31550    108.61007   -978.25584    89116.607   -21827.339    1625.2049   -23452.544    94.977257    241.24892 
   31600    107.95791   -972.05124    89097.431     -21864.2    1615.4461   -23479.646     95.32124    239.80031 
   31650     105.7059   -910.69006    89025.225   -21858.991    1581.7479   -23440.739     95.35103    234.79807 
   31700    107.57746   -834.71739    89062.371   -21844.378    1609.7532   -23454.131    95.457687    238.95524 
   31750    108.47212   -987.68301    89050.155   -21816.929    1623.1406   -23440.069    95.476642     240.9425 
   31800    106.76205   -1090.2022    89032.932   -21834.587    1597.5517   -23432.139    95.916176    237.14402 
   31850    108.89402   -717.07544    88944.039   -21826.699    1629.4538   -23456.152    96.279347    241.87964 
   31900    108.98866   -906.25723    88935.231   -21829.351    1630.8699   -23460.221    96.179645    242.08985 
   31950    109.28594   -956.35847    88823.596   -21810.255    1635.3184   -23445.573    96.162496     242.7502 
   32000    108.27692   -871.61678    88881.438   -21838.924    1620.2198   -23459.144    96.083905    240.50892 
   32050    107.03647   -934.64872    88889.624   -21799.643     1601.658   -23401.301    96.403367    237.75357 
   32100    110.68539   -834.79068    88866.215   -21780.612    1656.2593   -23436.872    96.457262     245.8587 
   32150      109.741   -1072.8899    88893.231   -21783.641    1642.1278   -23425.768    96.522805    243.76099 
   32200    107.56411   -1025.4957     88901.22    -21810.56    1609.5535   -23420.113    96.583934    238.92559 
   32250    106.06341   -756.81739    89012.799   -21860.426    1587.0975   -23447.523    96.622907    235.59217 
   32300    106.54917   -728.45514    88995.078   -21910.383    1594.3662   -23504.749    97.044673    236.67116 
   32350    104.98383   -1104.1348    88959.902   -21915.796     1570.943   -23486.739    97.049797    233.19417 
   32400    103.08757   -805.59404    88942.229   -21953.152    1542.5679    -23495.72    97.538995    228.98212 
   32450    106.40387   -770.66186    88936.498   -21904.885    1592.1921   -23497.077    97.549838    236.34843 
   32500    106.46065   -731.26676    88933.433   -21873.099    1593.0416    -23466.14    98.001412    236.47453 
   32550    108.19432   -814.21173    88920.494   -21851.134    1618.9837   -23470.118    98.202414    240.32543 
   32600     109.0461   -616.63054    88961.485   -21822.067    1631.7295   -23453.796    98.521828    242.21745 
   32650     108.7786   -729.02203    89038.671   -21810.971    1627.7267   -23438.698    99.014857    241.62327 
   32700    109.40393   -899.66753    89080.298    -21819.79    1637.0839   -23456.874    99.256305    243.01226 
   32750    104.62531   -741.22406    89031.859   -21887.754    1565.5783   -23453.333    99.153084    232.39782 
   32800    105.88744   -764.42596    88964.278   -21878.814    1584.4643   -23463.278    99.042904     235.2013 
   32850    106.95072   -840.93094    88987.844   -21895.424    1600.3749   -23495.799     99.26452    237.56311 
   32900    108.06923   -1015.2481    88949.867   -21854.764    1617.1119   -23471.876     99.21929    240.04758 
   32950    107.39851   -828.44262     88904.87   -21846.334    1607.0755   -23453.409    99.265681    238.55775 
   33000    108.59341   -606.87301    88917.815    -21837.56    1624.9556   -23462.516     99.49351    241.21192 
   33050     108.6086   -616.00042    88899.161   -21819.191    1625.1828   -23444.374    99.619876    241.24565 
   33100    106.63624   -390.88963    89036.888   -21861.589    1595.6691   -23457.258    100.07616    236.86457 
   33150    110.86783   -663.79331    89053.481   -21814.233    1658.9892   -23473.222    100.42437    246.26393 
   33200    111.03939   -848.52093    89092.431   -21785.427    1661.5563   -23446.984    100.70018    246.64501 
   33250     107.7969   -811.03233    89068.548   -21818.047    1613.0369   -23431.084    100.86567    239.44268 
   33300    110.50001   -736.29409     89103.09   -21804.788    1653.4853   -23458.273    101.20529    245.44692 
   33350    111.87119   -987.59393    89084.293   -21776.384    1674.0031   -23450.387    101.11919    248.49263 
   33400    110.32778   -660.55072    89152.451   -21754.107    1650.9082   -23405.015    101.35273    245.06437 
   33450    109.89251   -858.68833    89143.054   -21771.235    1644.3948   -23415.629    101.69251    244.09752 
   33500    109.98759   -644.28808    89182.581   -21770.265    1645.8176   -23416.083    101.68701    244.30871 
   33550    110.39571   -707.45296     89314.01   -21754.213    1651.9245   -23406.138    102.22255    245.21524 
   33600     108.3363   -769.84772    89310.329   -21803.164    1621.1082   -23424.272    102.03927     240.6408 
   33650      107.536   -650.42509      89282.8   -21830.625    1609.1328   -23439.757    102.05633    238.86315 
   33700    106.32604   -418.93886    89229.149   -21832.512    1591.0274    -23423.54    101.91311    236.17554 
   33750    107.57931   -600.67315    89301.225   -21840.273    1609.7809   -23450.054    101.99745    238.95935 
   33800    108.56156   -775.69075    89363.535   -21836.797     1624.479   -23461.276    102.01437    241.14117 
   33850    105.67686   -591.16378    89424.552     -21846.3    1581.3134   -23427.613    102.03878    234.73357 
   33900    108.38015   -1083.4077    89477.664   -21837.031    1621.7644   -23458.795    101.99703    240.73821 
   33950    109.58188   -940.85633    89410.673    -21831.34    1639.7467   -23471.086    102.10198    243.40753 
[...]
   92000    108.45288   -548.77924    89073.301   -21729.887    1622.8527    -23352.74    259.33361    240.89975 
   92050    107.68718   -820.52703    89168.833   -21766.133     1611.395   -23377.528    259.27832    239.19895 
   92100    108.97454   -606.88462    89249.775    -21776.37    1630.6587   -23407.029    259.36539     242.0585 
   92150    110.46267   -648.52956    89259.112   -21768.892    1652.9265   -23421.818    260.05468    245.36398 
   92200    110.54193   -690.43416     89295.33   -21754.108    1654.1126   -23408.221    260.77826    245.54005 
   92250    108.33761   -946.50777    89330.042    -21774.65    1621.1278   -23395.778    261.41345    240.64371 
   92300    106.38085   -675.98293      89348.5   -21819.107    1591.8475   -23410.955    261.75748    236.29728 
   92350    104.72148   -1242.3424    89327.644   -21817.701    1567.0173   -23384.718    261.93525    232.61143 
   92400    108.39196   -931.15395    89299.631   -21789.747    1621.9411   -23411.688    261.87009    240.76444 
   92450    107.39331   -852.97721    89322.051   -21786.632    1606.9976   -23393.629    261.90611     238.5462 
   92500    105.26478   -806.04442    89295.086   -21781.217     1575.147   -23356.364    261.86249    233.81822 
   92550    109.23176    -779.3542    89290.507   -21742.844    1634.5076   -23377.352    261.56099    242.62983 
   92600    109.92034   -942.11858    89265.316   -21716.953    1644.8113   -23361.764    261.80852    244.15934 
   92650     110.3441    -626.8775    89205.174   -21699.552    1651.1523   -23350.705    262.08885    245.10061 
   92700    108.71207   -617.53674    89172.798   -21730.168    1626.7311   -23356.899    261.84708    241.47548 
   92750    109.56516   -1019.1024    89181.164   -21726.368    1639.4966   -23365.864    262.43704    243.37041 
   92800    107.23559   -769.97225    89205.682   -21789.358    1604.6376   -23393.996    262.71402    238.19587 
   92850    110.03436   -826.31176     89232.31   -21771.526    1646.5175   -23418.043    263.03662    244.41261 
   92900    106.25898   -940.84314    89180.219   -21758.134    1590.0239   -23348.158    263.06002    236.02657 
   92950    109.42375   -1220.6493    89161.811   -21758.622    1637.3806   -23396.002    262.96205    243.05631 
   93000    109.65709   -842.15455      89096.4    -21784.95    1640.8721   -23425.822    263.41986    243.57459 
   93050    107.40009   -896.90997    89061.052   -21805.226    1607.0991   -23412.325    263.63739    238.56126 
   93100    108.57776   -830.80309    89111.982   -21819.351    1624.7214   -23444.072    263.51551    241.17715 
   93150    108.85063   -851.19916    89132.766   -21830.396    1628.8046   -23459.201    263.20377    241.78326 
   93200     106.2118   -638.33868    89132.576    -21842.56     1589.318   -23431.878     263.7466    235.92179 
   93250    106.05591   -670.57396    89170.181   -21790.678    1586.9853   -23377.664    263.99022    235.57552 
   93300    108.09445   -635.30701    89201.931   -21779.448    1617.4893   -23396.937    264.06072     240.1036 
   93350    107.03668   -957.40403    89237.127   -21799.943    1601.6612   -23401.604    264.23304    237.75404 
   93400    109.26283   -872.99723    89186.929   -21776.861    1634.9725   -23411.834    264.77022    242.69885 
   93450    107.98766   -946.28216    89189.767   -21833.016    1615.8913   -23448.907    265.21119     239.8664 
   93500    106.43486   -651.95766    89166.021   -21796.817    1592.6557   -23389.473    265.02892    236.41725 
   93550    105.92717    -671.2417    89152.789   -21836.702    1585.0589   -23421.761    264.97557    235.28956 
   93600    109.64945   -1026.9946    89162.894   -21846.736    1640.7578   -23487.493    265.49391    243.55763 
   93650    109.04573   -742.66322    89213.224   -21810.707    1631.7239   -23442.431    265.70776    242.21662 
   93700    107.35936   -839.46581    89220.535   -21835.635    1606.4896   -23442.125    266.03249    238.47078 
   93750    108.14048   -715.14933    89325.257   -21832.246    1618.1781   -23450.425      266.588    240.20585 
   93800    107.24015   -934.76105    89408.626   -21818.385    1604.7058    -23423.09    266.36279    238.20599 
   93850    108.10724   -768.39175     89334.59   -21819.352    1617.6807   -23437.033    266.37908    240.13201 
   93900    106.67761   -707.64142    89373.721   -21807.604    1596.2881   -23403.892     266.4496    236.95646 
   93950    108.54068   -1019.0106    89223.145   -21824.036    1624.1665   -23448.203     267.0149    241.09478 
   94000    106.03771   -939.88623     89204.79   -21846.897    1586.7129    -23433.61    266.65212    235.53509 
   94050    111.15134   -772.93231    89221.894   -21861.922    1663.2316   -23525.154    266.94131    246.89369 
   94100    107.88154   -883.71504    89161.592   -21866.258    1614.3033   -23480.561    267.05529    239.63067 
   94150    104.86042   -647.95676    89163.417   -21864.797    1569.0964   -23433.893    267.40021    232.92005 
   94200    106.14516   -725.06274    89216.403   -21890.973    1588.3207   -23479.294    267.76555    235.77376 
   94250     106.9116   -822.08545    89166.632   -21902.591    1599.7895   -23502.381    267.99209    237.47621 
   94300    105.52645   -834.96016    89172.354   -21881.854    1579.0626   -23460.917    267.83221    234.39946 
   94350    107.33843   -807.66654    89153.727   -21819.287    1606.1764   -23425.463    268.33643     238.4243 
   94400    108.58891   -889.29041    89159.505   -21811.704    1624.8883   -23436.592    268.62446    241.20192 
   94450    104.54381   -1013.4728    89078.074   -21831.371    1564.3587    -23395.73    268.52683    232.21678 
   94500    106.94883   -557.09834    89036.017   -21855.199    1600.3466   -23455.545     268.7309     237.5589 
   94550    109.12876    -714.2306    89104.333   -21837.574    1632.9663   -23470.541    269.81027    242.40105 
   94600    108.60662   -654.00591    89115.121    -21777.39    1625.1532   -23402.544    269.30125    241.24125 
   94650    107.14097   -907.55497    89146.275   -21763.867    1603.2218   -23367.089    269.53678     237.9857 
   94700    109.43611    -910.1734    89050.125    -21792.09    1637.5654   -23429.656    269.70374    243.08374 
   94750    105.71953   -611.31668    89056.636   -21821.894    1581.9518   -23403.846    270.07205    234.82834 
   94800    104.90173   -749.90831     89081.73   -21829.841    1569.7145   -23399.555    270.33827    233.01181 
   94850    107.93427   -709.32916    89149.684   -21827.066    1615.0924   -23442.158    270.25838    239.74781 
   94900    107.31071   -539.94183    89169.449   -21793.833    1605.7617   -23399.594    270.28514    238.36273 
   94950    108.85589   -780.49061    89241.309   -21766.688    1628.8832   -23395.571    270.48293    241.79494 
   95000    107.80454   -657.35476    89230.358   -21747.274    1613.1512   -23360.425    270.38681    239.45964 
   95050    109.23804   -478.73716    89234.924   -21753.613    1634.6016   -23388.214    270.23049    242.64378 
   95100    108.00858   -851.26393    89224.885   -21771.178    1616.2043   -23387.382    270.59753    239.91285 
   95150    108.67277   -962.99084    89144.256   -21761.307    1626.1431    -23387.45     270.8005    241.38819 
   95200    105.89781   -918.83039    89132.481   -21801.143    1584.6195   -23385.762    270.85453    235.22434 
   95250    108.15829   -636.31843    89223.618   -21763.325    1618.4446    -23381.77    271.28526     240.2454 
   95300    107.78554   -544.90824    89286.757   -21748.096    1612.8668   -23360.963    271.25942    239.41743 
   95350    109.96909   -838.92103     89283.42   -21757.545    1645.5407   -23403.086    270.80855    244.26762 
   95400    108.65157   -711.02947    89307.761   -21732.755    1625.8258   -23358.581    271.34804     241.3411 
   95450    109.35265   -862.65789     89317.72   -21759.102    1636.3166   -23395.418     271.6393    242.89836 
   95500    110.28725   -882.37064    89359.677   -21759.336    1650.3017   -23409.637    271.89338    244.97434 
   95550    109.97852   -676.39842    89368.546   -21762.455    1645.6819   -23408.137    272.16658    244.28857 
   95600    105.07945   -784.18125    89373.173   -21780.842    1572.3738   -23353.216    272.76361    233.40656 
   95650    106.79546   -725.01541    89317.264   -21818.662    1598.0516   -23416.714    273.33619    237.21822 
   95700    108.85706   -592.87987    89311.196   -21792.119    1628.9007    -23421.02    273.04494    241.79753 
   95750    109.89724   -904.00033    89347.182   -21814.862    1644.4656   -23459.328    272.91663    244.10802 
   95800    107.45481   -1136.1023    89332.664   -21805.724    1607.9179   -23413.642     273.2711     238.6828 
   95850    107.88995    -961.6648    89332.055   -21818.856    1614.4293   -23433.285    273.90593    239.64937 
   95900     108.2587   -817.30037     89437.37   -21841.095    1619.9471   -23461.042    273.65324    240.46845 
   95950     105.5418   -476.13301    89469.285    -21838.66    1579.2923   -23417.952    274.08122    234.43356 
   96000    111.11106    -771.1267    89505.432   -21814.118    1662.6288   -23476.747    274.19214    246.80421 
   96050    107.29876   -830.67373    89515.439    -21851.85    1605.5828   -23457.433    274.11877    238.33618 
   96100    105.74492   -706.76385    89518.898   -21870.925    1582.3318   -23453.257    274.61705    234.88474 
   96150    108.01656    -967.4656    89506.118   -21871.433    1616.3238   -23487.757    274.39645    239.93059 
   96200    107.71366   -1075.0821    89457.607    -21874.07    1611.7912   -23485.861    274.98841    239.25776 
   96250      108.813   -686.88239    89399.718    -21871.81    1628.2415   -23500.052     274.7666    241.69968 
   96300    107.12414   -684.52129    89379.769    -21840.98    1602.9698    -23443.95    274.31732     237.9483 
   96350    105.98062   -792.03756    89379.481   -21862.938    1585.8586   -23448.797    274.61868    235.40828 
   96400    103.60052   -816.30348    89375.751   -21869.767    1550.2436   -23420.011    274.47576     230.1215 
   96450    109.50328   -892.39455    89325.068   -21773.251    1638.5706   -23411.822    274.35133    243.23296 
   96500     107.2513   -753.68859     89273.93   -21771.728    1604.8727   -23376.601     274.1591    238.23077 
   96550    109.08641   -542.32034    89223.984   -21774.971    1632.3326   -23407.304    274.14072    242.30697 
   96600     108.9964   -566.93094    89286.194   -21779.196    1630.9858   -23410.182     274.8676    242.10705 
   96650    110.65483   -529.32684     89301.55   -21775.683    1655.8019   -23431.485    274.86183    245.79081 
   96700    105.62854   -542.49476    89342.308   -21782.145    1580.5902   -23362.736    274.62341    234.62622 
   96750     106.9604   -762.46148    89350.377   -21779.749    1600.5197   -23380.269    275.17696     237.5846 
   96800    107.35157   -723.65107    89352.786   -21789.234    1606.3732   -23395.607    275.16912     238.4535 
   96850     107.9266   -756.16912    89358.708   -21791.787    1614.9777   -23406.765    275.05083    239.73078 
   96900     108.1006   -775.50393    89389.515   -21816.183    1617.5813   -23433.764    275.67541    240.11726 
   96950    109.09135    -874.2483    89339.299   -21791.931    1632.4065   -23424.337    275.94201    242.31795 
   97000    107.20943   -1117.1987    89312.733   -21809.441    1604.2462   -23413.688    276.11242    238.13777 
   97050    105.84667   -853.47185    89271.438   -21815.035    1583.8542   -23398.889    276.27303    235.11074 
   97100    108.65535   -634.15309    89306.109   -21826.498    1625.8825    -23452.38    276.14746     241.3495 
   97150     107.6088   -745.09948     89348.49    -21835.61    1610.2221   -23445.832    276.48438    239.02485 
   97200    106.47107   -560.62277    89316.599   -21850.262    1593.1976    -23443.46    276.20012    236.49769 
   97250    107.30483   -782.28627    89343.209   -21828.163    1605.6737   -23433.836    276.02169    238.34967 
   97300    106.79721   -804.92324    89416.148   -21843.894    1598.0778   -23441.972    276.39195    237.22211 
   97350    106.90924   -900.11045     89403.03   -21802.241    1599.7542   -23401.995    276.36685    237.47096 
   97400    108.46236   -732.79539    89396.995   -21804.526    1622.9946   -23427.521    276.33059    240.92082 
   97450    106.39523   -887.01616    89382.981   -21818.457    1592.0628    -23410.52    277.28598    236.32924 
   97500    105.09134   -707.16086    89396.872   -21831.421    1572.5517   -23403.973    277.21867    233.43297 
   97550    106.80948    -694.0756    89432.724   -21856.417    1598.2614   -23454.678    277.50013    237.24937 
   97600    108.63757   -709.88273    89549.309   -21808.396    1625.6163   -23434.013    278.30074    241.30999 
   97650    108.21346   -951.26323    89583.135   -21786.116    1619.2701   -23405.386    278.38893    240.36794 
   97700    105.48665   -1012.7504    89572.612   -21757.902    1578.4671   -23336.369    278.27815    234.31106 
   97750     107.7044   -638.94524    89600.003   -21813.474    1611.6528   -23425.127    278.39514    239.23722 
   97800    107.29641   -1096.7334    89577.621   -21801.498    1605.5476   -23407.046    278.70842    238.33096 
   97850    107.95024   -1055.5138    89465.397    -21786.55    1615.3314   -23401.881    278.39244    239.78328 
   97900    109.21313   -1028.3978    89311.643   -21783.953    1634.2289   -23418.182    278.30043    242.58846 
   97950    107.80216   -810.63868    89255.892   -21783.794    1613.1156   -23396.909    278.69399    239.45436 
   98000    110.68203   -705.50076    89291.875   -21732.071     1656.209    -23388.28      278.858    245.85123 
   98050    109.07005   -710.31975    89300.563   -21767.036    1632.0879   -23399.124    279.24382    242.27065 
   98100    108.89232   -523.33696    89306.612   -21756.306    1629.4284   -23385.734    278.83951    241.87586 
   98150    109.26218   -643.44594    89386.258   -21733.615    1634.9628   -23368.577    279.18542    242.69741 
   98200    110.68961     -779.315    89455.288   -21708.045    1656.3225   -23364.368    279.60768    245.86808 
   98250    111.86902   -773.50638      89442.2   -21728.347    1673.9707   -23402.318    279.78691    248.48782 
   98300    108.93768    -954.2531    89527.273   -21756.705    1630.1071   -23386.812    280.32543    241.97661 
   98350    110.08095   -497.14869    89534.576   -21755.131    1647.2146   -23402.345    280.24989    244.51609 
   98400    109.84255   -321.37014    89567.969   -21752.269    1643.6472   -23395.916    280.79124    243.98654 
   98450     108.5421   -706.40345    89547.533   -21762.239    1624.1877   -23386.426    281.19415    241.09793 
   98500    109.49686   -852.88952    89497.222   -21784.188    1638.4744   -23422.662    281.39674    243.21868 
   98550    108.75491   -899.67039    89438.071   -21793.508    1627.3722    -23420.88    281.85228    241.57064 
   98600    110.89134   -831.43669    89459.582   -21758.651    1659.3411   -23417.992    281.52602    246.31617 
   98650    107.30409   -668.30923    89387.282   -21800.222    1605.6626   -23405.885    281.42714    238.34801 
   98700    109.01898   -833.82302    89373.039   -21788.563    1631.3236   -23419.887    282.04165     242.1572 
   98750    109.20672   -1183.3453    89366.397   -21793.948    1634.1329   -23428.081    282.18489    242.57421 
   98800    109.45274   -673.31813    89305.203   -21774.527    1637.8143   -23412.341    282.27357    243.12069 
   98850    106.84824    -1008.555    89291.896   -21776.428    1598.8414   -23375.269    282.18048    237.33546 
   98900    108.00943   -927.71385    89252.559   -21792.845    1616.2171   -23409.063    282.04604    239.91476 
   98950    107.68304   -891.41265    89206.109   -21834.547     1611.333    -23445.88     281.8493    239.18975 
   99000    105.85554   -1143.4596    89194.783   -21810.225     1583.987   -23394.212    282.08889    235.13045 
   99050    106.43111   -999.00449    89164.529   -21836.134    1592.5996   -23428.734    282.30963    236.40893 
   99100    106.65874   -811.58756    89171.362   -21832.375    1596.0057   -23428.381     282.7223    236.91454 
   99150    107.05039   -972.35601    89189.682   -21849.534    1601.8664   -23451.401    283.59734     237.7845 
   99200    104.31383   -659.14735    89236.901   -21866.863    1560.9173    -23427.78    283.08476    231.70593 
   99250    103.52246   -446.54173    89266.945    -21874.42    1549.0755   -23423.496    283.19129    229.94811 
   99300    105.82425   -875.78402    89258.145   -21873.015    1583.5188   -23456.533     283.3771    235.06095 
   99350    108.59588   -846.48394    89284.367    -21826.47    1624.9925   -23451.463    283.41466    241.21739 
   99400    110.52282   -882.54346    89304.661   -21838.095    1653.8266   -23491.922    283.25996    245.49758 
   99450    110.43032   -881.80964    89245.576    -21830.47    1652.4424   -23482.912    283.25202    245.29212 
   99500    106.22819   -852.68382    89203.991   -21846.585    1589.5633   -23436.148    283.17325     235.9582 
   99550     107.5501   -921.93573    89205.733   -21827.318    1609.3439   -23436.662    282.90884    238.89447 
   99600    107.17204   -695.35608    89240.369   -21833.108    1603.6867   -23436.795    283.29087    238.05471 
   99650    106.06204   -963.71934    89287.257   -21822.949    1587.0769   -23410.025    283.25447    235.58912 
   99700    105.76252   -784.94518    89293.618   -21835.996    1582.5951   -23418.591    283.28397    234.92383 
   99750    108.61354   -725.54989     89278.61     -21806.9    1625.2567   -23432.157    283.52557    241.25661 
   99800    110.90209   -639.68642    89347.857    -21789.68    1659.5019   -23449.182    284.29564    246.34005 
   99850    106.98596   -655.01494    89352.269   -21743.419    1600.9023   -23344.321    284.85871    237.64138 
   99900    110.06891   -716.15813     89406.02   -21745.852    1647.0344   -23392.886     285.1974    244.48934 
   99950    108.68984   -955.02274        89423   -21757.161    1626.3986    -23383.56    285.49345    241.42611 
  100000    110.01302   -878.30001     89333.78   -21706.916    1646.1981   -23353.114    286.07561     244.3652 
Loop time of 43.4862 on 80 procs for 100000 steps with 5021 atoms

Performance: 993.420 ns/day, 0.024 hours/ns, 2299.582 timesteps/s
100.0% CPU use with 80 MPI tasks x no OpenMP threads

MPI task timing breakdown:
Section |  min time  |  avg time  |  max time  |%varavg| %total
---------------------------------------------------------------
Pair    | 6.2065     | 18.171     | 25.479     | 175.1 | 41.79
Neigh   | 0.46802    | 1.2074     | 3.1288     |  93.6 |  2.78
Comm    | 10.022     | 17.373     | 29.319     | 172.5 | 39.95
Output  | 0.12521    | 0.12897    | 0.28846    |   5.0 |  0.30
Modify  | 4.2159     | 5.7371     | 7.0661     |  35.9 | 13.19
Other   |            | 0.8686     |            |       |  2.00

Nlocal:    62.7625 ave 144 max 28 min
Histogram: 43 17 0 0 0 0 0 0 5 15
Nghost:    671.475 ave 833 max 378 min
Histogram: 20 0 0 0 0 0 0 37 3 20
Neighs:    0 ave 0 max 0 min
Histogram: 80 0 0 0 0 0 0 0 0 0
FullNghs:  5951.43 ave 18819 max 1039 min
Histogram: 60 0 0 0 0 0 0 0 0 20

Total # of neighbors = 476114
Ave neighs/atom = 94.8245
Neighbor list builds = 5743
Dangerous builds = 0

write_data		${DIR}/data.eq-${NAME}-${TEMP}
write_data		run_13/data.eq-${NAME}-${TEMP}
write_data		run_13/data.eq-het_freeze_13-${TEMP}
write_data		run_13/data.eq-het_freeze_13-240
undump          1

reset_timestep  0

unfix           2
unfix           3
unfix           4


################################################
#######         Run Simulation         #########
################################################

log				${DIR}/log.run_${NAME}
log				run_13/log.run_${NAME}
log				run_13/log.run_het_freeze_13
