
# Create simulation box and atoms

read_data data.ML_graphite_m500atm_250K
  orthogonal box = (0 0 1.82651) to (49.22 49.0196 26.1135)
  8 by 5 by 2 MPI processor grid
  reading atoms ...
  4063 atoms
  reading velocities ...
  4063 velocities
group water type 1
1303 atoms in group water
group graphite type 2
2760 atoms in group graphite

# Define potential

pair_style sw
pair_coeff * * MLC_e.sw mW C


# Fix graphite atoms in place

fix 5 graphite setforce 0.0 0.0 0.0
velocity graphite set 0.0 0.0 0.0


# Equilibration of molecular water

# Add velocity/set timestep

velocity	    water create ${TEMP} ${SEED} rot yes dist gaussian
velocity	    water create 250 ${SEED} rot yes dist gaussian
velocity	    water create 250 27349 rot yes dist gaussian
timestep	    5.0

# Define output

compute			1 water msd
compute			3 water temp
thermo	    	50
thermo_style	custom step temp press vol etotal ke pe c_1[4] c_3

# Neighbor lists

neigh_modify    delay 0 every 1 check yes

# Set fixes

fix             1 water momentum 10 linear 1 1 1 rescale
fix             2 water nve
fix             3 water temp/csvr ${TEMP} ${TEMP} 500.0 ${SEED}
fix             3 water temp/csvr 250 ${TEMP} 500.0 ${SEED}
fix             3 water temp/csvr 250 250 500.0 ${SEED}
fix             3 water temp/csvr 250 250 500.0 27349
fix             4 water press/berendsen z ${PRES} ${PRES} 1000.0 modulus 20000
fix             4 water press/berendsen z -500 ${PRES} 1000.0 modulus 20000
fix             4 water press/berendsen z -500 -500 1000.0 modulus 20000

# Run 0.5 ns equilibration

dump		    1 all atom 2000 ${DIR}/eq.${NAME}-${TEMP}.dump
dump		    1 all atom 2000 run_13/eq.${NAME}-${TEMP}.dump
dump		    1 all atom 2000 run_13/eq.het_freeze_13-${TEMP}.dump
dump		    1 all atom 2000 run_13/eq.het_freeze_13-250.dump

reset_timestep  0

run	            100000
Neighbor list info ...
  update every 1 steps, delay 0 steps, check yes
  max neighbors/atom: 2000, page size: 100000
  master list distance cutoff = 6.67472
  ghost atom cutoff = 6.67472
  binsize = 3.33736, bins = 15 15 8
  1 neighbor lists, perpetual/occasional/extra = 1 0 0
  (1) pair sw, perpetual
      attributes: full, newton on
      pair build: full/bin/atomonly
      stencil: full/bin/3d
      bin: standard
Per MPI rank memory allocation (min/avg/max) = 4.096 | 4.284 | 4.472 Mbytes
Step Temp Press Volume TotEng KinEng PotEng c_1[4] c_3 
       0    80.132939   -1249.8493    58598.323   -12595.461    970.25367   -13565.715            0          250 
      50    81.033109   -1352.9476    58558.658   -12585.185    981.15297   -13566.338   0.51196251    252.80836 
     100    81.165842   -1183.3127    58538.983   -12605.012     982.7601   -13587.772   0.89783892    253.22246 
     150    78.628222   -996.93286    58529.691   -12638.912    952.03447   -13590.946    1.1320694    245.30556 
     200    80.973878   -1167.2227    58526.794   -12633.054    980.43579    -13613.49    1.4056915    252.62357 
     250    77.117948   -1186.4952    58519.943   -12637.207    933.74801   -13570.955    1.6285093    240.59378 
     300    77.354566   -869.54156    58461.848    -12649.89    936.61298   -13586.503    1.7777745    241.33199 
     350    80.374299   -1238.7972    58458.391   -12644.175    973.17606   -13617.352    1.9321544      250.753 
     400    78.480947   -1199.5759    58447.053   -12682.495    950.25126   -13632.746    2.1247431    244.84609 
     450     75.83555   -1282.1056    58397.938   -12703.518    918.22066   -13621.738    2.3371695    236.59294 
     500    75.601339   -985.07221    58477.633   -12712.337    915.38483   -13627.722    2.4741389    235.86224 
     550    75.736372   -849.92977    58522.503    -12726.05    917.01981   -13643.069    2.6756411    236.28352 
     600    81.126425   -945.83402    58572.471    -12691.33    982.28285   -13673.613    2.9182306    253.09949 
     650    79.147399   -940.74541     58645.02   -12673.804     958.3207   -13632.125    3.1763941    246.92529 
     700    79.352846   -1090.6349    58678.887   -12687.866    960.80826   -13648.674    3.4693585    247.56625 
     750     75.63537    -1163.033    58693.915   -12691.378    915.79687   -13607.175    3.6260916    235.96841 
     800    80.937607   -700.09032     58650.14   -12618.571    979.99663   -13598.567    3.7494937    252.51041 
     850    80.329762   -1549.9104    58671.729   -12612.722    972.63681   -13585.358    3.9688075    250.61405 
     900    81.195908    -1018.565    58684.301   -12611.201    983.12415   -13594.325    4.1977445    253.31627 
     950    81.846299   -771.91607    58700.178   -12605.972    990.99911   -13596.972    4.4355531    255.34537 
    1000    82.588325   -985.45789    58746.681   -12565.918     999.9836   -13565.902    4.6178101    257.66035 
    1050    82.064626   -890.50974    58703.756   -12533.817    993.64263   -13527.459    4.7120316    256.02651 
    1100    85.201728   -1031.7081    58680.136   -12531.674    1031.6268     -13563.3    4.9089151    265.81369 
    1150     82.78542   -844.13554    58654.207   -12551.695      1002.37   -13554.065    5.0503811    258.27525 
    1200    80.312315   -1279.6214    58645.507   -12567.812    972.42556   -13540.237    5.2709786    250.55962 
    1250    79.824387   -1298.8706    58603.732   -12568.399     966.5177   -13534.916    5.4860997    249.03737 
    1300    81.665505   -1468.5733    58528.466   -12605.239    988.81005   -13594.049    5.6757161    254.78132 
    1350    80.269714   -1577.3897     58425.14   -12617.437    971.90975   -13589.347    5.9241069    250.42671 
    1400    79.465403   -1548.2674    58357.566   -12619.876    962.17111   -13582.047    6.1458844    247.91741 
    1450    77.724289   -989.57794    58316.836   -12597.536    941.08961   -13538.625    6.4196144    242.48545 
    1500    79.123185   -1011.2258    58319.284   -12604.268    958.02751   -13562.296    6.6189655    246.84975 
    1550    82.427052   -1137.9978    58343.202   -12545.248    998.03091   -13543.279    6.9315572    257.15721 
    1600    82.067204   -1044.2922    58342.615   -12527.855    993.67384   -13521.529    7.3249109    256.03455 
    1650    81.629389   -843.87386    58364.609   -12529.889    988.37276   -13518.262    7.6872827    254.66865 
    1700    80.029183   -825.44046    58361.656   -12535.145    968.99739   -13504.143    7.9652077     249.6763 
    1750    81.022742   -871.64357    58396.259   -12526.241    981.02745   -13507.268    8.0576143    252.77602 
    1800       80.696   -1281.2996    58437.172   -12562.533    977.07124   -13539.605    8.3102776    251.75665 
    1850    77.322714   -1172.3007    58484.378    -12573.57    936.22732   -13509.797    8.5595332    241.23262 
    1900    76.514208   -975.72394     58521.68   -12570.715    926.43789   -13497.153    8.8996283    238.71023 
    1950    79.767251   -1165.4962    58545.217   -12565.375     965.8259   -13531.201    9.2668231    248.85912 
    2000    81.023398   -1003.8559    58552.551   -12573.964    981.03539   -13554.999    9.3420156    252.77807 
    2050    79.517286   -1198.3011    58478.075   -12609.803    962.79931   -13572.602    9.5732766    248.07927 
    2100    78.933808   -847.30925    58465.318   -12604.813    955.73453   -13560.548     9.770405    246.25893 
    2150    81.235884   -1153.6609    58487.444   -12614.014    983.60818   -13597.622    10.011955    253.44098 
    2200    78.903882   -952.13686    58439.304   -12593.928    955.37218     -13549.3    10.103048    246.16557 
    2250    80.357299   -1050.6326      58443.5   -12575.562    972.97023   -13548.532    10.292008    250.69996 
    2300    80.521104   -854.57312    58468.725   -12592.634    974.95359   -13567.588    10.530474      251.211 
    2350    80.546991   -1078.0097    58402.918   -12577.569    975.26702   -13552.836    10.790255    251.29176 
    2400    80.415586   -1138.4443    58429.194   -12577.208    973.67598   -13550.884    11.061237    250.88181 
    2450    83.188522   -1089.7776    58404.064   -12572.402    1007.2508   -13579.652    11.241888    259.53285 
    2500    81.049227   -1481.3037    58378.501   -12622.236    981.34813   -13603.584    11.391006    252.85865 
    2550    78.728129   -1297.4661    58325.192   -12595.558    953.24415   -13548.802    11.503549    245.61725 
    2600      77.1028   -1182.7734    58334.475   -12601.519     933.5646   -13535.083    11.824191    240.54652 
    2650     82.92277   -992.08367    58319.682   -12609.571    1004.0331   -13613.604    12.066348    258.70376 
    2700    76.493742   -836.53866    58309.391   -12588.356    926.19008   -13514.546    12.377226    238.64637 
    2750    82.460787   -916.97487    58329.838   -12561.299    998.43937   -13559.739     12.59088    257.26246 
    2800    80.056158    -871.5685    58366.277   -12587.113      969.324   -13556.437    12.773888    249.76046 
    2850    79.750345   -1548.6694    58346.186   -12580.463     965.6212   -13546.084    12.976219    248.80638 
    2900     77.83793   -1468.3342    58228.383   -12589.615    942.46558    -13532.08    13.200026    242.83999 
    2950    76.426762   -1035.9537    58218.812   -12589.526    925.37909   -13514.905    13.422135    238.43741 
    3000    79.918779    -596.1989     58270.58    -12598.49    967.66061    -13566.15    13.708575    249.33186 
    3050    81.423421   -923.38557    58344.675   -12580.169    985.87889   -13566.047    14.025189    254.02607 
    3100    79.586289   -765.42608     58421.21   -12593.562     963.6348   -13557.197    14.277432    248.29455 
    3150    80.989659   -1179.2878    58387.444   -12576.774    980.62688   -13557.401    14.552486    252.67281 
    3200     80.61239   -878.11675    58426.711   -12570.981    976.05889    -13547.04    14.760105     251.4958 
    3250    80.377174   -1286.2852    58460.509    -12568.45    973.21088   -13541.661    15.056248    250.76197 
    3300    81.277232    -793.4835    58475.716   -12537.966    984.10882   -13522.075    15.259579    253.56998 
    3350    81.561072   -1307.7557    58502.118   -12537.856    987.54557   -13525.402    15.517925    254.45551 
    3400    80.723376   -1100.8576    58539.096   -12537.891    977.40271   -13515.294    15.741483    251.84205 
    3450    79.477111   -1306.1815    58518.947   -12549.235    962.31286   -13511.548    16.025905    247.95394 
    3500    82.086956   -942.14776    58475.063   -12555.505    993.91301   -13549.418    16.332204    256.09617 
    3550    81.030012   -926.27754    58508.922   -12555.609    981.11547   -13536.724    16.690184     252.7987 
    3600    82.430285   -1077.1751     58524.87   -12592.627    998.07005   -13590.697    17.142048    257.16729 
    3650    80.621552   -1047.8154    58557.708   -12556.012    976.16982   -13532.182     17.48672    251.52438 
    3700    82.028504   -1284.6084    58583.515   -12573.767    993.20526   -13566.972    17.713767    255.91381 
    3750    79.300296   -1105.9581    58548.664   -12573.618    960.17199    -13533.79    17.876622    247.40231 
    3800    79.979484   -1270.5417    58520.332   -12578.547    968.39562   -13546.943    17.921157    249.52125 
    3850    81.270789   -1603.0402    58461.099   -12585.067    984.03081   -13569.098    18.035942    253.54988 
    3900    77.459744   -841.05069    58417.143   -12587.232    937.88649   -13525.118    18.090455    241.66012 
    3950    77.070128   -794.19825    58401.892    -12597.27      933.169   -13530.439     18.17271    240.44459 
    4000    80.287492   -1250.1512    58384.891    -12588.77    972.12501   -13560.895    18.600442    250.48218 
    4050    78.895398   -1025.7252    58418.021   -12596.766    955.26945   -13552.035    18.952637     246.1391 
    4100    80.643303   -995.05212    58390.638    -12599.01    976.43318   -13575.443    19.419558    251.59224 
    4150    78.945804   -653.20873    58377.823   -12590.263    955.87977   -13546.143    19.836556    246.29636 
    4200    78.658279   -1148.8258    58390.472   -12568.928    952.39841   -13521.327     20.04783    245.39933 
    4250    78.984535   -1154.1512    58407.213   -12583.272    956.34873   -13539.621    20.150772    246.41719 
    4300    81.493619   -1116.3509    58407.128   -12600.832    986.72885   -13587.561    20.365198    254.24507 
    4350    78.198864    -934.2151    58444.639   -12604.194    946.83578    -13551.03    20.701338    243.96604 
    4400    79.250229   -1043.1314    58436.337   -12608.767    959.56577   -13568.333    21.008704    247.24611 
    4450    81.016832   -1088.4104    58436.548   -12610.341    980.95589   -13591.297    21.147314    252.75758 
    4500    78.686418   -1350.7645     58420.67   -12590.146    952.73912   -13542.885    21.477229    245.48712 
    4550    80.404257   -1115.7876    58403.758   -12578.334     973.5388   -13551.873    21.698078    250.84646 
    4600    79.318599   -1004.0319    58357.066    -12598.37     960.3936   -13558.764    21.804327    247.45941 
    4650    79.246716   -986.88833    58403.708   -12591.125    959.52324   -13550.648    21.972775    247.23515 
    4700    80.165415   -802.01483    58423.081   -12577.656    970.64689   -13548.303    22.246407    250.10132 
    4750    79.140434   -1139.1905    58420.841   -12589.572    958.23637   -13547.809    22.720232    246.90357 
    4800    83.197056   -942.02497    58423.448   -12558.489    1007.3541   -13565.843    23.007588    259.55948 
    4850    80.079208   -981.49918    58418.383    -12539.02    969.60309   -13508.623    23.122449    249.83237 
    4900    84.111469   -886.67381    58452.946   -12534.844    1018.4259    -13553.27      23.1513    262.41228 
    4950    83.301333   -641.09853     58477.79   -12552.177    1008.6167   -13560.793    23.246833     259.8848 
    5000    84.299998   -1149.3868     58556.45   -12576.828    1020.7086   -13597.536    23.307373    263.00045 
    5050    82.648667    -1351.996    58599.386   -12587.611    1000.7142   -13588.325    23.764231    257.84861 
    5100    81.703441   -1234.0948    58669.267   -12590.194    989.26938   -13579.463    24.130265    254.89967 
    5150    79.348271   -1113.0206    58690.353   -12577.246    960.75287   -13537.999    24.374267    247.55198 
    5200    82.765949   -857.17812     58738.12    -12593.54    1002.1343   -13595.674    24.585278     258.2145 
    5250    82.178367   -1356.1644    58762.857   -12621.318    995.01981   -13616.338    24.660133    256.38136 
    5300    82.986887    -938.8756     58757.51   -12610.561    1004.8094    -13615.37     24.67586    258.90379 
    5350    79.646651   -1078.7816    58753.795   -12577.196    964.36567   -13541.562    24.849521    248.48287 
    5400    82.191517   -1234.7193    58766.282   -12566.011    995.17903    -13561.19    24.982033    256.42238 
    5450     80.29469   -1408.1641    58696.671   -12586.257    972.21216   -13558.469    25.147699    250.50463 
    5500    81.820157   -1172.7475    58694.705   -12574.182    990.68259   -13564.865    25.205094    255.26381 
    5550    80.477238   -1066.7263    58715.296    -12555.18    974.42246   -13529.603    25.525729    251.07415 
    5600    82.699674    -976.7071    58772.104   -12540.702    1001.3318   -13542.033    25.694068    258.00774 
    5650    80.088833   -731.39093    58807.861   -12584.653    969.71963   -13554.372    25.998375     249.8624 
    5700    80.476692   -1261.9726    58830.744   -12613.398    974.41585   -13587.814    26.459444    251.07245 
    5750    81.802836   -835.17113    58794.155   -12597.981    990.47286   -13588.454    26.407085    255.20977 
    5800    79.312267   -1446.0333     58759.35   -12625.234    960.31693   -13585.551      26.5941    247.43965 
    5850    76.939052   -858.30052    58705.616   -12631.513    931.58192   -13563.095    26.654193    240.03566 
    5900    80.420592   -1014.0413    58632.193   -12625.861    973.73658   -13599.598    26.838095    250.89742 
    5950    79.159155   -1220.6684    58662.521   -12605.923    958.46304   -13564.386    27.022977    246.96197 
    6000    79.490221   -706.80517    58706.371   -12626.665     962.4716   -13589.136    27.197284    247.99484 
    6050    79.909186   -1008.4198    58696.892   -12661.899    967.54445   -13629.444    27.367828    249.30193 
    6100     80.30167   -710.73432    58686.704   -12632.541    972.29666   -13604.838    27.691393    250.52641 
    6150    78.663876   -768.20254     58725.72   -12633.712    952.46617   -13586.178    28.058953    245.41679 
    6200    79.541733   -1353.7912    58723.975   -12630.662    963.09531   -13593.758    28.365705    248.15554 
    6250    81.677451   -1245.0456    58601.605   -12619.979     988.9547   -13608.934    28.488449    254.81859 
    6300     79.78201    -1281.107    58517.054   -12640.117     966.0046   -13606.121    28.672514    248.90516 
    6350    79.639756   -1067.8732    58475.056   -12606.673    964.28219   -13570.955    28.933982    248.46136 
    6400    81.630247   -1059.3775     58472.18   -12614.833    988.38315   -13603.216    29.147042    254.67132 
    6450    83.824195   -900.40775    58506.308   -12601.973    1014.9476    -13616.92    29.103212    261.51604 
    6500     80.93411    -1248.166    58556.093   -12649.966    979.95429    -13629.92    29.244807     252.4995 
    6550    78.773791   -1266.6304    58635.035   -12654.601    953.79703   -13608.398    29.284471    245.75971 
    6600    78.607005   -1020.3009    58664.973   -12644.656    951.77758   -13596.434    29.491233    245.23937 
    6650    79.417695   -1085.5604    58689.636    -12641.32    961.59345   -13602.913     29.66389    247.76857 
    6700    79.637114   -1080.4827    58682.565    -12659.88    964.25019   -13624.131    30.042917    248.45312 
    6750    78.953532   -947.83687    58710.057   -12665.494    955.97334   -13621.467    30.300708    246.32047 
    6800    80.690415   -1202.2628    58710.302   -12649.479    977.00361   -13626.483    30.509631    251.73922 
    6850    80.599921   -925.31541    58704.483   -12657.802     975.9079    -13633.71    30.752485     251.4569 
    6900     80.26478   -776.60307    58710.909   -12637.782    971.85001   -13609.632    30.806137    250.41132 
    6950    80.982978   -1150.9758    58728.635   -12623.405    980.54598   -13603.951    30.851821    252.65196 
    7000    80.902568   -763.13787    58733.987    -12619.59    979.57237   -13599.162    30.948402     252.4011 
    7050    83.914473   -1167.1293    58747.201   -12585.556    1016.0407   -13601.597    31.251981    261.79769 
    7100    80.502175   -1161.1202    58786.676   -12601.894     974.7244   -13576.618    31.369541    251.15195 
    7150    81.175526   -1001.9338    58806.319   -12582.394    982.87736   -13565.271    31.544413    253.25268 
    7200    81.784294    -1124.834    58818.996   -12647.776    990.24836   -13638.024    31.596098    255.15192 
    7250    80.565378    -1245.348    58778.214   -12624.922    975.48966   -13600.412     31.72128    251.34913 
    7300    79.546099   -932.95203    58809.567   -12605.323    963.14818   -13568.472    32.031423    248.16917 
    7350    78.001939    -891.9228    58802.016   -12618.504    944.45141   -13562.955    32.317832    243.35167 
    7400    78.248402   -1002.3397    58797.087   -12665.727    947.43559   -13613.163    32.705505    244.12059 
    7450      81.4486   -1041.3468    58736.613    -12646.54    986.18375   -13632.724    32.786972    254.10462 
    7500    80.913518   -1120.4555    58783.264   -12623.759    979.70496   -13603.464    33.023606    252.43526 
    7550    79.828867   -905.59728    58807.186   -12622.555    966.57195   -13589.127    32.833251    249.05135 
    7600    80.869617   -1223.8313    58804.795    -12627.25     979.1734   -13606.424    33.037459     252.2983 
    7650    79.965373   -847.87768     58826.77   -12608.529    968.22477   -13576.754    33.458707    249.47722 
    7700    78.806593   -1037.3682    58821.043   -12597.546     954.1942    -13551.74    33.797431    245.86204 
    7750    82.453641   -1091.2813    58884.194   -12590.603    998.35284   -13588.956    34.054052    257.24016 
    7800    83.692534   -1143.2362    58936.588   -12572.934    1013.3534   -13586.288    33.872641    261.10528 
    7850    83.743926   -913.07981    59013.216   -12549.284    1013.9757   -13563.259    33.668878    261.26561 
    7900    84.466015   -1690.3846    59018.968   -12577.246    1022.7188   -13599.965    33.705704     263.5184 
    7950    82.089594   -1235.2956    58964.827   -12613.256    993.94495   -13607.201    33.861828     256.1044 
    8000    82.889203   -900.52559    58973.342   -12601.136    1003.6267   -13604.763    34.239191    258.59904 
    8050    80.457629   -1010.5822    59016.316   -12616.908    974.18503   -13591.093    34.542182    251.01297 
    8100    79.441519   -858.21624    58989.159   -12602.638    961.88191    -13564.52    34.439065    247.84289 
    8150    81.271195   -1354.2292    58939.716   -12584.961    984.03572   -13568.997    34.754079    253.55115 
    8200    82.161409   -1222.4744    58871.892   -12587.449    994.81448   -13582.263    34.839397    256.32845 
    8250    81.074948   -1193.3739    58788.934   -12618.886    981.65956   -13600.546    34.994505    252.93889 
    8300    80.417466   -1221.3693    58797.188   -12637.571    973.69873    -13611.27    35.114562    250.88767 
    8350    80.735224   -1106.9148    58792.635   -12625.243    977.54616   -13602.789    35.235204    251.87902 
    8400     77.32511   -1366.5742    58765.574   -12629.567    936.25634   -13565.823    35.427308    241.24009 
    8450    80.547785   -1139.6562    58702.084   -12626.888    975.27665   -13602.164    35.298666    251.29424 
    8500    77.934789   -1113.0285    58700.985   -12656.862    943.63835   -13600.501    35.500514    243.14217 
    8550    81.294775   -967.88531    58729.274   -12643.437    984.32123   -13627.758    35.772521    253.62471 
    8600    82.024985   -1283.8506    58746.021    -12648.65    993.16265   -13641.812    35.891678    255.90283 
    8650     78.65799   -754.04708    58784.828   -12633.635    952.39491    -13586.03    36.152883    245.39843 
    8700    79.494712   -1395.3616    58778.591   -12662.637    962.52598   -13625.163    36.372504    248.00885 
    8750    77.196088    -1163.154    58792.203   -12637.397    934.69412   -13572.091    36.457479    240.83756 
    8800    80.791732   -1035.8763    58787.025   -12600.347    978.23036   -13578.577       36.681    252.05531 
    8850    78.965048   -682.37177    58730.963   -12620.711    956.11279   -13576.824    36.940416    246.35639 
    8900    80.018201   -724.19413    58731.574   -12613.159    968.86442   -13582.023    36.809244    249.64204 
    8950     81.08717   -1126.1361    58708.244   -12614.737    981.80755   -13596.545    36.639749    252.97703 
    9000    76.946219   -1555.5018     58652.69   -12658.115     931.6687   -13589.784    36.692053    240.05802 
    9050    75.561886   -1498.7627    58593.526   -12666.798    914.90713   -13581.705    36.970376    235.73916 
    9100    77.589098   -870.37063    58543.258   -12654.421    939.45271   -13593.874    37.230577    242.06368 
    9150    80.386375   -1098.7456    58545.536   -12645.055    973.32229   -13618.377    37.469257    250.79067 
    9200    80.628948   -855.71167    58554.152   -12627.164    976.25937   -13603.423    37.806682    251.54746 
    9250    81.978233    -828.3554    58545.203   -12629.588    992.59658   -13622.184    38.111438    255.75698 
    9300    79.782975   -1108.6531    58531.435    -12645.91    966.01629   -13611.926    38.430921    248.90818 
    9350     80.30208   -1145.0912    58436.003   -12666.233    972.30163   -13638.535    38.596732    250.52769 
    9400    76.477383   -1128.9385    58442.392   -12661.894    925.99201   -13587.886    38.758012    238.59534 
    9450    81.709391   -1134.8528    58524.525   -12606.388    989.34142   -13595.729    38.976338    254.91824 
    9500    82.657144    -874.5539     58540.28   -12594.915    1000.8169   -13595.732    38.860847    257.87505 
    9550     82.56627    -895.1925    58550.209   -12630.297    999.71656   -13630.013    39.113426    257.59154 
    9600    79.330874   -1146.2741    58528.873   -12641.305    960.54223   -13601.847    39.255528    247.49771 
    9650    80.071155   -902.48512    58527.466    -12640.17    969.50558   -13609.676    39.509986    249.80724 
    9700    81.665227   -1044.9465    58524.434   -12614.788    988.80669   -13603.595    39.916948    254.78046 
    9750    80.956587    -774.8598    58535.231   -12600.087    980.22644   -13580.314    40.089739    252.56963 
    9800     77.72302   -883.13044    58543.106   -12634.119    941.07425   -13575.193    40.105209     242.4815 
    9850    82.853616   -972.93559    58531.726   -12572.678    1003.1958   -13575.874    40.373048    258.48801 
    9900    81.542647   -935.42545    58531.782    -12571.01    987.32248   -13558.333     40.99715    254.39803 
    9950    81.525881   -929.13758    58505.942   -12550.453    987.11948   -13537.572    41.354168    254.34572 
   10000    80.858539   -1015.8862    58481.469   -12583.152    979.03926   -13562.191    41.336754    252.26374 
   10050    81.430486   -740.53348    58544.683   -12598.854    985.96443   -13584.818    41.421377    254.04811 
   10100    79.881163    -910.6933    58546.923   -12597.978    967.20515   -13565.184    41.444876     249.2145 
   10150    81.208622   -629.03382    58544.904   -12621.243     983.2781   -13604.521    41.400532    253.35593 
   10200    78.826056   -1012.4806    58539.182   -12632.249    954.42986   -13586.679    41.563937    245.92276 
   10250    79.404127   -1264.9548    58513.534   -12655.974    961.42917   -13617.403    41.764376    247.72624 
   10300    76.183932   -1179.2242    58460.078   -12642.565    922.43889   -13565.003    42.017466    237.67982 
   10350    80.453827   -1054.4346    58384.403   -12637.739      974.139   -13611.878    42.222708    251.00111 
   10400    78.151516    -769.1803    58370.832   -12646.161     946.2625   -13592.423    42.879177    243.81832 
   10450    78.614228    -1520.629    58365.114   -12621.204    951.86504   -13573.069    43.274188     245.2619 
   10500    77.679833   -920.92338    58329.754   -12629.649    940.55134     -13570.2     43.56673    242.34676 
   10550    80.308436   -1241.3982    58232.517   -12636.302    972.37859    -13608.68    43.914284    250.54752 
   10600     81.26058   -883.33721    58199.372   -12625.473     983.9072    -13609.38    44.023063    253.51803 
   10650    79.537544   -785.83198    58162.328   -12631.039     963.0446   -13594.083    44.153014    248.14248 
   10700    82.008133   -697.41624     58189.73   -12592.567    992.95861   -13585.526    44.358342    255.85026 
   10750    79.282046   -754.76206    58214.946   -12596.767    959.95101   -13556.718    44.385453    247.34537 
   10800    79.462221    -1204.373    58146.175   -12590.507    962.13258    -13552.64    44.298872    247.90748 
   10850     82.06749   -1035.3336    58126.689   -12562.462     993.6773   -13556.139    44.844857    256.03544 
   10900    81.429809   -1041.5883    58122.838   -12598.898    985.95624   -13584.854    45.179466    254.04599 
   10950    84.747642   -880.09169    58115.559   -12579.852    1026.1287   -13605.981    45.258345    264.39702 
   11000    79.506484   -999.46606    58109.147   -12586.338    962.66852   -13549.007    45.658065    248.04557 
   11050    79.129891   -984.83543    58106.442   -12612.488    958.10871   -13570.597    45.855587    246.87067 
   11100    81.190726   -825.13029    58128.612   -12606.763     983.0614   -13589.824    46.320794     253.3001 
   11150    78.111412   -1055.6943    58182.285    -12604.57    945.77691   -13550.347    46.361683    243.69321 
   11200    78.847629   -979.44106    58200.188   -12610.916    954.69106   -13565.607    46.338468    245.99007 
   11250    80.162543   -846.14807      58219.4   -12598.435    970.61212   -13569.047    46.567752    250.09236 
   11300    79.612816   -884.30522    58225.715   -12594.293    963.95599   -13558.249    46.732987    248.37731 
   11350    81.735285   -927.82969    58292.493   -12584.572    989.65495   -13574.227    46.686131    254.99902 
   11400    81.080522   -726.35052    58380.813   -12591.561    981.72705   -13573.288    46.931833    252.95628 
   11450    78.572599   -1030.9288    58429.203   -12624.977    951.36099   -13576.338    47.334845    245.13202 
   11500    79.881048   -1190.2424    58420.667   -12594.624    967.20376   -13561.827    47.603507    249.21415 
   11550    80.396831   -686.29918    58428.992   -12611.122    973.44888    -13584.57    47.806835    250.82329 
   11600    80.238346    -1333.899    58477.165   -12637.653    971.52993   -13609.183    47.861618    250.32885 
   11650    80.379532   -1319.5706     58465.12   -12632.579    973.23943   -13605.819    48.426776    250.76932 
   11700    83.296123   -1122.1974    58432.429   -12605.383    1008.5537   -13613.937    48.963513    259.86855 
   11750    79.598992   -1353.1475    58398.305   -12647.524    963.78861   -13611.312    49.130111    248.33418 
   11800    78.206464   -1276.2985    58449.297   -12657.712    946.92781    -13604.64    49.688844    243.98975 
   11850    77.801079    -764.8762    58449.413   -12658.829    942.01939   -13600.848    50.108003    242.72503 
   11900    78.385985   -895.08039     58489.25   -12678.315    949.10146   -13627.416    50.380258    244.54982 
   11950    78.143879   -805.69304    58486.938    -12676.61    946.17002    -13622.78    50.758224     243.7945 
   12000    80.761115   -1089.3603    58513.893   -12645.477    977.85966   -13623.337    51.388823    251.95979 
   12050    83.788518   -1028.5459    58562.731   -12610.119    1014.5156   -13624.635     51.91692    261.40473 
   12100    78.198139   -928.49098    58548.974   -12591.219    946.82701   -13538.046    51.854166    243.96378 
   12150    82.655528   -528.39181    58517.332   -12586.647    1000.7973   -13587.444    51.661246    257.87001 
   12200    79.053154   -1142.7724    58535.698   -12611.025    957.17958   -13568.204    52.266283    246.63127 
   12250    81.665218   -1230.7901    58501.811   -12590.264    988.80658    -13579.07    52.440492    254.78043 
   12300    80.681824   -1193.6542    58478.666   -12614.489    976.89959   -13591.389    52.473469    251.71242 
   12350    77.839746   -735.02152    58529.066   -12635.862    942.48757    -13578.35    52.846748    242.84566 
   12400    81.271731   -380.97705    58559.765   -12621.217    984.04222    -13605.26    53.186896    253.55282 
   12450    79.946836   -964.68053    58565.497   -12627.044    968.00032   -13595.044    53.602648    249.41939 
   12500    80.793069   -651.07136    58588.574   -12609.552    978.24656   -13587.799    53.894768    252.05948 
   12550     79.09168   -1079.1968    58586.241   -12597.243    957.64605   -13554.889    53.971822    246.75146 
   12600    78.122647   -976.81803    58627.233   -12643.367    945.91295    -13589.28    54.519701    243.72826 
   12650      79.4604   -746.68782    58688.935   -12608.308    962.11053   -13570.419    54.905717     247.9018 
   12700    77.870748   -1121.5898    58651.206   -12646.484    942.86295   -13589.347    55.063021    242.94238 
   12750    78.135985   -1091.1077    58630.441   -12660.479    946.07444   -13606.553    55.063225    243.76987 
   12800    80.985982   -1047.8456    58655.451   -12672.535    980.58235   -13653.118    55.138393    252.66133 
   12850    76.449657   -747.94403    58719.983   -12701.406    925.65631   -13627.063    55.410919    238.50884 
   12900    78.806137   -944.04952    58727.768   -12696.955    954.18868   -13651.144    55.589702    245.86062 
   12950    80.439756   -866.72534    58745.259   -12657.481    973.96862    -13631.45    55.570364    250.95721 
   13000    76.908458   -1146.3221      58804.3    -12664.31    931.21148   -13595.521     55.74071    239.94021 
   13050    81.963686   -562.11488    58827.784   -12634.612    992.42045   -13627.032    55.731079    255.71159 
   13100    81.992452   -1216.0396    58836.358     -12609.7    992.76874   -13602.469    55.812088    255.80134 
   13150    79.312241   -877.35027    58863.204   -12637.342    960.31661   -13597.658    55.467081    247.43957 
   13200    82.536193   -998.94281    58839.718   -12642.653    999.35238   -13642.006    55.592573    257.49771 
   13250     80.10193   -1174.9146    58886.698   -12657.075     969.8782   -13626.953    56.003938    249.90326 
   13300    78.774278    -572.7637    58953.779   -12662.155    953.80293   -13615.958    55.894711    245.76123 
   13350    78.943026   -1108.7844    58969.452   -12702.169    955.84614   -13658.015    56.030676    246.28769 
   13400    75.839303   -629.80541    59046.789   -12701.167    918.26611   -13619.433    56.114475    236.60465 
   13450    77.198856   -1331.1239    59032.709   -12705.095    934.72765   -13639.823    56.210553     240.8462 
   13500    76.969009    -1083.264    59006.744   -12701.059    931.94465   -13633.003    56.122096    240.12912 
   13550    77.937957   -1048.5403    59049.478   -12664.272    943.67671   -13607.948    55.764772    243.15206 
   13600    81.504226   -537.69771     59001.77   -12648.538    986.85728   -13635.395    55.758422    254.27816 
   13650    80.346614   -1208.7657     58987.33   -12630.038    972.84085   -13602.878    56.180081    250.66662 
   13700    81.611869   -879.98801    58992.206    -12617.14    988.16062   -13605.301    56.162597    254.61399 
   13750    84.060827   -956.73514    59027.474   -12559.388    1017.8127   -13577.201     56.48758    262.25428 
   13800     80.69528   -931.90078     59028.68   -12576.276    977.06252   -13553.339    56.901777     251.7544 
   13850    80.724648   -1221.8921    58983.127    -12602.63    977.41811   -13580.048    57.040385    251.84602 
   13900    77.128468   -916.38427    59005.804    -12610.11    933.87538   -13543.985    57.102588     240.6266 
   13950    80.676361   -954.83831    58970.723   -12596.299    976.83344   -13573.132    57.303485    251.69537 
   14000    79.724203   -930.53214    58978.793   -12618.971    965.30467   -13584.275    57.132019    248.72482 
   14050    77.610788   -637.57578    58940.507   -12590.834    939.71533    -13530.55    57.220605    242.13135 
   14100    81.714289   -951.74707    58907.026   -12588.524    989.40073   -13577.925    57.427468    254.93352 
   14150    80.585613      -656.43    58877.117    -12599.92    975.73466   -13575.654    57.522347    251.41226 
   14200    78.704213   -1165.2325    58838.603   -12604.326    952.95458   -13557.281    57.522285    245.54264 
   14250    77.626718   -801.56149    58778.719   -12612.501    939.90821    -13552.41    57.514934    242.18105 
   14300    79.474307   -1274.4669    58769.926   -12600.056    962.27891   -13562.335    57.578651    247.94519 
   14350    80.631023   -1100.1009    58762.548   -12584.072     976.2845   -13560.356     58.00056    251.55393 
   14400    80.496199   -1191.7096    58721.619   -12599.369    974.65203   -13574.021    58.463935     251.1333 
   14450    79.489149   -1125.2492    58689.227   -12603.615    962.45863   -13566.073    58.723601    247.99149 
   14500    82.588609   -1055.1739    58656.076   -12596.263    999.98704    -13596.25    58.907132    257.66124 
   14550    78.664753   -565.05645    58629.677   -12587.822    952.47679   -13540.299    59.162477    245.41953 
   14600    82.864922   -944.77619    58671.058   -12555.505    1003.3327   -13558.837    59.775957    258.52328 
   14650     80.77871   -1055.2605    58690.165   -12577.731    978.07269   -13555.803    60.182538    252.01468 
   14700    83.651694   -703.21997    58643.441    -12557.86    1012.8589   -13570.719    60.252596    260.97787 
   14750    81.405073   -813.32283    58698.048    -12551.95    985.65673   -13537.607    60.457661    253.96882 
   14800    82.311623   -957.16939    58740.286    -12572.31    996.63328   -13568.943    60.573083    256.79709 
   14850    81.405369   -904.44655    58740.833   -12548.896    985.66032   -13534.556    60.883311    253.96975 
   14900    83.604345    -774.8318    58750.833   -12551.912    1012.2856   -13564.198    60.751449    260.83015 
   14950    81.682858   -760.91912    58751.694   -12540.894    989.02016   -13529.914    60.662926    254.83546 
   15000    82.860248   -768.98972    58774.187   -12528.207    1003.2761   -13531.483    60.961281     258.5087 
   15050    81.738144   -911.26893    58735.001   -12543.476    989.68956   -13533.166    61.318638    255.00794 
   15100    78.664957   -1372.4441     58750.31   -12562.308    952.47927   -13514.787    61.464117    245.42017 
   15150    81.747886   -938.40466    58758.658   -12571.106    989.80752   -13560.913    61.814444    255.03834 
   15200     80.34777   -1085.8407    58806.907   -12608.319    972.85485   -13581.174    62.518894    250.67023 
   15250    81.463603   -897.42925    58834.245   -12577.563    986.36541   -13563.929    62.414186    254.15142 
   15300    77.999586    -1364.063    58790.736   -12614.405    944.42292   -13558.828    62.551984    243.34433 
   15350    77.497343   -1079.2221    58776.116   -12631.252    938.34174   -13569.594    62.348627    241.77743 
   15400    79.275926   -1323.7616    58723.202   -12621.494    959.87691   -13581.371    62.376403    247.32627 
   15450    79.109722   -1690.7866    58632.041   -12655.524     957.8645   -13613.389    62.828584    246.80775 
   15500    79.655364   -864.72414    58605.386   -12643.897    964.47116   -13608.368    63.381716    248.51005 
   15550    79.069721   -1298.4544    58620.322   -12626.642    957.38017   -13584.023    63.918019    246.68295 
   15600    79.717063   -880.75072     58567.63   -12638.339    965.21822   -13603.557    64.124033    248.70254 
   15650    78.081147   -1157.7283    58549.033   -12639.723    945.41046   -13585.133      64.1435    243.59878 
   15700    80.618802    -1219.778    58518.627   -12639.042    976.13652   -13615.179    64.444457     251.5158 
   15750    80.613908   -1092.4873    58541.318   -12654.293    976.07726    -13630.37    64.480509    251.50053 
   15800    78.578775    -1008.541    58531.113   -12682.752    951.43577   -13634.188    64.789724    245.15129 
   15850    77.960441   -1113.3079    58560.583   -12701.708    943.94895   -13645.657    64.832685    243.22221 
   15900    76.553419   -727.02288    58576.833   -12734.764    926.91266   -13661.677    64.805934    238.83256 
   15950    77.109926   -955.60234    58628.648   -12715.857    933.65087   -13649.508    64.804457    240.56875 
   16000    80.155106   -1115.3568    58660.867   -12689.033    970.52206   -13659.555    64.791546    250.06916 
   16050    77.640856   -892.46359    58690.882   -12719.169     940.0794   -13659.248    65.072795    242.22516 
   16100    74.826059   -1340.4197    58656.337   -12736.882    905.99769    -13642.88    65.142651    233.44351 
   16150    78.613073    -1264.388    58620.561   -12690.766    951.85105   -13642.617    64.913134     245.2583 
   16200    80.006442   -1219.4098    58681.831   -12658.965    968.72203   -13627.687    65.525198    249.60535 
   16250    77.952893   -1010.9807    58634.434   -12691.564    943.85756   -13635.421    65.480045    243.19866 
   16300    78.889087    -622.6048    58629.413   -12666.517    955.19305    -13621.71    65.680693    246.11941 
   16350    79.784526   -975.11054     58661.71   -12649.706    966.03506   -13615.741     65.72066    248.91301 
   16400    81.155159    -841.5935    58678.961   -12648.638    982.63076   -13631.269    65.857018    253.18914 
   16450    82.700557   -1152.6903    58669.075   -12624.617    1001.3425   -13625.959    65.722264    258.01049 
   16500    81.990392   -1085.6321    58602.852   -12632.904     992.7438   -13625.648    65.401238    255.79491 
   16550    80.438316   -1086.4616    58541.212   -12641.985    973.95119   -13615.936    65.033229    250.95272 
   16600    79.959318   -790.35814    58557.447   -12648.788    968.15146   -13616.939    64.999168    249.45833 
   16650    83.605592    -882.7244    58613.517   -12635.327    1012.3007   -13647.628    65.310336    260.83404 
   16700    79.890448   -1277.8605    58614.062     -12640.6    967.31757   -13607.917    65.935114    249.24347 
   16750    79.597438   -1073.8635    58597.161   -12638.754     963.7698   -13602.524    66.326807    248.32934 
   16800    82.330376   -853.34206    58584.461   -12645.955    996.86034   -13642.816    66.547506     256.8556 
   16850    80.566615    -1429.079    58622.501   -12671.648    975.50463   -13647.152    66.690008    251.35299 
   16900     79.47868   -1391.5771    58530.997   -12649.242    962.33187   -13611.574     66.73573    247.95883 
   16950    80.432529   -1085.0263     58538.84    -12674.62    973.88112   -13648.501    67.254812    250.93466 
   17000    81.046149   -786.94218    58482.177   -12627.533    981.31086   -13608.843    67.176985    252.84905 
   17050    82.588992   -1057.7046    58464.039   -12627.185    999.99168   -13627.177    67.441436    257.66243 
   17100    80.649747   -965.77585    58457.866   -12625.996     976.5112   -13602.507    67.559645    251.61234 
   17150    80.580623   -824.04023    58473.254   -12604.671    975.67425   -13580.346    67.785219    251.39669 
   17200    84.130601   -850.96854    58528.759   -12555.476    1018.6576   -13574.134    68.095623    262.47197 
   17250    82.010499   -676.07935     58564.96   -12594.278    992.98725   -13587.265    68.351779    255.85764 
   17300    80.041093   -1230.8496    58591.743   -12600.038    969.14159   -13569.179    68.369931    249.71346 
   17350    81.782864   -1025.3204    58589.058   -12612.908    990.23104   -13603.139    68.199911    255.14746 
   17400    84.841401   -779.16906    58594.664    -12579.94     1027.264   -13607.204    68.545077    264.68953 
   17450    83.138142   -1183.3567    58685.883   -12595.769    1006.6408    -13602.41    68.996269    259.37568 
   17500    82.414669   -835.72465    58739.384    -12574.03    997.88097   -13571.911    69.188098    257.11858 
   17550    81.298963   -1075.7858    58790.192   -12601.901    984.37194   -13586.273    69.487726    253.63778 
   17600    82.946767   -812.39408    58804.205    -12623.97    1004.3236   -13628.293    69.572739    258.77862 
   17650     81.06605   -1008.6432     58804.72   -12642.556    981.55182   -13624.108    70.108609    252.91113 
   17700    82.506546   -834.19538    58854.206   -12617.707    998.99342     -13616.7     70.28933    257.40521 
   17750    81.418094   -1171.6504    58903.661   -12632.425    985.81439   -13618.239     70.72824    254.00945 
   17800    80.680636   -563.08678    58925.226    -12636.19     976.8852   -13613.075    71.057736    251.70871 
   17850    79.698037   -938.91759    58973.901   -12672.872    964.98785    -13637.86    71.223186    248.64319 
   17900    80.727526   -1098.9734     58996.85    -12692.89    977.45295   -13670.343    71.662015      251.855 
   17950    78.777067   -1095.9792    58966.527   -12679.307     953.8367   -13633.144    71.531094    245.76993 
   18000    78.972838    -917.2111    58961.242   -12707.147     956.2071   -13663.354    71.665001     246.3807 
   18050      79.4392   -988.21498    58975.949   -12688.033    961.85384   -13649.887     72.05269    247.83566 
   18100    76.077381   -1485.8248    58945.622   -12684.838    921.14876   -13605.987    72.567357     237.3474 
   18150     78.70005   -1170.2658    58892.661   -12649.983    952.90417   -13602.887    73.059024    245.52965 
   18200    80.036504   -1220.5985     58826.47   -12626.962    969.08602   -13596.048    73.828687    249.69914 
   18250    77.021576   -950.51823    58840.607   -12658.889    932.58113    -13591.47    73.937443    240.29312 
   18300    78.248044   -955.59143    58844.056   -12640.064    947.43127   -13587.496    74.352153    244.11947 
   18350    80.371677   -859.54453    58863.316   -12632.588    973.14432   -13605.732    74.458034    250.74482 
   18400    80.328029   -933.46046    58910.012   -12629.694    972.61583    -13602.31     74.66658    250.60864 
   18450    78.433887   -1196.4221    58898.928    -12632.26    949.68146   -13581.941    74.900306    244.69927 
   18500    82.255696   -1075.7927    58897.563   -12614.837    995.95612   -13610.793    74.822392    256.62261 
   18550    78.757092   -1179.4535    58918.993   -12632.253    953.59484   -13585.848    75.045597    245.70761 
   18600    79.729645   -939.87508    58915.207    -12628.56    965.37056    -13593.93    75.275188     248.7418 
   18650    79.374313   -1262.0903    58918.844   -12580.164    961.06819   -13541.232    75.910109    247.63323 
   18700    79.985531   -986.63788    58924.132   -12581.151    968.46884    -13549.62    76.181524    249.54011 
   18750    82.840601   -776.77575    58943.225   -12576.729    1003.0382   -13579.768    76.171006     258.4474 
   18800    82.945655    -946.2411    58999.859   -12595.254    1004.3102   -13599.564    76.414998    258.77516 
   18850    79.621216   -764.23606    59022.382   -12607.601     964.0577   -13571.659    76.564722    248.40352 
   18900    82.118578   -1128.3895    58998.975   -12620.526    994.29589   -13614.822    76.862993    256.19483 
   18950    78.936287   -913.26013    58965.147   -12643.738    955.76454   -13599.503    77.193786    246.26667 
   19000    78.952627   -1046.4441    58931.104   -12660.053    955.96239   -13616.015    77.663302    246.31764 
   19050    79.850562   -1146.3426     58913.43   -12640.994    966.83463   -13607.829    77.912396    249.11903 
   19100    79.297156   -815.59905    58890.406   -12647.935    960.13397   -13608.069    78.136227    247.39251 
   19150     79.61958   -1005.4572    58852.264    -12660.93    964.03789   -13624.967    78.254822    248.39841 
   19200    78.718489   -827.11007    58880.584   -12646.908    953.12744   -13600.035    79.001978    245.58718 
   19250    80.802645   -859.43975    58926.879   -12656.851     978.3625   -13635.213    79.185328    252.08936 
   19300    78.049895   -721.03249    58970.373    -12612.73    945.03206   -13557.762    78.806948    243.50128 
   19350    78.994028   -951.17683     59032.09   -12614.748    956.46368   -13571.212    79.117312    246.44681 
   19400    80.435422   -1013.5022    58998.213   -12608.507    973.91614   -13582.423     79.48604    250.94369 
   19450    78.385488   -1024.0984    58968.316   -12619.775    949.09544    -13568.87    79.921511    244.54827 
   19500     80.20861   -994.58663    58960.206   -12598.282    971.16989   -13569.451    79.882952    250.23608 
   19550    81.751412   -1123.1122    58934.868   -12605.208    989.85022   -13595.058    80.202224    255.04934 
   19600    78.308134   -1101.3278    58936.922     -12607.5    948.15884   -13555.658    80.395198    244.30694 
   19650    80.718844   -1136.4222     58919.68   -12623.749    977.34783   -13601.097    80.494112    251.82791 
   19700    80.027969    -1106.016    58886.857    -12620.84    968.98269   -13589.822    80.632152    249.67251 
   19750    78.758204   -1051.1782    58838.907    -12601.18     953.6083   -13554.789    80.855626    245.71108 
   19800     79.20892   -1254.6243    58828.255   -12620.024    959.06559    -13579.09    81.203519    247.11723 
   19850    78.926971   -1450.6528    58774.011   -12626.778    955.65174    -13582.43    81.585474     246.2376 
   19900    80.411719   -1276.3918    58725.699   -12608.375    973.62915   -13582.004    81.988884    250.86974 
   19950    76.783697   -1027.4553    58707.252   -12644.111    929.70087   -13573.812    82.194335    239.55098 
   20000    78.793211   -1082.9421    58708.845   -12665.498    954.03217    -13619.53     81.98723    245.82029 
   20050    82.167755   -690.26979     58692.57   -12642.042    994.89132   -13636.934    82.191812    256.34825 
   20100    80.145521   -929.42973    58720.583    -12636.59    970.40601   -13606.996    82.441001    250.03925 
   20150    80.668705   -1024.0972    58701.511    -12654.88    976.74074   -13631.621    82.646279    251.67149 
   20200    80.353816    -1084.187    58727.248   -12625.898    972.92806   -13598.826    82.945287    250.68909 
   20250    78.581389   -1149.0141    58794.953    -12645.23    951.46742   -13596.698      83.3033    245.15945 
   20300    79.452606   -1232.8643    58730.991   -12658.109    962.01616   -13620.125     83.72059    247.87748 
   20350    80.064943   -994.23162    58721.178    -12668.17    969.43037   -13637.601    83.973517    249.78786 
   20400    80.457657   -1159.9759    58669.245   -12680.674    974.18537    -13654.86    83.771352    251.01306 
   20450    78.525237   -831.40494    58593.899   -12719.372    950.78753    -13670.16    83.704278    244.98427 
   20500    78.972333   -998.58897    58574.495   -12700.188    956.20099   -13656.389    83.957202    246.37912 
   20550    79.174911   -883.82238    58587.655       -12681    958.65381   -13639.654     83.86725    247.01113 
   20600    80.175306   -1133.3419    58570.052   -12696.417    970.76665   -13667.184    84.135697    250.13218 
   20650    77.465503   -1144.7103    58562.009   -12704.722    937.95622   -13642.678    84.581036    241.67809 
   20700    80.411001   -1261.6212    58576.576   -12683.488    973.62046   -13657.109    84.416697     250.8675 
   20750    78.523153   -1152.9909    58524.977   -12684.001     950.7623   -13634.763    84.793844    244.97776 
   20800    81.679062   -1304.4527    58479.543   -12686.456    988.97421    -13675.43    84.713434    254.82362 
   20850    80.551907   -852.35828     58573.43   -12658.699    975.32656   -13634.026    84.842204     251.3071 
   20900    80.827012   -956.50255    58643.902   -12646.198    978.65753   -13624.855     85.15877    252.16538 
   20950    79.688994   -858.62378     58677.62   -12655.962    964.87836   -13620.841    85.769722    248.61497 
   21000       79.107   -1092.7938    58705.539   -12664.294    957.83155   -13622.126    85.936505    246.79926 
   21050    78.931839    -590.5402    58712.123   -12645.671    955.71069   -13601.381    85.706442    246.25279 
   21100    79.424009   -1251.1446    58722.598    -12659.94     961.6699    -13621.61    85.881837    247.78827 
   21150    80.606273   -762.07611    58741.882   -12644.711    975.98481   -13620.695    86.512167    251.47671 
   21200    79.513804   -964.78022    58768.895   -12643.972    962.75714   -13606.729    86.934266    248.06841 
   21250    79.573243   -840.88509    58735.523   -12669.146    963.47684   -13632.623    87.616568    248.25385 
   21300     76.55295   -1154.4786    58675.374   -12671.474    926.90698   -13598.381    87.807124    238.83109 
   21350    81.188085   -1300.3673    58643.677   -12665.625    983.02943   -13648.655    88.064856    253.29186 
   21400    80.912694   -1179.3368    58591.829   -12673.571    979.69498   -13653.266    88.202071    252.43269 
   21450    79.500425   -995.68993    58521.854   -12651.862    962.59515   -13614.458    88.098571    248.02667 
   21500    77.483521   -1277.2106    58527.384    -12680.98    938.17437   -13619.155    88.463312     241.7343 
   21550    77.600003   -801.78593    58484.046   -12685.487    939.58475   -13625.072    88.222622     242.0977 
   21600    80.337228   -940.93907    58462.467   -12680.326    972.72721   -13653.053    88.678755    250.63734 
   21650    80.334149   -935.31024    58492.743   -12662.902    972.68992   -13635.591    88.916897    250.62774 
   21700     78.69723   -957.51878    58490.324   -12667.971    952.87003   -13620.841    89.259306    245.52085 
   21750    81.377738    -1112.521    58524.382   -12652.315    985.32576   -13637.641    89.342873    253.88354 
   21800     79.99006   -896.78045    58503.802    -12648.01    968.52367   -13616.534    89.523243    249.55424 
   21850    79.465584    -803.9933     58463.68   -12662.281    962.17329   -13624.454     89.53202    247.91797 
   21900    79.455612   -1115.2884     58406.97   -12641.704    962.05256   -13603.757    89.723453    247.88686 
   21950    80.256872   -1156.0445    58478.706   -12646.946    971.75426   -13618.701      89.4426    250.38665 
   22000     74.60449   -1137.8444    58453.616   -12659.678    903.31493   -13562.993    89.374768    232.75226 
   22050    79.488773   -1585.2549     58443.86   -12641.393    962.45407   -13603.847    89.262836    247.99032 
   22100     81.41469   -1320.5708    58427.778   -12629.202    985.77317   -13614.976    89.426503    253.99882 
   22150    81.431724    -933.1962     58433.62   -12600.547    985.97942   -13586.526    89.796268    254.05197 
   22200    80.132118   -1164.0191    58509.108   -12625.135    970.24373   -13595.379    90.145309    249.99744 
   22250    78.506898   -1332.8699    58563.907   -12602.903    950.56548   -13553.469    90.204835    244.92705 
   22300    80.840575   -1071.0172    58591.956   -12593.631    978.82176   -13572.453    90.656161    252.20769 
   22350    84.150915    -862.9154    58694.884   -12560.122    1018.9035   -13579.026    90.254728    262.53534 
   22400    79.261187   -1197.0868    58697.875   -12580.611    959.69845   -13540.309    90.301632    247.28029 
   22450    79.605782   -1226.7836    58678.416   -12618.192    963.87082   -13582.063    90.257331    248.35537 
   22500    82.826299   -1044.3956     58694.97   -12575.729     1002.865   -13578.594     90.76426    258.40279 
   22550    81.379805   -1674.4209    58692.684   -12582.608    985.35079   -13567.959    90.947803    253.88999 
   22600    81.873419   -982.15044    58726.918   -12553.472    991.32748     -13544.8    90.999237    255.42997 
   22650    78.876412   -915.00116    58673.666    -12566.96    955.03958       -13522    90.948684    246.07987 
   22700    84.296573    -954.8755    58679.415   -12571.381    1020.6672   -13592.049    91.277245    262.98977 
   22750    80.769779   -778.81654    58664.576   -12577.035    977.96456       -13555     91.49462    251.98682 
   22800    80.963572    -1200.141    58616.749   -12607.565    980.31101   -13587.876    91.697548    252.59142 
   22850    81.593711   -1223.8432    58564.713   -12569.172    987.94076   -13557.112    92.080626    254.55734 
   22900    81.672388   -978.45973    58584.882   -12581.824     988.8934   -13570.717    92.389256     254.8028 
   22950    78.804804   -810.05558     58574.22   -12579.281    954.17255   -13533.453    93.122508    245.85646 
   23000    81.351994   -1190.5665    58615.036   -12539.151    985.01405   -13524.165    93.418318    253.80323 
   23050    79.678112   -1261.2752    58647.739   -12539.313     964.7466    -13504.06    93.484815    248.58102 
   23100    82.243261   -1109.4125    58668.874    -12538.59    995.80555   -13534.395    93.190074    256.58381 
   23150    82.129404   -838.93447    58739.113   -12563.296    994.42696   -13557.723    93.133738     256.2286 
   23200    80.145637   -1321.2264    58782.932   -12576.376    970.40741   -13546.783    93.063425    250.03961 
   23250    81.837104   -1083.5307    58758.115    -12570.81    990.88779   -13561.698     93.37141    255.31668 
   23300    79.632626   -1082.6137    58753.378   -12551.263    964.19585   -13515.459    93.205824    248.43911 
   23350    80.722404   -1079.3723    58758.445   -12606.677    977.39094   -13584.068    93.024191    251.83902 
   23400    78.082263   -905.65299    58783.435   -12609.983    945.42398   -13555.407    93.142919    243.60227 
   23450    78.582416   -1228.5409    58799.757   -12609.653    951.47986   -13561.133    93.604327    245.16265 
   23500    78.764769   -1077.1876    58798.071   -12603.132     953.6878    -13556.82    94.111405    245.73156 
   23550    79.202335   -1103.5744    58796.456   -12609.776    958.98587   -13568.762    94.371539    247.09669 
   23600    76.366778   -833.68571    58803.462   -12597.129     924.6528   -13521.781    94.274356    238.25027 
   23650    77.720232   -1130.3568    58803.052   -12620.746    941.04049   -13561.787    94.290347     242.4728 
   23700    79.886931   -1352.9751    58768.274   -12629.136    967.27498   -13596.411    94.157211     249.2325 
   23750    79.260759   -1494.4829     58774.36   -12632.899    959.69327   -13592.592    94.792716    247.27896 
   23800    78.374609   -910.61067    58702.054   -12639.825    948.96372   -13588.789    94.939048    244.51433 
   23850    80.205274   -942.78116    58717.009   -12631.335     971.1295   -13602.464    95.018081    250.22567 
   23900    80.042873   -1074.5442    58728.072     -12651.4    969.16314   -13620.563     95.34955    249.71901 
   23950    76.927363    -1103.453    58731.073   -12634.543    931.44039   -13565.983    95.515253    239.99919 
   24000    79.492098   -1437.9052    58659.488   -12613.036    962.49433    -13575.53    95.198469    248.00069 
   24050    80.880958    -665.7557    58634.263   -12617.043    979.31071   -13596.353     94.89129    252.33368 
   24100    81.086577   -1153.2941    58643.825   -12613.503    981.80037   -13595.304    94.991357    252.97517 
   24150    78.364942    -1066.815    58630.949    -12604.31    948.84667   -13553.157    95.145257    244.48417 
   24200    84.195914   -817.02706    58638.641   -12617.295    1019.4484   -13636.743    95.732161    262.67573 
   24250    80.865307   -865.40223    58709.145   -12627.371    979.12121   -13606.492     96.47609    252.28485 
   24300    85.151801   -863.38189    58779.051   -12609.566    1031.0223   -13640.589     96.78583    265.65792 
   24350     80.41017   -1077.6991     58789.53   -12613.456    973.61039   -13587.067    97.353783    250.86491 
   24400    81.932874   -1118.1037    58747.369   -12619.677    992.04737   -13611.724    97.315308    255.61547 
   24450    77.998427   -1133.1316    58722.386   -12632.299    944.40888   -13576.707    97.993736    243.34071 
   24500     78.31025   -877.05893    58754.917   -12628.565    948.18446   -13576.749    98.294409    244.31355 
   24550    78.516292   -1280.5669    58743.126    -12662.39    950.67922   -13613.069    98.613507    244.95636 
   24600    76.087442   -1227.0536     58759.76   -12674.131    921.27059   -13595.401    98.867053    237.37879 
   24650    77.220158   -1140.9631    58689.423   -12649.782    934.98557   -13584.767    99.407053    240.91266 
   24700    81.000461   -976.53807    58675.658   -12616.012    980.75767   -13596.769    99.927988    252.70651 
   24750    80.393126   -824.70121    58709.773   -12632.819    973.40402   -13606.223    100.19467    250.81173 
   24800    80.120352   -984.97274    58736.944   -12640.646    970.10126   -13610.747    100.65068    249.96073 
   24850    78.954006   -1137.2435    58752.584   -12652.899    955.97908   -13608.878    100.27931    246.32194 
   24900    79.761158    -922.9944    58766.411   -12621.279    965.75213   -13587.031    99.881504    248.84011 
   24950    79.069182   -968.12573    58748.375   -12636.997    957.37365   -13594.371    99.555942    246.68127 
   25000    77.229556   -1080.6381    58694.875   -12667.221    935.09935   -13602.321    99.388811    240.94198 
   25050    77.814644   -826.61392    58727.428   -12678.445    942.18363   -13620.629    99.599157    242.76735 
   25100    76.568077   -1031.8858    58756.586    -12660.74    927.09014    -13587.83    99.650844    238.87829 
   25150    79.538436   -1141.0952     58859.07   -12688.587    963.05539   -13651.642    99.496063    248.14526 
   25200     75.97347   -1102.0755    58899.425   -12690.754    919.89061   -13610.645    99.661082    237.02322 
   25250    79.813302   -972.08026    58907.371     -12648.4    966.38348   -13614.783    99.731691    249.00279 
   25300    79.677994   -961.51981    58844.389   -12639.932    964.74517   -13604.677    99.503098    248.58065 
   25350    79.634041   -809.94755     58842.57   -12666.025    964.21299   -13630.238    99.561254    248.44353 
   25400    81.007292   -760.47813    58818.136   -12649.152    980.84038   -13629.992    99.568762    252.72782 
   25450    79.426989   -1298.0749     58811.41   -12645.647    961.70599   -13607.353    99.789049    247.79756 
   25500    78.267425   -878.94812    58807.598   -12642.141    947.66592   -13589.807    100.18955    244.17994 
   25550    79.052221   -979.10077    58799.976   -12641.129    957.16828   -13598.297    100.47711    246.62836 
   25600    81.176615   -769.52443     58820.03   -12651.111    982.89054   -13634.001    100.69303    253.25607 
   25650    79.664615   -1287.1526    58817.558   -12639.461    964.58318   -13604.044    100.93212    248.53891 
   25700    76.984974   -830.11723    58847.968   -12659.538    932.13795   -13591.676    101.16729    240.17893 
   25750    78.288084   -900.50811    58895.772   -12640.141    947.91607   -13588.057    101.67463    244.24439 
   25800    80.508234   -888.29504    58945.518   -12619.744    974.79776   -13594.542    101.91065    251.17085 
   25850     80.83006   -918.41865    58955.578   -12615.759    978.69444   -13594.453    101.87701    252.17489 
   25900    78.449985   -665.32802    58983.084   -12641.395    949.87638   -13591.271    101.98339    244.74949 
   25950    78.553753   -1078.6686    58953.081   -12639.381     951.1328   -13590.514     102.0475    245.07323 
   26000    80.417121   -958.60053    59007.788   -12628.679    973.69456   -13602.374    102.49705    250.88659 
   26050    79.737375    -1001.084    59027.792   -12631.867    965.46415   -13597.331    102.90273    248.76591 
   26100    78.193458   -823.56825    59058.136   -12611.304    946.77033   -13558.075    102.94027    243.94917 
   26150    80.415686     -1028.53      59053.4   -12629.291    973.67718   -13602.969     103.1549    250.88212 
   26200    81.968837   -798.35091    59073.241   -12576.751    992.48282   -13569.234    103.08493    255.72766 
   26250    80.681104   -1093.7222    59096.334   -12579.118    976.89088   -13556.009    102.59615    251.71017 
   26300    84.385752   -999.78114    59066.473   -12523.881    1021.7469   -13545.628    102.84073    263.26799 
   26350    80.893641   -981.80884    59103.283   -12542.626    979.46429    -13522.09    102.79602    252.37325 
   26400    80.964333   -651.47686    59111.386   -12547.349    980.32022   -13527.669     102.9533    252.59379 
   26450    82.222808    -784.0941    59148.539   -12557.502    995.55791   -13553.059    102.97044    256.52001 
   26500    80.348907   -1074.7588    59242.992    -12559.13    972.86861   -13531.998    103.40299    250.67378 
   26550    83.512082   -1223.5103    59187.119   -12540.991    1011.1685    -13552.16    103.66233     260.5423 
   26600    83.204576   -1084.4693    59184.803   -12540.129    1007.4452   -13547.574    103.95688    259.58294 
   26650    80.123163   -1420.9653    59155.377   -12563.469     970.1353   -13533.604    104.55291     249.9695 
   26700    83.872776   -819.88622    59167.512   -12590.708    1015.5358   -13606.244    104.57276     261.6676 
   26750    78.748238   -1260.8022    59178.258   -12606.036    953.48763   -13559.524    105.26034    245.67999 
   26800    80.384023   -936.93196    59147.624   -12588.674     973.2938   -13561.968    105.28563    250.78333 
   26850    78.208432   -1104.4222    59177.463   -12600.423    946.95164   -13547.375    105.80345    243.99589 
   26900    77.692847   -982.01231    59204.772   -12594.033    940.70891   -13534.742    105.80773    242.38736 
   26950    81.031908   -1154.2566     59206.76   -12572.278    981.13843   -13553.416    106.17666    252.80462 
   27000    79.213371   -948.39138    59181.315   -12590.873     959.1195   -13549.993    106.02588    247.13112 
   27050    85.277085   -1426.4931    59193.141   -12567.575    1032.5392   -13600.114     106.1994    266.04879 
   27100    83.151527   -1168.0071    59243.563   -12569.451    1006.8029   -13576.254    105.92331    259.41744 
   27150    79.335617   -1469.9267    59211.838   -12599.813    960.59965   -13560.413    105.33886     247.5125 
   27200    80.221282    -1093.007    59194.672   -12548.843    971.32333   -13520.166     105.3371    250.27561 
   27250    81.900221   -585.63232    59133.538   -12550.354    991.65201   -13542.006    105.51182    255.51359 
   27300    81.910183   -611.20458    59135.907   -12582.416    991.77262   -13574.189    105.53514    255.54467 
   27350    80.943959   -1225.2574    59176.904   -12540.966    980.07354   -13521.039    105.52196    252.53023 
   27400     81.24272   -997.30144    59197.249   -12533.322    983.69095   -13517.013    105.77948    253.46231 
   27450     82.05732   -1217.4593    59099.522   -12564.552    993.55417   -13558.106    106.20034    256.00371 
   27500    82.689998   -911.64738    59089.694    -12575.44    1001.2147   -13576.655    106.59647    257.97755 
   27550    79.690865   -1034.0172    59049.679   -12599.953    964.90102   -13564.854    107.00111    248.62081 
   27600     76.60181   -1469.9055    59038.859   -12612.651    927.49858   -13540.149    107.22581    238.98353 
   27650    79.700792    -1226.505    58971.552   -12619.496    965.02121   -13584.517    107.18533    248.65178 
   27700    80.487002   -1127.3971    58969.395   -12616.976    974.54068   -13591.516    107.16433    251.10461 
   27750    82.631304   -1226.5822    58951.201   -12621.343     1000.504   -13621.847    107.56154    257.79444 
   27800    79.833142   -950.77706    58990.815   -12642.943     966.6237   -13609.567    107.40819    249.06469 
   27850    81.941501   -1009.7319    59064.557   -12625.772    992.15182   -13617.923    107.84905    255.64238 
   27900    80.086377    -973.9541    59032.242   -12598.007    969.68989   -13567.697    107.70973    249.85473 
   27950    80.812086   -1607.8347     58967.27   -12599.316    978.47681   -13577.793    107.99479    252.11881 
   28000    80.768616   -1194.6077    58972.667   -12631.616    977.95048   -13609.567    107.89574    251.98319 
   28050    81.498913   -1237.1746    58901.023   -12635.616    986.79295   -13622.409    108.10531    254.26159 
   28100    80.603405   -1184.7489    58865.557    -12639.67    975.95009    -13615.62    108.33749    251.46777 
   28150    79.744336   -996.31295    58860.434   -12627.813    965.54844   -13593.362    108.44539    248.78763 
   28200    78.562391   -1182.5048    58868.962   -12633.321     951.2374   -13584.558     108.8226    245.10018 
   28250    78.188221   -1019.5749    58855.228   -12623.983    946.70693    -13570.69    109.27594    243.93284 
   28300    82.537016   -1195.3468    58838.872   -12618.073    999.36235   -13617.435    109.44184    257.50028 
   28350    80.025869   -988.95071    58847.912   -12616.153    968.95726    -13585.11    110.05964    249.66596 
   28400    81.174467    -1344.097    58817.373   -12624.755    982.86453   -13607.619     110.0216    253.24937 
   28450    81.750909   -888.90078    58780.217   -12611.901    989.84413   -13601.745    110.19819    255.04777 
   28500    81.778103   -789.28488    58803.185   -12593.634    990.17339   -13583.807    110.57378    255.13261 
   28550      79.7899   -1199.1983    58761.963   -12585.823    966.10013   -13551.923    110.77825    248.92978 
   28600    83.115294    -1031.042     58746.13   -12593.296    1006.3642    -13599.66     111.0114     259.3044 
   28650    80.169681   -866.09358    58748.825   -12618.697    970.69854   -13589.395    111.16213    250.11463 
   28700    79.461926   -1251.5977    58750.893   -12615.965      962.129   -13578.094    111.21078    247.90656 
   28750    80.472387   -676.28415    58765.743   -12655.176    974.36372    -13629.54    111.13676    251.05901 
   28800    81.856687   -994.57825    58780.592       -12621    991.12489   -13612.124    111.60377    255.37777 
   28850    80.410136   -1025.5432    58769.539    -12620.48    973.60998    -13594.09    111.83784     250.8648 
   28900    83.082213   -1193.3696    58788.604   -12609.466    1005.9636   -13615.429    112.05771    259.20119 
   28950     77.78384   -971.04844    58762.664   -12626.633    941.81066   -13568.443    112.37577    242.67124 
   29000    80.431326   -1259.8766    58799.914   -12628.549    973.86655   -13602.416    112.09065    250.93091 
   29050    79.331547   -1104.4203    58794.072   -12637.649    960.55037     -13598.2    112.59223     247.4998 
   29100    76.930769   -1243.4053    58707.659   -12651.704    931.48163   -13583.186    112.63803    240.00982 
   29150    80.795127   -1293.9675     58668.92   -12625.695    978.27147   -13603.967    112.97602     252.0659 
   29200    80.701001   -714.82218    58645.027   -12584.615    977.13179   -13561.747    113.45176    251.77225 
   29250    81.922594   -809.95307    58681.678   -12566.373     991.9229   -13558.296    113.44429    255.58339 
   29300    81.763211   -332.64105    58754.425   -12619.789    989.99308   -13609.782    113.73337    255.08615 
   29350    77.274074   -1468.2829    58805.182   -12653.949    935.63839   -13589.588     113.7411    241.08087 
   29400    77.979939   -832.46905    58827.576   -12653.493    944.18503   -13597.678    113.35362    243.28303 
   29450    79.562672    -1265.424    58797.667   -12659.602    963.34885   -13622.951    113.26003    248.22087 
   29500    78.458116   -1155.4331    58795.902   -12683.237    949.97482   -13633.212    113.22635    244.77486 
   29550    78.842252   -847.70409    58781.758   -12668.663    954.62597   -13623.289    113.40398    245.97329 
   29600    83.116661   -1011.1491    58774.002   -12680.724    1006.3807   -13687.104    114.16508    259.30866 
   29650    79.654944   -1076.3697     58743.09    -12654.79    964.46607   -13619.256    114.23932    248.50874 
   29700    81.828036    -693.9724     58756.79   -12623.543    990.77799   -13614.321    114.59832    255.28839 
   29750    79.548306   -984.96059    58859.124   -12633.833     963.1749   -13597.007    114.87457    248.17605 
   29800    80.787394   -1050.5287    58926.824   -12640.701    978.17784   -13618.879     115.3468    252.04178 
   29850    79.371754   -1101.5412    59037.814   -12633.616     961.0372   -13594.653    115.80604    247.62524 
   29900    80.659537   -773.73188    59089.621   -12641.142    976.62974   -13617.772     116.0717    251.64289 
   29950    81.916598   -1242.7412    59131.623   -12616.453     991.8503   -13608.303    116.63527    255.56469 
   30000    82.305405   -1131.1395    59124.556   -12618.377    996.55799   -13614.935    116.83707    256.77769 
   30050    79.997615   -1150.1837    59112.994    -12624.17    968.61516   -13592.785    117.14719    249.57781 
   30100    81.902889   -1247.9025    59085.507   -12606.385    991.68431   -13598.069    116.42998    255.52192 
   30150    82.567389   -1037.6333    59113.089   -12564.852    999.73011   -13564.582     116.0274    257.59503 
   30200    82.184871   -740.74518    59149.045   -12587.001    995.09857   -13582.099    116.27152    256.40165 
   30250    78.035168   -1255.2524    59180.555   -12588.654    944.85375   -13533.508    116.68729    243.45534 
   30300    78.474874   -886.36738    59199.314   -12603.634    950.17773   -13553.812    116.85214    244.82714 
   30350    79.517188   -1096.8307    59212.571   -12587.558    962.79812   -13550.356    117.64899    248.07897 
   30400    79.867634   -1506.8423    59206.978   -12625.486    967.04134   -13592.527     118.0645     249.1723 
   30450    82.845706   -1244.6358    59151.956   -12644.079       1003.1   -13647.179    118.03058    258.46333 
   30500    81.509725   -943.38168    59135.773   -12626.862    986.92386   -13613.786    118.90643    254.29532 
   30550    81.261958   -1047.7634    59095.702     -12611.6    983.92389   -13595.524     119.7718    253.52233 
   30600    80.137483   -1021.4702      59100.6   -12589.089    970.30869   -13559.398    119.74992    250.01418 
   30650     83.53344   -915.59743    59153.973   -12594.307    1011.4271   -13605.734    119.57377    260.60894 
   30700    83.216505   -1427.6219    59132.305   -12572.534    1007.5896   -13580.124    119.43443    259.62016 
   30750    82.724685   -992.62306    59180.689   -12595.637    1001.6347   -13597.272    120.05552    258.08577 
   30800    82.993581    -1262.157    59221.148   -12596.762    1004.8905   -13601.653    120.42141    258.92467 
   30850    82.326393   -785.82717    59174.369   -12560.908    996.81212   -13557.721    120.36113    256.84317 
   30900    80.739118   -1183.6547    59154.785   -12592.455    977.59331   -13570.049    120.62113    251.89117 
   30950    78.918977   -1131.9674    59158.179   -12599.011    955.55496   -13554.566    120.81355    246.21266 
   31000    81.152784   -880.58553    59117.333   -12601.891    982.60201   -13584.493    120.84029    253.18173 
   31050    78.623129   -959.01069    59130.176   -12622.773    951.97281   -13574.746    121.01711    245.28967 
   31100    80.049784   -1022.5023    59145.182   -12607.885    969.24682   -13577.132    120.92424    249.74057 
   31150    81.560307   -1119.9979      59088.2   -12601.742    987.53631   -13589.278    120.79843    254.45312 
   31200    79.782976   -981.59178    59037.661   -12583.455     966.0163   -13549.471    121.22429    248.90818 
   31250    81.895787   -1396.1849    59111.168   -12559.002    991.59832   -13550.601    121.42456    255.49976 
   31300    79.036379    -1213.537    59089.589   -12562.122    956.97647   -13519.099    121.57325    246.57893 
   31350    83.391169   -815.60269    59108.129   -12575.101    1009.7045   -13584.805    121.72425    260.16508 
   31400    80.784267   -1344.9038    59081.501   -12586.944    978.13998   -13565.084    122.19602    252.03202 
   31450    79.259865   -1343.6197    58999.583   -12578.346    959.68245   -13538.029    122.62837    247.27617 
   31500    80.128817   -1093.8576    58987.753   -12583.945    970.20376   -13554.149    122.86257    249.98714 
   31550    80.989974   -1125.5383    58935.266   -12586.322    980.63069   -13566.952    122.73817    252.67379 
   31600     81.98373   -975.42329    58917.406   -12578.101    992.66313   -13570.764    122.91613    255.77412 
   31650    79.979328   -1262.9678    58938.887   -12603.591    968.39374   -13571.985    123.09171    249.52076 
   31700    79.428076   -930.54109     58908.49   -12614.589    961.71915   -13576.308    123.34513    247.80096 
   31750    78.777244   -1029.8712     58886.14   -12629.726    953.83884   -13583.565    123.92321    245.77048 
   31800    82.486177   -1119.3802     58872.29   -12642.736    998.74679   -13641.483    123.84451    257.34167 
   31850    76.120773   -989.68835    58823.924   -12650.851    921.67416   -13572.526    124.37476    237.48278 
   31900    77.725279   -1040.8426    58844.306   -12640.418    941.10159    -13581.52    124.51407    242.48854 
   31950    78.872552   -1250.6031    58817.087   -12646.773    954.99284   -13601.765     124.7096    246.06782 
   32000    79.953184   -680.05192    58760.254   -12626.916    968.07719   -13594.993    124.67287     249.4392 
   32050     76.71964   -953.62252    58743.429   -12671.099    928.92527   -13600.025     124.9072    239.35113 
   32100    79.269947   -1037.1218    58725.612   -12615.296    959.80451     -13575.1     125.5452    247.30762 
   32150    79.759402   -851.31096    58688.012   -12630.171    965.73086   -13595.902    125.94863    248.83463 
   32200    81.295363   -1046.9185    58748.063    -12614.35    984.32836   -13598.678    125.74426    253.62655 
   32250    78.327124   -796.13036    58807.725   -12635.185    948.38876   -13583.574    125.56727    244.36619 
   32300    77.681405   -1308.9439    58750.149    -12653.03    940.57037     -13593.6    125.50641    242.35166 
   32350    78.336562   -1000.7964     58735.93   -12637.379    948.50304   -13585.882    125.26033    244.39563 
   32400    75.484033   -762.28947    58784.759   -12629.245    913.96448    -13543.21    124.91236    235.49627 
   32450    76.469058   -864.72658    58792.116   -12629.464    925.89122   -13555.356    125.50154    238.56937 
   32500    77.906115   -861.08859    58785.021   -12616.539    943.29117    -13559.83    125.97283    243.05272 
   32550    78.498346   -1560.6446    58788.265   -12592.291    950.46193   -13542.752    126.33237    244.90037 
   32600       79.887   -1010.5827     58780.46   -12575.939    967.27583   -13543.215    126.66336    249.23272 
   32650    82.662184   -884.43383    58713.945   -12564.406    1000.8779   -13565.284    126.92586    257.89078 
   32700    82.372774   -1195.1206    58753.936   -12577.693     997.3737   -13575.067    127.04946    256.98787 
   32750    83.769717   -1294.8488    58768.085   -12541.154     1014.288   -13555.442    127.35612    261.34608 
   32800    79.022306   -1090.5729    58814.796   -12573.406    956.80607   -13530.212    127.81927    246.53503 
   32850    83.119996   -925.09274     58841.99   -12560.842    1006.4211   -13567.264     127.8373    259.31907 
   32900    80.550861   -947.39557    58860.274   -12544.637    975.31389   -13519.951    128.29461    251.30384 
   32950    83.747797   -793.20058    58921.045    -12540.68    1014.0225   -13554.702    128.55574    261.27769 
   33000    79.651493   -1166.4736     58872.46    -12570.79    964.42429   -13535.214    129.18316    248.49797 
   33050    76.703781   -1163.0251    58860.959   -12579.024    928.73325   -13507.757    129.49965    239.30166 
   33100     83.28626   -1253.4207    58832.678   -12559.508    1008.4342   -13567.942    129.92682    259.83778 
   33150    80.413161   -1179.0268    58834.426   -12545.743    973.64661   -13519.389    130.27246    250.87424 
   33200    80.714651   -680.11513    58825.833    -12567.15    977.29706   -13544.447    130.79652    251.81483 
   33250    80.983192   -841.58789    58832.445   -12605.097    980.54858   -13585.646    130.91216    252.65263 
   33300    79.607756   -755.92182    58853.369   -12594.752    963.89472   -13558.647     130.8445    248.36152 
   33350    78.498666   -841.09846    58845.857   -12593.509    950.46581   -13543.975    131.04134    244.90137 
   33400    81.811147   -989.54184    58845.321   -12580.978     990.5735   -13571.551    131.08016     255.2357 
   33450    81.355727   -1168.0883    58851.851   -12580.715    985.05924   -13565.775    130.87987    253.81487 
   33500    79.159207   -1062.6363    58875.717   -12579.282    958.46367   -13537.746    131.32317    246.96214 
   33550    82.296822   -1401.1205    58826.212   -12592.424    996.45407   -13588.878    130.94463    256.75091 
   33600     81.13537   -1385.9866    58762.167    -12583.01    982.39115   -13565.402    131.64802     253.1274 
   33650    80.285102   -1167.8116    58699.301   -12598.018    972.09606   -13570.114    132.11812    250.47472 
   33700    81.015615   -932.30733    58681.747    -12598.77    980.94116   -13579.711    132.32771    252.75379 
   33750    80.218872   -872.32474    58633.109   -12605.465    971.29415   -13576.759    132.25163    250.26809 
   33800    79.455498   -767.38779    58708.536   -12601.271    962.05118   -13563.322    133.27276    247.88651 
   33850    79.846598   -976.44549    58730.736   -12604.496    966.78663   -13571.283    133.27008    249.10667 
   33900    81.181623   -1020.8232    58690.568   -12597.979    982.95118    -13580.93    133.74056     253.2717 
   33950    79.269255   -748.76121    58632.889   -12605.301    959.79614   -13565.097    133.73815    247.30547 
[...]
   92000    78.354449   -762.32382    58951.977   -12710.515    948.71962   -13659.235    308.31959    244.45144 
   92050    78.087389   -1071.8762    58934.986   -12707.234    945.48604    -13652.72    308.24836    243.61826 
   92100    77.691393   -897.09131    58882.402    -12712.17     940.6913   -13652.861     308.4929    242.38283 
   92150    77.908654   -1140.4765    58826.273   -12702.265    943.32191   -13645.587    308.76185    243.06064 
   92200    75.551801     -1330.61    58800.245   -12725.293    914.78502   -13640.078    309.03334    235.70769 
   92250    76.030695   -1485.8728    58769.595   -12740.516    920.58349   -13661.099    309.69386    237.20176 
   92300    78.085451   -894.39164    58754.143   -12775.255    945.46257   -13720.718    309.57139    243.61221 
   92350    75.435977   -869.66558    58700.901   -12736.406    913.38262   -13649.788    309.96912    235.34634 
   92400    79.489054   -803.22314    58742.996   -12703.095    962.45748   -13665.553    310.51531     247.9912 
   92450     79.58328   -1074.6965    58783.243   -12684.962    963.59837   -13648.561    310.24506    248.28517 
   92500    77.495636   -1074.6904    58813.254   -12689.765    938.32107   -13628.086    309.87167     241.7721 
   92550    80.148229   -930.20477    58748.645   -12686.235    970.43879   -13656.674    310.10785     250.0477 
   92600    78.027707   -1122.0577    58788.038   -12743.766    944.76341   -13688.529     309.8573    243.43206 
   92650    76.126341   -959.44726    58761.497   -12722.389    921.74158   -13644.131    310.36255    237.50015 
   92700     79.89119   -1267.2182    58776.103   -12694.025    967.32656   -13661.352    310.14944    249.24579 
   92750    78.574394   -1090.3283    58738.724   -12703.822    951.38273   -13655.205    309.98051    245.13763 
   92800    78.402223   -1137.3614    58743.188   -12740.738    949.29807   -13690.036    310.27656    244.60048 
   92850    78.597322   -1064.0081    58733.989   -12724.834    951.66034   -13676.494    310.10345    245.20916 
   92900    77.569464   -1090.7953    58725.294   -12687.486    939.21498   -13626.701    310.71435    242.00243 
   92950    78.277815   -1107.3644    58703.417   -12700.874    947.79173   -13648.665    310.60426    244.21235 
   93000    78.167193   -941.83235    58686.455   -12694.517    946.45231   -13640.969    311.53658    243.86723 
   93050     76.42647   -1335.6394    58643.182   -12699.207    925.37555   -13624.583    311.29207     238.4365 
   93100    77.412944   -943.04026    58616.555   -12721.952    937.31982   -13659.272    310.98619    241.51411 
   93150    77.408375   -1282.7678    58578.766   -12719.595     937.2645   -13656.859    310.38228    241.49986 
   93200    79.197505   -1430.2504    58561.517   -12727.167    958.92738   -13686.095    310.24559    247.08162 
   93250    79.531835   -1185.6458      58553.5   -12736.432    962.97547   -13699.407    310.02198    248.12466 
   93300     80.68765   -1014.9849    58538.338   -12748.524    976.97014   -13725.494    309.77312     251.7306 
   93350    77.672386   -935.00514    58495.255   -12731.431    940.46117   -13671.892    309.74563    242.32353 
   93400     81.20625   -990.62938    58540.683   -12698.761    983.24937   -13682.011    310.18584    253.34853 
   93450    80.958695   -1011.0122    58493.368   -12714.165    980.25197   -13694.417    310.65946    252.57621 
   93500    78.573961   -1064.2878    58414.723   -12711.421    951.37748   -13662.799    310.73084    245.13628 
   93550     80.91586   -1250.0489    58391.526   -12693.257    979.73332   -13672.991    311.14179    252.44257 
   93600    81.727319   -864.77181    58390.747   -12702.071     989.5585    -13691.63    310.83997    254.97417 
   93650    77.957692   -907.44906    58395.919   -12686.288    943.91566   -13630.204     310.7221    243.21363 
   93700    80.149428   -802.26652    58422.535   -12680.119    970.45332   -13650.573     310.7396    250.05144 
   93750    80.727921   -1105.1335     58417.66   -12660.025    977.45774   -13637.483    310.37004    251.85623 
   93800    79.633627   -956.58076    58452.329   -12675.794    964.20797   -13640.002    310.95011    248.44224 
   93850    77.156476   -890.92864    58414.148   -12688.018     934.2145   -13622.233    311.17771    240.71398 
   93900    80.542441   -795.22464    58503.306   -12702.375    975.21194   -13677.586    311.32046    251.27757 
   93950    79.442783   -1141.9117     58529.47   -12646.555    961.89723   -13608.452    310.94958    247.84684 
   94000    81.611434   -869.63193    58510.146    -12628.63    988.15536   -13616.786    310.45522    254.61263 
   94050    82.596362   -737.77242    58545.044   -12656.817    1000.0809   -13656.898    310.68153    257.68543 
   94100    80.122485   -991.01454    58573.521   -12661.191    970.12709   -13631.318    310.41201    249.96738 
   94150    80.389573   -946.38065    58598.055   -12661.403      973.361   -13634.764    309.74151    250.80065 
   94200     75.45545   -890.22661    58619.862   -12687.626    913.61839   -13601.245    310.43053     235.4071 
   94250    80.386849   -794.82906    58604.944   -12649.387    973.32802   -13622.715    310.18502    250.79215 
   94300     79.81559   -1017.2372    58587.961   -12665.189    966.41119     -13631.6    310.44689    249.00993 
   94350    81.228342   -884.08142    58570.743   -12649.196    983.51686   -13632.713    310.76719    253.41745 
   94400    81.320682   -1097.8255    58611.831   -12651.882    984.63491   -13636.517     312.0307    253.70554 
   94450    79.053013   -894.45504    58635.335   -12653.236    957.17787   -13610.414    312.40901    246.63083 
   94500    82.575716   -1133.2878    58632.095   -12628.685    999.83093   -13628.516    312.51589    257.62101 
   94550    79.296796   -1040.2833    58665.816   -12627.796    960.12961   -13587.925    312.77126    247.39139 
   94600    80.791138   -988.72263    58688.475   -12599.194    978.22317   -13577.417    312.61982    252.05346 
   94650    80.551569   -1059.4717    58680.456   -12591.589    975.32246   -13566.912    313.18399    251.30605 
   94700    83.908443   -1249.9725    58736.528   -12583.977    1015.9677   -13599.945    312.83752    261.77888 
   94750    81.795843   -828.40196     58710.22   -12591.841     990.3882    -13582.23    313.40652    255.18795 
   94800    82.479213   -847.27564    58722.184    -12617.98    998.66247   -13616.642     313.8762    257.31994 
   94850    82.480678   -1131.6853    58707.295   -12652.127     998.6802   -13650.807      313.707    257.32451 
   94900    77.322402   -1073.7122    58676.845   -12649.968    936.22354   -13586.192    314.24065    241.23164 
   94950    79.018861   -1403.3397    58690.919   -12660.594    956.76435   -13617.358    314.40824    246.52428 
   95000    81.156686   -1277.7137    58690.606   -12628.548    982.64924   -13611.197    313.67576     253.1939 
   95050    81.238141   -927.15373    58689.495   -12613.056    983.63551   -13596.692    313.97184    253.44802 
   95100    81.161252   -1058.6433    58689.511   -12621.648    982.70453   -13604.352    313.60178    253.20814 
   95150    81.214626   -1080.5409    58659.399   -12636.706    983.35079   -13620.057    313.26743    253.37466 
   95200    79.197601   -1002.7348    58718.092   -12619.526    958.92854   -13578.455    313.49347    247.08192 
   95250    78.451896   -1151.8758    58723.957   -12611.328    949.89952   -13561.227    313.72453    244.75546 
   95300    82.409773    -1160.266     58740.18    -12629.28    997.82169   -13627.102     314.1652     257.1033 
   95350    80.655744   -1231.8437    58717.121   -12616.857    976.58382   -13593.441    314.72805    251.63105 
   95400    78.451769   -849.82278    58716.804   -12647.055    949.89797   -13596.953    315.15437    244.75506 
   95450    77.780475   -1171.8032    58720.531   -12679.304    941.76992   -13621.074    315.96327    242.66075 
   95500    77.791242   -1406.5854    58672.406   -12654.728    941.90028   -13596.628    316.23598    242.69434 
   95550    79.723762   -1733.4378    58541.822    -12637.29    965.29933    -13602.59    316.31284    248.72344 
   95600    77.555291   -1215.8588    58479.184   -12662.195    939.04337   -13601.238    316.66276    241.95821 
   95650    78.362443   -1042.7435    58453.348   -12655.608    948.81642   -13604.425    317.20704    244.47638 
   95700    80.252147   -627.98582    58550.697   -12638.569    971.69704   -13610.266    317.11304    250.37191 
   95750    81.876948   -757.97857    58558.045   -12643.105    991.37021   -13634.475    318.09488    255.44098 
   95800    81.433706   -1059.5894    58567.631   -12671.347    986.00342   -13657.351    318.72029    254.05815 
   95850    77.696695   -377.82097    58598.554   -12683.469     940.7555   -13624.224    319.05669    242.39937 
   95900    81.664521   -830.16379    58605.504   -12656.785    988.79813   -13645.583    318.98751    254.77825 
   95950    79.103736   -1336.4181    58561.153    -12660.47    957.79202   -13618.262    318.94546    246.78907 
   96000    82.531064   -1181.6729     58556.78   -12632.894    999.29028   -13632.184    319.00076    257.48171 
   96050    79.189565   -813.31924    58532.107   -12634.665    958.83125   -13593.497    319.84514    247.05685 
   96100    81.412084   -774.15986    58547.492   -12630.742    985.74161   -13616.484    320.80038    253.99069 
   96150    80.516349   -994.45252    58554.439   -12623.674    974.89601    -13598.57    320.99685    251.19617 
   96200    77.679225   -957.80592    58576.125   -12632.146    940.54398    -13572.69    321.34455    242.34486 
   96250     80.26367   -1249.0772    58598.096   -12628.088    971.83656   -13599.925    320.80316    250.40786 
   96300    79.302554   -1344.0708    58535.885   -12644.951    960.19932    -13605.15    320.42413    247.40935 
   96350    80.434854   -955.97424    58508.557   -12640.952    973.90927   -13614.861    320.68696    250.94192 
   96400    80.690398   -904.99378    58509.811   -12646.321    977.00341   -13623.325    320.32468    251.73917 
   96450     80.12777   -1404.9658    58480.547   -12675.189    970.19107    -13645.38    320.87462    249.98387 
   96500    80.448001   -1130.3991    58388.457   -12649.685    974.06845   -13623.754    320.27586    250.98293 
   96550    80.735873     -1028.98     58376.71   -12625.483    977.55402   -13603.037     320.7884    251.88104 
   96600     82.14654   -717.61887        58397   -12589.585    994.63445    -13584.22    321.17518    256.28206 
   96650    82.021483   -1241.7273    58394.686   -12586.897    993.12025   -13580.017    322.12219    255.89191 
   96700    79.745875   -975.01882    58404.531   -12596.245    965.56708   -13561.812    321.87114    248.79243 
   96750    82.445057    -868.1657    58414.852   -12588.456    998.24891   -13586.705    321.96364    257.21338 
   96800     81.75805   -658.22898    58492.074   -12588.366     989.9306   -13578.297     321.5066    255.07005 
   96850    82.138842   -1097.3854    58521.485   -12581.718    994.54124   -13576.259    322.30093    256.25804 
   96900     82.46779   -792.87642    58473.915   -12568.193    998.52415   -13566.717    321.87253     257.2843 
   96950     80.91154   -1034.7307    58500.191   -12579.348    979.68101   -13559.029    322.58973    252.42909 
   97000    82.499349    -1099.079    58453.645   -12582.976    998.90627   -13581.882    322.02802    257.38276 
   97050    82.748177   -1282.8041    58420.784   -12571.008    1001.9191   -13572.927    322.44114    258.15906 
   97100    83.112203   -1154.5028    58413.911   -12562.876    1006.3267   -13569.203    322.48762    259.29475 
   97150    82.444612    -791.6863    58393.348   -12539.564    998.24352   -13537.807    322.98344    257.21199 
   97200    83.887204   -792.34996     58374.75   -12543.317    1015.7105   -13559.028    322.88465    261.71261 
   97250    82.058014   -963.24397    58346.505   -12568.175    993.56257   -13561.738    322.53663    256.00588 
   97300    81.441977   -778.20917    58337.884    -12565.99    986.10357   -13552.093    322.92872    254.08396 
   97350    80.618618   -733.45017     58341.07    -12542.43    976.13429   -13518.564    323.00563    251.51523 
   97400    81.773992   -1058.6938    58396.409   -12557.238    990.12362   -13547.361    323.28104    255.11978 
   97450    82.229217   -546.45085    58426.237   -12574.447     995.6355   -13570.082    323.47706       256.54 
   97500    83.062513   -817.84827      58451.2   -12554.099    1005.7251   -13559.824    323.94771    259.13973 
   97550    80.912982   -1027.4543    58498.585   -12576.769    979.69846   -13556.468     323.8212    252.43359 
   97600    83.646185   -938.21712    58494.636   -12577.809    1012.7922   -13590.602    324.10624    260.96068 
   97650     79.93191   -802.67498    58510.456   -12583.858    967.81959   -13551.677     323.9742    249.37282 
   97700    80.081971   -1117.3228    58555.657   -12598.489    969.63654   -13568.126    324.18878    249.84099 
   97750    79.278489   -846.21497    58595.579   -12597.122    959.90794    -13557.03    324.20791    247.33427 
   97800    79.597014   -1131.2218    58632.851   -12636.827    963.76466   -13600.592    324.96719    248.32801 
   97850    78.423217   -1283.1972      58629.4   -12656.008    949.55227    -13605.56    324.95048    244.66598 
   97900    79.809717   -1631.3278    58542.975    -12632.63    966.34008    -13598.97    325.03322    248.99161 
   97950    78.339354    -1217.093    58502.224   -12617.764    948.53685     -13566.3    325.42644    244.40434 
   98000    81.205579   -1128.6509    58511.932   -12602.572    983.24124   -13585.813    325.93855    253.34644 
   98050    79.734058   -823.86352     58577.46     -12608.4      965.424   -13573.824    326.07616    248.75556 
   98100      82.9037   -881.35234    58663.775   -12593.004    1003.8022   -13596.807    326.93222    258.64426 
   98150    82.418269   -838.07834    58714.795   -12585.111    997.92456   -13583.036    326.63334    257.12981 
   98200    82.036158   -806.94623    58740.328   -12594.182    993.29794    -13587.48    327.17602    255.93769 
   98250    80.808798   -1272.8572    58700.381   -12606.907      978.437   -13585.344    327.82844    252.10855 
   98300    78.461851   -1094.6614     58652.07   -12657.024    950.02005   -13607.045    327.94612    244.78651 
   98350    79.057787   -1152.0247    58600.768   -12685.165    957.23567   -13642.401    327.79486    246.64572 
   98400    81.182352   -930.26004    58609.674   -12675.339    982.96001   -13658.299    327.91519    253.27397 
   98450    81.876843   -705.34621    58636.227   -12655.214    991.36894   -13646.582    328.26489    255.44066 
   98500    76.714161   -885.68267    58657.349   -12662.139    928.85893   -13590.998     328.9995    239.33404 
   98550    78.032477   -1238.9516    58661.019   -12641.607    944.82117   -13586.428    329.34674    243.44694 
   98600    76.505105   -873.04657    58690.889   -12670.904    926.32767   -13597.232    330.49907    238.68183 
   98650    79.263057   -857.37333    58713.675   -12652.944    959.72109   -13612.665    331.21331    247.28613 
   98700    76.420301   -342.05558    58766.624   -12667.504    925.30086   -13592.805    331.65457    238.41725 
   98750    80.547597   -1278.0402    58786.658   -12661.132    975.27436   -13636.406    332.00489    251.29365 
   98800    78.794443    -1425.751    58710.546   -12678.051    954.04709   -13632.098    332.35426    245.82414 
   98850    77.159859   -1456.6288    58705.326   -12682.544    934.25546   -13616.799    332.19494    240.72454 
   98900     79.30382   -1188.8404    58646.993   -12662.711    960.21465   -13622.926    332.72696     247.4133 
   98950    78.652918   -1035.7216    58620.813    -12657.21    952.33349   -13609.544    332.18885     245.3826 
   99000    79.758299   -883.29482     58655.84   -12650.094    965.71751   -13615.812    332.76675    248.83119 
   99050    80.047093    -863.7841    58680.574   -12616.358    969.21424   -13585.573    332.69271    249.73218 
   99100    79.033553   -893.37331    58676.335   -12625.262    956.94225   -13582.204    332.90088    246.57012 
   99150    80.774736   -1098.7312    58678.018   -12586.861    978.02457   -13564.885    332.96854    252.00229 
   99200    84.218686   -1377.3968    58646.459   -12577.481    1019.7241   -13597.205    332.37624    262.74678 
   99250    80.868553   -844.30097     58675.57   -12571.293    979.16052   -13550.453    331.80902    252.29498 
   99300    81.786346   -564.59104    58716.889   -12591.013     990.2732   -13581.286    332.54321    255.15832 
   99350     79.68622   -1026.1556    58776.516   -12605.841    964.84478   -13570.685    332.16316    248.60632 
   99400    84.088932   -1057.4984    58795.922   -12582.773     1018.153   -13600.926    332.92291    262.34197 
   99450    84.095357   -724.52889     58785.22    -12578.11    1018.2308   -13596.341    332.74268    262.36201 
   99500    79.384536   -1098.7187    58784.527   -12567.507    961.19197   -13528.699    333.72258    247.66512 
   99550    79.658321   -626.49542    58738.925   -12574.569    964.50697   -13539.076    334.02784    248.51928 
   99600    81.654763   -1124.6427    58725.279   -12580.051    988.67999   -13568.731    334.18572    254.74781 
   99650    80.830631   -812.04157    58768.197   -12600.248    978.70136    -13578.95    335.15423    252.17667 
   99700    79.048725   -1094.3743    58814.377   -12612.929    957.12595   -13570.055     335.3027    246.61745 
   99750    78.559629   -1161.8188    58837.964   -12582.986    951.20395    -13534.19    335.91523    245.09156 
   99800    81.502346    -972.9976    58872.982   -12578.899    986.83451   -13565.734    336.05542     254.2723 
   99850    79.454746   -926.37397    58915.747   -12587.761    962.04207   -13549.803    336.70517    247.88416 
   99900    81.315087   -1429.1353    58912.965   -12598.575    984.56718   -13583.142     337.4025    253.68808 
   99950    78.199696    -871.3003    58898.719    -12604.71    946.84586   -13551.555    337.87554    243.96864 
  100000    78.954381   -983.23939    58907.037   -12609.454    955.98363   -13565.437      337.311    246.32312 
Loop time of 81.8132 on 80 procs for 100000 steps with 4063 atoms

Performance: 528.032 ns/day, 0.045 hours/ns, 1222.296 timesteps/s
99.5% CPU use with 80 MPI tasks x no OpenMP threads

MPI task timing breakdown:
Section |  min time  |  avg time  |  max time  |%varavg| %total
---------------------------------------------------------------
Pair    | 47.851     | 51.191     | 55.32      |  29.6 | 62.57
Neigh   | 0.46878    | 1.0901     | 1.9951     |  59.5 |  1.33
Comm    | 16.416     | 21.113     | 24.928     |  55.9 | 25.81
Output  | 0.13417    | 0.13668    | 0.21096    |   2.3 |  0.17
Modify  | 6.5942     | 7.4156     | 8.0456     |  12.8 |  9.06
Other   |            | 0.8666     |            |       |  1.06

Nlocal:    50.7875 ave 84 max 21 min
Histogram: 29 11 0 0 0 0 2 6 15 17
Nghost:    717.3 ave 756 max 678 min
Histogram: 8 8 8 6 6 12 8 6 14 4
Neighs:    0 ave 0 max 0 min
Histogram: 80 0 0 0 0 0 0 0 0 0
FullNghs:  5576.25 ave 10895 max 1187 min
Histogram: 40 0 0 0 0 0 0 7 16 17

Total # of neighbors = 446100
Ave neighs/atom = 109.796
Neighbor list builds = 5702
Dangerous builds = 0

write_data		${DIR}/data.eq-${NAME}-${TEMP}
write_data		run_13/data.eq-${NAME}-${TEMP}
write_data		run_13/data.eq-het_freeze_13-${TEMP}
write_data		run_13/data.eq-het_freeze_13-250
undump          1

reset_timestep  0

unfix           2
unfix           3
unfix           4


################################################
#######         Run Simulation         #########
################################################

log				${DIR}/log.run_${NAME}
log				run_13/log.run_${NAME}
log				run_13/log.run_het_freeze_13
