LAMMPS data file via write_data, version 16 Mar 2018, timestep = 100000

6337 atoms
2 atom types

0.0000000000000000e+00 4.9219999999999999e+01 xlo xhi
0.0000000000000000e+00 4.9019635930410494e+01 ylo yhi
2.5732536709503080e+00 5.7488746329046293e+01 zlo zhi

Masses

1 18.015
2 12.01

Atoms # atomic

1668 1 2.7416192550750766e+00 8.2702117538652580e+00 4.0850253965023207e+00 0 1 0
3261 1 3.1035760301217734e+00 1.1021069180280683e+01 3.7539012252329726e+00 1 0 1
3579 1 5.4100899385656422e+00 3.0187071659192881e+00 5.1673826576253941e+00 1 0 0
2110 1 5.5228622533268101e+00 1.4960813709678424e+01 3.4736687134459707e+00 1 -1 0
443 1 8.3338624275629876e+00 1.5916271502905063e+01 3.3045107264964462e+00 1 0 1
4775 1 2.6989693436577085e+00 3.8058233706971527e+00 4.3175340625698020e+00 1 0 1
3341 1 6.7222524752887427e+00 7.9200898611617268e+00 7.9095798122323480e+00 0 1 1
1442 1 7.5582503861316130e+00 4.5823338311016606e+00 4.1860317894027173e+00 1 0 1
1499 1 6.7796646804999341e+00 7.1842452827147278e+00 4.6958103773413580e+00 1 0 0
362 1 5.4379261589419858e+00 1.5949933213887814e+01 1.1122381697330448e+01 0 0 0
1457 1 1.8850306777786727e+00 1.2445694480538537e+01 6.6881950908293559e+00 0 0 1
4441 1 2.5268154030856871e+00 7.9939357374594955e-01 4.1617194206319983e+00 0 1 1
208 1 2.6663760744927170e+00 9.6018962943917234e+00 7.3501389511028945e+00 0 1 0
1413 1 8.8542138074327557e-03 1.5252201960554370e+01 3.9337805696541519e+00 -1 0 1
1895 1 8.6800680435408211e+00 9.0014722846157404e+00 3.9264640665930486e+00 0 1 0
2978 1 9.5386719966670945e+00 8.3857636937609730e+00 7.8603765184191481e+00 0 0 1
6266 1 8.0621453695305085e+00 1.1696077267219007e+01 3.6371007764801546e+00 1 0 1
4588 1 5.3911578103875319e+00 1.2148388187645640e+01 2.7002906067927355e+00 1 1 1
419 1 1.2137033783578823e+00 1.3581226203611049e+01 1.1249279367198582e+01 0 0 0
4830 1 6.5166603683929960e+00 1.2555343516934000e+01 6.0162774892374387e+00 0 1 0
3430 1 9.0123194033917198e+00 1.4749942367496852e+01 9.2283726020976822e+00 0 0 0
3155 1 5.2779123072274814e+00 1.5081819776873168e+01 6.3846412273878954e+00 0 1 1
1257 1 9.5541419951163871e+00 8.4892386809210052e+00 1.0856602513427953e+01 0 1 1
3314 1 6.1642993325182815e-01 4.8393643895358709e+00 9.7325586701877214e+00 1 0 1
3416 1 5.3796238352684940e+00 6.4448577899547104e+00 1.1327955934785670e+01 0 0 1
473 1 5.0022008498150843e+00 3.0224160023619278e+00 7.9595865347500263e+00 0 0 1
3183 1 1.5825769380768013e+00 2.5298895234774776e+00 1.0631388151788220e+01 0 1 1
5057 1 7.5154112978861667e+00 2.0609866039577245e+00 8.7961184188962847e+00 0 0 0
4757 1 8.4874253692243098e+00 5.9743576935904095e+00 1.1461865912321210e+01 1 0 0
3389 1 4.8993755364510170e+00 5.8185233319387537e+00 8.4448628971400428e+00 1 0 1
5050 1 2.1411227490251745e+00 6.9307493627501939e+00 8.5852366915733036e+00 1 0 0
1682 1 2.2207769969950859e+00 6.1505689149879661e+00 6.1086991464420439e+00 0 0 0
3523 1 6.3240265855021685e+00 3.4947686689673545e+00 1.1272123707571946e+01 -1 1 0
4628 1 9.7327909204029284e-01 9.3485119234795686e+00 9.8845971839698699e+00 0 0 1
6165 1 9.4760775612866777e+00 4.0697608545431310e+00 9.5592788160480424e+00 0 0 1
5208 1 3.3666900807865265e+00 1.0338400800727090e+00 9.3300675603679011e+00 0 0 0
4798 1 5.4085680505850444e+00 1.0301404970670971e+01 7.3148584408909052e+00 1 0 0
1877 1 7.0230121897154714e+00 4.3447730080608071e-01 4.4733525059943524e+00 0 0 0
3450 1 2.4518632347209977e+00 1.4876038869346761e+01 7.5796608376596000e+00 -1 0 0
3706 1 9.1462180517712781e+00 1.3537891096133286e+01 6.7523438977621106e+00 0 1 1
4727 1 5.6202383219896159e+00 1.1048885868199751e+01 9.7916905237865635e+00 0 0 1
6009 1 1.3515699715650673e-01 1.1932979517799692e+01 9.1862392545721008e+00 0 -1 1
1773 1 4.0057612904000788e+00 1.3765588595061899e+01 9.6619931757285169e+00 1 0 0
1380 1 8.1907539904190081e+00 1.2181512445117622e+01 1.0354490144592113e+01 1 1 1
3008 1 9.7108657919237888e+00 1.3440689841421058e+01 2.6620949798023483e+00 1 0 0
15 1 2.0189645505493528e-02 1.5191419342819190e+00 3.5919563509848178e+00 0 0 1
2895 1 4.9772741784394983e+00 7.3709516250638982e+00 2.8200474035657637e+00 1 0 1
2963 1 8.9869164629732250e+00 1.2573257069051464e+00 6.2644413529941350e+00 0 1 1
5068 1 2.0044766251206112e+00 2.4420212341146003e-01 6.9763988843949036e+00 1 0 0
6138 1 5.7752138227829510e+00 5.3223864834663921e+00 1.5406566868566845e+01 0 0 1
165 1 3.2089224623119996e+00 2.1834191272333854e+00 1.2768081073124947e+01 1 0 0
6221 1 9.8045932160230287e-01 1.4816165735114826e+00 1.4304862562112245e+01 1 0 1
193 1 8.1874490897193208e+00 1.1195590912361597e+01 1.7522625303626633e+01 1 0 0
5051 1 7.6332543204662633e+00 1.6877313484128267e+00 1.2873807429371437e+01 0 1 0
3092 1 1.9059579899537691e+00 1.2080853498249711e+00 1.7019870148718635e+01 0 1 1
417 1 5.6836613736675035e-01 1.3896132172044389e+01 1.7698288094460317e+01 0 0 0
4446 1 1.6893223037287144e+00 6.2901021033413951e+00 1.3160601605703278e+01 1 0 1
5130 1 3.9792068340674969e+00 4.9019433574552025e+00 1.3392817701494620e+01 1 1 0
5177 1 7.4020555048152445e+00 7.4907904965718517e+00 1.4683346399230523e+01 0 1 0
1868 1 2.2729928856605057e+00 9.2364117860711303e+00 1.2367941127149043e+01 0 0 0
3089 1 8.5021924748004043e+00 7.7875593861120480e+00 1.7306968306371999e+01 0 0 1
4930 1 3.9229801183692716e+00 9.8512893702331787e+00 1.6446639940185896e+01 1 0 0
6283 1 5.7356589903839552e+00 9.5165074746176312e+00 1.4430865208685004e+01 1 0 1
4985 1 6.3448238944769164e+00 1.5068887740667948e+01 1.6042339910548954e+01 -1 1 0
3542 1 1.8678254407390387e+00 8.4690676852135756e+00 1.5232498968989596e+01 0 0 0
4468 1 7.1732062536330607e+00 1.4152757326409334e+01 1.2018026056667059e+01 1 -1 1
1747 1 7.6942166161028727e+00 1.1479515933166729e+01 1.4487468274151743e+01 0 1 0
2090 1 8.2479818431785628e+00 1.2592142840829224e+00 1.7251957735455861e+01 1 1 1
1515 1 3.3331699811682900e+00 1.2552434289112433e+01 1.5591436347295232e+01 1 1 1
2165 1 5.7143182654662734e+00 1.3253581489038124e+01 1.4071624832633702e+01 1 1 1
6321 1 6.6605568968231097e+00 1.3272095796273609e+01 1.8448108599527565e+01 0 0 0
67 1 1.4278569178346447e+00 4.4194360683341971e+00 1.5617671940034445e+01 1 0 0
326 1 4.4986631829527299e+00 2.2508366161786308e+00 1.6971521771771126e+01 0 0 1
4984 1 1.0753319558204144e+00 3.4283353891276467e+00 1.8970871425914449e+01 1 1 0
5059 1 3.4105716807585740e-01 1.4266166092195606e+01 1.4834939983234166e+01 0 0 0
4854 1 5.1559284326116916e+00 2.0547599701760961e+00 1.9586786074752318e+01 1 1 0
1476 1 9.1840619056588633e+00 1.5437305799497612e+01 1.5884048681421593e+01 0 0 1
1492 1 3.6037423373609148e+00 4.9071918453329237e+00 1.7198349442146458e+01 0 0 0
1443 1 3.4193612232741293e+00 6.6929965739123114e+00 1.9475212081233725e+01 0 0 1
6150 1 7.2158733961683001e+00 3.9092806817509453e+00 1.7779366955867566e+01 1 0 0
418 1 7.9157981167999001e+00 6.0787217520006536e+00 1.9411505834954252e+01 1 0 0
3338 1 1.0744466858781312e+00 1.2009585047449670e+01 2.0228232068257327e+01 2 0 0
4853 1 4.5067024758847847e+00 9.0751842811642831e+00 1.8917090837185626e+01 0 0 1
5200 1 9.2297868268736085e+00 1.5647888584719775e+01 1.2849664769550534e+01 1 -1 0
1542 1 7.1196092788602323e+00 9.4493772180507651e+00 1.9255869647380926e+01 0 0 1
6312 1 4.3326085197242188e+00 1.3272605312258397e+01 2.0302693657627433e+01 1 -1 0
4868 1 3.3998172951765042e+00 1.4410674549009792e+01 1.7571047742596505e+01 1 0 0
1525 1 1.6195276295811369e+00 1.1879356369844620e+01 1.3249435231213511e+01 0 0 0
2845 1 9.2209351824267642e+00 2.5393023717880738e+00 2.0002172323491006e+01 0 1 1
1278 1 6.3798230696155427e+00 8.0830094757318038e-01 1.5137253557996067e+01 1 0 1
176 1 9.6652768860569314e+00 4.8457314831824814e+00 1.6440015396088370e+01 0 0 0
5008 1 8.5483277105830009e+00 1.4822851815254651e+01 1.9799159812911462e+01 1 -1 0
5275 1 9.5662942726618905e+00 1.0840291257882450e+01 1.2443088747851414e+01 0 0 0
502 1 5.0169845040546495e+00 9.1254189004585911e+00 1.1877739920801368e+01 0 1 1
5280 1 1.4995714972440253e+00 1.0608175390753596e+01 2.4549579585967432e+01 1 1 0
1594 1 5.2012640577523728e-01 2.7739543378955664e+00 2.4041914862581876e+01 0 0 1
3404 1 3.3322539606051036e+00 3.4557758436288317e+00 2.3771952676295147e+01 1 0 0
3475 1 4.5899674417208414e-01 7.0935502592053892e+00 2.4025047243140200e+01 1 0 0
2951 1 3.0594214761305589e+00 6.2048130665620276e+00 2.4498898555070468e+01 0 0 0
4562 1 2.7535114582168174e+00 1.5404546708559971e+01 2.1865117468406524e+01 1 0 1
722 2 7.3829999999999991e+00 1.5629449137232333e+01 2.6868586402558098e+01 0 0 0
2 1 5.8203018367469070e+00 6.6873853014336317e+00 2.3915191230308256e+01 1 0 0
1741 1 8.5467523923436932e+00 6.6703744233408182e+00 2.3701562354477073e+01 0 -1 0
3532 1 3.5008584174136437e-01 1.8474517485125086e+00 2.1373013615387563e+01 0 1 0
726 2 8.6135000000000002e+00 1.3498160618518835e+01 2.6868586402558098e+01 0 0 0
4898 1 1.2652894380033881e+00 1.5501613002361877e+01 2.4472248836668921e+01 0 0 1
252 1 3.6034229362673633e+00 9.1547570943574357e+00 2.3647532364581107e+01 -1 0 1
724 2 7.3829999999999991e+00 1.2787731112280996e+01 2.6868586402558098e+01 0 0 0
3575 1 6.6397783090180260e+00 9.2542961325283333e+00 2.4794201477497115e+01 1 0 0
1836 1 9.4763466146101738e+00 9.1745865251668981e+00 2.4090295491217766e+01 1 -1 0
5106 1 5.9574049348548170e+00 1.0875203574482361e+01 2.2396556239863433e+01 1 0 0
4913 1 6.2089745314776197e+00 1.5041704665333116e+01 2.1599267936533142e+01 1 0 0
4919 1 2.6733578384979060e+00 1.3214839379222262e+01 2.4047004521866029e+01 0 0 0
677 2 4.9220000000000006e+00 1.2787731112280996e+01 2.6868586402558098e+01 0 0 0
675 2 4.9220000000000006e+00 1.5629449137232333e+01 2.6868586402558098e+01 0 0 0
4694 1 5.2368801026727212e+00 1.2501113838654314e+01 2.4527995813924630e+01 1 0 1
5101 1 6.7128136755708843e+00 1.4832428224459250e+01 2.4265403471872130e+01 1 0 0
767 2 8.6135000000000002e+00 1.4919019630994494e+01 2.6868586402558098e+01 0 0 0
554 2 0.0000000000000000e+00 2.8417180249513345e+00 2.6868586402558098e+01 0 0 0
556 2 0.0000000000000000e+00 0.0000000000000000e+00 2.6868586402558098e+01 0 0 0
558 2 1.2305000000000001e+00 7.1042950623783474e-01 2.6868586402558098e+01 0 0 0
565 2 1.2305000000000001e+00 2.1312885187134998e+00 2.6868586402558098e+01 0 0 0
567 2 2.4610000000000003e+00 2.8417180249513345e+00 2.6868586402558098e+01 0 0 0
569 2 2.4610000000000003e+00 0.0000000000000000e+00 2.6868586402558098e+01 0 0 0
571 2 3.6915000000000004e+00 7.1042950623783474e-01 2.6868586402558098e+01 0 0 0
586 2 3.6914999999999996e+00 2.1312885187134998e+00 2.6868586402558098e+01 0 0 0
588 2 4.9220000000000006e+00 2.8417180249513332e+00 2.6868586402558098e+01 0 0 0
590 2 4.9220000000000006e+00 0.0000000000000000e+00 2.6868586402558098e+01 0 0 0
592 2 6.1524999999999999e+00 7.1042950623783407e-01 2.6868586402558098e+01 0 0 0
615 2 6.1524999999999999e+00 2.1312885187134989e+00 2.6868586402558098e+01 0 0 0
617 2 7.3829999999999991e+00 2.8417180249513345e+00 2.6868586402558098e+01 0 0 0
619 2 7.3829999999999991e+00 0.0000000000000000e+00 2.6868586402558098e+01 0 0 0
621 2 8.6134999999999984e+00 7.1042950623783407e-01 2.6868586402558098e+01 0 0 0
652 2 8.6134999999999984e+00 2.1312885187135002e+00 2.6868586402558098e+01 0 0 0
561 2 0.0000000000000000e+00 4.2625770374269996e+00 2.6868586402558098e+01 0 0 0
563 2 1.2305000000000001e+00 4.9730065436648339e+00 2.6868586402558098e+01 0 0 0
578 2 1.2305000000000001e+00 6.3938655561404980e+00 2.6868586402558098e+01 0 0 0
582 2 2.4610000000000003e+00 4.2625770374269996e+00 2.6868586402558098e+01 0 0 0
584 2 3.6914999999999996e+00 4.9730065436648339e+00 2.6868586402558098e+01 0 0 0
607 2 3.6914999999999996e+00 6.3938655561404980e+00 2.6868586402558098e+01 0 0 0
559 2 0.0000000000000000e+00 7.1042950623783341e+00 2.6868586402558098e+01 0 0 0
580 2 2.4610000000000003e+00 7.1042950623783341e+00 2.6868586402558098e+01 0 0 0
611 2 4.9220000000000006e+00 4.2625770374269978e+00 2.6868586402558098e+01 0 0 0
613 2 6.1524999999999999e+00 4.9730065436648339e+00 2.6868586402558098e+01 0 0 0
644 2 6.1524999999999999e+00 6.3938655561404980e+00 2.6868586402558098e+01 0 0 0
648 2 7.3829999999999991e+00 4.2625770374269996e+00 2.6868586402558098e+01 0 0 0
650 2 8.6135000000000002e+00 4.9730065436648339e+00 2.6868586402558098e+01 0 0 0
689 2 8.6135000000000002e+00 6.3938655561404980e+00 2.6868586402558098e+01 0 0 0
609 2 4.9220000000000006e+00 7.1042950623783341e+00 2.6868586402558098e+01 0 0 0
646 2 7.3830000000000009e+00 7.1042950623783341e+00 2.6868586402558098e+01 0 0 0
574 2 0.0000000000000000e+00 8.5251540748539991e+00 2.6868586402558098e+01 0 0 0
576 2 1.2305000000000001e+00 9.2355835810918343e+00 2.6868586402558098e+01 0 0 0
603 2 2.4610000000000003e+00 8.5251540748539991e+00 2.6868586402558098e+01 0 0 0
605 2 3.6915000000000004e+00 9.2355835810918343e+00 2.6868586402558098e+01 0 0 0
572 2 0.0000000000000000e+00 1.1366872099805333e+01 2.6868586402558098e+01 0 0 0
599 2 1.2305000000000001e+00 1.0656442593567498e+01 2.6868586402558098e+01 0 0 0
601 2 2.4610000000000003e+00 1.1366872099805333e+01 2.6868586402558098e+01 0 0 0
636 2 3.6914999999999996e+00 1.0656442593567499e+01 2.6868586402558098e+01 0 0 0
640 2 4.9220000000000006e+00 8.5251540748539991e+00 2.6868586402558098e+01 0 0 0
642 2 6.1524999999999999e+00 9.2355835810918343e+00 2.6868586402558098e+01 0 0 0
685 2 7.3830000000000009e+00 8.5251540748539991e+00 2.6868586402558098e+01 0 0 0
687 2 8.6134999999999984e+00 9.2355835810918343e+00 2.6868586402558098e+01 0 0 0
638 2 4.9220000000000006e+00 1.1366872099805333e+01 2.6868586402558098e+01 0 0 0
681 2 6.1524999999999999e+00 1.0656442593567499e+01 2.6868586402558098e+01 0 0 0
683 2 7.3829999999999991e+00 1.1366872099805333e+01 2.6868586402558098e+01 0 0 0
728 2 8.6134999999999984e+00 1.0656442593567498e+01 2.6868586402558098e+01 0 0 0
595 2 0.0000000000000000e+00 1.2787731112280996e+01 2.6868586402558098e+01 0 0 0
632 2 2.4610000000000003e+00 1.2787731112280996e+01 2.6868586402558098e+01 0 0 0
597 2 1.2305000000000001e+00 1.3498160618518829e+01 2.6868586402558098e+01 0 0 0
634 2 3.6915000000000004e+00 1.3498160618518829e+01 2.6868586402558098e+01 0 0 0
630 2 2.4610000000000003e+00 1.5629449137232328e+01 2.6868586402558098e+01 0 0 0
628 2 1.2305000000000001e+00 1.4919019630994494e+01 2.6868586402558098e+01 0 0 0
593 2 0.0000000000000000e+00 1.5629449137232333e+01 2.6868586402558098e+01 0 0 0
673 2 3.6915000000000004e+00 1.4919019630994494e+01 2.6868586402558098e+01 0 0 0
679 2 6.1524999999999990e+00 1.3498160618518829e+01 2.6868586402558098e+01 0 0 0
720 2 6.1524999999999990e+00 1.4919019630994494e+01 2.6868586402558098e+01 0 0 0
4881 1 9.3206795443018979e+00 1.4160967160224583e+01 2.4208272126022020e+01 1 0 1
4959 1 8.7513108442007290e+00 1.0322313578437567e+01 2.1601200993222587e+01 1 1 0
141 1 7.9470816302194986e+00 3.7715261456941929e+00 2.4141142996001289e+01 0 0 0
3547 1 5.8942869103596651e+00 5.9201494648203967e+00 2.1227882039142532e+01 1 0 0
191 1 9.6538585920686106e+00 1.3166927065147751e+01 2.1652427329856867e+01 0 1 0
5980 1 7.2534073887272665e+00 2.1990270691083893e+00 2.1921214639505532e+01 0 1 1
5192 1 3.3783510501119500e+00 1.0376076530762596e+01 2.0972883932611925e+01 1 1 0
1385 1 3.4804166426150260e+00 4.0079326517171809e+00 2.0905449305717404e+01 0 0 1
6250 1 3.9292667397270939e+00 5.4263700266773185e-02 2.3848764327508807e+01 0 1 1
3588 1 6.5317962887324374e-02 1.4839981845168124e+01 2.0926882890721114e+01 1 0 0
5064 1 7.6184230950600940e-01 7.3695533624388494e+00 2.0919869111860855e+01 0 0 0
555 2 0.0000000000000000e+00 1.4208590124756650e+00 3.0030999999998336e+01 0 0 0
557 2 0.0000000000000000e+00 0.0000000000000000e+00 3.0030999999998336e+01 0 0 0
566 2 1.2305000000000001e+00 2.1312885187134998e+00 3.0030999999998336e+01 0 0 0
568 2 2.4610000000000003e+00 1.4208590124756650e+00 3.0030999999998336e+01 0 0 0
570 2 2.4610000000000003e+00 0.0000000000000000e+00 3.0030999999998336e+01 0 0 0
587 2 3.6914999999999996e+00 2.1312885187134998e+00 3.0030999999998336e+01 0 0 0
564 2 1.2305000000000001e+00 3.5521475311891644e+00 3.0030999999998336e+01 0 0 0
585 2 3.6914999999999996e+00 3.5521475311891644e+00 3.0030999999998336e+01 0 0 0
883 2 0.0000000000000000e+00 2.8417180249513345e+00 3.3193413597434784e+01 0 0 0
884 2 0.0000000000000000e+00 0.0000000000000000e+00 3.3193413597434784e+01 0 0 0
885 2 1.2305000000000001e+00 7.1042950623783474e-01 3.3193413597434784e+01 0 0 0
889 2 1.2305000000000001e+00 2.1312885187134998e+00 3.3193413597434784e+01 0 0 0
890 2 2.4610000000000003e+00 2.8417180249513345e+00 3.3193413597434784e+01 0 0 0
891 2 2.4610000000000003e+00 0.0000000000000000e+00 3.3193413597434784e+01 0 0 0
892 2 3.6915000000000004e+00 7.1042950623783474e-01 3.3193413597434784e+01 0 0 0
900 2 3.6914999999999996e+00 2.1312885187134998e+00 3.3193413597434784e+01 0 0 0
589 2 4.9220000000000006e+00 1.4208590124756650e+00 3.0030999999998336e+01 0 0 0
591 2 4.9220000000000006e+00 0.0000000000000000e+00 3.0030999999998336e+01 0 0 0
616 2 6.1524999999999999e+00 2.1312885187134989e+00 3.0030999999998336e+01 0 0 0
618 2 7.3829999999999991e+00 1.4208590124756659e+00 3.0030999999998336e+01 0 0 0
620 2 7.3829999999999991e+00 0.0000000000000000e+00 3.0030999999998336e+01 0 0 0
653 2 8.6134999999999984e+00 2.1312885187135002e+00 3.0030999999998336e+01 0 0 0
614 2 6.1524999999999999e+00 3.5521475311891644e+00 3.0030999999998336e+01 0 0 0
651 2 8.6134999999999984e+00 3.5521475311891657e+00 3.0030999999998336e+01 0 0 0
901 2 4.9220000000000006e+00 2.8417180249513332e+00 3.3193413597434784e+01 0 0 0
902 2 4.9220000000000006e+00 0.0000000000000000e+00 3.3193413597434784e+01 0 0 0
903 2 6.1524999999999999e+00 7.1042950623783407e-01 3.3193413597434784e+01 0 0 0
915 2 6.1524999999999999e+00 2.1312885187134989e+00 3.3193413597434784e+01 0 0 0
916 2 7.3829999999999991e+00 2.8417180249513345e+00 3.3193413597434784e+01 0 0 0
917 2 7.3829999999999991e+00 0.0000000000000000e+00 3.3193413597434784e+01 0 0 0
918 2 8.6134999999999984e+00 7.1042950623783407e-01 3.3193413597434784e+01 0 0 0
934 2 8.6134999999999984e+00 2.1312885187135002e+00 3.3193413597434784e+01 0 0 0
560 2 0.0000000000000000e+00 5.6834360499026637e+00 3.0030999999998336e+01 0 0 0
562 2 0.0000000000000000e+00 4.2625770374269996e+00 3.0030999999998336e+01 0 0 0
579 2 1.2305000000000001e+00 6.3938655561404980e+00 3.0030999999998336e+01 0 0 0
581 2 2.4610000000000003e+00 5.6834360499026637e+00 3.0030999999998336e+01 0 0 0
583 2 2.4610000000000003e+00 4.2625770374269996e+00 3.0030999999998336e+01 0 0 0
608 2 3.6914999999999996e+00 6.3938655561404980e+00 3.0030999999998336e+01 0 0 0
577 2 1.2305000000000001e+00 7.8147245686161639e+00 3.0030999999998336e+01 0 0 0
606 2 3.6914999999999996e+00 7.8147245686161639e+00 3.0030999999998336e+01 0 0 0
887 2 0.0000000000000000e+00 4.2625770374269996e+00 3.3193413597434784e+01 0 0 0
888 2 1.2305000000000001e+00 4.9730065436648339e+00 3.3193413597434784e+01 0 0 0
896 2 1.2305000000000001e+00 6.3938655561404980e+00 3.3193413597434784e+01 0 0 0
898 2 2.4610000000000003e+00 4.2625770374269996e+00 3.3193413597434784e+01 0 0 0
899 2 3.6914999999999996e+00 4.9730065436648339e+00 3.3193413597434784e+01 0 0 0
911 2 3.6914999999999996e+00 6.3938655561404980e+00 3.3193413597434784e+01 0 0 0
886 2 0.0000000000000000e+00 7.1042950623783341e+00 3.3193413597434784e+01 0 0 0
897 2 2.4610000000000003e+00 7.1042950623783341e+00 3.3193413597434784e+01 0 0 0
610 2 4.9220000000000006e+00 5.6834360499026637e+00 3.0030999999998336e+01 0 0 0
612 2 4.9220000000000006e+00 4.2625770374269978e+00 3.0030999999998336e+01 0 0 0
645 2 6.1524999999999999e+00 6.3938655561404980e+00 3.0030999999998336e+01 0 0 0
647 2 7.3829999999999991e+00 5.6834360499026637e+00 3.0030999999998336e+01 0 0 0
649 2 7.3829999999999991e+00 4.2625770374269996e+00 3.0030999999998336e+01 0 0 0
690 2 8.6135000000000002e+00 6.3938655561404980e+00 3.0030999999998336e+01 0 0 0
643 2 6.1524999999999999e+00 7.8147245686161639e+00 3.0030999999998336e+01 0 0 0
688 2 8.6135000000000002e+00 7.8147245686161639e+00 3.0030999999998336e+01 0 0 0
913 2 4.9220000000000006e+00 4.2625770374269978e+00 3.3193413597434784e+01 0 0 0
914 2 6.1524999999999999e+00 4.9730065436648339e+00 3.3193413597434784e+01 0 0 0
930 2 6.1524999999999999e+00 6.3938655561404980e+00 3.3193413597434784e+01 0 0 0
932 2 7.3829999999999991e+00 4.2625770374269996e+00 3.3193413597434784e+01 0 0 0
933 2 8.6135000000000002e+00 4.9730065436648339e+00 3.3193413597434784e+01 0 0 0
953 2 8.6135000000000002e+00 6.3938655561404980e+00 3.3193413597434784e+01 0 0 0
912 2 4.9220000000000006e+00 7.1042950623783341e+00 3.3193413597434784e+01 0 0 0
931 2 7.3830000000000009e+00 7.1042950623783341e+00 3.3193413597434784e+01 0 0 0
573 2 0.0000000000000000e+00 9.9460130873296642e+00 3.0030999999998336e+01 0 0 0
575 2 0.0000000000000000e+00 8.5251540748539991e+00 3.0030999999998336e+01 0 0 0
602 2 2.4610000000000003e+00 9.9460130873296642e+00 3.0030999999998336e+01 0 0 0
604 2 2.4610000000000003e+00 8.5251540748539991e+00 3.0030999999998336e+01 0 0 0
598 2 1.2305000000000001e+00 1.2077301606043163e+01 3.0030999999998336e+01 0 0 0
600 2 1.2305000000000001e+00 1.0656442593567498e+01 3.0030999999998336e+01 0 0 0
635 2 3.6914999999999996e+00 1.2077301606043163e+01 3.0030999999998336e+01 0 0 0
637 2 3.6914999999999996e+00 1.0656442593567499e+01 3.0030999999998336e+01 0 0 0
894 2 0.0000000000000000e+00 8.5251540748539991e+00 3.3193413597434784e+01 0 0 0
895 2 1.2305000000000001e+00 9.2355835810918343e+00 3.3193413597434784e+01 0 0 0
909 2 2.4610000000000003e+00 8.5251540748539991e+00 3.3193413597434784e+01 0 0 0
910 2 3.6915000000000004e+00 9.2355835810918343e+00 3.3193413597434784e+01 0 0 0
893 2 0.0000000000000000e+00 1.1366872099805333e+01 3.3193413597434784e+01 0 0 0
907 2 1.2305000000000001e+00 1.0656442593567498e+01 3.3193413597434784e+01 0 0 0
908 2 2.4610000000000003e+00 1.1366872099805333e+01 3.3193413597434784e+01 0 0 0
926 2 3.6914999999999996e+00 1.0656442593567499e+01 3.3193413597434784e+01 0 0 0
639 2 4.9220000000000006e+00 9.9460130873296642e+00 3.0030999999998336e+01 0 0 0
641 2 4.9220000000000006e+00 8.5251540748539991e+00 3.0030999999998336e+01 0 0 0
684 2 7.3830000000000009e+00 9.9460130873296642e+00 3.0030999999998336e+01 0 0 0
686 2 7.3830000000000009e+00 8.5251540748539991e+00 3.0030999999998336e+01 0 0 0
680 2 6.1524999999999999e+00 1.2077301606043163e+01 3.0030999999998336e+01 0 0 0
682 2 6.1524999999999999e+00 1.0656442593567499e+01 3.0030999999998336e+01 0 0 0
727 2 8.6135000000000002e+00 1.2077301606043163e+01 3.0030999999998336e+01 0 0 0
729 2 8.6134999999999984e+00 1.0656442593567498e+01 3.0030999999998336e+01 0 0 0
928 2 4.9220000000000006e+00 8.5251540748539991e+00 3.3193413597434784e+01 0 0 0
929 2 6.1524999999999999e+00 9.2355835810918343e+00 3.3193413597434784e+01 0 0 0
951 2 7.3830000000000009e+00 8.5251540748539991e+00 3.3193413597434784e+01 0 0 0
952 2 8.6134999999999984e+00 9.2355835810918343e+00 3.3193413597434784e+01 0 0 0
927 2 4.9220000000000006e+00 1.1366872099805333e+01 3.3193413597434784e+01 0 0 0
949 2 6.1524999999999999e+00 1.0656442593567499e+01 3.3193413597434784e+01 0 0 0
950 2 7.3829999999999991e+00 1.1366872099805333e+01 3.3193413597434784e+01 0 0 0
973 2 8.6134999999999984e+00 1.0656442593567498e+01 3.3193413597434784e+01 0 0 0
596 2 0.0000000000000000e+00 1.2787731112280996e+01 3.0030999999998336e+01 0 0 0
633 2 2.4610000000000003e+00 1.2787731112280996e+01 3.0030999999998336e+01 0 0 0
594 2 0.0000000000000000e+00 1.4208590124756663e+01 3.0030999999998336e+01 0 0 0
629 2 1.2305000000000001e+00 1.4919019630994494e+01 3.0030999999998336e+01 0 0 0
631 2 2.4610000000000003e+00 1.4208590124756663e+01 3.0030999999998336e+01 0 0 0
674 2 3.6915000000000004e+00 1.4919019630994494e+01 3.0030999999998336e+01 0 0 0
905 2 0.0000000000000000e+00 1.2787731112280996e+01 3.3193413597434784e+01 0 0 0
906 2 1.2305000000000001e+00 1.3498160618518829e+01 3.3193413597434784e+01 0 0 0
924 2 2.4610000000000003e+00 1.2787731112280996e+01 3.3193413597434784e+01 0 0 0
925 2 3.6915000000000004e+00 1.3498160618518829e+01 3.3193413597434784e+01 0 0 0
904 2 0.0000000000000000e+00 1.5629449137232333e+01 3.3193413597434784e+01 0 0 0
922 2 1.2305000000000001e+00 1.4919019630994494e+01 3.3193413597434784e+01 0 0 0
923 2 2.4610000000000003e+00 1.5629449137232328e+01 3.3193413597434784e+01 0 0 0
945 2 3.6915000000000004e+00 1.4919019630994494e+01 3.3193413597434784e+01 0 0 0
678 2 4.9220000000000006e+00 1.2787731112280996e+01 3.0030999999998336e+01 0 0 0
725 2 7.3829999999999991e+00 1.2787731112280996e+01 3.0030999999998336e+01 0 0 0
676 2 4.9220000000000006e+00 1.4208590124756663e+01 3.0030999999998336e+01 0 0 0
721 2 6.1524999999999990e+00 1.4919019630994494e+01 3.0030999999998336e+01 0 0 0
723 2 7.3830000000000009e+00 1.4208590124756663e+01 3.0030999999998336e+01 0 0 0
768 2 8.6135000000000002e+00 1.4919019630994494e+01 3.0030999999998336e+01 0 0 0
947 2 4.9220000000000006e+00 1.2787731112280996e+01 3.3193413597434784e+01 0 0 0
948 2 6.1524999999999990e+00 1.3498160618518829e+01 3.3193413597434784e+01 0 0 0
971 2 7.3829999999999991e+00 1.2787731112280996e+01 3.3193413597434784e+01 0 0 0
972 2 8.6135000000000002e+00 1.3498160618518835e+01 3.3193413597434784e+01 0 0 0
946 2 4.9220000000000006e+00 1.5629449137232333e+01 3.3193413597434784e+01 0 0 0
969 2 6.1524999999999990e+00 1.4919019630994494e+01 3.3193413597434784e+01 0 0 0
970 2 7.3829999999999991e+00 1.5629449137232333e+01 3.3193413597434784e+01 0 0 0
993 2 8.6135000000000002e+00 1.4919019630994494e+01 3.3193413597434784e+01 0 0 0
4592 1 1.8648597162708549e+00 2.6617582863801710e+00 3.5760786081822765e+01 1 1 0
4537 1 2.8564448225973411e+00 2.0627195619082048e+00 3.8711677183326145e+01 1 0 -1
54 1 4.7125209043150198e+00 2.9719488760426986e+00 3.6542042864738470e+01 0 1 -1
3400 1 4.2625138903629018e+00 1.2533876819945682e+01 3.8472258606437315e+01 1 2 -1
1391 1 3.2116220821281853e+00 1.6268280304831993e+01 3.5366650338522831e+01 0 0 0
3720 1 3.1776917682945087e+00 8.8216587577438297e+00 3.6240684799066109e+01 1 0 0
4936 1 5.8242057442899675e+00 5.5214965493489014e+00 3.5752874626193986e+01 1 1 -1
1727 1 5.8135546972329752e+00 1.2150781667499267e+01 3.5950308985367577e+01 0 1 0
4499 1 9.0956327565192829e+00 4.1902073173950702e+00 3.8283992833968398e+01 0 1 0
4844 1 8.8569247027058520e+00 6.1948456557180736e+00 3.5717394641416604e+01 0 1 -1
1593 1 3.0049684265303842e+00 1.1377497295822801e+01 3.5600624895843303e+01 -1 0 0
454 1 5.8542635633387219e+00 8.0697027826330956e+00 3.6159842795238959e+01 0 0 0
1325 1 8.5674882650354895e+00 1.2269418890316556e+01 3.6445225052096710e+01 0 1 -1
1290 1 2.7429456090815743e+00 1.4811930413960722e+01 3.8034941387514060e+01 0 1 0
4459 1 8.3157569419563711e+00 9.4938157417335880e+00 3.5803326665122171e+01 1 0 0
4545 1 9.6987781140172249e+00 8.4962543524381340e-01 3.5795012359141786e+01 0 0 0
4583 1 6.5822896842653931e+00 9.1225833163761560e-01 3.6182421262609907e+01 0 1 0
1474 1 5.4773766367256300e+00 1.4816009822158035e+01 3.6059070610339084e+01 1 1 0
1775 1 1.5135928813976318e+00 8.8144920387259109e+00 3.8956007757019968e+01 0 1 -1
3715 1 2.7491948132229821e-01 4.9533122979207356e+00 3.6248132621420268e+01 1 1 0
1373 1 9.4015573205452831e+00 1.1664402041942559e+00 3.8579195813087132e+01 0 1 0
2839 1 6.2081210876265203e-01 1.5394330739616382e+01 3.5538139057441981e+01 0 0 -1
3081 1 3.8312129298420050e-01 1.2459734978138640e+01 3.5695981502501937e+01 0 0 -1
4873 1 8.1556152723486208e-01 7.4304475759644486e+00 3.5440464897564148e+01 1 0 -1
3029 1 8.2812257354035657e-01 1.2233180502426883e+01 3.8581748045219783e+01 2 0 0
3358 1 6.2534594963412333e+00 8.6967572284046799e+00 3.8958952232257559e+01 1 -1 -1
2892 1 6.4612519767362580e+00 3.8026194421375319e+00 3.9065255940389520e+01 0 0 0
187 1 1.6618489943511787e+00 3.9948963615775126e+00 4.3128388280031594e+01 1 2 -1
2114 1 3.7079534394681257e+00 2.3995315538394584e+00 4.4306161064148156e+01 0 1 0
4688 1 8.1379684524448557e+00 1.1476029933068085e+01 4.4315814827484935e+01 0 2 -1
3139 1 7.8709645978455987e+00 2.5367029558140115e+00 4.3208872403491405e+01 1 1 0
6255 1 7.3638829709863787e+00 1.4538291464867696e+00 4.0688717271404251e+01 0 0 -1
3020 1 2.7618413325332360e+00 7.2625042882031527e+00 4.3157628762814717e+01 0 1 0
6219 1 9.0638320453228971e-01 1.4536763083560279e+01 4.4917487815894461e+01 1 2 -1
6194 1 3.4513548667502083e+00 3.9895760996711411e+00 4.0642333032584347e+01 0 0 0
5271 1 3.7899935827975164e+00 7.2824440200901591e-02 4.2834861750989724e+01 0 1 0
6160 1 5.7845761710907961e+00 5.8802562644257650e+00 4.1077097516517391e+01 1 0 -1
6297 1 8.4874304948981312e+00 5.1321708158088617e+00 4.2193776719779827e+01 1 0 0
6313 1 8.5545759409514943e+00 1.2438211154182202e+01 3.9198395957674627e+01 -1 0 0
3485 1 4.8865409066726633e+00 8.7673953410232190e+00 4.1491577705728695e+01 0 0 -1
483 1 3.3700790801402709e+00 1.0519498414870137e+01 4.0231665184261630e+01 1 1 0
4597 1 9.4481243310023029e+00 1.9931884109598672e+00 4.7803854833566909e+01 -1 1 -1
126 1 4.1818248842480416e-01 8.7840120851721419e+00 4.3631743948193758e+01 1 0 -1
3146 1 8.7693542566461478e+00 9.7223162662731859e+00 3.9984776247243857e+01 0 0 0
1764 1 8.1583788834187789e+00 1.5440812511342784e+01 4.5989735082202394e+01 0 0 0
365 1 5.4682780956167596e+00 1.0431342070504364e+01 4.3876159139602656e+01 0 0 -1
6173 1 2.0406104681511370e+00 6.2867967505473619e+00 4.0678505076439734e+01 1 1 0
1939 1 3.5294055099036261e+00 1.2334169024669315e+01 4.2614640716064727e+01 0 1 -1
2010 1 3.2731525164780311e+00 1.6198584334315701e+01 4.4397339718653043e+01 0 0 -1
1588 1 2.1624643692646120e-02 1.5982030875626664e+01 4.0681342095647672e+01 0 1 -1
4487 1 6.4324677003752697e+00 1.4158915786257696e+01 3.9834309466647497e+01 1 0 0
86 1 4.4448152371876475e+00 1.4894411881717680e+01 4.2294892435409750e+01 1 0 -1
2997 1 2.1503650611797513e+00 1.7194139499444603e+00 4.6422642564613696e+01 0 1 0