LAMMPS data file via write_data, version 16 Mar 2018, timestep = 6000000

6337 atoms
2 atom types

0.0000000000000000e+00 4.9219999999999999e+01 xlo xhi
0.0000000000000000e+00 4.9019635930410494e+01 ylo yhi
1.3876092507437008e+00 5.8674390749254087e+01 zlo zhi

Masses

1 18.015
2 12.01

Atoms # atomic

3385 1 2.5561497770928487e+00 2.7164910887336609e+00 3.2060890318944910e+00 3 -1 0
2822 1 4.3348177614565273e+00 4.3510755955367147e-01 4.2139883513152956e+00 0 2 1
3203 1 4.0209665218431440e-01 1.1665307830390500e+01 1.0505773549920665e+01 0 0 0
1468 1 6.6372126906451800e+00 1.7735675422034554e+00 3.6644099646499355e+00 3 1 0
412 1 4.6352667107538013e+00 1.1436207374615398e+01 1.0796880020054143e+01 0 -2 0
243 1 2.3341290634083105e+00 5.1403692555631020e+00 4.0848306593685084e+00 -2 0 0
2025 1 4.6456067046879026e+00 6.2489392103380741e+00 3.6924679743625552e+00 -2 -2 0
1274 1 2.8239577733406329e+00 1.5776137263455473e+01 1.0289363814791637e+01 1 -1 1
4577 1 6.6128815638151339e+00 4.6165468768823210e+00 4.7372032035040679e+00 1 -1 1
1494 1 9.0233161702340183e+00 6.0536950115126169e+00 4.1390030353996679e+00 0 -1 1
4955 1 2.8567397520012130e+00 1.0816345100726583e+01 3.0890674679418968e+00 -2 -1 0
4778 1 4.7052029992522861e+00 9.0966419412575270e+00 4.0186106352779092e+00 1 0 1
523 1 7.3544452169471226e+00 1.2892787212214634e+01 7.1570327071621813e+00 0 0 1
3018 1 9.0749135418290070e+00 8.9131405455941497e+00 4.7836289774370435e+00 1 2 1
1343 1 7.1136432690675209e+00 1.0164596051998743e+01 3.1153014505384240e+00 2 3 1
3732 1 3.0275977702155448e+00 1.3575123324811189e+01 3.9248284402739957e+00 1 1 1
4963 1 1.0172020099971921e+00 1.5026617134401540e+01 3.0537600746834794e+00 1 -1 0
1709 1 7.1350772318371636e+00 1.2706893081165189e+01 4.2733605850925391e+00 -1 -1 0
5085 1 5.4278529993288798e+00 1.4696510778595931e+01 3.6388391860278397e+00 0 1 1
5032 1 2.9265367991737739e+00 1.5564271688914230e+01 7.6364818854969068e+00 1 0 0
1446 1 4.3074458450115456e+00 3.4078826018320107e+00 7.7418193031435774e+00 -1 -3 1
3288 1 3.9533999271188587e+00 7.5251676012445834e-01 6.9554754083237267e+00 0 3 0
4730 1 9.6876405354039967e+00 1.4013079601457704e+01 3.9100705124161239e+00 -1 -1 1
3240 1 7.6047166559461798e+00 1.5359986779264773e+01 8.2223064726944806e+00 -1 0 1
1840 1 6.4976844839351344e-01 9.2690383796515849e+00 3.5412021962849241e+00 2 3 1
3653 1 8.7556882759737640e+00 3.3849712973076911e+00 8.2628553129906237e+00 3 1 0
1611 1 2.0834860016248844e+00 7.6587179191822363e+00 1.0184369770674982e+01 0 1 1
1953 1 2.2274179679778920e+00 5.0810217203455741e+00 6.6887715228273148e+00 0 2 0
4603 1 2.3408791618227305e+00 7.8136536484714112e+00 7.3524694548830185e+00 3 2 1
205 1 6.6495861091119162e+00 4.8520851498705522e+00 7.3762604910949152e+00 -1 1 0
1266 1 6.4595076214005713e+00 7.8453945766696380e+00 8.2730599241189253e+00 1 1 0
3234 1 2.8912827495003071e+00 1.3092345888952389e+01 6.7328761490842242e+00 1 0 1
248 1 4.5272913749617878e+00 9.0332273186356442e+00 6.7347188313307251e+00 2 1 0
5127 1 4.8557151080901564e+00 1.1620528720195681e+01 7.9442872632001649e+00 -1 1 0
4508 1 8.8341669382571393e+00 5.0417993274436912e-01 4.5330054572728748e+00 -2 0 1
257 1 5.8847612778831204e-01 1.1746704379800526e+01 7.5210868718720363e+00 0 2 0
4547 1 9.0637841812726254e+00 1.1104968029294968e+01 8.7659389891456829e+00 0 1 1
3000 1 8.8697607199473580e+00 8.6934895380614314e+00 7.4633207827658952e+00 1 0 1
1793 1 3.8510198791348600e+00 3.3819944108196922e+00 1.0453614556363437e+01 1 -1 0
447 1 1.1108201331001229e-01 9.3059281167890511e+00 6.2218514324408618e+00 2 2 0
5125 1 1.5025332080691342e-01 6.5195425324764411e+00 3.0361463417284442e+00 -1 -4 0
1639 1 8.5410845084152385e+00 7.3716261962259733e-01 7.2729438814979099e+00 4 2 0
263 1 8.3172857294362572e+00 2.7737864771943190e+00 1.0861456517829565e+01 1 0 0
1832 1 9.0577590490765196e+00 6.1854744279260432e+00 1.4523753770074208e+00 1 0 0
3464 1 1.1998631906170876e+00 2.1398910318397042e+00 1.4124924316515340e+01 1 2 1
1633 1 6.3161424112784674e+00 7.1459708542227292e+00 1.0993478570149351e+01 2 -3 0
3085 1 3.5245625006649797e+00 4.1843191372645572e-01 1.4840844624842582e+01 0 3 0
1872 1 5.5390246619478614e+00 2.3191780889080431e+00 1.4245156013350043e+01 -1 -1 1
1937 1 5.6995305406845977e+00 1.7705055432795886e+00 1.1648622233941767e+01 1 0 0
3447 1 4.9059998057481877e+00 1.3844750260746491e+01 1.7638647972461737e+01 -2 -2 0
4691 1 3.7936130604725524e+00 5.7771248786188156e+00 1.1656799911957165e+01 1 0 0
1241 1 2.0018775186825528e+00 4.9371407679150741e+00 1.4853848356961478e+01 2 1 1
5321 1 4.6785119310486127e+00 4.9304761968123350e+00 1.4585716643116392e+01 1 0 1
3659 1 8.4912565820448318e+00 5.2558286862916015e+00 1.1851491929430511e+01 -1 0 0
82 1 8.3599277431534791e+00 5.3203193156816786e+00 1.4761807537696418e+01 -1 -2 1
2878 1 2.2679460243405983e-01 1.4455161602227335e+01 1.7849240271047474e+01 0 0 1
1662 1 6.3219332949636282e+00 1.3222281451806413e+01 1.5477421624594697e+01 1 0 0
1774 1 2.4255199199400947e+00 1.0088281139975919e+01 1.4331522890391149e+01 -2 0 0
333 1 4.7175239242249765e+00 9.3303189360211931e+00 1.6124721571954193e+01 0 -2 0
219 1 9.0334151428827738e+00 1.0949467263683278e+01 1.1530177320500226e+01 -1 4 0
2919 1 6.5098222579677731e+00 9.8718726823561145e+00 1.2277817132324280e+01 2 -1 1
1986 1 6.7905894273896292e+00 1.0684796029687627e+01 1.5080963699958582e+01 3 1 0
6328 1 4.6492839626339899e+00 1.4024914086959804e+01 1.1221315733464316e+01 1 1 0
397 1 1.9625388994459252e+00 1.2760671931624511e+01 1.4445038706408042e+01 2 -2 0
1261 1 4.4544894770156080e+00 1.4163103756109750e+01 1.3940263439281580e+01 -1 2 1
4637 1 1.3192903787553856e+00 2.5310412806394225e+00 1.1521851179488991e+01 3 0 1
259 1 9.0747676916108730e+00 1.3693448033448627e+01 1.2503852439789274e+01 2 1 1
1447 1 8.6113483104215724e+00 1.4418629614141786e+01 1.4912806098120647e+01 1 -2 1
5204 1 2.4021825072434502e+00 1.2847307930201904e+01 1.7211622479953512e+01 -2 0 0
1312 1 3.5657758743315560e+00 7.6236484134492832e-01 1.7832130200196552e+01 2 1 1
3592 1 1.1814204065225389e+00 2.2244952163938918e+00 1.8233039915216569e+01 1 0 0
1711 1 3.0615718485979393e+00 1.0210448957278636e+01 2.0402741123880165e+01 -2 0 0
3150 1 8.0691559160445792e+00 2.8322667452381065e+00 1.5745345586361381e+01 3 -3 0
1717 1 5.3479419919737587e+00 1.3671859045754087e+00 1.9934816274150609e+01 1 -3 1
2938 1 7.5794699804616670e+00 2.9850814931260365e+00 1.8612380742920603e+01 3 3 0
3001 1 3.5426538010627460e+00 5.5705898497486253e+00 1.9872125973728782e+01 0 1 0
5092 1 1.5970716787867272e+00 5.0247845618652844e+00 1.7654841843272134e+01 1 -1 0
13 1 6.2360072959430202e+00 6.6901013150040045e+00 1.6307883623118350e+01 0 1 1
4833 1 6.0001894081095424e+00 5.1030324401982758e+00 1.8702881302284027e+01 2 1 0
2142 1 2.5129971252704970e+00 1.0130586076562521e+01 1.7761739141940360e+01 -1 -2 1
3014 1 3.4331111704486855e-01 1.4609624366727324e+01 1.3481192006926072e+01 0 3 1
6211 1 7.6774289009658192e+00 9.5490318814011950e+00 1.9560394379122464e+01 -1 4 1
1745 1 8.1444357558950244e+00 8.9740305337525861e+00 1.6797501678233999e+01 -1 2 0
4607 1 2.5381073702627197e+00 9.9876330140425473e+00 1.1448403476513523e+01 1 0 1
1989 1 7.6229272087565283e+00 6.5960082891206264e+00 2.0398125439618806e+01 1 2 0
3690 1 9.7651266453724439e+00 3.2794785809463178e+00 2.0181596707868781e+01 -2 1 0
4557 1 7.1324346437278647e+00 1.5018404439927613e+01 1.0991970030473377e+01 -1 4 1
4484 1 5.1145739511277488e-01 1.4522976271836827e+01 1.0996268599495444e+01 0 2 1
1990 1 1.9063317768441983e+00 2.3465552621622789e+00 2.4062711328051595e+01 -2 0 1
4584 1 4.5196791136840959e+00 3.6841514643516735e+00 2.4002063190503328e+01 2 1 1
3322 1 5.4686385741936556e+00 1.3749187550442281e+01 2.0741475366037566e+01 0 0 1
1310 1 1.5236393566171171e+00 2.0926435350107018e+00 2.0912226004525845e+01 0 -1 1
6261 1 6.9610454715919525e+00 2.3634421244553483e+00 2.3887378987598744e+01 -1 1 0
3498 1 9.3401155640735531e+00 3.1803093058130760e+00 2.2860439648812768e+01 4 2 0
266 1 2.4479583268403156e+00 7.7179953159266317e+00 2.4255264863045372e+01 1 -2 0
3191 1 2.6122024101392300e+00 7.6295672895286817e+00 2.1349098271182800e+01 2 -1 1
4559 1 4.9138719676471059e+00 6.1688120362872203e+00 2.4224739539162321e+01 -3 1 0
4438 1 7.6905050226227072e+00 6.9918830312578866e+00 2.3507725039857963e+01 1 -1 0
726 2 8.6135000000000002e+00 1.3498160618518835e+01 2.6732031202734653e+01 0 0 0
679 2 6.1524999999999990e+00 1.3498160618518829e+01 2.6732031202734653e+01 0 0 0
2006 1 5.5413791961719583e-01 1.1899864216007851e+01 2.3740707198701042e+01 2 -2 0
106 1 3.0369548823682733e+00 1.0455152623812541e+01 2.4347135148454221e+01 -4 0 0
5217 1 6.1498495216190974e-01 1.1378913428093568e+01 2.0911801369298029e+01 1 -2 0
1834 1 5.7062893570809674e+00 1.1332351872397346e+01 2.4165036196402411e+01 -1 -1 0
5035 1 7.7364355268389140e+00 9.6539866736929554e+00 2.3994345284999770e+01 -2 0 0
2880 1 4.0679138298236319e+00 3.2031109012699734e+00 2.1334337653954766e+01 3 2 1
767 2 8.6135000000000002e+00 1.4919019630994494e+01 2.6732031202734653e+01 0 0 0
264 1 3.3367935881966480e+00 1.5556349603284488e+01 2.3982039961439309e+01 0 3 0
2904 1 3.1891989109418111e+00 1.5444253245653254e+01 2.1210441812266495e+01 0 2 1
2972 1 8.4377489853343668e-01 1.4616843401050316e+01 2.3735706700584927e+01 1 -1 1
486 1 8.2162182902104810e+00 1.4414429010241717e+01 2.1124899819352684e+01 2 -1 1
1577 1 5.9804195176159949e+00 1.4222701779535674e+01 2.4080629581457735e+01 -2 1 0
3130 1 8.6749543994540126e+00 1.4873738364426853e+01 2.3922595288877666e+01 0 0 1
554 2 0.0000000000000000e+00 2.8417180249513345e+00 2.6732031202734653e+01 0 0 0
556 2 0.0000000000000000e+00 0.0000000000000000e+00 2.6732031202734653e+01 0 0 0
558 2 1.2305000000000001e+00 7.1042950623783474e-01 2.6732031202734653e+01 0 0 0
565 2 1.2305000000000001e+00 2.1312885187134998e+00 2.6732031202734653e+01 0 0 0
567 2 2.4610000000000003e+00 2.8417180249513345e+00 2.6732031202734653e+01 0 0 0
569 2 2.4610000000000003e+00 0.0000000000000000e+00 2.6732031202734653e+01 0 0 0
571 2 3.6915000000000004e+00 7.1042950623783474e-01 2.6732031202734653e+01 0 0 0
586 2 3.6914999999999996e+00 2.1312885187134998e+00 2.6732031202734653e+01 0 0 0
588 2 4.9220000000000006e+00 2.8417180249513332e+00 2.6732031202734653e+01 0 0 0
590 2 4.9220000000000006e+00 0.0000000000000000e+00 2.6732031202734653e+01 0 0 0
592 2 6.1524999999999999e+00 7.1042950623783407e-01 2.6732031202734653e+01 0 0 0
615 2 6.1524999999999999e+00 2.1312885187134989e+00 2.6732031202734653e+01 0 0 0
617 2 7.3829999999999991e+00 2.8417180249513345e+00 2.6732031202734653e+01 0 0 0
619 2 7.3829999999999991e+00 0.0000000000000000e+00 2.6732031202734653e+01 0 0 0
621 2 8.6134999999999984e+00 7.1042950623783407e-01 2.6732031202734653e+01 0 0 0
652 2 8.6134999999999984e+00 2.1312885187135002e+00 2.6732031202734653e+01 0 0 0
561 2 0.0000000000000000e+00 4.2625770374269996e+00 2.6732031202734653e+01 0 0 0
563 2 1.2305000000000001e+00 4.9730065436648339e+00 2.6732031202734653e+01 0 0 0
578 2 1.2305000000000001e+00 6.3938655561404980e+00 2.6732031202734653e+01 0 0 0
582 2 2.4610000000000003e+00 4.2625770374269996e+00 2.6732031202734653e+01 0 0 0
584 2 3.6914999999999996e+00 4.9730065436648339e+00 2.6732031202734653e+01 0 0 0
607 2 3.6914999999999996e+00 6.3938655561404980e+00 2.6732031202734653e+01 0 0 0
559 2 0.0000000000000000e+00 7.1042950623783341e+00 2.6732031202734653e+01 0 0 0
580 2 2.4610000000000003e+00 7.1042950623783341e+00 2.6732031202734653e+01 0 0 0
611 2 4.9220000000000006e+00 4.2625770374269978e+00 2.6732031202734653e+01 0 0 0
613 2 6.1524999999999999e+00 4.9730065436648339e+00 2.6732031202734653e+01 0 0 0
644 2 6.1524999999999999e+00 6.3938655561404980e+00 2.6732031202734653e+01 0 0 0
648 2 7.3829999999999991e+00 4.2625770374269996e+00 2.6732031202734653e+01 0 0 0
650 2 8.6135000000000002e+00 4.9730065436648339e+00 2.6732031202734653e+01 0 0 0
689 2 8.6135000000000002e+00 6.3938655561404980e+00 2.6732031202734653e+01 0 0 0
609 2 4.9220000000000006e+00 7.1042950623783341e+00 2.6732031202734653e+01 0 0 0
646 2 7.3830000000000009e+00 7.1042950623783341e+00 2.6732031202734653e+01 0 0 0
574 2 0.0000000000000000e+00 8.5251540748539991e+00 2.6732031202734653e+01 0 0 0
576 2 1.2305000000000001e+00 9.2355835810918343e+00 2.6732031202734653e+01 0 0 0
603 2 2.4610000000000003e+00 8.5251540748539991e+00 2.6732031202734653e+01 0 0 0
605 2 3.6915000000000004e+00 9.2355835810918343e+00 2.6732031202734653e+01 0 0 0
572 2 0.0000000000000000e+00 1.1366872099805333e+01 2.6732031202734653e+01 0 0 0
599 2 1.2305000000000001e+00 1.0656442593567498e+01 2.6732031202734653e+01 0 0 0
601 2 2.4610000000000003e+00 1.1366872099805333e+01 2.6732031202734653e+01 0 0 0
636 2 3.6914999999999996e+00 1.0656442593567499e+01 2.6732031202734653e+01 0 0 0
640 2 4.9220000000000006e+00 8.5251540748539991e+00 2.6732031202734653e+01 0 0 0
642 2 6.1524999999999999e+00 9.2355835810918343e+00 2.6732031202734653e+01 0 0 0
685 2 7.3830000000000009e+00 8.5251540748539991e+00 2.6732031202734653e+01 0 0 0
687 2 8.6134999999999984e+00 9.2355835810918343e+00 2.6732031202734653e+01 0 0 0
638 2 4.9220000000000006e+00 1.1366872099805333e+01 2.6732031202734653e+01 0 0 0
681 2 6.1524999999999999e+00 1.0656442593567499e+01 2.6732031202734653e+01 0 0 0
683 2 7.3829999999999991e+00 1.1366872099805333e+01 2.6732031202734653e+01 0 0 0
728 2 8.6134999999999984e+00 1.0656442593567498e+01 2.6732031202734653e+01 0 0 0
628 2 1.2305000000000001e+00 1.4919019630994494e+01 2.6732031202734653e+01 0 0 0
595 2 0.0000000000000000e+00 1.2787731112280996e+01 2.6732031202734653e+01 0 0 0
673 2 3.6915000000000004e+00 1.4919019630994494e+01 2.6732031202734653e+01 0 0 0
630 2 2.4610000000000003e+00 1.5629449137232328e+01 2.6732031202734653e+01 0 0 0
597 2 1.2305000000000001e+00 1.3498160618518829e+01 2.6732031202734653e+01 0 0 0
593 2 0.0000000000000000e+00 1.5629449137232333e+01 2.6732031202734653e+01 0 0 0
634 2 3.6915000000000004e+00 1.3498160618518829e+01 2.6732031202734653e+01 0 0 0
632 2 2.4610000000000003e+00 1.2787731112280996e+01 2.6732031202734653e+01 0 0 0
724 2 7.3829999999999991e+00 1.2787731112280996e+01 2.6732031202734653e+01 0 0 0
677 2 4.9220000000000006e+00 1.2787731112280996e+01 2.6732031202734653e+01 0 0 0
720 2 6.1524999999999990e+00 1.4919019630994494e+01 2.6732031202734653e+01 0 0 0
675 2 4.9220000000000006e+00 1.5629449137232333e+01 2.6732031202734653e+01 0 0 0
722 2 7.3829999999999991e+00 1.5629449137232333e+01 2.6732031202734653e+01 0 0 0
4476 1 9.7215633827424739e+00 5.4580993973766123e+00 2.4195409798273474e+01 -1 3 1
1804 1 7.0405806068405741e-01 1.4242429506413165e+01 2.0700017280177342e+01 -1 0 1
4466 1 5.4931410324849654e+00 1.0973745109552526e+01 2.1178892389233940e+01 2 0 1
555 2 0.0000000000000000e+00 1.4208590124756650e+00 3.0030999999998944e+01 0 0 0
557 2 0.0000000000000000e+00 0.0000000000000000e+00 3.0030999999998944e+01 0 0 0
566 2 1.2305000000000001e+00 2.1312885187134998e+00 3.0030999999998944e+01 0 0 0
568 2 2.4610000000000003e+00 1.4208590124756650e+00 3.0030999999998944e+01 0 0 0
570 2 2.4610000000000003e+00 0.0000000000000000e+00 3.0030999999998944e+01 0 0 0
587 2 3.6914999999999996e+00 2.1312885187134998e+00 3.0030999999998944e+01 0 0 0
564 2 1.2305000000000001e+00 3.5521475311891644e+00 3.0030999999998944e+01 0 0 0
585 2 3.6914999999999996e+00 3.5521475311891644e+00 3.0030999999998944e+01 0 0 0
883 2 0.0000000000000000e+00 2.8417180249513345e+00 3.3329968797247020e+01 0 0 0
884 2 0.0000000000000000e+00 0.0000000000000000e+00 3.3329968797247020e+01 0 0 0
885 2 1.2305000000000001e+00 7.1042950623783474e-01 3.3329968797247020e+01 0 0 0
889 2 1.2305000000000001e+00 2.1312885187134998e+00 3.3329968797247020e+01 0 0 0
890 2 2.4610000000000003e+00 2.8417180249513345e+00 3.3329968797247020e+01 0 0 0
891 2 2.4610000000000003e+00 0.0000000000000000e+00 3.3329968797247020e+01 0 0 0
892 2 3.6915000000000004e+00 7.1042950623783474e-01 3.3329968797247020e+01 0 0 0
900 2 3.6914999999999996e+00 2.1312885187134998e+00 3.3329968797247020e+01 0 0 0
589 2 4.9220000000000006e+00 1.4208590124756650e+00 3.0030999999998944e+01 0 0 0
591 2 4.9220000000000006e+00 0.0000000000000000e+00 3.0030999999998944e+01 0 0 0
616 2 6.1524999999999999e+00 2.1312885187134989e+00 3.0030999999998944e+01 0 0 0
618 2 7.3829999999999991e+00 1.4208590124756659e+00 3.0030999999998944e+01 0 0 0
620 2 7.3829999999999991e+00 0.0000000000000000e+00 3.0030999999998944e+01 0 0 0
653 2 8.6134999999999984e+00 2.1312885187135002e+00 3.0030999999998944e+01 0 0 0
614 2 6.1524999999999999e+00 3.5521475311891644e+00 3.0030999999998944e+01 0 0 0
651 2 8.6134999999999984e+00 3.5521475311891657e+00 3.0030999999998944e+01 0 0 0
901 2 4.9220000000000006e+00 2.8417180249513332e+00 3.3329968797247020e+01 0 0 0
902 2 4.9220000000000006e+00 0.0000000000000000e+00 3.3329968797247020e+01 0 0 0
903 2 6.1524999999999999e+00 7.1042950623783407e-01 3.3329968797247020e+01 0 0 0
915 2 6.1524999999999999e+00 2.1312885187134989e+00 3.3329968797247020e+01 0 0 0
916 2 7.3829999999999991e+00 2.8417180249513345e+00 3.3329968797247020e+01 0 0 0
917 2 7.3829999999999991e+00 0.0000000000000000e+00 3.3329968797247020e+01 0 0 0
918 2 8.6134999999999984e+00 7.1042950623783407e-01 3.3329968797247020e+01 0 0 0
934 2 8.6134999999999984e+00 2.1312885187135002e+00 3.3329968797247020e+01 0 0 0
560 2 0.0000000000000000e+00 5.6834360499026637e+00 3.0030999999998944e+01 0 0 0
562 2 0.0000000000000000e+00 4.2625770374269996e+00 3.0030999999998944e+01 0 0 0
579 2 1.2305000000000001e+00 6.3938655561404980e+00 3.0030999999998944e+01 0 0 0
581 2 2.4610000000000003e+00 5.6834360499026637e+00 3.0030999999998944e+01 0 0 0
583 2 2.4610000000000003e+00 4.2625770374269996e+00 3.0030999999998944e+01 0 0 0
608 2 3.6914999999999996e+00 6.3938655561404980e+00 3.0030999999998944e+01 0 0 0
577 2 1.2305000000000001e+00 7.8147245686161639e+00 3.0030999999998944e+01 0 0 0
606 2 3.6914999999999996e+00 7.8147245686161639e+00 3.0030999999998944e+01 0 0 0
887 2 0.0000000000000000e+00 4.2625770374269996e+00 3.3329968797247020e+01 0 0 0
888 2 1.2305000000000001e+00 4.9730065436648339e+00 3.3329968797247020e+01 0 0 0
896 2 1.2305000000000001e+00 6.3938655561404980e+00 3.3329968797247020e+01 0 0 0
898 2 2.4610000000000003e+00 4.2625770374269996e+00 3.3329968797247020e+01 0 0 0
899 2 3.6914999999999996e+00 4.9730065436648339e+00 3.3329968797247020e+01 0 0 0
911 2 3.6914999999999996e+00 6.3938655561404980e+00 3.3329968797247020e+01 0 0 0
886 2 0.0000000000000000e+00 7.1042950623783341e+00 3.3329968797247020e+01 0 0 0
897 2 2.4610000000000003e+00 7.1042950623783341e+00 3.3329968797247020e+01 0 0 0
610 2 4.9220000000000006e+00 5.6834360499026637e+00 3.0030999999998944e+01 0 0 0
612 2 4.9220000000000006e+00 4.2625770374269978e+00 3.0030999999998944e+01 0 0 0
645 2 6.1524999999999999e+00 6.3938655561404980e+00 3.0030999999998944e+01 0 0 0
647 2 7.3829999999999991e+00 5.6834360499026637e+00 3.0030999999998944e+01 0 0 0
649 2 7.3829999999999991e+00 4.2625770374269996e+00 3.0030999999998944e+01 0 0 0
690 2 8.6135000000000002e+00 6.3938655561404980e+00 3.0030999999998944e+01 0 0 0
643 2 6.1524999999999999e+00 7.8147245686161639e+00 3.0030999999998944e+01 0 0 0
688 2 8.6135000000000002e+00 7.8147245686161639e+00 3.0030999999998944e+01 0 0 0
913 2 4.9220000000000006e+00 4.2625770374269978e+00 3.3329968797247020e+01 0 0 0
914 2 6.1524999999999999e+00 4.9730065436648339e+00 3.3329968797247020e+01 0 0 0
930 2 6.1524999999999999e+00 6.3938655561404980e+00 3.3329968797247020e+01 0 0 0
932 2 7.3829999999999991e+00 4.2625770374269996e+00 3.3329968797247020e+01 0 0 0
933 2 8.6135000000000002e+00 4.9730065436648339e+00 3.3329968797247020e+01 0 0 0
953 2 8.6135000000000002e+00 6.3938655561404980e+00 3.3329968797247020e+01 0 0 0
912 2 4.9220000000000006e+00 7.1042950623783341e+00 3.3329968797247020e+01 0 0 0
931 2 7.3830000000000009e+00 7.1042950623783341e+00 3.3329968797247020e+01 0 0 0
573 2 0.0000000000000000e+00 9.9460130873296642e+00 3.0030999999998944e+01 0 0 0
575 2 0.0000000000000000e+00 8.5251540748539991e+00 3.0030999999998944e+01 0 0 0
602 2 2.4610000000000003e+00 9.9460130873296642e+00 3.0030999999998944e+01 0 0 0
604 2 2.4610000000000003e+00 8.5251540748539991e+00 3.0030999999998944e+01 0 0 0
598 2 1.2305000000000001e+00 1.2077301606043163e+01 3.0030999999998944e+01 0 0 0
600 2 1.2305000000000001e+00 1.0656442593567498e+01 3.0030999999998944e+01 0 0 0
635 2 3.6914999999999996e+00 1.2077301606043163e+01 3.0030999999998944e+01 0 0 0
637 2 3.6914999999999996e+00 1.0656442593567499e+01 3.0030999999998944e+01 0 0 0
894 2 0.0000000000000000e+00 8.5251540748539991e+00 3.3329968797247020e+01 0 0 0
895 2 1.2305000000000001e+00 9.2355835810918343e+00 3.3329968797247020e+01 0 0 0
909 2 2.4610000000000003e+00 8.5251540748539991e+00 3.3329968797247020e+01 0 0 0
910 2 3.6915000000000004e+00 9.2355835810918343e+00 3.3329968797247020e+01 0 0 0
893 2 0.0000000000000000e+00 1.1366872099805333e+01 3.3329968797247020e+01 0 0 0
907 2 1.2305000000000001e+00 1.0656442593567498e+01 3.3329968797247020e+01 0 0 0
908 2 2.4610000000000003e+00 1.1366872099805333e+01 3.3329968797247020e+01 0 0 0
926 2 3.6914999999999996e+00 1.0656442593567499e+01 3.3329968797247020e+01 0 0 0
639 2 4.9220000000000006e+00 9.9460130873296642e+00 3.0030999999998944e+01 0 0 0
641 2 4.9220000000000006e+00 8.5251540748539991e+00 3.0030999999998944e+01 0 0 0
684 2 7.3830000000000009e+00 9.9460130873296642e+00 3.0030999999998944e+01 0 0 0
686 2 7.3830000000000009e+00 8.5251540748539991e+00 3.0030999999998944e+01 0 0 0
680 2 6.1524999999999999e+00 1.2077301606043163e+01 3.0030999999998944e+01 0 0 0
682 2 6.1524999999999999e+00 1.0656442593567499e+01 3.0030999999998944e+01 0 0 0
727 2 8.6135000000000002e+00 1.2077301606043163e+01 3.0030999999998944e+01 0 0 0
729 2 8.6134999999999984e+00 1.0656442593567498e+01 3.0030999999998944e+01 0 0 0
928 2 4.9220000000000006e+00 8.5251540748539991e+00 3.3329968797247020e+01 0 0 0
929 2 6.1524999999999999e+00 9.2355835810918343e+00 3.3329968797247020e+01 0 0 0
951 2 7.3830000000000009e+00 8.5251540748539991e+00 3.3329968797247020e+01 0 0 0
952 2 8.6134999999999984e+00 9.2355835810918343e+00 3.3329968797247020e+01 0 0 0
927 2 4.9220000000000006e+00 1.1366872099805333e+01 3.3329968797247020e+01 0 0 0
949 2 6.1524999999999999e+00 1.0656442593567499e+01 3.3329968797247020e+01 0 0 0
950 2 7.3829999999999991e+00 1.1366872099805333e+01 3.3329968797247020e+01 0 0 0
973 2 8.6134999999999984e+00 1.0656442593567498e+01 3.3329968797247020e+01 0 0 0
596 2 0.0000000000000000e+00 1.2787731112280996e+01 3.0030999999998944e+01 0 0 0
633 2 2.4610000000000003e+00 1.2787731112280996e+01 3.0030999999998944e+01 0 0 0
594 2 0.0000000000000000e+00 1.4208590124756663e+01 3.0030999999998944e+01 0 0 0
629 2 1.2305000000000001e+00 1.4919019630994494e+01 3.0030999999998944e+01 0 0 0
631 2 2.4610000000000003e+00 1.4208590124756663e+01 3.0030999999998944e+01 0 0 0
674 2 3.6915000000000004e+00 1.4919019630994494e+01 3.0030999999998944e+01 0 0 0
905 2 0.0000000000000000e+00 1.2787731112280996e+01 3.3329968797247020e+01 0 0 0
906 2 1.2305000000000001e+00 1.3498160618518829e+01 3.3329968797247020e+01 0 0 0
924 2 2.4610000000000003e+00 1.2787731112280996e+01 3.3329968797247020e+01 0 0 0
925 2 3.6915000000000004e+00 1.3498160618518829e+01 3.3329968797247020e+01 0 0 0
904 2 0.0000000000000000e+00 1.5629449137232333e+01 3.3329968797247020e+01 0 0 0
922 2 1.2305000000000001e+00 1.4919019630994494e+01 3.3329968797247020e+01 0 0 0
923 2 2.4610000000000003e+00 1.5629449137232328e+01 3.3329968797247020e+01 0 0 0
945 2 3.6915000000000004e+00 1.4919019630994494e+01 3.3329968797247020e+01 0 0 0
678 2 4.9220000000000006e+00 1.2787731112280996e+01 3.0030999999998944e+01 0 0 0
725 2 7.3829999999999991e+00 1.2787731112280996e+01 3.0030999999998944e+01 0 0 0
676 2 4.9220000000000006e+00 1.4208590124756663e+01 3.0030999999998944e+01 0 0 0
721 2 6.1524999999999990e+00 1.4919019630994494e+01 3.0030999999998944e+01 0 0 0
723 2 7.3830000000000009e+00 1.4208590124756663e+01 3.0030999999998944e+01 0 0 0
768 2 8.6135000000000002e+00 1.4919019630994494e+01 3.0030999999998944e+01 0 0 0
947 2 4.9220000000000006e+00 1.2787731112280996e+01 3.3329968797247020e+01 0 0 0
948 2 6.1524999999999990e+00 1.3498160618518829e+01 3.3329968797247020e+01 0 0 0
971 2 7.3829999999999991e+00 1.2787731112280996e+01 3.3329968797247020e+01 0 0 0
972 2 8.6135000000000002e+00 1.3498160618518835e+01 3.3329968797247020e+01 0 0 0
946 2 4.9220000000000006e+00 1.5629449137232333e+01 3.3329968797247020e+01 0 0 0
969 2 6.1524999999999990e+00 1.4919019630994494e+01 3.3329968797247020e+01 0 0 0
970 2 7.3829999999999991e+00 1.5629449137232333e+01 3.3329968797247020e+01 0 0 0
993 2 8.6135000000000002e+00 1.4919019630994494e+01 3.3329968797247020e+01 0 0 0
4518 1 3.4577724283321571e+00 1.9604742861551823e+00 3.6425363448923164e+01 0 3 0
4859 1 9.9728142844312884e-01 9.7347730677602839e-01 3.5630044218242048e+01 -1 1 0
1786 1 2.8835235903022500e+00 1.8876240930646111e+00 3.9138154938538428e+01 0 0 -1
5237 1 7.0657973303982740e+00 1.4337862496960367e+01 3.6457744204531558e+01 3 1 -1
4641 1 8.0539700507403520e+00 1.8701538952561172e+00 3.6796104609022272e+01 -2 0 0
367 1 4.8863180378529264e-01 1.3378363641387269e+01 3.5575509790561242e+01 0 -2 -1
1236 1 5.5756803435195046e+00 6.3278905788712878e+00 3.9320034933423635e+01 2 1 -1
363 1 3.6905063528464286e+00 4.7611761695916295e+00 3.6165756581326697e+01 0 -2 -1
4980 1 1.5367625734928694e+00 6.1992313989235388e+00 3.6546370207365371e+01 -2 0 0
5153 1 1.3576890346550845e+00 6.4876998655792999e+00 3.9305699798023916e+01 2 3 -1
181 1 8.0450995869545281e+00 4.6004241614851704e+00 3.5707508235972050e+01 0 3 -1
3364 1 5.8454785368744107e+00 5.9798035775503990e+00 3.6726189322137053e+01 1 -1 0
2908 1 9.0975405173667134e+00 1.2561140085717463e+01 3.5463750015474268e+01 -3 0 0
3351 1 4.8998289720135064e+00 1.2752016277384975e+01 3.5788301206193729e+01 -1 0 -1
5302 1 1.9212013644124992e+00 8.8461611613824758e+00 3.6720808464500543e+01 1 0 0
1331 1 4.3733945677281501e+00 1.0125950104090633e+01 3.6168079812212710e+01 -1 0 0
4991 1 6.5392065611116905e+00 8.5056924120895658e+00 3.5694469303917856e+01 -2 2 0
3090 1 8.8291537900300714e+00 9.9960443291993748e+00 3.6598240357405295e+01 6 -1 -1
1869 1 6.9500548199293490e+00 1.4078663572004244e+01 3.9056237861015248e+01 -2 -1 -1
5984 1 2.3929704534556460e+00 1.4451199867872344e+01 3.9217453941220846e+01 0 2 0
6111 1 2.6710039682584865e+00 1.4254387699802347e+01 3.6492754982559418e+01 1 1 0
1477 1 5.7353166823868236e+00 9.7108624049529768e-01 3.5719210461169425e+01 1 -2 0
3089 1 4.4672174306044781e+00 9.9673451808582456e+00 3.8890442975940417e+01 0 2 0
2899 1 8.7873316721610166e+00 9.9080367807840553e+00 3.9420001201736511e+01 -4 1 0
3415 1 4.5973286877340636e+00 1.2636908602602251e+01 3.9556540592959884e+01 -1 3 -1
4908 1 7.9127708808790773e+00 1.9677090567382516e+00 3.9417427024400986e+01 -2 2 -1
312 1 8.4730462848688626e-01 1.2627791282247063e+00 4.2816699801124436e+01 2 1 -1
3006 1 2.9262908735779689e+00 2.5391715988134855e+00 4.3565459332275978e+01 2 -2 0
27 1 7.5843906901946054e+00 1.9908625785942531e+00 4.3743133221793428e+01 0 -2 -1
3616 1 5.3267980449304657e+00 7.6459431927213994e-01 4.3147374177312280e+01 2 -1 0
3074 1 9.0296781491660667e+00 1.2707598753879669e+01 4.0249258301169334e+01 1 2 0
1758 1 6.3434267853781927e+00 1.4142676796453809e+01 4.6068382949740872e+01 0 2 -1
1607 1 1.0460969944875369e+00 6.8210711585651147e+00 4.3522833722378969e+01 2 2 -1
1367 1 3.2575071772904032e+00 5.0839087325741588e+00 4.2904560446053956e+01 0 -2 0
277 1 3.6498086725584598e+00 1.2977849842094070e+01 4.6993400401046074e+01 1 0 -1
2149 1 7.8543517093758721e+00 4.6406240922573243e+00 4.2917197274215766e+01 -1 1 0
4944 1 5.7117762166166139e+00 6.2361462736258231e+00 4.3595916177273139e+01 -1 0 0
4647 1 6.3419276151795865e+00 8.7725129568202469e+00 4.0046777408170286e+01 0 -2 0
1540 1 1.4687512570576178e+00 9.4202345407815873e+00 4.2568750714595083e+01 0 4 0
5078 1 3.9434247939403098e+00 1.0472533209797225e+01 4.3282000860144592e+01 3 2 -1
1678 1 8.6592850896598339e+00 1.2869157233314619e+01 4.7201920703468041e+01 1 -1 -1
4696 1 6.0458023326737989e+00 8.8563580908082962e+00 4.2737278286265258e+01 0 -1 -1
4875 1 8.2942194760064698e+00 1.0016707402638540e+01 4.3778802698242281e+01 2 1 0
1726 1 1.7448966558793617e+00 1.4700544308497259e+01 4.6034993873180461e+01 -1 0 -1
6235 1 1.9933976573663166e+00 1.4904405136939401e+01 4.3382828433775643e+01 0 1 -1
4552 1 4.0587446350030794e+00 1.3167699244996466e+01 4.2368506298837382e+01 0 -1 0
3192 1 3.2925678541614221e+00 4.8757035931898152e+00 4.0231119397079503e+01 2 2 -1
3336 1 8.6306400090926623e+00 1.2814789641730107e+01 4.2886824239623593e+01 1 2 -1
4957 1 6.3930603119261180e+00 1.4454409631622479e+01 4.3282007509930700e+01 2 2 0
2988 1 8.2047078699817586e+00 1.0116269538901872e+01 4.6678875203786397e+01 1 1 0
4894 1 7.9044097616920095e-01 1.3945683346841213e+00 4.7186289227714582e+01 1 1 0
4805 1 3.2675548670336179e+00 2.5061927411437814e+00 4.6279730512257800e+01 -2 2 0
4493 1 5.4954361428394405e+00 6.5247152209937564e-01 4.6978631137464099e+01 -2 0 0
4538 1 7.9545020793319932e+00 1.9290377925862561e+00 4.6326437550749354e+01 1 -2 0
153 1 3.2943329376666708e+00 5.0938445688919014e+00 4.7139133233080862e+01 2 2 0
1519 1 1.4242925220353395e+00 6.8062966351317202e+00 4.6182775945734406e+01 0 0 -1
1322 1 7.6003025648100309e+00 4.7986339367782387e+00 4.7339417682372599e+01 -2 0 0
4974 1 5.6743925801938282e+00 6.3346821948923981e+00 4.6353380705240149e+01 -2 2 0
3268 1 1.2141278306034045e+00 9.3945721082285480e+00 4.6640810547426796e+01 0 -1 -1
3133 1 3.5676368861255425e+00 1.0290618404166160e+01 4.6084695442229368e+01 1 2 0
3410 1 5.7647853628239742e+00 9.1453134040099648e+00 4.7212007369480382e+01 2 4 -1
1659 1 6.9037136704521740e-01 7.5722191443908227e-01 4.0018176500256288e+01 3 1 0