LAMMPS data file via write_data, version 16 Mar 2018, timestep = 100000

6328 atoms
2 atom types

0.0000000000000000e+00 4.9219999999999999e+01 xlo xhi
0.0000000000000000e+00 4.9019635930410494e+01 ylo yhi
3.5080129379863578e+00 5.6553987062013292e+01 zlo zhi

Masses

1 18.015
2 12.01

Atoms # atomic

6120 1 4.9787364492116373e+00 2.3708847521929917e+00 5.6329966572963102e+00 0 0 1
4595 1 1.0280199530708529e+01 3.5283820228282847e-01 5.9573884190708508e+00 0 1 0
1507 1 7.4651976002477216e+00 1.5393126439996434e+00 7.0601730567182557e+00 1 0 1
3428 1 8.8863713581715977e+00 3.4474549867921827e+00 5.7590914276369425e+00 1 0 0
3545 1 1.7162978269436802e-01 8.2917315986126527e-01 1.0171063895837133e+01 0 0 0
6225 1 1.1745189358999884e+01 1.5148819754446126e+01 1.1628523106927528e+01 0 0 0
2085 1 3.2465653790361588e+00 1.6257973134144372e+01 7.2649939106523096e+00 0 0 1
5235 1 4.5795163480758445e+00 5.0635168597984324e+00 5.7211683564315461e+00 0 1 1
3502 1 1.1260038736054421e+01 1.0123815180572141e+01 1.0212708954384645e+01 1 1 0
4740 1 2.2913437054035497e+00 1.5664763429881623e+01 4.7797218819236535e+00 1 0 0
2820 1 6.0414379958949835e+00 8.7358867790516470e+00 6.9041461696866993e+00 0 0 0
6234 1 1.0533682782125038e+00 8.1350339981769615e+00 7.5038634104272006e+00 1 -1 1
5158 1 3.7813780844680998e+00 1.0893752301367167e+01 6.7735945509892037e+00 1 1 1
3259 1 4.6114366996421907e+00 1.2181887931039157e+01 4.3655331185078481e+00 0 0 1
430 1 1.2114330902427287e+01 1.1207302318955130e+00 1.2082268509904882e+01 1 1 0
4783 1 8.7016764593552498e+00 9.1012949606271825e+00 5.6489114222832510e+00 1 1 1
1506 1 1.0882713892993841e+01 8.8170510087796856e+00 7.5626722517476139e+00 0 0 0
345 1 6.4077560373668296e-01 6.6268542138723374e+00 4.9988414978719176e+00 1 1 0
4460 1 8.8904182134744980e-01 1.1168424403676982e+01 7.4068394675938887e+00 1 1 1
6323 1 2.6944540624891289e+00 1.5509064065642468e+01 1.2501519214596991e+01 0 0 1
326 1 6.4351456082873799e+00 1.4616920744613656e+01 4.5674842727154985e+00 1 0 1
1445 1 1.0245840683010954e+01 1.1229005788881638e+01 4.8494094401970171e+00 1 0 1
5100 1 1.0420648373379743e+01 1.5482926303382401e+01 5.1432312567256231e+00 0 0 0
5064 1 7.3565698353772451e+00 1.2592211716617298e+01 7.9526611744537270e+00 1 1 0
1638 1 3.9306733968273591e+00 4.3087183611624598e+00 1.2642180667060003e+01 1 0 0
4914 1 6.0081235039338043e+00 7.6450630565707085e+00 1.3436584227605799e+01 0 0 0
6109 1 3.6857163570599694e+00 9.5779893218483581e-01 7.6489042681405639e+00 0 1 1
1737 1 4.1779981620758502e+00 3.4457995161840311e+00 9.4851578028773336e+00 1 -1 1
6167 1 1.0033219904527924e+01 8.6589656434223858e+00 1.2798826382256937e+01 1 1 1
173 1 1.1099326681463547e+01 3.9375836404596547e+00 7.4603937756347456e+00 0 1 0
4744 1 9.7210471825422733e+00 1.8815934116249944e+00 8.8679533130129844e+00 0 1 1
3385 1 3.0105013178554612e+00 5.3923151685026900e+00 8.0171824597181214e+00 0 -1 1
6065 1 9.0002183577269559e+00 1.5521148580760974e+01 1.1563247953040380e+01 1 0 0
247 1 5.2056262346598405e+00 6.8305409086325319e+00 8.9955855884189546e+00 0 1 1
310 1 7.0592415095293051e+00 2.8030082276880233e+00 9.8616155570338453e+00 0 1 1
4494 1 9.4388331378231687e+00 6.3390157268654548e+00 7.6305941186322128e+00 0 0 1
5199 1 1.8058857112340927e+00 7.4143630760489279e+00 1.0357630034900696e+01 1 0 0
1685 1 1.3668768232739881e+00 9.7594616354227313e+00 1.1729184178435956e+01 2 0 0
1834 1 7.0846418671522491e+00 1.3240641610947609e+01 1.0565440516715924e+01 0 1 0
1736 1 5.6140181615953884e+00 1.0300577508699364e+01 9.3920358064667671e+00 0 0 1
4492 1 8.6343286046636631e+00 1.3420600930281910e+01 3.5261336595864257e+00 1 0 1
4662 1 9.9604066733939600e+00 1.1793532424145003e+01 7.7100777889724448e+00 -1 1 1
4574 1 4.0259702993496393e+00 1.3283376394464922e+01 8.5733397330727197e+00 0 0 1
3648 1 3.0937365126610461e-01 4.1182655516467266e+00 7.7538202743983735e+00 0 0 0
4712 1 5.9069362547393727e+00 1.5020502542996859e+01 7.3048727863772038e+00 1 1 1
6022 1 8.7840211131684320e+00 1.5478630475565641e+01 8.7844828072655865e+00 0 1 0
4627 1 1.1843791314403822e+01 1.3754194967372561e+01 7.3325585734784235e+00 0 0 1
3128 1 6.1295689135379083e+00 1.0368673616697944e+01 1.3399786168377762e+01 1 1 1
4421 1 1.0112227574630824e+01 1.1789790156386038e+01 1.3498724362459626e+01 0 -1 1
1599 1 6.7067145335312492e+00 1.7853553044115604e+00 1.2329924826916255e+01 0 -1 0
4594 1 8.8552495175071622e-01 1.2180363989115883e+00 7.5411946583229845e+00 0 1 0
91 1 1.3925845457831616e+00 1.4312254572674238e+01 8.7539179699330525e+00 1 0 0
1694 1 5.8826275191708026e+00 1.5689926614051922e+01 1.2584836017983772e+01 1 0 0
3065 1 9.7473172396914300e+00 3.0608635018174639e+00 1.2038432548592947e+01 0 1 1
1693 1 1.6321506715786456e+00 3.1447978951603024e+00 1.1567843846714714e+01 2 -1 0
1513 1 4.5783218169097195e-01 1.3928717177509252e+01 1.1657551036625243e+01 1 1 1
4940 1 4.1873910598911017e+00 6.9519398780142874e+00 1.1726772528693120e+01 1 0 0
428 1 7.9345023429236541e+00 5.4638646477557202e+00 9.7374029406248575e+00 1 0 1
2135 1 8.6337250756573454e+00 6.1395194384283700e+00 1.2277219206906009e+01 1 1 1
5083 1 1.1065620001087781e+01 4.7082039326522169e+00 1.0306735925224938e+01 0 0 0
1387 1 7.3127092818729036e+00 5.6830678369099639e+00 5.5725246607716965e+00 1 -1 1
301 1 4.6213762124545559e+00 1.3333105387419982e+01 1.1397964318098611e+01 1 -1 0
3204 1 4.0768672073791006e+00 1.0436975915073127e+01 1.1554602814595322e+01 1 0 0
3559 1 8.3289073069383601e+00 1.0996619276741381e+01 1.1804662594611681e+01 1 1 0
1878 1 3.3860002583861983e+00 8.1755207448082814e+00 5.2446182561652153e+00 1 0 0
104 1 2.4412293549350714e+00 4.7890886315229046e+00 3.8722802253950430e+00 1 0 0
1745 1 1.1101191370717982e+00 2.4120392791911964e+00 4.7331024693174992e+00 1 1 0
5265 1 9.7074283040641376e+00 7.2401010548026958e+00 3.5768475908691371e+00 0 1 1
4735 1 2.2680963837495525e+00 1.3304288379429636e+01 3.7126203428470337e+00 1 -1 1
3508 1 1.2207360478962825e+01 7.4736034766562627e+00 1.0432881494968846e+01 -1 0 0
339 1 1.2194086493991202e+01 1.2610456818748181e+01 1.1928541400338808e+01 -1 1 0
1864 1 2.3698647085187474e-01 1.1636285705329817e+01 1.0093951395134418e+01 2 1 0
4779 1 8.9673523273875659e+00 1.8977658171276346e-01 1.2584757063030212e+01 1 1 1
4417 1 1.7495583397555796e+00 1.0116819143200347e+01 3.5972911857669487e+00 1 1 1
1590 1 9.2543226115578534e+00 1.7731519790563346e+00 3.5759907592020284e+00 0 0 0
165 1 1.1234061781380573e+01 8.8926663448337546e+00 2.4150224317241801e+01 1 0 0
6041 1 1.7070084119996038e+00 2.6833712644896530e+00 2.4499110383432203e+01 1 -1 1
2795 1 2.6757441724387632e+00 6.7808425727809762e+00 2.1294075381982527e+01 1 1 1
344 1 2.1933754959385370e+00 3.9689934387260601e+00 1.9207245366429277e+01 1 1 1
6032 1 1.0215990986568293e+01 2.7052411248285098e+00 1.6681094415118835e+01 0 0 1
6084 1 6.4335130154277032e+00 8.8888179987480931e-01 1.6315901844900321e+01 -1 2 1
294 1 8.4619392215188274e+00 3.5160887939685521e+00 1.8688825120899907e+01 2 0 0
148 1 3.5475335673169814e+00 4.7086067381478136e+00 1.5373679328395420e+01 2 1 0
3574 1 1.0239021236252803e+00 5.8234959971092053e+00 1.5268691817372588e+01 -1 1 0
1764 1 3.0462826368192903e+00 1.0710812971783998e+01 2.3035626536742743e+01 -1 1 0
4710 1 4.9568096704547338e-01 8.5686838260270886e+00 1.5954088427902786e+01 0 1 1
4737 1 6.7012767822444044e+00 4.9134082493778326e+00 1.7366782898860279e+01 0 1 0
3376 1 1.0526215365479512e+01 1.3476604836149413e+01 2.4626787877088077e+01 0 1 1
1319 1 3.9250633370743420e+00 7.8951443881619872e+00 2.3753146296031620e+01 0 -1 0
4532 1 9.9788536088875528e+00 9.1101712270232227e+00 1.5624153177544834e+01 0 0 1
1734 1 2.9555056717717014e+00 9.7157742880704721e+00 1.6467573024135241e+01 1 1 1
3621 1 1.2134823112905302e+01 8.2496376889589573e+00 2.1500552043095045e+01 0 0 0
2032 1 7.1804809986524560e+00 1.0890211166791701e+01 1.7561813747820061e+01 1 0 0
1298 1 4.9875655955135905e+00 1.1194191814691525e+01 1.5908103165542586e+01 1 0 0
2882 1 9.5316449512041590e+00 1.2230050795544710e+01 1.6117817665117613e+01 0 0 1
537 1 4.0039675275378874e+00 1.3580765805027820e+01 2.0166553589507721e+01 0 1 1
284 1 8.1110416747470389e+00 1.2503906702732236e+01 2.4113203747728328e+01 1 0 1
1388 1 1.0305370461926386e+00 1.4211828612500291e+01 1.9668553106060749e+01 0 0 1
5102 1 5.9307032326605293e+00 1.5770558168309995e+01 1.5530966295610542e+01 -1 0 0
4705 1 3.8538138626658407e+00 1.3198139706864678e+01 1.7254325491664453e+01 0 0 1
6249 1 8.5002147234229231e+00 1.4721771162978307e+01 1.5903521082914509e+01 0 -1 1
4893 1 3.9123474297707337e+00 2.4681133944521916e+00 2.1368758570902376e+01 1 1 1
425 1 2.7529846603957733e+00 1.4898839787956451e+01 1.5312557747584322e+01 0 1 0
4446 1 6.6553438160909497e+00 1.4415714088768854e+00 2.1715503707548766e+01 0 0 1
4643 1 9.6870809961754460e+00 4.4364200321665725e+00 2.1144249525652913e+01 1 0 1
105 1 6.4174084324983456e+00 4.7169758708190646e+00 2.1061107340111452e+01 0 0 0
1971 1 2.3169055637035463e+00 1.1130978596522501e+01 2.0222904666927363e+01 1 0 0
1974 1 1.7989208039110518e+00 5.8177031651586031e+00 2.4089302920337037e+01 0 0 0
2927 1 6.6004035939927286e-01 1.3037857705962997e+01 1.4870874017071381e+01 0 0 1
3293 1 4.6979936318739322e+00 7.3312609148759957e+00 1.6022593057891029e+01 1 1 0
4752 1 4.4950859596203960e+00 5.4539646619328659e+00 1.8898203650281907e+01 0 1 1
488 1 7.9698498480571667e+00 7.0406615975284073e+00 1.5469026627514566e+01 2 2 0
239 1 4.0638574001040979e+00 1.3078062477062117e+01 2.4279249061965785e+01 1 -1 0
3347 1 1.0571113375456049e+01 3.9089731821126308e+00 2.3929525683045629e+01 1 1 0
3414 1 3.8409834674096999e+00 8.4326818126670915e+00 1.9007269812227996e+01 1 0 0
6204 1 6.9548130440457170e+00 9.8787227177528205e+00 2.4095198849328515e+01 1 1 1
1894 1 6.9877792901054097e+00 8.1050748137645794e+00 1.8257689572749136e+01 0 1 0
117 1 5.5698211546934902e+00 9.7324868287917994e+00 2.1314938446604376e+01 0 0 1
6146 1 7.3108822243555842e+00 7.3985626827532620e+00 2.1677928776432566e+01 1 0 1
1956 1 1.1692398644736278e+01 1.0804903463730932e+01 2.0319349367569654e+01 0 0 0
5098 1 8.8139665110389167e+00 4.3248278942411975e+00 1.4546407565871851e+01 1 0 0
3610 1 2.5495315261017457e+00 1.5926018296840935e+01 2.1457589121030470e+01 -1 0 0
4883 1 1.1725479223372797e+00 1.1953242463539709e+01 1.7530459788042453e+01 1 0 1
2138 1 6.6577917421893495e+00 1.2151179941932011e+01 2.0198937813217892e+01 0 0 0
258 1 6.4487048036563088e+00 1.4549321069257092e+01 2.3990590161445159e+01 0 0 0
2893 1 1.1913346460185180e+01 1.9625549876789026e+00 2.1426697071570924e+01 0 2 1
1996 1 8.6448239204804498e+00 1.4882658594200176e+01 1.8752816785145615e+01 0 0 0
115 1 1.1575450531547244e+01 1.3828980516724037e+01 2.1853907300160937e+01 0 0 0
6258 1 9.1758139605619107e+00 1.2216358757456096e+01 2.1417293706096522e+01 0 0 0
5061 1 7.1152950132157162e+00 1.4953415391481711e+01 2.1443683868316551e+01 1 0 0
4622 1 7.2954258194354953e+00 9.8318275370609776e-01 1.9123620620986827e+01 0 1 1
389 1 4.9173668859995640e-01 1.0766493212693819e+01 2.3918051597023716e+01 0 0 0
4665 1 6.4432747232483356e+00 6.8670550553760332e+00 2.4465573302163325e+01 0 1 0
4803 1 3.0593908369720690e+00 2.5015732983750354e+00 1.7060679055530940e+01 2 0 0
1802 1 9.0038843998213522e+00 9.4774439192586239e+00 2.2518941636063943e+01 0 2 0
5085 1 1.1249724750845671e+01 1.6254629411471718e+01 1.9227865216079316e+01 2 0 1
5091 1 1.4648954582294706e+00 3.8402666588375864e+00 2.1995263841387210e+01 1 0 0
1345 1 2.0962714172740462e+00 1.5161986718422130e+01 2.3973429162872161e+01 0 0 1
446 1 6.1083671750743713e+00 4.1519840912248611e+00 2.3933479055172789e+01 -1 1 1
256 1 7.7583702597666249e-01 1.5812290359511737e+01 1.7215962878146403e+01 1 0 1
6007 1 1.1399229730198300e+01 6.1073463922985161e+00 1.9803582924993378e+01 0 1 0
4931 1 1.1737124539910969e+01 1.1688438857215523e+01 1.7834094320887967e+01 0 0 1
6293 1 9.4643396015303392e+00 8.0022706918405504e+00 1.9575164268300000e+01 1 -1 0
1874 1 1.0003809693198278e+01 1.6151935276856292e+01 2.1843541441841207e+01 1 0 0
372 1 4.5231409943242236e+00 8.2683558137572022e-01 1.8914675947605005e+01 0 0 1
1567 1 4.1822455415910857e+00 2.1483367030243725e+00 2.4266229565908606e+01 0 0 0
3475 1 1.5909553946315907e-01 2.0169704436076890e+00 1.5661547892009096e+01 0 0 1
1621 1 6.0425746200954196e+00 2.9933342649654553e+00 1.4896494649909028e+01 -1 0 0
4550 1 8.1340669908576597e+00 2.5007840737350362e+00 2.4452648686564988e+01 -1 2 1
5074 1 3.9049224253099406e+00 5.6433785767050160e-02 1.5744669160756942e+01 1 0 0
6231 1 2.3019697670996679e+00 1.0662748810934299e-01 2.1852051212850384e+01 0 0 1
1470 1 1.0628818179287641e+01 1.6312963276276378e+01 2.4402508782047054e+01 0 0 1
552 2 0.0000000000000000e+00 2.8417180249513345e+00 2.6865473332983061e+01 0 0 0
554 2 0.0000000000000000e+00 0.0000000000000000e+00 2.6865473332983061e+01 0 0 0
556 2 1.2305000000000001e+00 7.1042950623783474e-01 2.6865473332983061e+01 0 0 0
563 2 1.2305000000000001e+00 2.1312885187134998e+00 2.6865473332983061e+01 0 0 0
565 2 2.4610000000000003e+00 2.8417180249513345e+00 2.6865473332983061e+01 0 0 0
567 2 2.4610000000000003e+00 0.0000000000000000e+00 2.6865473332983061e+01 0 0 0
569 2 3.6915000000000004e+00 7.1042950623783474e-01 2.6865473332983061e+01 0 0 0
584 2 3.6914999999999996e+00 2.1312885187134998e+00 2.6865473332983061e+01 0 0 0
586 2 4.9220000000000006e+00 2.8417180249513332e+00 2.6865473332983061e+01 0 0 0
588 2 4.9220000000000006e+00 0.0000000000000000e+00 2.6865473332983061e+01 0 0 0
590 2 6.1524999999999999e+00 7.1042950623783407e-01 2.6865473332983061e+01 0 0 0
613 2 6.1524999999999999e+00 2.1312885187134989e+00 2.6865473332983061e+01 0 0 0
615 2 7.3829999999999991e+00 2.8417180249513345e+00 2.6865473332983061e+01 0 0 0
617 2 7.3829999999999991e+00 0.0000000000000000e+00 2.6865473332983061e+01 0 0 0
619 2 8.6134999999999984e+00 7.1042950623783407e-01 2.6865473332983061e+01 0 0 0
650 2 8.6134999999999984e+00 2.1312885187135002e+00 2.6865473332983061e+01 0 0 0
652 2 9.8440000000000012e+00 2.8417180249513332e+00 2.6865473332983061e+01 0 0 0
654 2 9.8440000000000012e+00 0.0000000000000000e+00 2.6865473332983061e+01 0 0 0
656 2 1.1074500000000002e+01 7.1042950623783330e-01 2.6865473332983061e+01 0 0 0
695 2 1.1074500000000002e+01 2.1312885187135002e+00 2.6865473332983061e+01 0 0 0
559 2 0.0000000000000000e+00 4.2625770374269996e+00 2.6865473332983061e+01 0 0 0
561 2 1.2305000000000001e+00 4.9730065436648339e+00 2.6865473332983061e+01 0 0 0
576 2 1.2305000000000001e+00 6.3938655561404980e+00 2.6865473332983061e+01 0 0 0
580 2 2.4610000000000003e+00 4.2625770374269996e+00 2.6865473332983061e+01 0 0 0
582 2 3.6914999999999996e+00 4.9730065436648339e+00 2.6865473332983061e+01 0 0 0
605 2 3.6914999999999996e+00 6.3938655561404980e+00 2.6865473332983061e+01 0 0 0
557 2 0.0000000000000000e+00 7.1042950623783341e+00 2.6865473332983061e+01 0 0 0
578 2 2.4610000000000003e+00 7.1042950623783341e+00 2.6865473332983061e+01 0 0 0
609 2 4.9220000000000006e+00 4.2625770374269978e+00 2.6865473332983061e+01 0 0 0
611 2 6.1524999999999999e+00 4.9730065436648339e+00 2.6865473332983061e+01 0 0 0
642 2 6.1524999999999999e+00 6.3938655561404980e+00 2.6865473332983061e+01 0 0 0
646 2 7.3829999999999991e+00 4.2625770374269996e+00 2.6865473332983061e+01 0 0 0
607 2 4.9220000000000006e+00 7.1042950623783341e+00 2.6865473332983061e+01 0 0 0
644 2 7.3830000000000009e+00 7.1042950623783341e+00 2.6865473332983061e+01 0 0 0
648 2 8.6135000000000002e+00 4.9730065436648339e+00 2.6865473332983061e+01 0 0 0
687 2 8.6135000000000002e+00 6.3938655561404980e+00 2.6865473332983061e+01 0 0 0
691 2 9.8440000000000012e+00 4.2625770374270004e+00 2.6865473332983061e+01 0 0 0
693 2 1.1074500000000002e+01 4.9730065436648339e+00 2.6865473332983061e+01 0 0 0
734 2 1.1074500000000002e+01 6.3938655561404980e+00 2.6865473332983061e+01 0 0 0
689 2 9.8440000000000012e+00 7.1042950623783341e+00 2.6865473332983061e+01 0 0 0
572 2 0.0000000000000000e+00 8.5251540748539991e+00 2.6865473332983061e+01 0 0 0
574 2 1.2305000000000001e+00 9.2355835810918343e+00 2.6865473332983061e+01 0 0 0
601 2 2.4610000000000003e+00 8.5251540748539991e+00 2.6865473332983061e+01 0 0 0
603 2 3.6915000000000004e+00 9.2355835810918343e+00 2.6865473332983061e+01 0 0 0
570 2 0.0000000000000000e+00 1.1366872099805333e+01 2.6865473332983061e+01 0 0 0
597 2 1.2305000000000001e+00 1.0656442593567498e+01 2.6865473332983061e+01 0 0 0
599 2 2.4610000000000003e+00 1.1366872099805333e+01 2.6865473332983061e+01 0 0 0
634 2 3.6914999999999996e+00 1.0656442593567499e+01 2.6865473332983061e+01 0 0 0
638 2 4.9220000000000006e+00 8.5251540748539991e+00 2.6865473332983061e+01 0 0 0
640 2 6.1524999999999999e+00 9.2355835810918343e+00 2.6865473332983061e+01 0 0 0
683 2 7.3830000000000009e+00 8.5251540748539991e+00 2.6865473332983061e+01 0 0 0
636 2 4.9220000000000006e+00 1.1366872099805333e+01 2.6865473332983061e+01 0 0 0
679 2 6.1524999999999999e+00 1.0656442593567499e+01 2.6865473332983061e+01 0 0 0
681 2 7.3829999999999991e+00 1.1366872099805333e+01 2.6865473332983061e+01 0 0 0
685 2 8.6134999999999984e+00 9.2355835810918343e+00 2.6865473332983061e+01 0 0 0
730 2 9.8440000000000012e+00 8.5251540748539956e+00 2.6865473332983061e+01 0 0 0
732 2 1.1074500000000002e+01 9.2355835810918343e+00 2.6865473332983061e+01 0 0 0
726 2 8.6134999999999984e+00 1.0656442593567498e+01 2.6865473332983061e+01 0 0 0
728 2 9.8440000000000012e+00 1.1366872099805333e+01 2.6865473332983061e+01 0 0 0
773 2 1.1074500000000002e+01 1.0656442593567498e+01 2.6865473332983061e+01 0 0 0
775 2 1.2304999999999998e+01 1.1366872099805333e+01 2.6865473332983061e+01 0 0 0
593 2 0.0000000000000000e+00 1.2787731112280996e+01 2.6865473332983061e+01 0 0 0
595 2 1.2305000000000001e+00 1.3498160618518829e+01 2.6865473332983061e+01 0 0 0
630 2 2.4610000000000003e+00 1.2787731112280996e+01 2.6865473332983061e+01 0 0 0
632 2 3.6915000000000004e+00 1.3498160618518829e+01 2.6865473332983061e+01 0 0 0
591 2 0.0000000000000000e+00 1.5629449137232333e+01 2.6865473332983061e+01 0 0 0
626 2 1.2305000000000001e+00 1.4919019630994494e+01 2.6865473332983061e+01 0 0 0
628 2 2.4610000000000003e+00 1.5629449137232328e+01 2.6865473332983061e+01 0 0 0
671 2 3.6915000000000004e+00 1.4919019630994494e+01 2.6865473332983061e+01 0 0 0
675 2 4.9220000000000006e+00 1.2787731112280996e+01 2.6865473332983061e+01 0 0 0
677 2 6.1524999999999990e+00 1.3498160618518829e+01 2.6865473332983061e+01 0 0 0
722 2 7.3829999999999991e+00 1.2787731112280996e+01 2.6865473332983061e+01 0 0 0
673 2 4.9220000000000006e+00 1.5629449137232333e+01 2.6865473332983061e+01 0 0 0
718 2 6.1524999999999990e+00 1.4919019630994494e+01 2.6865473332983061e+01 0 0 0
720 2 7.3829999999999991e+00 1.5629449137232333e+01 2.6865473332983061e+01 0 0 0
724 2 8.6135000000000002e+00 1.3498160618518835e+01 2.6865473332983061e+01 0 0 0
769 2 9.8440000000000012e+00 1.2787731112280996e+01 2.6865473332983061e+01 0 0 0
771 2 1.1074500000000002e+01 1.3498160618518829e+01 2.6865473332983061e+01 0 0 0
765 2 8.6135000000000002e+00 1.4919019630994494e+01 2.6865473332983061e+01 0 0 0
767 2 9.8440000000000012e+00 1.5629449137232328e+01 2.6865473332983061e+01 0 0 0
807 2 1.1074500000000002e+01 1.4919019630994494e+01 2.6865473332983061e+01 0 0 0
553 2 0.0000000000000000e+00 1.4208590124756650e+00 3.0030999999999878e+01 0 0 0
555 2 0.0000000000000000e+00 0.0000000000000000e+00 3.0030999999999878e+01 0 0 0
564 2 1.2305000000000001e+00 2.1312885187134998e+00 3.0030999999999878e+01 0 0 0
566 2 2.4610000000000003e+00 1.4208590124756650e+00 3.0030999999999878e+01 0 0 0
568 2 2.4610000000000003e+00 0.0000000000000000e+00 3.0030999999999878e+01 0 0 0
585 2 3.6914999999999996e+00 2.1312885187134998e+00 3.0030999999999878e+01 0 0 0
562 2 1.2305000000000001e+00 3.5521475311891644e+00 3.0030999999999878e+01 0 0 0
583 2 3.6914999999999996e+00 3.5521475311891644e+00 3.0030999999999878e+01 0 0 0
587 2 4.9220000000000006e+00 1.4208590124756650e+00 3.0030999999999878e+01 0 0 0
589 2 4.9220000000000006e+00 0.0000000000000000e+00 3.0030999999999878e+01 0 0 0
614 2 6.1524999999999999e+00 2.1312885187134989e+00 3.0030999999999878e+01 0 0 0
616 2 7.3829999999999991e+00 1.4208590124756659e+00 3.0030999999999878e+01 0 0 0
618 2 7.3829999999999991e+00 0.0000000000000000e+00 3.0030999999999878e+01 0 0 0
612 2 6.1524999999999999e+00 3.5521475311891644e+00 3.0030999999999878e+01 0 0 0
651 2 8.6134999999999984e+00 2.1312885187135002e+00 3.0030999999999878e+01 0 0 0
653 2 9.8440000000000012e+00 1.4208590124756659e+00 3.0030999999999878e+01 0 0 0
655 2 9.8440000000000012e+00 0.0000000000000000e+00 3.0030999999999878e+01 0 0 0
696 2 1.1074500000000002e+01 2.1312885187135002e+00 3.0030999999999878e+01 0 0 0
649 2 8.6134999999999984e+00 3.5521475311891657e+00 3.0030999999999878e+01 0 0 0
694 2 1.1074500000000002e+01 3.5521475311891644e+00 3.0030999999999878e+01 0 0 0
558 2 0.0000000000000000e+00 5.6834360499026637e+00 3.0030999999999878e+01 0 0 0
560 2 0.0000000000000000e+00 4.2625770374269996e+00 3.0030999999999878e+01 0 0 0
577 2 1.2305000000000001e+00 6.3938655561404980e+00 3.0030999999999878e+01 0 0 0
579 2 2.4610000000000003e+00 5.6834360499026637e+00 3.0030999999999878e+01 0 0 0
581 2 2.4610000000000003e+00 4.2625770374269996e+00 3.0030999999999878e+01 0 0 0
606 2 3.6914999999999996e+00 6.3938655561404980e+00 3.0030999999999878e+01 0 0 0
575 2 1.2305000000000001e+00 7.8147245686161639e+00 3.0030999999999878e+01 0 0 0
604 2 3.6914999999999996e+00 7.8147245686161639e+00 3.0030999999999878e+01 0 0 0
608 2 4.9220000000000006e+00 5.6834360499026637e+00 3.0030999999999878e+01 0 0 0
610 2 4.9220000000000006e+00 4.2625770374269978e+00 3.0030999999999878e+01 0 0 0
643 2 6.1524999999999999e+00 6.3938655561404980e+00 3.0030999999999878e+01 0 0 0
645 2 7.3829999999999991e+00 5.6834360499026637e+00 3.0030999999999878e+01 0 0 0
647 2 7.3829999999999991e+00 4.2625770374269996e+00 3.0030999999999878e+01 0 0 0
641 2 6.1524999999999999e+00 7.8147245686161639e+00 3.0030999999999878e+01 0 0 0
688 2 8.6135000000000002e+00 6.3938655561404980e+00 3.0030999999999878e+01 0 0 0
690 2 9.8440000000000012e+00 5.6834360499026637e+00 3.0030999999999878e+01 0 0 0
692 2 9.8440000000000012e+00 4.2625770374270004e+00 3.0030999999999878e+01 0 0 0
735 2 1.1074500000000002e+01 6.3938655561404980e+00 3.0030999999999878e+01 0 0 0
686 2 8.6135000000000002e+00 7.8147245686161639e+00 3.0030999999999878e+01 0 0 0
733 2 1.1074500000000002e+01 7.8147245686161639e+00 3.0030999999999878e+01 0 0 0
571 2 0.0000000000000000e+00 9.9460130873296642e+00 3.0030999999999878e+01 0 0 0
573 2 0.0000000000000000e+00 8.5251540748539991e+00 3.0030999999999878e+01 0 0 0
600 2 2.4610000000000003e+00 9.9460130873296642e+00 3.0030999999999878e+01 0 0 0
602 2 2.4610000000000003e+00 8.5251540748539991e+00 3.0030999999999878e+01 0 0 0
596 2 1.2305000000000001e+00 1.2077301606043163e+01 3.0030999999999878e+01 0 0 0
598 2 1.2305000000000001e+00 1.0656442593567498e+01 3.0030999999999878e+01 0 0 0
633 2 3.6914999999999996e+00 1.2077301606043163e+01 3.0030999999999878e+01 0 0 0
635 2 3.6914999999999996e+00 1.0656442593567499e+01 3.0030999999999878e+01 0 0 0
637 2 4.9220000000000006e+00 9.9460130873296642e+00 3.0030999999999878e+01 0 0 0
639 2 4.9220000000000006e+00 8.5251540748539991e+00 3.0030999999999878e+01 0 0 0
682 2 7.3830000000000009e+00 9.9460130873296642e+00 3.0030999999999878e+01 0 0 0
684 2 7.3830000000000009e+00 8.5251540748539991e+00 3.0030999999999878e+01 0 0 0
678 2 6.1524999999999999e+00 1.2077301606043163e+01 3.0030999999999878e+01 0 0 0
680 2 6.1524999999999999e+00 1.0656442593567499e+01 3.0030999999999878e+01 0 0 0
729 2 9.8440000000000012e+00 9.9460130873296642e+00 3.0030999999999878e+01 0 0 0
731 2 9.8440000000000012e+00 8.5251540748539956e+00 3.0030999999999878e+01 0 0 0
725 2 8.6135000000000002e+00 1.2077301606043163e+01 3.0030999999999878e+01 0 0 0
727 2 8.6134999999999984e+00 1.0656442593567498e+01 3.0030999999999878e+01 0 0 0
772 2 1.1074500000000002e+01 1.2077301606043163e+01 3.0030999999999878e+01 0 0 0
774 2 1.1074500000000002e+01 1.0656442593567498e+01 3.0030999999999878e+01 0 0 0
594 2 0.0000000000000000e+00 1.2787731112280996e+01 3.0030999999999878e+01 0 0 0
631 2 2.4610000000000003e+00 1.2787731112280996e+01 3.0030999999999878e+01 0 0 0
592 2 0.0000000000000000e+00 1.4208590124756663e+01 3.0030999999999878e+01 0 0 0
627 2 1.2305000000000001e+00 1.4919019630994494e+01 3.0030999999999878e+01 0 0 0
629 2 2.4610000000000003e+00 1.4208590124756663e+01 3.0030999999999878e+01 0 0 0
672 2 3.6915000000000004e+00 1.4919019630994494e+01 3.0030999999999878e+01 0 0 0
676 2 4.9220000000000006e+00 1.2787731112280996e+01 3.0030999999999878e+01 0 0 0
723 2 7.3829999999999991e+00 1.2787731112280996e+01 3.0030999999999878e+01 0 0 0
674 2 4.9220000000000006e+00 1.4208590124756663e+01 3.0030999999999878e+01 0 0 0
719 2 6.1524999999999990e+00 1.4919019630994494e+01 3.0030999999999878e+01 0 0 0
721 2 7.3830000000000009e+00 1.4208590124756663e+01 3.0030999999999878e+01 0 0 0
770 2 9.8440000000000012e+00 1.2787731112280996e+01 3.0030999999999878e+01 0 0 0
766 2 8.6135000000000002e+00 1.4919019630994494e+01 3.0030999999999878e+01 0 0 0
768 2 9.8440000000000012e+00 1.4208590124756663e+01 3.0030999999999878e+01 0 0 0
806 2 1.1074500000000002e+01 1.6339878643470161e+01 3.0030999999999878e+01 0 0 0
808 2 1.1074500000000002e+01 1.4919019630994494e+01 3.0030999999999878e+01 0 0 0
810 2 1.2304999999999998e+01 1.4208590124756658e+01 3.0030999999999878e+01 0 0 0
881 2 0.0000000000000000e+00 2.8417180249513345e+00 3.3196526667016307e+01 0 0 0
882 2 0.0000000000000000e+00 0.0000000000000000e+00 3.3196526667016307e+01 0 0 0
883 2 1.2305000000000001e+00 7.1042950623783474e-01 3.3196526667016307e+01 0 0 0
887 2 1.2305000000000001e+00 2.1312885187134998e+00 3.3196526667016307e+01 0 0 0
888 2 2.4610000000000003e+00 2.8417180249513345e+00 3.3196526667016307e+01 0 0 0
889 2 2.4610000000000003e+00 0.0000000000000000e+00 3.3196526667016307e+01 0 0 0
890 2 3.6915000000000004e+00 7.1042950623783474e-01 3.3196526667016307e+01 0 0 0
898 2 3.6914999999999996e+00 2.1312885187134998e+00 3.3196526667016307e+01 0 0 0
899 2 4.9220000000000006e+00 2.8417180249513332e+00 3.3196526667016307e+01 0 0 0
900 2 4.9220000000000006e+00 0.0000000000000000e+00 3.3196526667016307e+01 0 0 0
901 2 6.1524999999999999e+00 7.1042950623783407e-01 3.3196526667016307e+01 0 0 0
913 2 6.1524999999999999e+00 2.1312885187134989e+00 3.3196526667016307e+01 0 0 0
914 2 7.3829999999999991e+00 2.8417180249513345e+00 3.3196526667016307e+01 0 0 0
915 2 7.3829999999999991e+00 0.0000000000000000e+00 3.3196526667016307e+01 0 0 0
994 2 1.1074500000000002e+01 1.3498160618518829e+01 3.3196526667016307e+01 0 0 0
916 2 8.6134999999999984e+00 7.1042950623783407e-01 3.3196526667016307e+01 0 0 0
932 2 8.6134999999999984e+00 2.1312885187135002e+00 3.3196526667016307e+01 0 0 0
933 2 9.8440000000000012e+00 2.8417180249513332e+00 3.3196526667016307e+01 0 0 0
934 2 9.8440000000000012e+00 0.0000000000000000e+00 3.3196526667016307e+01 0 0 0
935 2 1.1074500000000002e+01 7.1042950623783330e-01 3.3196526667016307e+01 0 0 0
955 2 1.1074500000000002e+01 2.1312885187135002e+00 3.3196526667016307e+01 0 0 0
885 2 0.0000000000000000e+00 4.2625770374269996e+00 3.3196526667016307e+01 0 0 0
886 2 1.2305000000000001e+00 4.9730065436648339e+00 3.3196526667016307e+01 0 0 0
894 2 1.2305000000000001e+00 6.3938655561404980e+00 3.3196526667016307e+01 0 0 0
896 2 2.4610000000000003e+00 4.2625770374269996e+00 3.3196526667016307e+01 0 0 0
897 2 3.6914999999999996e+00 4.9730065436648339e+00 3.3196526667016307e+01 0 0 0
909 2 3.6914999999999996e+00 6.3938655561404980e+00 3.3196526667016307e+01 0 0 0
884 2 0.0000000000000000e+00 7.1042950623783341e+00 3.3196526667016307e+01 0 0 0
895 2 2.4610000000000003e+00 7.1042950623783341e+00 3.3196526667016307e+01 0 0 0
970 2 8.6135000000000002e+00 1.3498160618518835e+01 3.3196526667016307e+01 0 0 0
911 2 4.9220000000000006e+00 4.2625770374269978e+00 3.3196526667016307e+01 0 0 0
912 2 6.1524999999999999e+00 4.9730065436648339e+00 3.3196526667016307e+01 0 0 0
928 2 6.1524999999999999e+00 6.3938655561404980e+00 3.3196526667016307e+01 0 0 0
930 2 7.3829999999999991e+00 4.2625770374269996e+00 3.3196526667016307e+01 0 0 0
910 2 4.9220000000000006e+00 7.1042950623783341e+00 3.3196526667016307e+01 0 0 0
929 2 7.3830000000000009e+00 7.1042950623783341e+00 3.3196526667016307e+01 0 0 0
931 2 8.6135000000000002e+00 4.9730065436648339e+00 3.3196526667016307e+01 0 0 0
951 2 8.6135000000000002e+00 6.3938655561404980e+00 3.3196526667016307e+01 0 0 0
953 2 9.8440000000000012e+00 4.2625770374270004e+00 3.3196526667016307e+01 0 0 0
954 2 1.1074500000000002e+01 4.9730065436648339e+00 3.3196526667016307e+01 0 0 0
975 2 1.1074500000000002e+01 6.3938655561404980e+00 3.3196526667016307e+01 0 0 0
952 2 9.8440000000000012e+00 7.1042950623783341e+00 3.3196526667016307e+01 0 0 0
892 2 0.0000000000000000e+00 8.5251540748539991e+00 3.3196526667016307e+01 0 0 0
893 2 1.2305000000000001e+00 9.2355835810918343e+00 3.3196526667016307e+01 0 0 0
907 2 2.4610000000000003e+00 8.5251540748539991e+00 3.3196526667016307e+01 0 0 0
908 2 3.6915000000000004e+00 9.2355835810918343e+00 3.3196526667016307e+01 0 0 0
891 2 0.0000000000000000e+00 1.1366872099805333e+01 3.3196526667016307e+01 0 0 0
905 2 1.2305000000000001e+00 1.0656442593567498e+01 3.3196526667016307e+01 0 0 0
906 2 2.4610000000000003e+00 1.1366872099805333e+01 3.3196526667016307e+01 0 0 0
924 2 3.6914999999999996e+00 1.0656442593567499e+01 3.3196526667016307e+01 0 0 0
926 2 4.9220000000000006e+00 8.5251540748539991e+00 3.3196526667016307e+01 0 0 0
927 2 6.1524999999999999e+00 9.2355835810918343e+00 3.3196526667016307e+01 0 0 0
949 2 7.3830000000000009e+00 8.5251540748539991e+00 3.3196526667016307e+01 0 0 0
925 2 4.9220000000000006e+00 1.1366872099805333e+01 3.3196526667016307e+01 0 0 0