LAMMPS data file via write_data, version 16 Mar 2018, timestep = 8000000

6328 atoms
2 atom types

0.0000000000000000e+00 4.9219999999999999e+01 xlo xhi
0.0000000000000000e+00 4.9019635930410494e+01 ylo yhi
2.0119454910338845e+00 5.8050054508963001e+01 zlo zhi

Masses

1 18.015
2 12.01

Atoms # atomic

4453 1 4.1737439087778254e+00 2.7023064916043360e+00 5.1073468996780047e+00 3 2 1
6296 1 1.2266712432409504e+01 1.4908232126582128e+01 5.8315262186465127e+00 -4 2 1
4498 1 1.1386696144593543e+01 8.0086227437707502e-01 4.8992540165779657e+00 -2 -1 1
4619 1 6.5082739415963244e+00 1.1788373188513880e+01 2.2060482488414950e+00 0 0 1
6024 1 1.2171507073713260e+01 7.5315100676050619e+00 1.2188786420283273e+01 -7 1 0
4924 1 1.0086117102167969e+00 6.3439098613218112e+00 4.9201095777681134e+00 1 1 1
517 1 7.3000844185037561e+00 8.5086684819730358e+00 1.3093792514002839e+01 -3 1 0
1813 1 5.2392904207769933e+00 7.1465475250287129e+00 4.8431561277450470e+00 1 -1 1
1458 1 7.2362299616537022e+00 1.6022683242502151e+01 4.6722208099552924e+00 1 2 0
6166 1 8.3956364857384305e+00 4.3912157347491352e+00 4.8572347603188781e+00 1 -5 1
3675 1 1.0233477288988219e+01 6.0152680103897715e+00 5.7328468853442729e+00 -1 7 1
4420 1 2.0902738832085364e+00 1.0770803079439613e+01 4.6106120055282753e+00 0 -1 1
351 1 5.7244011282469263e+00 1.4312103284146559e+01 1.2198895649685985e+01 3 2 0
4550 1 4.0238558549680921e+00 1.2142377576409460e+01 1.2875337295269821e+01 -4 2 1
4891 1 6.2841895979149838e+00 1.1399559518831417e+01 4.9894803474899234e+00 5 2 1
5178 1 9.7242342467581828e+00 8.5931491485926284e+00 4.8529204511227189e+00 1 2 0
5071 1 1.1438024849647119e+01 9.3284471500602173e-01 2.1478327901838896e+00 2 -2 0
3307 1 8.8985100961631929e+00 1.0686798899299749e+01 9.7072565360864012e+00 2 1 0
3284 1 2.9511401382809446e+00 1.5034496700106452e+01 4.9263912403499512e+00 3 1 0
134 1 9.5049104411225240e+00 8.6245590707328184e+00 2.1426736635082637e+00 3 1 1
4628 1 1.6055842347008575e+00 1.3169560234346205e+01 9.4466328243783586e+00 3 3 1
222 1 1.0896857516325804e+01 1.2982558872972060e+01 4.5052354300492006e+00 -2 -6 0
2922 1 5.0219353309355830e+00 6.3127204386909164e-01 8.6851804052474133e+00 0 -1 1
1521 1 1.6227987888604445e+00 3.6711213152907205e+00 5.7640980771144363e+00 1 -3 1
5273 1 1.6359085450221749e+00 3.7077586782704719e+00 8.5751445173979999e+00 -1 4 1
1346 1 4.8821266796506162e+00 3.4981973087514434e-01 5.9563352399242504e+00 1 -1 1
4929 1 8.2364764734490201e+00 1.3329767356341174e+01 1.2861013342435793e+01 -2 1 0
4855 1 9.1762412060563925e+00 1.7899769280306477e+00 5.4422953782437791e+00 1 3 0
1539 1 9.2927825154371035e+00 1.5200497291106732e+00 8.2424744676279609e+00 5 2 1
1467 1 1.0940793171887584e+01 3.1544119882408643e+00 9.7462373535680911e+00 2 1 1
1359 1 2.8906542995375091e+00 8.3204095096974999e+00 5.7855194254256936e+00 3 2 0
5134 1 3.3827332543337838e+00 7.9402068662290608e+00 8.5601205801118923e+00 2 -3 0
293 1 5.9456330284903718e+00 4.5593229726956652e+00 5.9875217695104208e+00 0 2 0
221 1 5.9697132901714829e+00 4.6451824123769097e+00 8.8115715452000103e+00 2 -4 0
3410 1 1.0421321279865586e+01 5.6385539662825925e+00 8.5058175894836321e+00 6 -2 0
428 1 3.8696413048436589e+00 1.2648155818228133e+01 5.5006437976142770e+00 1 -1 1
1733 1 7.1251419017615509e+00 9.0132635821198015e+00 5.8440278922836626e+00 -3 -1 0
6060 1 7.0738065241409922e+00 8.9962789891189061e+00 8.4471931751392724e+00 -2 5 1
4716 1 1.1598715315051692e+01 1.0512928326442669e+01 5.7073084463825392e+00 1 -5 1
5026 1 1.1435825961556564e+01 1.0214604018577765e+01 8.5775936990782604e+00 -2 3 1
5060 1 3.9589326433004666e+00 1.2615553053021184e+01 8.3407984683685576e+00 -1 -1 1
3458 1 3.6206241373103670e-01 1.5787853502438285e+01 6.0469057284277703e+00 0 1 0
5963 1 3.5260710240388843e-01 1.5642127429724594e+01 8.9012702173810201e+00 2 3 1
84 1 8.0717309910472395e+00 1.3423097835341760e+01 5.2768538471661239e+00 0 2 0
3468 1 8.4761655997589767e+00 1.3177052374521496e+01 8.0139479256387318e+00 1 5 0
1489 1 2.5742410193282805e+00 1.0658389017653704e+00 9.4316030347097666e+00 -1 0 0
1795 1 2.2109188512211890e+00 7.6541237177754162e-01 1.2284870305353952e+01 4 1 0
1677 1 7.0450352655527908e+00 2.2042359670379885e+00 9.5609108139350720e+00 3 -2 0
1479 1 6.8339455260001714e+00 1.8669949951307705e+00 1.2236270278315240e+01 2 -2 1
4647 1 1.1110674253881427e+01 3.1837092560536093e+00 1.2304442727415962e+01 -4 -2 1
1636 1 1.0078676747692466e+01 1.5117784579925377e+01 9.0742275461255169e+00 0 2 0
4899 1 3.6020869259345942e+00 5.3719244599323668e+00 9.6320292835779124e+00 0 0 0
4956 1 3.7126995027797145e+00 5.0982904446276986e+00 1.2340555698108336e+01 1 -1 0
5317 1 5.7508896254207698e-01 8.1771206227309339e+00 1.2136273704168540e+01 -1 -3 1
3405 1 1.0020045805503045e+01 1.5018896436963677e+01 1.1875746010085358e+01 0 -2 1
4608 1 7.9172085274518640e+00 6.3294085990154301e+00 9.5000686378163799e+00 0 -4 1
3112 1 7.9819940638050948e+00 6.1019232791236382e+00 1.2273947490872954e+01 3 0 0
2027 1 5.9779346459981388e+00 1.4108519771935798e+01 9.2774178726901262e+00 3 2 1
3478 1 7.1589807572410447e-01 8.9322826886389777e+00 9.3967853004371253e+00 0 -7 0
3187 1 4.9010532514105059e+00 1.0238260897874454e+01 9.5920861889154843e+00 -2 0 0
5246 1 5.0183422830323030e+00 9.6197359795030408e+00 1.2274862819315731e+01 1 3 1
481 1 1.4026490088021448e+00 1.2523947772737307e+01 1.2177923600386190e+01 -1 0 1
1488 1 8.8024077770492166e+00 1.0555085791905157e+01 1.2491568667907476e+01 5 1 1
4668 1 8.1298600181568936e-01 6.7582402989149468e+00 2.1290955515616807e+00 0 0 1
4772 1 5.2444566625896707e+00 7.7478719836633436e+00 2.0540030266106037e+00 0 1 0
389 1 4.0215306586231288e+00 3.1589470041834922e+00 2.3086203396379825e+00 1 -2 0
3549 1 6.1688232722936904e+00 4.3630034786102678e+00 1.3082500831259964e+01 5 2 0
3714 1 4.8332422810052265e+00 2.2709745700866291e-01 1.3209378841175988e+01 -1 1 0
2971 1 1.1983281263315391e+01 7.6595487455152584e+00 9.4931478232994415e+00 1 1 1
6161 1 1.7259223636840915e-01 1.0660881464801179e+01 1.3128813841646258e+01 -1 -3 1
5221 1 3.1359013477103059e+00 7.6525163670395635e+00 1.3038272743179000e+01 3 2 0
2937 1 1.1275942349465881e+01 9.6947167773371099e+00 1.3217644958779534e+01 4 -3 1
3654 1 8.3402624501132472e+00 4.3390582436897116e+00 2.0571440255515299e+00 0 1 1
3163 1 1.9338044233906284e+00 1.0939739103279560e+01 2.0625584603597531e+00 4 2 2
5021 1 2.1424882158272633e+00 3.3609486242611979e+00 1.6245793401310394e+01 -2 -4 1
541 1 1.2774654250554049e-01 1.0630874327898619e+01 2.0860268226916244e+01 0 -1 1
1917 1 1.2241756038243668e+01 1.4525841116499764e+01 2.3014585542641250e+01 -5 -3 0
2005 1 4.4592227410779168e+00 2.8638040289582611e+00 1.6832000879844855e+01 3 0 1
1749 1 5.0631922159396625e+00 3.0773314772236149e-01 1.5874608738957408e+01 -1 -1 0
495 1 9.0720266061642985e+00 1.1915276543423783e+00 1.5878832125771698e+01 -1 3 1
6088 1 8.5270379930529732e+00 3.6919908400306594e+00 1.6721521133193121e+01 4 1 1
2929 1 1.1456010283415139e+01 4.7606585477305047e-01 1.6758263454781325e+01 -2 3 1
1654 1 3.2901566088611931e+00 7.6672174809961824e+00 1.5823577267488902e+01 -2 6 0
2811 1 4.9913691777698119e+00 2.9095985004956065e-01 2.0713282377175574e+01 2 0 1
6257 1 6.2864968547961881e+00 4.4824748529620138e+00 1.5855738629128373e+01 1 0 1
173 1 5.5584797330855471e+00 6.8706946540844633e+00 1.6968205943919358e+01 4 3 0
1732 1 1.0401709868368316e+01 5.5669264089662089e+00 1.6216940361809662e+01 1 0 0
3411 1 1.1857661294687508e+01 2.5082746808056150e-01 1.9444594317229956e+01 2 -4 0
303 1 1.0450728941927668e+01 5.4855046796454623e+00 1.3278001258950340e+01 -6 5 0
3409 1 7.1131572667521592e+00 8.7107666344657222e+00 1.5870001534280295e+01 4 0 0
3591 1 3.7754591570758014e+00 1.2125337460379951e+01 1.5646224354622632e+01 -1 0 0
6206 1 9.6262323553700373e+00 8.1787133877614426e+00 1.7077236982857475e+01 1 -2 1
6265 1 1.1671275517362002e+01 9.7192035310446272e+00 1.5893989458025620e+01 -1 0 1
6049 1 4.5735902395283183e+00 2.4331159526148736e+00 2.4186450083648037e+01 3 1 1
192 1 1.2170512488069689e+00 1.5059546699219032e+01 1.5897937144227210e+01 3 1 0
3543 1 3.5510273635647858e+00 1.4578753407436963e+01 1.6882632758502922e+01 -2 -2 0
5003 1 8.2420095458711717e+00 1.3290479440456544e+01 1.5527080500055126e+01 -2 1 0
308 1 6.0604267540213597e+00 6.7238241205456939e+00 2.4302428634118296e+01 1 -2 1
25 1 1.0855805646831845e+01 1.2270063729116382e+01 1.6642905973597493e+01 2 4 0
4587 1 8.6210423422278026e+00 1.3192923440169418e+01 2.0069194784647262e+01 -1 3 1
5114 1 4.4748106819988037e-01 1.0210162234103942e+01 2.3551539885905711e+01 4 1 1
1779 1 1.9483269313199829e+00 3.6791581590164375e+00 2.0554744606769653e+01 2 -1 1
2143 1 1.9006295161787328e+00 3.2361887109219141e+00 1.3436602587409835e+01 1 0 1
49 1 4.2912192032361531e+00 2.8760643956568579e+00 1.9478836475569921e+01 0 -4 1
3292 1 1.2198447703916401e+01 8.7165173408865348e-01 2.4006323249277383e+01 -1 9 0
1752 1 8.6094655468797683e+00 3.7441252629537454e+00 1.9418478179354281e+01 1 -1 0
2102 1 9.4890159586571787e+00 1.2777469764002920e+00 2.0507501091533669e+01 0 0 1
5193 1 1.5548808674276162e+00 5.9786433703485908e+00 1.6696559666537190e+01 4 -3 0
1831 1 1.5512231459198471e+00 6.2595658862916785e+00 1.9524764356363814e+01 -3 2 0
4431 1 3.4123631926417621e+00 7.8470253243008479e+00 2.0559165863220251e+01 1 0 1
2864 1 5.6415921693993303e+00 7.1828536223113568e+00 1.9598424408846569e+01 2 -2 1
387 1 6.2254522511702826e+00 4.4534701793017497e+00 2.0601468536427323e+01 -2 0 0
3306 1 9.9173150415687807e+00 8.1827097416835102e+00 1.9797964619946157e+01 0 -1 0
475 1 1.7498658862052541e+00 5.7549282467196941e+00 2.3880863494099273e+01 2 -3 0
4512 1 2.6133279243010210e+00 1.0025798385593312e+01 1.6962398297249031e+01 0 0 1
3070 1 2.6267881181150412e+00 1.0148676408357778e+01 1.9794727236605564e+01 1 -1 1
2025 1 6.4950242460905869e+00 1.1285995932584123e+01 1.6242854337790156e+01 2 2 0
94 1 6.8097736066320005e+00 1.1367742385334033e+01 1.9158697463217962e+01 -1 1 1
1663 1 7.5456101984712234e+00 9.0462614061994753e+00 2.0561417806775147e+01 4 -4 0
71 1 4.5610920786230320e+00 1.1692227713272954e+01 2.0782312987705478e+01 1 -3 0
228 1 1.1904755640913818e+01 1.0008092950635998e+01 2.0775161824880286e+01 -2 2 0
3240 1 3.9835365288305731e+00 1.4340796432068489e+01 1.9649956440365855e+01 0 1 1
1266 1 1.4462294647946028e+00 1.4680327576026256e+01 2.3688124907891940e+01 1 2 1
4542 1 7.8350688516632987e+00 1.5796052870735762e+01 1.6514068147581249e+01 0 1 0
1905 1 8.0685996621586664e+00 1.5765589473579650e+01 1.9308866833904734e+01 -5 1 0
3469 1 1.1163828154526961e+01 1.2277291845184997e+01 1.9432724633442756e+01 0 -2 0
1894 1 2.1833272879232073e+00 3.2078377371760709e+00 2.3087203372657630e+01 -3 2 0
79 1 1.7521849462986709e+00 1.4633457630539437e+01 2.0956774062439965e+01 -3 -2 1
4945 1 5.8916340151746671e-01 1.2995583178149563e+00 1.9488090706738681e+01 2 1 0
229 1 8.0812654200173757e+00 1.2855444129821521e+01 2.3035592876965204e+01 3 2 0
4804 1 9.5234534728514273e+00 9.6237525062926454e-01 2.3346729603888718e+01 2 1 1
3268 1 3.7469248532940700e+00 7.2732608955401874e+00 2.3128704659258393e+01 4 1 0
1927 1 7.4513436460571016e+00 8.8005164843401520e+00 2.3361967205464879e+01 -4 0 0
1417 1 1.1633301676618203e+01 9.8684718501645250e+00 2.3458640510832645e+01 3 -3 1
1839 1 6.3549771501688141e+00 4.2662699227211149e+00 2.3229658973113192e+01 -4 1 0
1724 1 4.3278823251257199e+00 1.1689379719741879e+01 2.3439998503701865e+01 2 1 0
1372 1 1.0246404905330753e+01 5.6117419043899890e+00 2.0187181516286667e+01 2 3 1
6151 1 1.0382304282634804e+01 5.6221943311815314e+00 2.2856974842410864e+01 1 -1 1
5284 1 6.9573976249185288e-01 1.5047783907209952e+01 1.3228073172196117e+01 -2 -1 1
1248 1 3.9303089354572685e-03 1.2039741600220832e+00 1.6783019001851024e+01 -6 -1 1
4893 1 5.1229060632249157e-01 1.7547131621468648e+00 2.4232501302282298e+01 1 3 1
2831 1 4.1029486386327668e-01 1.1038019450838975e+01 1.5718977213008046e+01 -4 -2 1
2993 1 7.9217537573717296e+00 1.5118890011861099e+01 2.4222745030857361e+01 1 -1 1
2151 1 9.9669991944177934e+00 7.8084903591241694e+00 2.4107581374194258e+01 3 1 0
5955 1 5.5889027796307564e+00 1.5917977300636844e+01 2.3605961034372083e+01 -1 -4 1
4525 1 5.4277434555393249e+00 1.6299724678717954e+01 2.0875926850254540e+01 1 3 1
4779 1 8.8779482292584024e+00 3.5168970132367070e+00 2.4187308690598428e+01 4 2 1
4563 1 1.0658647320264492e+01 1.2317239168469412e+01 2.3213956093589989e+01 2 3 1
130 1 6.7705723778051423e+00 1.1127476750272407e+01 2.4298299073577020e+01 5 4 1
74 1 9.3409902946160681e+00 1.2982150500275231e+00 1.3261338296526807e+01 2 1 0
552 2 0.0000000000000000e+00 2.8417180249513345e+00 2.6686917222851886e+01 0 0 0
554 2 0.0000000000000000e+00 0.0000000000000000e+00 2.6686917222851886e+01 0 0 0
556 2 1.2305000000000001e+00 7.1042950623783474e-01 2.6686917222851886e+01 0 0 0
563 2 1.2305000000000001e+00 2.1312885187134998e+00 2.6686917222851886e+01 0 0 0
565 2 2.4610000000000003e+00 2.8417180249513345e+00 2.6686917222851886e+01 0 0 0
567 2 2.4610000000000003e+00 0.0000000000000000e+00 2.6686917222851886e+01 0 0 0
569 2 3.6915000000000004e+00 7.1042950623783474e-01 2.6686917222851886e+01 0 0 0
584 2 3.6914999999999996e+00 2.1312885187134998e+00 2.6686917222851886e+01 0 0 0
993 2 9.8440000000000012e+00 1.2787731112280996e+01 3.3375082777133755e+01 0 0 0
586 2 4.9220000000000006e+00 2.8417180249513332e+00 2.6686917222851886e+01 0 0 0
588 2 4.9220000000000006e+00 0.0000000000000000e+00 2.6686917222851886e+01 0 0 0
590 2 6.1524999999999999e+00 7.1042950623783407e-01 2.6686917222851886e+01 0 0 0
613 2 6.1524999999999999e+00 2.1312885187134989e+00 2.6686917222851886e+01 0 0 0
615 2 7.3829999999999991e+00 2.8417180249513345e+00 2.6686917222851886e+01 0 0 0
617 2 7.3829999999999991e+00 0.0000000000000000e+00 2.6686917222851886e+01 0 0 0
619 2 8.6134999999999984e+00 7.1042950623783407e-01 2.6686917222851886e+01 0 0 0
650 2 8.6134999999999984e+00 2.1312885187135002e+00 2.6686917222851886e+01 0 0 0
652 2 9.8440000000000012e+00 2.8417180249513332e+00 2.6686917222851886e+01 0 0 0
654 2 9.8440000000000012e+00 0.0000000000000000e+00 2.6686917222851886e+01 0 0 0
656 2 1.1074500000000002e+01 7.1042950623783330e-01 2.6686917222851886e+01 0 0 0
695 2 1.1074500000000002e+01 2.1312885187135002e+00 2.6686917222851886e+01 0 0 0
1012 2 1.1074500000000002e+01 1.4919019630994494e+01 3.3375082777133755e+01 0 0 0
559 2 0.0000000000000000e+00 4.2625770374269996e+00 2.6686917222851886e+01 0 0 0
561 2 1.2305000000000001e+00 4.9730065436648339e+00 2.6686917222851886e+01 0 0 0
576 2 1.2305000000000001e+00 6.3938655561404980e+00 2.6686917222851886e+01 0 0 0
580 2 2.4610000000000003e+00 4.2625770374269996e+00 2.6686917222851886e+01 0 0 0
582 2 3.6914999999999996e+00 4.9730065436648339e+00 2.6686917222851886e+01 0 0 0
605 2 3.6914999999999996e+00 6.3938655561404980e+00 2.6686917222851886e+01 0 0 0
557 2 0.0000000000000000e+00 7.1042950623783341e+00 2.6686917222851886e+01 0 0 0
578 2 2.4610000000000003e+00 7.1042950623783341e+00 2.6686917222851886e+01 0 0 0
609 2 4.9220000000000006e+00 4.2625770374269978e+00 2.6686917222851886e+01 0 0 0
611 2 6.1524999999999999e+00 4.9730065436648339e+00 2.6686917222851886e+01 0 0 0
642 2 6.1524999999999999e+00 6.3938655561404980e+00 2.6686917222851886e+01 0 0 0
646 2 7.3829999999999991e+00 4.2625770374269996e+00 2.6686917222851886e+01 0 0 0
607 2 4.9220000000000006e+00 7.1042950623783341e+00 2.6686917222851886e+01 0 0 0
644 2 7.3830000000000009e+00 7.1042950623783341e+00 2.6686917222851886e+01 0 0 0
648 2 8.6135000000000002e+00 4.9730065436648339e+00 2.6686917222851886e+01 0 0 0
687 2 8.6135000000000002e+00 6.3938655561404980e+00 2.6686917222851886e+01 0 0 0
691 2 9.8440000000000012e+00 4.2625770374270004e+00 2.6686917222851886e+01 0 0 0
693 2 1.1074500000000002e+01 4.9730065436648339e+00 2.6686917222851886e+01 0 0 0
734 2 1.1074500000000002e+01 6.3938655561404980e+00 2.6686917222851886e+01 0 0 0
689 2 9.8440000000000012e+00 7.1042950623783341e+00 2.6686917222851886e+01 0 0 0
572 2 0.0000000000000000e+00 8.5251540748539991e+00 2.6686917222851886e+01 0 0 0
574 2 1.2305000000000001e+00 9.2355835810918343e+00 2.6686917222851886e+01 0 0 0
601 2 2.4610000000000003e+00 8.5251540748539991e+00 2.6686917222851886e+01 0 0 0
603 2 3.6915000000000004e+00 9.2355835810918343e+00 2.6686917222851886e+01 0 0 0
570 2 0.0000000000000000e+00 1.1366872099805333e+01 2.6686917222851886e+01 0 0 0
597 2 1.2305000000000001e+00 1.0656442593567498e+01 2.6686917222851886e+01 0 0 0
599 2 2.4610000000000003e+00 1.1366872099805333e+01 2.6686917222851886e+01 0 0 0
634 2 3.6914999999999996e+00 1.0656442593567499e+01 2.6686917222851886e+01 0 0 0
638 2 4.9220000000000006e+00 8.5251540748539991e+00 2.6686917222851886e+01 0 0 0
640 2 6.1524999999999999e+00 9.2355835810918343e+00 2.6686917222851886e+01 0 0 0
683 2 7.3830000000000009e+00 8.5251540748539991e+00 2.6686917222851886e+01 0 0 0
636 2 4.9220000000000006e+00 1.1366872099805333e+01 2.6686917222851886e+01 0 0 0
679 2 6.1524999999999999e+00 1.0656442593567499e+01 2.6686917222851886e+01 0 0 0
681 2 7.3829999999999991e+00 1.1366872099805333e+01 2.6686917222851886e+01 0 0 0
685 2 8.6134999999999984e+00 9.2355835810918343e+00 2.6686917222851886e+01 0 0 0
730 2 9.8440000000000012e+00 8.5251540748539956e+00 2.6686917222851886e+01 0 0 0
732 2 1.1074500000000002e+01 9.2355835810918343e+00 2.6686917222851886e+01 0 0 0
726 2 8.6134999999999984e+00 1.0656442593567498e+01 2.6686917222851886e+01 0 0 0
728 2 9.8440000000000012e+00 1.1366872099805333e+01 2.6686917222851886e+01 0 0 0
773 2 1.1074500000000002e+01 1.0656442593567498e+01 2.6686917222851886e+01 0 0 0
775 2 1.2304999999999998e+01 1.1366872099805333e+01 2.6686917222851886e+01 0 0 0
593 2 0.0000000000000000e+00 1.2787731112280996e+01 2.6686917222851886e+01 0 0 0
595 2 1.2305000000000001e+00 1.3498160618518829e+01 2.6686917222851886e+01 0 0 0
630 2 2.4610000000000003e+00 1.2787731112280996e+01 2.6686917222851886e+01 0 0 0
632 2 3.6915000000000004e+00 1.3498160618518829e+01 2.6686917222851886e+01 0 0 0
591 2 0.0000000000000000e+00 1.5629449137232333e+01 2.6686917222851886e+01 0 0 0
626 2 1.2305000000000001e+00 1.4919019630994494e+01 2.6686917222851886e+01 0 0 0
628 2 2.4610000000000003e+00 1.5629449137232328e+01 2.6686917222851886e+01 0 0 0
671 2 3.6915000000000004e+00 1.4919019630994494e+01 2.6686917222851886e+01 0 0 0
675 2 4.9220000000000006e+00 1.2787731112280996e+01 2.6686917222851886e+01 0 0 0
677 2 6.1524999999999990e+00 1.3498160618518829e+01 2.6686917222851886e+01 0 0 0
722 2 7.3829999999999991e+00 1.2787731112280996e+01 2.6686917222851886e+01 0 0 0
673 2 4.9220000000000006e+00 1.5629449137232333e+01 2.6686917222851886e+01 0 0 0
718 2 6.1524999999999990e+00 1.4919019630994494e+01 2.6686917222851886e+01 0 0 0
720 2 7.3829999999999991e+00 1.5629449137232333e+01 2.6686917222851886e+01 0 0 0
724 2 8.6135000000000002e+00 1.3498160618518835e+01 2.6686917222851886e+01 0 0 0
769 2 9.8440000000000012e+00 1.2787731112280996e+01 2.6686917222851886e+01 0 0 0
771 2 1.1074500000000002e+01 1.3498160618518829e+01 2.6686917222851886e+01 0 0 0
765 2 8.6135000000000002e+00 1.4919019630994494e+01 2.6686917222851886e+01 0 0 0
767 2 9.8440000000000012e+00 1.5629449137232328e+01 2.6686917222851886e+01 0 0 0
807 2 1.1074500000000002e+01 1.4919019630994494e+01 2.6686917222851886e+01 0 0 0
553 2 0.0000000000000000e+00 1.4208590124756650e+00 3.0030999999998535e+01 0 0 0
555 2 0.0000000000000000e+00 0.0000000000000000e+00 3.0030999999998535e+01 0 0 0
564 2 1.2305000000000001e+00 2.1312885187134998e+00 3.0030999999998535e+01 0 0 0
566 2 2.4610000000000003e+00 1.4208590124756650e+00 3.0030999999998535e+01 0 0 0
568 2 2.4610000000000003e+00 0.0000000000000000e+00 3.0030999999998535e+01 0 0 0
585 2 3.6914999999999996e+00 2.1312885187134998e+00 3.0030999999998535e+01 0 0 0
562 2 1.2305000000000001e+00 3.5521475311891644e+00 3.0030999999998535e+01 0 0 0
583 2 3.6914999999999996e+00 3.5521475311891644e+00 3.0030999999998535e+01 0 0 0
587 2 4.9220000000000006e+00 1.4208590124756650e+00 3.0030999999998535e+01 0 0 0
589 2 4.9220000000000006e+00 0.0000000000000000e+00 3.0030999999998535e+01 0 0 0
614 2 6.1524999999999999e+00 2.1312885187134989e+00 3.0030999999998535e+01 0 0 0
616 2 7.3829999999999991e+00 1.4208590124756659e+00 3.0030999999998535e+01 0 0 0
618 2 7.3829999999999991e+00 0.0000000000000000e+00 3.0030999999998535e+01 0 0 0
612 2 6.1524999999999999e+00 3.5521475311891644e+00 3.0030999999998535e+01 0 0 0
651 2 8.6134999999999984e+00 2.1312885187135002e+00 3.0030999999998535e+01 0 0 0
653 2 9.8440000000000012e+00 1.4208590124756659e+00 3.0030999999998535e+01 0 0 0
655 2 9.8440000000000012e+00 0.0000000000000000e+00 3.0030999999998535e+01 0 0 0
696 2 1.1074500000000002e+01 2.1312885187135002e+00 3.0030999999998535e+01 0 0 0
649 2 8.6134999999999984e+00 3.5521475311891657e+00 3.0030999999998535e+01 0 0 0
694 2 1.1074500000000002e+01 3.5521475311891644e+00 3.0030999999998535e+01 0 0 0
558 2 0.0000000000000000e+00 5.6834360499026637e+00 3.0030999999998535e+01 0 0 0
560 2 0.0000000000000000e+00 4.2625770374269996e+00 3.0030999999998535e+01 0 0 0
577 2 1.2305000000000001e+00 6.3938655561404980e+00 3.0030999999998535e+01 0 0 0
579 2 2.4610000000000003e+00 5.6834360499026637e+00 3.0030999999998535e+01 0 0 0
581 2 2.4610000000000003e+00 4.2625770374269996e+00 3.0030999999998535e+01 0 0 0
606 2 3.6914999999999996e+00 6.3938655561404980e+00 3.0030999999998535e+01 0 0 0
575 2 1.2305000000000001e+00 7.8147245686161639e+00 3.0030999999998535e+01 0 0 0
604 2 3.6914999999999996e+00 7.8147245686161639e+00 3.0030999999998535e+01 0 0 0
608 2 4.9220000000000006e+00 5.6834360499026637e+00 3.0030999999998535e+01 0 0 0
610 2 4.9220000000000006e+00 4.2625770374269978e+00 3.0030999999998535e+01 0 0 0
643 2 6.1524999999999999e+00 6.3938655561404980e+00 3.0030999999998535e+01 0 0 0
645 2 7.3829999999999991e+00 5.6834360499026637e+00 3.0030999999998535e+01 0 0 0
647 2 7.3829999999999991e+00 4.2625770374269996e+00 3.0030999999998535e+01 0 0 0
641 2 6.1524999999999999e+00 7.8147245686161639e+00 3.0030999999998535e+01 0 0 0
688 2 8.6135000000000002e+00 6.3938655561404980e+00 3.0030999999998535e+01 0 0 0
690 2 9.8440000000000012e+00 5.6834360499026637e+00 3.0030999999998535e+01 0 0 0
692 2 9.8440000000000012e+00 4.2625770374270004e+00 3.0030999999998535e+01 0 0 0
735 2 1.1074500000000002e+01 6.3938655561404980e+00 3.0030999999998535e+01 0 0 0
686 2 8.6135000000000002e+00 7.8147245686161639e+00 3.0030999999998535e+01 0 0 0
733 2 1.1074500000000002e+01 7.8147245686161639e+00 3.0030999999998535e+01 0 0 0
571 2 0.0000000000000000e+00 9.9460130873296642e+00 3.0030999999998535e+01 0 0 0
573 2 0.0000000000000000e+00 8.5251540748539991e+00 3.0030999999998535e+01 0 0 0
600 2 2.4610000000000003e+00 9.9460130873296642e+00 3.0030999999998535e+01 0 0 0
602 2 2.4610000000000003e+00 8.5251540748539991e+00 3.0030999999998535e+01 0 0 0
596 2 1.2305000000000001e+00 1.2077301606043163e+01 3.0030999999998535e+01 0 0 0
598 2 1.2305000000000001e+00 1.0656442593567498e+01 3.0030999999998535e+01 0 0 0
633 2 3.6914999999999996e+00 1.2077301606043163e+01 3.0030999999998535e+01 0 0 0
635 2 3.6914999999999996e+00 1.0656442593567499e+01 3.0030999999998535e+01 0 0 0
637 2 4.9220000000000006e+00 9.9460130873296642e+00 3.0030999999998535e+01 0 0 0
639 2 4.9220000000000006e+00 8.5251540748539991e+00 3.0030999999998535e+01 0 0 0
682 2 7.3830000000000009e+00 9.9460130873296642e+00 3.0030999999998535e+01 0 0 0
684 2 7.3830000000000009e+00 8.5251540748539991e+00 3.0030999999998535e+01 0 0 0
678 2 6.1524999999999999e+00 1.2077301606043163e+01 3.0030999999998535e+01 0 0 0
680 2 6.1524999999999999e+00 1.0656442593567499e+01 3.0030999999998535e+01 0 0 0
729 2 9.8440000000000012e+00 9.9460130873296642e+00 3.0030999999998535e+01 0 0 0
731 2 9.8440000000000012e+00 8.5251540748539956e+00 3.0030999999998535e+01 0 0 0
725 2 8.6135000000000002e+00 1.2077301606043163e+01 3.0030999999998535e+01 0 0 0
727 2 8.6134999999999984e+00 1.0656442593567498e+01 3.0030999999998535e+01 0 0 0
772 2 1.1074500000000002e+01 1.2077301606043163e+01 3.0030999999998535e+01 0 0 0
774 2 1.1074500000000002e+01 1.0656442593567498e+01 3.0030999999998535e+01 0 0 0
594 2 0.0000000000000000e+00 1.2787731112280996e+01 3.0030999999998535e+01 0 0 0
631 2 2.4610000000000003e+00 1.2787731112280996e+01 3.0030999999998535e+01 0 0 0
592 2 0.0000000000000000e+00 1.4208590124756663e+01 3.0030999999998535e+01 0 0 0
627 2 1.2305000000000001e+00 1.4919019630994494e+01 3.0030999999998535e+01 0 0 0
629 2 2.4610000000000003e+00 1.4208590124756663e+01 3.0030999999998535e+01 0 0 0
672 2 3.6915000000000004e+00 1.4919019630994494e+01 3.0030999999998535e+01 0 0 0
676 2 4.9220000000000006e+00 1.2787731112280996e+01 3.0030999999998535e+01 0 0 0
723 2 7.3829999999999991e+00 1.2787731112280996e+01 3.0030999999998535e+01 0 0 0
674 2 4.9220000000000006e+00 1.4208590124756663e+01 3.0030999999998535e+01 0 0 0
719 2 6.1524999999999990e+00 1.4919019630994494e+01 3.0030999999998535e+01 0 0 0
721 2 7.3830000000000009e+00 1.4208590124756663e+01 3.0030999999998535e+01 0 0 0
770 2 9.8440000000000012e+00 1.2787731112280996e+01 3.0030999999998535e+01 0 0 0
766 2 8.6135000000000002e+00 1.4919019630994494e+01 3.0030999999998535e+01 0 0 0
768 2 9.8440000000000012e+00 1.4208590124756663e+01 3.0030999999998535e+01 0 0 0
806 2 1.1074500000000002e+01 1.6339878643470161e+01 3.0030999999998535e+01 0 0 0
808 2 1.1074500000000002e+01 1.4919019630994494e+01 3.0030999999998535e+01 0 0 0
810 2 1.2304999999999998e+01 1.4208590124756658e+01 3.0030999999998535e+01 0 0 0
881 2 0.0000000000000000e+00 2.8417180249513345e+00 3.3375082777133755e+01 0 0 0
882 2 0.0000000000000000e+00 0.0000000000000000e+00 3.3375082777133755e+01 0 0 0
883 2 1.2305000000000001e+00 7.1042950623783474e-01 3.3375082777133755e+01 0 0 0
887 2 1.2305000000000001e+00 2.1312885187134998e+00 3.3375082777133755e+01 0 0 0
888 2 2.4610000000000003e+00 2.8417180249513345e+00 3.3375082777133755e+01 0 0 0
889 2 2.4610000000000003e+00 0.0000000000000000e+00 3.3375082777133755e+01 0 0 0
890 2 3.6915000000000004e+00 7.1042950623783474e-01 3.3375082777133755e+01 0 0 0
898 2 3.6914999999999996e+00 2.1312885187134998e+00 3.3375082777133755e+01 0 0 0
899 2 4.9220000000000006e+00 2.8417180249513332e+00 3.3375082777133755e+01 0 0 0
900 2 4.9220000000000006e+00 0.0000000000000000e+00 3.3375082777133755e+01 0 0 0
901 2 6.1524999999999999e+00 7.1042950623783407e-01 3.3375082777133755e+01 0 0 0
913 2 6.1524999999999999e+00 2.1312885187134989e+00 3.3375082777133755e+01 0 0 0
914 2 7.3829999999999991e+00 2.8417180249513345e+00 3.3375082777133755e+01 0 0 0
915 2 7.3829999999999991e+00 0.0000000000000000e+00 3.3375082777133755e+01 0 0 0
916 2 8.6134999999999984e+00 7.1042950623783407e-01 3.3375082777133755e+01 0 0 0
932 2 8.6134999999999984e+00 2.1312885187135002e+00 3.3375082777133755e+01 0 0 0
933 2 9.8440000000000012e+00 2.8417180249513332e+00 3.3375082777133755e+01 0 0 0
934 2 9.8440000000000012e+00 0.0000000000000000e+00 3.3375082777133755e+01 0 0 0
935 2 1.1074500000000002e+01 7.1042950623783330e-01 3.3375082777133755e+01 0 0 0
955 2 1.1074500000000002e+01 2.1312885187135002e+00 3.3375082777133755e+01 0 0 0
885 2 0.0000000000000000e+00 4.2625770374269996e+00 3.3375082777133755e+01 0 0 0
886 2 1.2305000000000001e+00 4.9730065436648339e+00 3.3375082777133755e+01 0 0 0
894 2 1.2305000000000001e+00 6.3938655561404980e+00 3.3375082777133755e+01 0 0 0
896 2 2.4610000000000003e+00 4.2625770374269996e+00 3.3375082777133755e+01 0 0 0
897 2 3.6914999999999996e+00 4.9730065436648339e+00 3.3375082777133755e+01 0 0 0
909 2 3.6914999999999996e+00 6.3938655561404980e+00 3.3375082777133755e+01 0 0 0
884 2 0.0000000000000000e+00 7.1042950623783341e+00 3.3375082777133755e+01 0 0 0
895 2 2.4610000000000003e+00 7.1042950623783341e+00 3.3375082777133755e+01 0 0 0
911 2 4.9220000000000006e+00 4.2625770374269978e+00 3.3375082777133755e+01 0 0 0
912 2 6.1524999999999999e+00 4.9730065436648339e+00 3.3375082777133755e+01 0 0 0
928 2 6.1524999999999999e+00 6.3938655561404980e+00 3.3375082777133755e+01 0 0 0
930 2 7.3829999999999991e+00 4.2625770374269996e+00 3.3375082777133755e+01 0 0 0
910 2 4.9220000000000006e+00 7.1042950623783341e+00 3.3375082777133755e+01 0 0 0
929 2 7.3830000000000009e+00 7.1042950623783341e+00 3.3375082777133755e+01 0 0 0
931 2 8.6135000000000002e+00 4.9730065436648339e+00 3.3375082777133755e+01 0 0 0
951 2 8.6135000000000002e+00 6.3938655561404980e+00 3.3375082777133755e+01 0 0 0
953 2 9.8440000000000012e+00 4.2625770374270004e+00 3.3375082777133755e+01 0 0 0
954 2 1.1074500000000002e+01 4.9730065436648339e+00 3.3375082777133755e+01 0 0 0
975 2 1.1074500000000002e+01 6.3938655561404980e+00 3.3375082777133755e+01 0 0 0
952 2 9.8440000000000012e+00 7.1042950623783341e+00 3.3375082777133755e+01 0 0 0
892 2 0.0000000000000000e+00 8.5251540748539991e+00 3.3375082777133755e+01 0 0 0
893 2 1.2305000000000001e+00 9.2355835810918343e+00 3.3375082777133755e+01 0 0 0
907 2 2.4610000000000003e+00 8.5251540748539991e+00 3.3375082777133755e+01 0 0 0
908 2 3.6915000000000004e+00 9.2355835810918343e+00 3.3375082777133755e+01 0 0 0
891 2 0.0000000000000000e+00 1.1366872099805333e+01 3.3375082777133755e+01 0 0 0
905 2 1.2305000000000001e+00 1.0656442593567498e+01 3.3375082777133755e+01 0 0 0
906 2 2.4610000000000003e+00 1.1366872099805333e+01 3.3375082777133755e+01 0 0 0
924 2 3.6914999999999996e+00 1.0656442593567499e+01 3.3375082777133755e+01 0 0 0
926 2 4.9220000000000006e+00 8.5251540748539991e+00 3.3375082777133755e+01 0 0 0
927 2 6.1524999999999999e+00 9.2355835810918343e+00 3.3375082777133755e+01 0 0 0
949 2 7.3830000000000009e+00 8.5251540748539991e+00 3.3375082777133755e+01 0 0 0
925 2 4.9220000000000006e+00 1.1366872099805333e+01 3.3375082777133755e+01 0 0 0
947 2 6.1524999999999999e+00 1.0656442593567499e+01 3.3375082777133755e+01 0 0 0