
# Create simulation box and atoms

read_data data.ML_graphite_1atm_240K
  orthogonal box = (0 0 3.74403) to (49.22 49.0196 56.318)
  4 by 3 by 5 MPI processor grid
  reading atoms ...
  6328 atoms
  reading velocities ...
  6328 velocities
group water type 1
3568 atoms in group water
group graphite type 2
2760 atoms in group graphite

# Define potential

pair_style sw
pair_coeff * * MLC_e.sw mW C


# Fix graphite atoms in place

fix 5 graphite setforce 0.0 0.0 0.0
velocity graphite set 0.0 0.0 0.0


# Equilibration of molecular water

# Add velocity/set timestep

velocity	    water create ${TEMP} ${SEED} rot yes dist gaussian
velocity	    water create 240 ${SEED} rot yes dist gaussian
velocity	    water create 240 19326 rot yes dist gaussian
timestep	    5.0

# Define output

compute			1 water msd
compute			3 water temp
thermo	    	50
thermo_style	custom step temp press vol etotal ke pe c_1[4] c_3

# Neighbor lists

neigh_modify    delay 0 every 1 check yes

# Set fixes

fix             1 water momentum 10 linear 1 1 1 rescale
fix             2 water nve
fix             3 water temp/csvr ${TEMP} ${TEMP} 500.0 ${SEED}
fix             3 water temp/csvr 240 ${TEMP} 500.0 ${SEED}
fix             3 water temp/csvr 240 240 500.0 ${SEED}
fix             3 water temp/csvr 240 240 500.0 19326
fix             4 water press/berendsen z ${PRES} ${PRES} 1000.0 modulus 20000
fix             4 water press/berendsen z 1 ${PRES} 1000.0 modulus 20000
fix             4 water press/berendsen z 1 1 1000.0 modulus 20000

# Run 0.5 ns equilibration

dump		    1 all atom 2000 ${DIR}/eq.${NAME}-${TEMP}.dump
dump		    1 all atom 2000 run_14/eq.${NAME}-${TEMP}.dump
dump		    1 all atom 2000 run_14/eq.het_freeze_14-${TEMP}.dump
dump		    1 all atom 2000 run_14/eq.het_freeze_14-240.dump

reset_timestep  0

run	            100000
Neighbor list info ...
  update every 1 steps, delay 0 steps, check yes
  max neighbors/atom: 2000, page size: 100000
  master list distance cutoff = 6.67472
  ghost atom cutoff = 6.67472
  binsize = 3.33736, bins = 15 15 16
  1 neighbor lists, perpetual/occasional/extra = 1 0 0
  (1) pair sw, perpetual
      attributes: full, newton on
      pair build: full/bin/atomonly
      stencil: full/bin/3d
      bin: standard
Per MPI rank memory allocation (min/avg/max) = 4.08 | 4.181 | 4.499 Mbytes
Step Temp Press Volume TotEng KinEng PotEng c_1[4] c_3 
       0    135.30583   -58.143592    126847.59   -33960.221    2551.8119   -36512.033            0          240 
      50    136.41484   -228.41692     126979.2   -33979.383    2572.7273    -36552.11   0.50317377    241.96712 
     100    136.33337   -364.92226    127039.21   -34010.603    2571.1909   -36581.793   0.87772764    241.82261 
     150    133.41124   -258.69599    127040.39   -34013.884    2516.0806   -36529.964     1.142964    236.63945 
     200    133.13513   -197.93855    127020.11   -34046.449    2510.8732   -36557.322    1.3781147    236.14969 
     250    133.55854   -125.47555    126928.36   -34030.885    2518.8586   -36549.743    1.6146394    236.90072 
     300    134.81699    34.485591    126950.12   -34084.757    2542.5924   -36627.349    1.8451653     239.1329 
     350    134.58147    -34.55279    126964.79   -34054.761    2538.1507   -36592.911    2.0357091    238.71516 
     400    137.91133   -186.28411    126919.34   -34012.482    2600.9505   -36613.432    2.2393951    244.62153 
     450    135.12284   -207.46543    126888.32   -33995.699    2548.3607   -36544.059    2.4723413    239.67542 
     500     138.7047   -273.61465    126857.29   -33972.417    2615.9132    -36588.33    2.7173647    246.02878 
     550    132.11661   -275.83398    126906.86   -34035.334    2491.6645   -36526.999    2.9750365    234.34309 
     600     136.2339   -102.77978    126904.18   -34007.588    2569.3149   -36576.902    3.2725036    241.64617 
     650    132.67216   -126.49442    126889.05   -34015.289    2502.1418   -36517.431    3.5603765    235.32849 
     700     137.9697   -253.45095    126898.55    -34008.93    2602.0514   -36610.981    3.8144796    244.72507 
     750    137.32951   -220.98048    126931.71   -33992.733    2589.9776   -36582.711    3.9963259    243.58952 
     800    134.44391   -401.29941    126920.23   -34056.201    2535.5564   -36591.757    4.2570768    238.47116 
     850    134.87301     -223.153    126972.85   -34011.471    2543.6489    -36555.12    4.4841883    239.23227 
     900    133.56365   -367.24887       127019   -34069.232    2518.9551   -36588.187    4.7161892    236.90979 
     950    134.54016    -204.0676    127062.54   -34103.938    2537.3716    -36641.31     4.959685    238.64188 
    1000    136.20843   -391.06603     127220.9   -34056.946    2568.8345   -36625.781    5.2065741      241.601 
    1050    134.49334   -540.48018    127177.23   -34021.879    2536.4886   -36558.367    5.3643512    238.55883 
    1100    135.12383    -148.4657     127138.6    -34015.08    2548.3793   -36563.459    5.5822156    239.67716 
    1150    134.65823   -275.53414    127100.18   -34033.298    2539.5983   -36572.896    5.7412617     238.8513 
    1200    133.29043   -308.11385    127134.95   -34012.835    2513.8023   -36526.637    5.9167282    236.42517 
    1250    137.02534   -438.12424    127125.09   -33954.916    2584.2411   -36539.158    6.1578225       243.05 
    1300    136.10676   -227.01705    127107.17   -33982.394     2566.917   -36549.311    6.3225621    241.42065 
    1350    136.91401   -428.94937    127064.09   -33964.999    2582.1415    -36547.14    6.5650142    242.85253 
    1400    137.83085   -212.67056    127128.18   -33968.551    2599.4326   -36567.983    6.8106538    244.47877 
    1450    134.71778   -377.13447    127172.05   -33965.295    2540.7215   -36506.017    7.0400123    238.95694 
    1500    138.72334   -251.23416    127173.65   -33940.525    2616.2647    -36556.79    7.2227713    246.06184 
    1550    139.08281   -338.43833    127161.22    -33945.61    2623.0441   -36568.654    7.4668715    246.69945 
    1600    137.18622   -340.81037    127113.87   -33941.599    2587.2752   -36528.874    7.7935652    243.33535 
    1650     138.1046   -76.148132    127113.15   -33935.362    2604.5956   -36539.958    8.1129612    244.96435 
    1700    137.60068    29.046881    127247.98   -33960.436    2595.0917   -36555.528    8.3415797     244.0705 
    1750    136.32292   -61.907035     127394.1   -33942.742    2570.9938   -36513.735    8.6180197    241.80408 
    1800    135.69762    -249.3827    127501.98   -33968.688    2559.2008   -36527.889    8.8365735    240.69494 
    1850    138.85655   -128.43497    127565.39   -33928.152     2618.777   -36546.929    9.0495367    246.29812 
    1900    136.35301   -361.42468    127661.57   -33974.547    2571.5611   -36546.108    9.3024075    241.85743 
    1950    133.66789   -420.85021    127661.02    -34004.64     2520.921   -36525.561    9.4062258    237.09469 
    2000    136.40046   -290.59315    127716.06   -33999.391    2572.4561   -36571.847    9.5822555    241.94161 
    2050    136.07547   -276.99867    127772.23   -33975.802    2566.3269   -36542.129    9.7915601    241.36515 
    2100    133.84781    -132.4437    127818.68   -34037.505    2524.3141   -36561.819    9.9533079    237.41382 
    2150    135.69916   -275.54348    127847.41   -34019.205    2559.2299   -36578.435    10.068671    240.69767 
    2200    134.81406   -238.91275     127809.2   -34010.585    2542.5373   -36553.122    10.313396    239.12772 
    2250    138.59899   -150.96185    127783.23   -33984.203    2613.9194   -36598.122    10.643181    245.84126 
    2300    136.56804   -329.83334    127746.79   -33993.431    2575.6166   -36569.047    10.863587    242.23886 
    2350    136.46136   -355.01669    127749.79    -34086.48    2573.6046   -36660.084    11.079433    242.04962 
    2400    135.87595   -300.08993    127701.08   -34038.982     2562.564   -36601.546    11.411558    241.01125 
    2450    137.14859   -319.72098    127657.91   -33999.631    2586.5655   -36586.196     11.55393     243.2686 
    2500    134.72268   -317.11271    127653.12   -33975.932    2540.8138   -36516.746    11.778289    238.96562 
    2550    134.79809    100.05901    127613.62   -34011.621    2542.2361   -36553.857    11.995136    239.09939 
    2600    131.39253    118.74713    127692.39   -34059.027    2478.0087   -36537.035    12.214021    233.05875 
    2650    136.27182   -299.56245    127629.87     -34021.8    2570.0301    -36591.83    12.373394    241.71344 
    2700    135.08941   -389.00294     127558.2   -34036.292    2547.7302   -36584.023    12.553449    239.61611 
    2750    137.01494   -273.04076    127483.14   -34042.439     2584.045   -36626.484     12.77763    243.03155 
    2800    134.63221   -461.52263    127489.46   -34046.354    2539.1076   -36585.462    13.108762    238.80516 
    2850    135.75722   -337.71907    127378.62   -34024.004    2560.3249   -36584.329    13.310671    240.80065 
    2900    136.32564   -419.32093    127306.83   -34008.456     2571.045   -36579.501    13.550053    241.80889 
    2950     137.4982   -171.10067    127280.48     -34018.9    2593.1591   -36612.059    13.803779    243.88874 
    3000    133.48844   -119.47338    127298.82   -33987.893    2517.5366   -36505.429    14.097878    236.77639 
    3050    134.04402   -458.32543    127329.41   -33952.138    2528.0146   -36480.153    14.337292    237.76184 
    3100    136.49617   -305.19567    127370.32   -33965.704    2574.2611   -36539.965     14.57052    242.11137 
    3150    136.33496   -314.11535    127473.89   -33950.459    2571.2207    -36521.68    14.943556    241.82542 
    3200    136.03474   -332.87559    127504.47   -33970.844    2565.5588   -36536.403    15.215338    241.29291 
    3250    137.08281   -179.52513    127478.86   -33963.068    2585.3248   -36548.393    15.421138    243.15192 
    3300    135.72744   -337.78309    127444.95    -33965.27    2559.7632   -36525.033    15.488708    240.74783 
    3350    137.43987   -355.87254    127240.44   -33951.965    2592.0589   -36544.024    15.647703    243.78527 
    3400    135.44997   -547.27162    127168.83    -33931.78    2554.5302    -36486.31    15.802847    240.25566 
    3450    134.86672    -367.7249    127090.85   -33985.899    2543.5303    -36529.43    15.933811    239.22111 
    3500    137.40782     -290.848    127142.69   -33947.473    2591.4545   -36538.927    16.184287    243.72842 
    3550    138.97489   -275.06027    127122.81   -33953.486    2621.0087   -36574.495    16.393878    246.50802 
    3600    133.53309   -314.29222    127091.71   -33996.594    2518.3787   -36514.973    16.796189    236.85559 
    3650    134.53625   -537.32427    127010.31   -34036.537    2537.2978   -36573.834    17.187404    238.63494 
    3700    133.80909   -89.655151    127022.67    -34024.03     2523.584   -36547.614    17.430793    237.34514 
    3750     133.2249   -251.60711    126998.38   -34066.863    2512.5664   -36579.429    17.790277    236.30893 
    3800    134.30137    -271.0535    126977.17   -34042.902    2532.8682    -36575.77    18.079482    238.21833 
    3850    133.15261   -508.64655    126949.92   -34025.953     2511.203   -36537.156    18.226921    236.18071 
    3900     134.6113   -227.43775    126947.21   -34050.015    2538.7132   -36588.728    18.408793    238.76806 
    3950    134.25919   -428.45142    126877.64   -34010.358    2532.0727    -36542.43    18.559745    238.14351 
    4000    136.31525   -373.22656    126899.75   -34035.264    2570.8491   -36606.113    18.734282    241.79046 
    4050    133.57043    34.368874    126924.97   -34014.309    2519.0829   -36533.392     18.91403    236.92182 
    4100    135.80085   -172.30814    126899.46   -33992.636    2561.1478   -36553.784    19.155338    240.87805 
    4150     139.0945   -352.63138    126983.94   -33946.971    2623.2646   -36570.235    19.455596    246.72018 
    4200     136.4275   -27.133881    126964.19   -33984.131     2572.966   -36557.097    19.737437    241.98957 
    4250    136.23544   -128.72028    126991.28   -33970.642    2569.3439   -36539.986    20.270775    241.64891 
    4300    138.20146   -100.86098    127044.08   -33967.288    2606.4222   -36573.711    20.688911    245.13615 
    4350    134.39536   -153.93363    127067.17   -34030.587    2534.6406   -36565.228    20.994601    238.38503 
    4400     136.7117   -423.61786    126979.42   -33962.781     2578.326   -36541.107    21.398215    242.49367 
    4450    136.80007    18.575457    126959.89   -33950.338    2579.9926   -36530.331    21.670925    242.65042 
    4500    135.36335   -160.13628    127029.92   -33974.036    2552.8967   -36526.932    21.876803    240.10203 
    4550    135.78073   -247.21344    127052.64   -33979.424    2560.7682   -36540.192    22.030027    240.84235 
    4600     131.7339   -67.933226    127125.09     -33973.6    2484.4468   -36458.047    22.170065    233.66426 
    4650      134.612   -292.17757    127206.75   -33930.089    2538.7265   -36468.815    22.415862    238.76931 
    4700    135.23885   -198.19595    127207.18    -33953.78    2550.5487   -36504.329    22.651951    239.88119 
    4750     135.7304   -13.561154    127220.89   -33950.046    2559.8191   -36509.865    22.924929    240.75309 
    4800    133.81189   -29.161151    127279.23   -33971.193    2523.6367    -36494.83    23.101461     237.3501 
    4850    137.66026   -3.8565701    127323.87   -33958.718    2596.2155   -36554.934    23.313296    244.17619 
    4900    135.52505   -299.12505    127356.29   -34026.382    2555.9461   -36582.329    23.550509    240.38883 
    4950    136.60485   -344.66601    127377.38   -34041.219    2576.3108    -36617.53    23.825677    242.30414 
    5000    132.92542   -618.46201    127398.87   -34058.118    2506.9182   -36565.037    23.925117    235.77772 
    5050    135.54351    -197.9084    127369.41   -34000.061    2556.2943   -36556.356    24.108837    240.42158 
    5100    133.98214   -322.04681    127423.48   -34047.703    2526.8476   -36574.551    24.375313    237.65209 
    5150    134.69074   -424.77363    127331.84   -34028.898    2540.2115    -36569.11    24.405325    238.90898 
    5200    134.81622   -371.06208    127304.64   -34004.933     2542.578   -36547.511    24.612775    239.13155 
    5250    134.26411   -370.78683    127258.52   -34004.188    2532.1654   -36536.353    24.781593    238.15223 
    5300    134.06902   -414.28137    127139.45    -34038.89    2528.4861   -36567.376    25.003853    237.80619 
    5350     134.4476   -383.90496    127132.97   -34013.408    2535.6259   -36549.034    25.254107     238.4777 
    5400    135.04711    36.337688    127212.45   -33989.796    2546.9324   -36536.728    25.386532    239.54109 
    5450    136.93786   -213.60642    127257.53   -34024.564    2582.5911   -36607.155    25.631633    242.89482 
    5500    134.46398   -374.57451    127231.73   -34008.102    2535.9349   -36544.037    25.808071    238.50675 
    5550    137.46341   -624.47452    127192.55   -33978.819    2592.5029   -36571.322    26.075052    243.82703 
    5600    136.19617   -426.98266    127219.62   -33968.775    2568.6033   -36537.378    26.336219    241.57924 
    5650    135.50279   -203.51281    127212.78    -33991.61    2555.5264   -36547.137    26.476719    240.34936 
    5700    133.07154   -298.62295    127140.83   -33991.975     2509.674   -36501.649    26.652901     236.0369 
    5750    135.49966   -444.73817    127150.38   -33968.372    2555.4673    -36523.84    26.886641     240.3438 
    5800    135.10643   -357.33056    127098.45   -33939.362    2548.0512   -36487.413    27.131219    239.64631 
    5850    136.66112    63.280774    127190.16   -33869.775     2577.372   -36447.147    27.277715    242.40395 
    5900    139.24282   -511.36368    127318.56   -33902.082    2626.0618   -36528.143    27.548298    246.98327 
    5950     138.8866   -252.43605    127342.54    -33935.92    2619.3437   -36555.263    27.899522    246.35142 
    6000    133.97276   -314.85097    127250.16   -33985.523    2526.6707   -36512.193    28.002089    237.63545 
    6050     136.0188    -199.0694    127225.08   -33983.169    2565.2582   -36548.427    28.038991    241.26463 
    6100    136.03452   -334.41879    127217.66   -34003.174    2565.5547   -36568.728    28.245133    241.29252 
    6150    137.15256   -226.86051    127263.41   -33999.538    2586.6404   -36586.178    28.444497    243.27565 
    6200    137.26762    106.01841    127241.47   -33991.208    2588.8104   -36580.019    28.838042    243.47974 
    6250    136.28679    -562.6972    127205.65   -34001.097    2570.3123    -36571.41     29.09621    241.73998 
    6300    139.21517   -258.01432    127169.82   -33952.158    2625.5404   -36577.698    29.310883    246.93422 
    6350    137.79181   -266.19096    127162.72   -33911.762    2598.6963   -36510.459     29.64655    244.40952 
    6400    137.43959   -262.85064     127046.3   -33926.526    2592.0537   -36518.579    29.678369    243.78478 
    6450    139.89593   -497.45873    127001.76   -33957.742    2638.3792   -36596.121    29.876629    248.14173 
    6500      134.755   -58.280927    126958.35   -33966.707    2541.4234   -36508.131    30.049574    239.02295 
    6550    136.16932   -53.488573    127063.62   -33994.236    2568.0969   -36562.333    30.271051    241.53162 
    6600    135.72085   -168.13796    127080.28    -34002.04    2559.6388   -36561.679    30.351674    240.73613 
    6650    135.92911   -111.02351    127129.84   -34036.352    2563.5666   -36599.919    30.516096    241.10554 
    6700    133.57138    27.644105    127120.61   -33988.905    2519.1008   -36508.005    30.856319     236.9235 
    6750    139.04885   -302.26771    127052.92    -33957.59    2622.4037   -36579.993     31.24022    246.63922 
    6800    135.48739   -116.01729    126889.88   -33975.822    2555.2359   -36531.058    31.537556    240.32204 
    6850    135.45686   -355.96137    126910.21   -33983.291    2554.6603   -36537.951    31.753466    240.26789 
    6900    137.69778   -352.49907    126979.54   -33936.048     2596.923   -36532.971     31.90885    244.24274 
    6950    136.91355   -67.038467    126949.36   -33964.618    2582.1327    -36546.75    32.223102     242.8517 
    7000      136.402   -89.083193    127045.39   -33971.675     2572.485    -36544.16    32.458949    241.94433 
    7050    135.28299    -378.7988     126979.7   -33985.489    2551.3811    -36536.87    32.872382    239.95949 
    7100    134.76568   -174.03534    126988.68   -33979.781    2541.6248   -36521.406      33.2272     239.0419 
    7150    134.13247   -148.98998    127101.79   -33966.184    2529.6827   -36495.867    33.450336    237.91873 
    7200    137.17961   -144.31515    127105.63   -33958.958    2587.1506   -36546.109    33.712367    243.32363 
    7250    131.95815   -496.42712    127053.21   -34017.812     2488.676   -36506.488    33.991215    234.06202 
    7300    132.78814   -238.32085    126981.13   -34017.553    2504.3293   -36521.883    34.177491    235.53422 
    7350     134.0946   -164.30965    126970.38   -33993.287    2528.9684   -36522.255    34.361734    237.85156 
    7400    138.10619   -145.72916    126990.81    -33964.21    2604.6255   -36568.835    34.667361    244.96717 
    7450    133.86711   -421.32388    127003.36   -33989.794    2524.6781   -36514.472     35.02201    237.44805 
    7500    137.89843   -45.510278    126983.04   -33981.825    2600.7071   -36582.532    35.418185    244.59864 
    7550    135.31663   -225.95863     127062.6   -33974.339    2552.0156   -36526.354    35.709008    240.01916 
    7600    134.52915   -132.06999    127046.79   -33970.243     2537.164   -36507.407    35.834624    238.62236 
    7650     134.4291   -211.45849    127024.06    -33957.37    2535.2771   -36492.647     35.88504    238.44489 
    7700    132.98829   -202.89925     127020.5   -33987.197    2508.1039   -36495.301    36.183366    235.88923 
    7750    134.33349   -279.09459    127011.87   -33940.439    2533.4739   -36473.913    36.534482     238.2753 
    7800    135.92691   -57.717144    127035.27    -33915.55    2563.5252   -36479.076    36.880492    241.10165 
    7850    137.49269   -252.15225    126989.84   -33931.154     2593.055   -36524.209    37.309419    243.87895 
    7900     135.1649    -45.53066    127047.37   -33955.329     2549.154   -36504.483     37.57171    239.75003 
    7950    135.83322   -328.42371    127112.37   -33982.189    2561.7581   -36543.947    37.883151    240.93545 
    8000    135.91301   -273.17737    127208.31   -33962.946    2563.2629   -36526.209    38.396878    241.07698 
    8050    136.69382   -66.116588    127233.21   -33963.205    2577.9888   -36541.194    38.689405    242.46196 
    8100     135.9579   -419.79858     127289.9   -33956.307    2564.1096   -36520.416    39.054575    241.15661 
    8150    133.82127   -268.71134    127276.34   -34045.134    2523.8136   -36568.948    39.406289    237.36674 
    8200    130.91324   -289.69135    127346.56   -34100.567    2468.9694   -36569.536    39.842708    232.20859 
    8250     132.2088   -207.69635    127331.25   -34074.644    2493.4031   -36568.047     40.23581    234.50661 
    8300     133.4065   -346.13868    127380.27   -34051.415    2515.9913   -36567.407     40.32674    236.63105 
    8350    133.28275   -445.39905    127317.18   -34052.626    2513.6573   -36566.283    40.377316    236.41153 
    8400    132.11448   -129.02527    127373.61   -34037.974    2491.6243   -36529.599    40.441905    234.33931 
    8450    136.77117   -463.77297    127397.22   -34016.564    2579.4475   -36596.012    40.589477    242.59915 
    8500    133.62819   -324.33074     127421.1    -34041.26    2520.1722   -36561.432    40.666912    237.02427 
    8550     135.5743   -415.63892    127371.31   -33973.018    2556.8751   -36529.893    40.863777     240.4762 
    8600    135.90092   -526.71737    127305.63   -33988.527     2563.035   -36551.562    41.173011    241.05555 
    8650    137.60098   -258.89391    127348.06   -33971.941    2595.0974   -36567.039    41.396088    244.07104 
    8700    138.16709   -282.71547     127346.4    -33971.31    2605.7739   -36577.084    41.829243    245.07518 
    8750    133.68005   -132.58549    127313.37   -34030.299    2521.1502   -36551.449    42.221403    237.11625 
    8800    134.88888   -147.47267    127384.73   -34079.394    2543.9484   -36623.342    42.710171    239.26043 
    8850    129.17246   -158.85375    127394.68   -34122.429     2436.139   -36558.568    42.921423    229.12087 
    8900    134.29082   -232.44121    127397.55   -34055.261    2532.6692    -36587.93    43.257995    238.19962 
    8950    131.73549   -446.51238    127395.22    -34079.96    2484.4767   -36564.437    43.673839    233.66707 
    9000    134.52459   -348.58527    127301.86    -34022.05     2537.078   -36559.128    43.962444    238.61427 
    9050    132.84834    -478.4895    127221.83   -34076.794    2505.4645   -36582.259    44.254246    235.64099 
    9100     135.8448   -299.34485    127154.35   -34038.338    2561.9766   -36600.314    44.458061      240.956 
    9150     134.4298   -254.38664    127146.64   -34030.835    2535.2903   -36566.125    44.580093    238.44614 
    9200    131.01956   -71.343674    127193.57   -34025.194    2470.9746   -36496.168    45.058573    232.39719 
    9250    139.02104   -2.2875598    127223.39   -33993.964    2621.8792   -36615.843    45.118284    246.58989 
    9300    133.16663   -635.00465    127231.76   -33990.202    2511.4673    -36501.67    45.368774    236.20556 
    9350    134.91369   -331.90029    127185.85   -33987.712    2544.4162   -36532.128    45.473543    239.30443 
    9400    133.07713   -269.10073    127138.63    -34002.43    2509.7795    -36512.21    45.794776    236.04682 
    9450     133.0157   -204.18834    127192.78   -34022.496     2508.621   -36531.117    46.154573    235.93787 
    9500    135.58961   -163.22514     127261.4   -34023.737    2557.1638   -36580.901    46.380115    240.50336 
    9550    134.14649    39.107457    127381.39   -34050.614    2529.9471   -36580.561    46.783592     237.9436 
    9600    137.85387   -242.54452    127475.77   -34074.744    2599.8668   -36674.611    46.940914     244.5196 
    9650    133.64825   -369.20389    127568.86   -34136.728    2520.5505   -36657.279    47.166475    237.05985 
    9700    135.39934   -252.03671    127644.44   -34111.182    2553.5753   -36664.757    47.327609    240.16585 
    9750    136.77569   -308.80949    127685.88   -34068.667    2579.5329     -36648.2    47.587709    242.60718 
    9800    133.57649   -85.210369    127734.18   -34081.617    2519.1971   -36600.814    47.740875    236.93256 
    9850    134.24474   -230.12831    127703.14   -34060.943    2531.8001   -36592.743    48.022381    238.11788 
    9900    133.13238   -123.87293    127666.97   -34032.812    2510.8215   -36543.634    48.127212    236.14482 
    9950    134.43083   -389.58992    127714.49   -34072.266    2535.3096   -36607.575    48.274752    238.44795 
   10000    136.68177    -293.7102    127742.24   -34021.448    2577.7614   -36599.209    48.468542    242.44058 
   10050    136.56203   -349.80899    127721.93   -34002.448    2575.5032   -36577.951    48.719826    242.22819 
   10100    134.67107    12.947913    127720.92   -34035.401    2539.8405   -36575.242    48.865938    238.87408 
   10150    133.27599   -564.26285    127721.04   -34039.841    2513.5299   -36553.371    49.052453    236.39955 
   10200    134.31602   -447.73475    127748.56   -34028.163    2533.1445   -36561.308    49.217763    238.24432 
   10250    135.23522   -79.142254     127752.6   -34013.618    2550.4802   -36564.098    49.623736    239.87475 
   10300    132.07262   -258.77819    127766.62   -34028.492    2490.8348   -36519.327    49.770177    234.26506 
   10350    134.97238   -34.036197    127816.95   -34033.107     2545.523    -36578.63    49.883544    239.40853 
   10400    134.95357   -205.28447    127901.91   -34011.849    2545.1684   -36557.017    50.093648    239.37518 
   10450    135.27004   -233.29977    127935.96   -34009.503    2551.1368    -36560.64     50.31807     239.9365 
   10500     135.2606   -200.17348    127969.66   -34062.953    2550.9589   -36613.912    50.609064    239.91977 
   10550    136.77076   -603.96804    128070.23   -34051.636    2579.4398   -36631.075      50.6827    242.59843 
   10600     132.5974     -846.455       127898   -34110.711     2500.732   -36611.443    50.491724    235.19589 
   10650    130.36517   -81.236867    127928.58   -34076.761    2458.6329   -36535.394    50.873547    231.23645 
   10700    134.09622   -319.89978    127912.74   -34063.695     2528.999   -36592.694     51.04659    237.85443 
   10750    133.20638   -386.37314    127882.65   -34120.214    2512.2171   -36632.431     51.19461    236.27608 
   10800    134.09393     70.76045    127835.54   -34034.107    2528.9558   -36563.063    51.589999    237.85037 
   10850    133.99854   -416.25152    127873.43   -34048.615    2527.1569   -36575.772    51.611552    237.68118 
   10900    132.99081   -239.19145    127898.28   -34075.686    2508.1515   -36583.838    51.728982     235.8937 
   10950    132.35877   -246.59254    127973.81   -34107.823    2496.2315   -36604.055    51.913376    234.77262 
   11000    133.52021   -416.99048    127921.41    -34082.49    2518.1357   -36600.626    52.245859    236.83273 
   11050    136.32789   -312.90405    127932.36   -34027.967    2571.0874   -36599.054    52.462679    241.81288 
   11100    136.73313   -283.50934    127911.17   -34001.799    2578.7301   -36580.529    52.445255    242.53169 
   11150       138.95   -337.58604    127801.41   -33972.685    2620.5393   -36593.225    52.663183    246.46387 
   11200    135.36092   -132.95248    127735.25   -33991.887    2552.8509   -36544.738    52.796886    240.09772 
   11250    134.30539   -172.66321    127737.29   -33980.965     2532.944   -36513.909     53.14653    238.22546 
   11300    134.90683   -218.30767    127741.33   -33951.519    2544.2869   -36495.806     53.24552    239.29227 
   11350    134.24948   -306.89359    127670.64   -33972.049    2531.8895   -36503.938    53.417481    238.12629 
   11400     138.8041   -504.57632    127624.86   -33939.364    2617.7878   -36557.152    53.665815    246.20509 
   11450    137.31705    -216.2357    127576.02   -34001.324    2589.7426   -36591.066    53.790605    243.56741 
   11500     134.9267   -61.636928    127635.26   -34025.485    2544.6616   -36570.146    54.205607    239.32752 
   11550    136.54586   -272.89103    127674.67   -34056.813    2575.1982   -36632.011    54.340738    242.19951 
   11600    136.29427   -153.99503    127630.79   -34105.814    2570.4534   -36676.267    54.551344    241.75325 
   11650    137.29842   -347.40517    127662.24   -34028.957    2589.3912   -36618.348    54.575636    243.53436 
   11700     134.2154     -245.207    127709.25   -34055.444    2531.2467    -36586.69    54.531434    238.06583 
   11750    134.10077   -579.33939    127673.75   -34115.921     2529.085   -36645.005    54.776642    237.86252 
   11800    135.12702   -241.56516     127683.5   -34091.496    2548.4395   -36639.935    55.045352    239.68283 
   11850    132.83575   -398.28662    127672.82   -34123.534    2505.2272   -36628.762    55.203328    235.61868 
   11900    136.49741   -366.27691    127736.88   -34059.195    2574.2846   -36633.479    55.462058    242.11357 
   11950    134.60078   -253.71154    127726.73   -34010.828    2538.5149   -36549.343    55.752187    238.74941 
   12000    136.32888   -102.07841    127768.96   -33991.596    2571.1061   -36562.702    56.112201    241.81464 
   12050     136.3456    125.98308    127895.99   -34013.943    2571.4215   -36585.364    56.411638    241.84431 
   12100    136.78328   -150.97267    128012.57    -34025.99     2579.676   -36605.666    56.682581    242.62064 
   12150    135.79697   -163.27586    128129.27   -34072.354    2561.0745   -36633.429    57.035221    240.87116 
   12200    132.87221   -393.06573    128072.65   -34082.684    2505.9148   -36588.599    57.502334    235.68334 
   12250    132.09073    -349.6504    128034.99   -34126.618    2491.1764   -36617.795    57.825933    234.29719 
   12300    133.66462   -569.94931    127952.31   -34147.806    2520.8594   -36668.666    57.966035    237.08889 
   12350    133.58326   -231.55076     127996.8   -34092.002    2519.3249   -36611.327    58.134722    236.94457 
   12400    134.86348   -224.91432    127983.57    -34053.76    2543.4692    -36597.23    58.217921    239.21537 
   12450    132.99359   -449.10036    127876.18   -34055.828    2508.2039   -36564.032    58.279893    235.89864 
   12500    136.81587   -383.08192    127878.12   -34013.789    2580.2905    -36594.08    58.564859    242.67844 
   12550    135.31804   -198.56113    127842.98   -34044.839    2552.0422   -36596.881    58.651938    240.02166 
   12600    136.70598   -329.26415    127816.52   -34044.279    2578.2182   -36622.497    58.674472    242.48353 
   12650     134.9001   -289.33224    127804.42   -34086.189      2544.16   -36630.349    58.685631    239.28034 
   12700    134.87778   -150.92383    127780.85   -34096.455     2543.739   -36640.194    58.787116    239.24074 
   12750    134.26814   -147.81019    127769.32   -34096.424    2532.2414   -36628.665    58.800279    238.15939 
   12800    136.12549   -297.19147    127786.32   -34126.819    2567.2704    -36694.09     58.91524    241.45388 
   12850    134.56409    -179.4248    127822.52   -34125.444     2537.823   -36663.267    59.217284    238.68434 
   12900    134.29974   -280.62688    127824.28   -34116.172    2532.8374    -36649.01    59.452639    238.21543 
   12950    136.22287   -175.02172    127801.51   -34149.145    2569.1068   -36718.252    59.655953     241.6266 
   13000    133.58974   -93.143023    127873.59   -34173.531     2519.447   -36692.978    59.972637    236.95606 
   13050    134.28749   -254.08406    127925.14   -34178.064    2532.6064   -36710.671    60.331128    238.19371 
   13100    134.99062   -296.62457    127949.11   -34170.676    2545.8672   -36716.543    60.671481     239.4409 
   13150    133.67127   -118.79317    127968.05   -34209.812    2520.9846   -36730.796    60.908891    237.10067 
   13200    131.70734   -280.19544    127941.15   -34229.611    2483.9458   -36713.557    60.861728    233.61715 
   13250     132.5735   -295.84497    127954.88    -34246.61    2500.2813   -36746.891    61.009087    235.15351 
   13300    133.37465   -356.09442    127913.52   -34232.414    2515.3906   -36747.804    61.165057    236.57455 
   13350    135.33144   -500.00165    127809.33   -34204.433    2552.2947   -36756.728    61.188783    240.04541 
   13400     136.9297   -509.54972    127785.16   -34176.632    2582.4373    -36759.07    61.146392    242.88035 
   13450     135.2358   -167.81228    127820.77   -34169.691     2550.491   -36720.182    61.214321    239.87577 
   13500    134.00424   -465.12518    127891.14   -34212.514    2527.2643   -36739.778    61.446244    237.69128 
   13550    136.32774   -495.36536     127922.7   -34152.135    2571.0847    -36723.22    61.542406    241.81262 
   13600    135.43146   -221.28644    127985.38   -34150.571    2554.1811   -36704.752    61.752264    240.22283 
   13650    134.58957   -307.94435    127982.72   -34213.056    2538.3035    -36751.36    61.807408    238.72953 
   13700    134.95798   -142.90809    128028.43   -34214.382    2545.2516   -36759.634    61.845378      239.383 
   13750    134.98567   -393.94679    128078.54    -34235.45    2545.7738   -36781.224    62.025567    239.43211 
   13800    134.84385   -257.07596    128082.03   -34204.849     2543.099   -36747.948    61.984382    239.18055 
   13850    136.37914   -79.103021     128131.8   -34162.939    2572.0541   -36734.993    62.108174     241.9038 
   13900    134.25613   -222.65762    128186.07   -34162.581    2532.0149   -36694.596    62.212254    238.13808 
   13950    134.48573   -73.447478    128241.41   -34187.772    2536.3451   -36724.117    62.172189    238.54533 
   14000     135.7469   -375.47243     128262.5   -34206.125    2560.1302   -36766.255    62.251151    240.78235 
   14050    135.42019   -287.24558    128254.94   -34225.179    2553.9686   -36779.148    62.111861    240.20284 
   14100    136.91517   -70.656678    128260.15   -34196.008    2582.1633   -36778.172    62.250872    242.85458 
   14150    134.98555    -475.8299    128181.52   -34220.967    2545.7715   -36766.738    62.418474     239.4319 
   14200    134.18999   -347.33735    128150.76   -34196.676    2530.7676   -36727.444     62.59844    238.02077 
   14250    132.16031   -294.28893    128242.51   -34182.582    2492.4886    -36675.07     62.98286     234.4206 
   14300     132.7955   -203.98025     128255.6   -34210.148     2504.468   -36714.616    63.126484    235.54727 
   14350    134.37343   -447.95948    128212.72   -34253.077    2534.2272   -36787.304    63.232453    238.34614 
   14400    133.83474   -309.52065    128109.93   -34171.618    2524.0678   -36695.686    63.379077    237.39065 
   14450    137.53679   -434.56517    128103.26   -34097.577    2593.8868   -36691.464    63.728688    243.95718 
   14500    133.46363   -421.82522     128137.2   -34121.872    2517.0688   -36638.941    63.643852    236.73239 
   14550    133.89694   -362.79187    128124.67   -34085.293    2525.2407   -36610.534    63.992685    237.50096 
   14600    134.74894   -415.19038    128069.51   -34093.981    2541.3091   -36635.291    64.111476    239.01221 
   14650      135.023   -594.95445    127907.06   -34110.918    2546.4777   -36657.395    64.062095    239.49832 
   14700    134.93551   -438.34313    127779.76   -34053.703    2544.8277   -36598.531    64.302083    239.34313 
   14750    135.74025   -179.84269    127772.76   -34072.916    2560.0048    -36632.92    64.501858    240.77055 
   14800    135.02678   -481.62517    127708.43   -34083.944    2546.5492   -36630.493    64.636575    239.50504 
   14850    135.39093   -444.30766    127609.46   -34111.267    2553.4168   -36664.684    64.996378    240.15095 
   14900    134.65555   -265.03314    127552.56   -34052.887    2539.5479   -36592.435    65.149908    238.84656 
   14950     134.7556    -527.7751    127478.15   -34043.769    2541.4348   -36585.204    65.235777    239.02403 
   15000    134.29865   -277.80641    127387.69   -34063.605    2532.8168   -36596.422    65.601312     238.2135 
   15050    136.50275   -118.93491    127357.79   -34034.103    2574.3852   -36608.488    65.884497    242.12304 
   15100    139.29106    110.84865       127382    -34008.98    2626.9716   -36635.952    66.049441    247.06884 
   15150    135.96333   -284.38398    127363.62   -34064.345    2564.2119   -36628.557    66.063681    241.16624 
   15200    135.77498    4.1989459    127351.83   -34068.083    2560.6597   -36628.742    66.168411    240.83215 
   15250    135.84513    -116.0715    127367.14   -33992.437    2561.9829    -36554.42    66.467804    240.95659 
   15300     137.2138    69.340749    127493.41   -33962.124    2587.7953    -36549.92    66.763546    243.38427 
   15350    132.38859   -324.23694    127541.14   -34027.751    2496.7938   -36524.545    66.808422    234.82551 
   15400    137.93449   -160.54279     127506.1   -34021.146    2601.3872   -36622.533    66.828418     244.6626 
   15450    135.10721   -369.73943    127457.03   -34023.924     2548.066    -36571.99    67.279642    239.64769 
   15500    139.20411   -418.81998    127439.63   -33952.689    2625.3317   -36578.021    67.451008     246.9146 
   15550    136.26834    -406.0511    127436.25   -33928.236    2569.9644   -36498.201    67.770272    241.70726 
   15600    138.12521   -246.93617    127387.74   -33934.692    2604.9842   -36539.676    68.136785     245.0009 
   15650    135.35991    76.691128    127434.97   -33953.776    2552.8318   -36506.608    68.587146    240.09593 
   15700    138.19019   -440.25446    127363.83   -33940.415    2606.2097   -36546.625    68.832784    245.11616 
   15750    135.62509   -231.93394    127205.62   -33961.088    2557.8329   -36518.921    69.075378    240.56629 
   15800      136.633   -298.42549    127099.86   -33988.189    2576.8417    -36565.03     69.30481    242.35408 
   15850    135.56769   -294.20253    127121.97   -33987.659    2556.7505    -36544.41     69.37102    240.46448 
   15900    134.97104   -63.690879    127148.59   -34026.009    2545.4979   -36571.507    69.747106    239.40616 
   15950    136.45389    -201.2574    127184.94   -33984.833    2573.4637   -36558.297    69.958518    242.03637 
   16000    134.51466   -183.28516    127104.86   -33998.861    2536.8906   -36535.752    70.104827    238.59664 
   16050    136.28606   -218.59207    127117.06   -34029.687    2570.2985   -36599.986    70.244952    241.73868 
   16100    136.80619   -206.76074    127083.13   -34014.342     2580.108    -36594.45    70.636498    242.66128 
   16150     136.0865   -27.794673    127154.27   -33992.194     2566.535   -36558.729    70.873941    241.38472 
   16200    135.63815   -54.918258    127201.96   -34046.121    2558.0792   -36604.201    71.115228    240.58945 
   16250    134.26721   -140.61584    127326.06   -34075.044    2532.2239   -36607.268    71.538872    238.15773 
   16300    131.14006   -300.60644    127289.21    -34129.75    2473.2472   -36602.998    71.723441    232.61093 
   16350    133.97652   -129.62357    127271.39   -34063.759    2526.7416   -36590.501    71.918404    237.64212 
   16400    135.72943   -257.95888    127298.06   -34086.466    2559.8007   -36646.267    72.244393    240.75135 
   16450    133.64494   -39.056528    127409.87   -34108.858    2520.4881   -36629.347    72.521057    237.05397 
   16500    132.62722   -222.04792    127479.02    -34091.89    2501.2943   -36593.184    73.024634    235.24878 
   16550    135.19141   -288.83701    127494.51   -34072.784     2549.654   -36622.437    73.503124    239.79705 
   16600      132.999   -24.958616    127526.99   -34092.094    2508.3061     -36600.4    73.826707    235.90824 
   16650    133.56704   -72.601061    127583.03   -34102.028     2519.019   -36621.047    74.179295     236.9158 
   16700    135.23216    0.8092503    127704.36   -34062.443    2550.4225   -36612.865    74.515004    239.86933 
   16750     133.8237   -157.68553    127788.69   -34092.538    2523.8594   -36616.397    75.103868    237.37105 
   16800    132.95659   -217.69378    127809.12   -34163.069    2507.5061   -36670.575     75.00206      235.833 
   16850    135.41028   -100.14555    127847.52   -34101.183    2553.7816   -36654.964    74.902249    240.18526 
   16900    135.85167   -56.744004    127904.77   -34044.301    2562.1062   -36606.408    74.826809    240.96819 
   16950    139.35643   -202.63575    127952.11   -33986.566    2628.2045    -36614.77     74.99066    247.18479 
   17000    137.45156   -291.80002    127977.35   -33984.685    2592.2794   -36576.965    75.318729    243.80601 
   17050    140.29987   -312.90892    127920.12   -33975.136    2645.9974   -36621.133    75.474697    248.85822 
   17100    137.39721   -350.21933    127925.78   -33968.045    2591.2543   -36559.299    75.719083     243.7096 
   17150    135.41481   -277.52481    127907.34   -34018.256    2553.8672   -36572.123    75.667313    240.19331 
   17200    135.73486   -268.51264    127971.07   -34022.041    2559.9031   -36581.945    75.924548    240.76099 
   17250    136.33304   -338.58517    127982.55   -33989.716    2571.1845     -36560.9    76.233611    241.82201 
   17300    136.67022   -240.83705    127953.37   -34057.419    2577.5437   -36634.963    76.328411     242.4201 
   17350    136.10696   -337.55034    127895.08   -34077.155    2566.9208   -36644.076    76.431475    241.42101 
   17400    134.18088   -125.25301    127917.16   -34075.441    2530.5956   -36606.036    76.598585     238.0046 
   17450    136.19162   -145.06218    127997.95   -34105.091    2568.5175   -36673.609    76.735426    241.57118 
   17500    136.23839   -414.12015    128031.43   -34140.302    2569.3996   -36709.701    76.865006    241.65414 
   17550    136.43177   -211.01569    127978.18   -34083.081    2573.0466   -36656.128    77.014494    241.99714 
   17600    134.74384   -458.16997    127962.95   -34060.147     2541.213    -36601.36    77.520095    239.00316 
   17650    136.21215   -311.43293    127921.74     -34038.5    2568.9047   -36607.404    77.668483     241.6076 
   17700    136.66278   -268.08541    127873.89   -34064.435    2577.4033   -36641.839    77.901517    242.40689 
   17750    136.34554   -373.94949    127862.98   -34030.778    2571.4204   -36602.198    77.927094     241.8442 
   17800    137.48624   -377.07134    127905.74   -34013.003    2592.9335   -36605.936    78.035801    243.86752 
   17850    134.07751   -505.66099    127809.35   -34052.414    2528.6462   -36581.061    78.030951    237.82125 
   17900    135.80852   -420.05029    127742.52   -34045.427    2561.2924   -36606.719    77.956214    240.89165 
   17950    131.82739   -213.60409    127768.22   -34060.237    2486.2098   -36546.447    78.348535    233.83008 
   18000    133.87707    -430.1616     127720.7   -34040.581    2524.8661   -36565.447    78.462236    237.46572 
   18050    137.91252   -571.87999    127698.39    -34011.36    2600.9729   -36612.333    78.438047    244.62363 
   18100     138.1691   -408.37954    127711.33   -34017.105    2605.8119   -36622.917    78.649933    245.07874 
   18150    133.85742   -336.22331    127732.74   -34033.787    2524.4954   -36558.283    78.770705    237.43086 
   18200    135.44161   -367.60641    127791.04   -34034.069    2554.3725   -36588.442    79.180933    240.24083 
   18250    134.96989    -199.2155    127720.62   -34035.538    2545.4762   -36581.014    79.529199    239.40413 
   18300    137.76601   -93.561382     127769.5   -33977.137    2598.2099   -36575.347    79.781677    244.36377 
   18350     134.4976   -464.62754    127818.62   -34038.785    2536.5689   -36575.354    80.156884    238.56639 
   18400     135.2699   -462.59691    127766.47   -33998.642    2551.1342   -36549.776    80.355244    239.93627 
   18450    137.52004   -406.47386    127749.47   -34043.109     2593.571    -36636.68    80.452114    243.92748 
   18500    136.64609   -380.51491    127724.88    -34023.42    2577.0885   -36600.508    80.772434    242.37729 
   18550    134.90823   -371.09104     127661.2   -34080.569    2544.3132   -36624.883     80.90338    239.29475 
   18600    131.62491   -443.66551    127553.46   -34055.959    2482.3913    -36538.35    80.986422    233.47094 
   18650    136.72772   -581.13771    127565.88   -34090.188    2578.6281   -36668.816    81.280525    242.52209 
   18700    133.59863   -116.27954    127607.72    -34076.78    2519.6147   -36596.394    81.816616    236.97183 
   18750     132.9865   -101.42918    127700.92    -34055.68    2508.0702    -36563.75    81.965215    235.88606 
   18800    134.88162   -73.644161    127698.78   -34043.805    2543.8114   -36587.616    82.089634    239.24755 
   18850    135.75493   -252.83743    127754.92   -34000.535    2560.2816   -36560.817    82.295889    240.79658 
   18900    135.13224   -311.12237    127723.06   -34024.924     2548.538   -36573.462    82.424689    239.69209 
   18950    134.44438    -325.9187    127652.89   -34072.784    2535.5653   -36608.349    82.471859      238.472 
   19000    135.21877   -365.21621    127692.82   -34064.054      2550.17   -36614.224    82.615685    239.84558 
   19050     135.9324   -201.00241    127638.96   -34070.074    2563.6287   -36633.703    82.620256    241.11138 
   19100    137.20273   -115.70824    127644.49    -34037.76    2587.5866   -36625.346    82.672675    243.36464 
   19150    135.41421   -97.562889    127615.77    -34013.85    2553.8558   -36567.706    83.008977    240.19223 
   19200    135.66697    14.771494    127627.29   -34043.155    2558.6228   -36601.778    83.222853    240.64057 
   19250    134.00352   -353.50767    127599.98   -34133.175    2527.2509   -36660.426    83.732581    237.69002 
   19300    134.16856    -199.6031    127539.14   -34093.736    2530.3634     -36624.1    83.920945    237.98275 
   19350    133.06133   -357.28241    127436.65   -34118.499    2509.4814    -36627.98    84.062573    236.01879 
   19400    133.73382    -193.4551    127393.39   -34120.441    2522.1644   -36642.605    84.214115    237.21164 
   19450    135.99203    171.62746    127423.87   -34121.405    2564.7533   -36686.158    84.808998    241.21716 
   19500    134.10516    -209.6063    127526.34     -34097.8    2529.1677   -36626.968    85.098109    237.87029 
   19550    134.28495   -356.86006    127533.66   -34078.706    2532.5584   -36611.264    85.218263    238.18919 
   19600    134.49237   -140.95933    127566.13   -34042.888    2536.4703   -36579.358    85.130339    238.55711 
   19650    134.98528   -200.08733    127622.78   -34050.223    2545.7664    -36595.99    85.442228    239.43142 
   19700    133.29168   -158.33543    127623.74   -34109.729    2513.8258   -36623.555     85.68631    236.42738 
   19750    132.51103   -245.96383    127679.58   -34143.133    2499.1031   -36642.237     85.89832    235.04269 
   19800    134.14266   -153.63955    127691.43   -34064.753     2529.875   -36594.628    86.190049    237.93682 
   19850    134.68662   -242.42279    127716.97   -34082.237    2540.1339   -36622.371    86.462381    238.90167 
   19900    133.34366   -220.92152    127705.81   -34087.548    2514.8062   -36602.354     86.21396    236.51959 
   19950    135.16179   -186.45888    127651.73   -34084.501    2549.0953   -36633.597    86.209322    239.74451 
   20000    133.55452   -414.83036    127640.45   -34062.263    2518.7828   -36581.046    86.665772    236.89359 
   20050     131.9837   -365.27039    127554.79   -34061.321    2489.1579   -36550.479    86.877313    234.10734 
   20100    136.20884   -513.73427    127567.65   -34064.132    2568.8422   -36632.975    86.999909    241.60172 
   20150     135.4354   -286.26238    127531.26   -34023.192    2554.2555   -36577.447    87.032653    240.22982 
   20200    135.02069   -226.08857    127511.28   -34045.243    2546.4343   -36591.677    87.434967    239.49423 
   20250    134.40914   -302.39931    127488.91   -34046.009    2534.9006   -36580.909    87.705769    238.40948 
   20300    136.53391   -485.39597    127426.24   -34075.386    2574.9729   -36650.359    87.864284    242.17832 
   20350    136.26585   -216.01784    127322.76   -34057.051    2569.9175   -36626.968    87.861839    241.70285 
   20400     135.7933   -278.28822    127257.73   -34023.716    2561.0054   -36584.721    87.834523    240.86466 
   20450    134.52033   -187.79624    127226.77   -34070.745    2536.9977   -36607.743    87.977128    238.60671 
   20500    135.75366   -295.45534    127207.73    -34062.94    2560.2578   -36623.198    88.128988    240.79435 
   20550    132.05834   -206.39982    127201.63   -34061.044    2490.5655    -36551.61    88.424436    234.23973 
   20600    134.05019   -327.70383    127266.81   -34079.283     2528.131   -36607.414    88.533047    237.77279 
   20650     134.4539   -279.64027     127269.2   -34033.381    2535.7449   -36569.126    88.540623    238.48888 
   20700    136.07308   -665.63734    127327.56   -34049.697    2566.2819   -36615.978    88.755009    241.36092 
   20750    135.98888   -253.78221    127342.05   -34053.183    2564.6938   -36617.877    89.017221    241.21155 
   20800    136.36567   -455.36953    127314.86   -34034.011    2571.7999   -36605.811    89.221862    241.87989 
   20850    133.38306   -274.03868    127295.88   -34128.352    2515.5492   -36643.901    89.616272    236.58946 
   20900    134.80361   -455.69842    127244.81   -34068.331    2542.3402   -36610.672    89.767417    239.10918 
   20950    136.75051   -335.12377    127197.41   -34048.984    2579.0579   -36628.042    90.201907    242.56251 
   21000     134.3107   -233.05214    127134.89    -34131.36    2533.0441   -36664.404    90.331229    238.23487 
   21050    131.59252   -303.09957    127093.39   -34153.499    2481.7804   -36635.279    90.697784    233.41348 
   21100    134.54579   -295.81915    127031.34   -34097.713    2537.4778   -36635.191    91.019363    238.65187 
   21150    131.29945   -483.74029    126958.58   -34106.999    2476.2532   -36583.252    91.128374    232.89365 
   21200    134.59068   -129.69027    127018.01   -34126.979    2538.3243   -36665.303    91.459468    238.73149 
   21250    135.70616    -218.8615     127190.1   -34090.868    2559.3619    -36650.23    91.825095    240.71009 
   21300    133.98006   -194.71153    127143.13   -34111.318    2526.8083   -36638.126    92.023872     237.6484 
   21350    135.52201   -35.101193    127150.96   -34089.066    2555.8889   -36644.955    92.167602    240.38345 
   21400    137.01716   -61.864351     127212.2   -34063.207    2584.0868   -36647.294    92.624133    243.03549 
   21450    133.21417    -88.95984    127235.52   -34084.207     2512.364   -36596.571    93.040223     236.2899 
   21500    135.12794   -338.49154    127232.25   -34077.653    2548.4568    -36626.11    93.252434    239.68445 
   21550    132.67982    -238.9856    127253.77   -34039.042    2502.2864   -36541.328    93.310912    235.34209 
   21600    136.66139   -113.39386    127331.28   -34005.316    2577.3771   -36582.693    93.661932    242.40443 
   21650    136.25128   -191.07508    127431.56   -34007.305    2569.6427   -36576.947    93.931808      241.677 
   21700    139.12666   -747.79239    127338.47   -33978.657    2623.8711   -36602.528     94.05758    246.77723 
   21750    138.26386   -260.60837    127309.72   -33971.064    2607.5991   -36578.664    94.355381    245.24683 
   21800    134.76934   -51.580106    127299.22    -33972.92    2541.6938   -36514.614    94.612503    239.04839 
   21850    136.51171   -337.13679     127359.6   -33930.405    2574.5542   -36504.959    94.962049    242.13894 
   21900    138.44692   -13.962062    127376.91   -33939.857    2611.0514   -36550.908    95.545424    245.57153 
   21950    133.95624   -324.03144    127310.45   -34004.587    2526.3591   -36530.946    95.497897    237.60614 
   22000    136.22135    21.115156    127341.48   -34018.538    2569.0782   -36587.616    95.535428    241.62391 
   22050     134.4081   -284.19386    127399.26   -34051.879     2534.881    -36586.76    95.946533    238.40763 
   22100    134.56406   -256.77593    127320.25   -34060.777    2537.8223     -36598.6    96.040623    238.68427 
   22150    133.09817   -477.24573    127218.88   -34095.005    2510.1763   -36605.182    96.037662    236.08414 
   22200    133.68826   -156.19243    127146.81   -34087.967    2521.3051   -36609.272    96.243257    237.13081 
   22250    134.36004   -412.35178    127120.31   -34016.842    2533.9745   -36550.817    96.772099    238.32239 
   22300    136.89787   -45.903231    127182.48   -33976.843     2581.837    -36558.68    97.012836    242.82389 
   22350    136.76755    -223.6745     127158.6   -34010.575    2579.3793   -36589.954    97.150109    242.59274 
   22400    133.46667   -465.79609    127204.07   -34045.479     2517.126   -36562.605    97.365109    236.73776 
   22450    133.93902   -268.79108    127172.91   -34062.198    2526.0344   -36588.232    97.572709    237.57561 
   22500    138.37424   -354.50776    127143.02   -34039.976    2609.6807   -36649.656    97.748769    245.44261 
   22550    138.14035    -240.8511    127151.41   -33993.053    2605.2698   -36598.323    98.012944    245.02776 
   22600    133.51938   -248.13769    127159.53   -34035.019    2518.1201   -36553.139    98.300205    236.83126 
   22650    137.22662   -290.06625    127156.39   -34035.579    2588.0372   -36623.616    98.825817    243.40702 
   22700    136.28619   -446.49065    127096.88   -34023.732     2570.301   -36594.033    98.973861    241.73892 
   22750    135.11794   -184.47766    127091.87   -33991.373    2548.2682   -36539.641    99.379116    239.66672 
   22800    136.84287    126.20331    127113.26   -34006.882    2580.7998   -36587.682    99.399172    242.72634 
   22850    136.08944    163.58336    127192.91    -33979.55    2566.5904   -36546.141    99.260145    241.38993 
   22900    134.94845   -113.42193     127205.2   -33996.277    2545.0717   -36541.349    99.427887    239.36608 
   22950    136.37541   -162.67907     127221.3   -34014.436    2571.9836    -36586.42    99.453162    241.89717 
   23000    134.85231   -124.61624    127201.66   -34056.216    2543.2586   -36599.475    99.849742    239.19556 
   23050    134.17536   -113.69813    127244.84   -34049.014    2530.4917   -36579.505    100.20063    237.99482 
   23100    134.52588   -103.21532    127259.42   -34021.289    2537.1023   -36558.391    100.34798    238.61656 
   23150    134.48619   -309.21491     127230.9   -34000.957    2536.3538   -36537.311    100.41357    238.54615 
   23200     138.6409   -296.74949    127247.92   -34000.283    2614.7098   -36614.993    100.30684     245.9156 
   23250    133.76571   -269.73364    127248.55   -34001.184    2522.7658    -36523.95    100.45505     237.2682 
   23300    137.14009   -289.27776    127236.25   -33977.337    2586.4051   -36563.742    100.66983    243.25353 
   23350    133.75825   -398.34743    127183.65    -33994.25     2522.625   -36516.875    101.19812    237.25496 
   23400     134.3316   -321.71694    127086.57   -33997.523    2533.4383   -36530.961    101.42245    238.27196 
   23450    136.98395   -92.274819    127092.79   -33988.778    2583.4604   -36572.238    101.95903    242.97657 
   23500    136.81795   -273.97985     127001.9   -33967.891    2580.3298    -36548.22    102.33744    242.68213 
   23550    134.97779   -412.06639    127022.79   -34006.621    2545.6251   -36552.246    102.31739    239.41813 
   23600    137.05479   -144.56041    126983.71   -33980.615    2584.7964   -36565.412    102.44936    243.10222 
   23650    134.80064   -483.19076    126984.19   -33993.212    2542.2842   -36535.496    102.64151    239.10392 
   23700    133.38516   -372.34669    126872.52   -34021.319    2515.5887   -36536.908    102.74872    236.59318 
   23750    135.73067   -80.466308     126859.5   -34051.891    2559.8242   -36611.715    102.89677    240.75356 
   23800    133.10226   -415.80761     126815.4   -34034.066    2510.2535    -36544.32     103.1833     236.0914 
   23850     133.7068   -95.070561    126806.49   -34013.819    2521.6548   -36535.474    103.34461     237.1637 
   23900    135.82953   -111.15729    126922.63   -34003.119    2561.6886   -36564.808    103.78845    240.92891 
   23950    136.44676   -21.984397    126925.96   -34054.977    2573.3293   -36628.306    103.96194    242.02373 
   24000    137.47015    89.648807    126997.75   -34013.392      2592.63   -36606.022    104.18707    243.83898 
   24050    133.15709   -33.089609    127082.69   -34015.519    2511.2875   -36526.807    104.53067    236.18865 
   24100    136.15927    12.417513    127221.76    -33998.26    2567.9073   -36566.167    105.04429    241.51379 
   24150    134.41279   -153.67536    127252.01   -33985.192    2534.9695   -36520.162    105.42585    238.41596 
   24200    135.28351   -266.94183    127269.04   -33999.095    2551.3909   -36550.486      105.922     239.9604 
   24250    137.28596   -264.26775    127227.35   -34000.684    2589.1563   -36589.841    106.15087    243.51227 
   24300    138.81357   -391.59253    127184.75   -33997.679    2617.9663   -36615.645    106.20566    246.22188 
   24350    138.55905   -368.48693     127246.4   -33991.336    2613.1661   -36604.502    106.45262    245.77042 
   24400    135.19959   -91.346701    127248.76    -34000.44    2549.8081   -36550.248    106.78507    239.81155 
   24450    135.41051   -339.10267    127204.64   -33997.073    2553.7861   -36550.859     107.0843    240.18568 
   24500    136.44716   -120.04574     127145.5   -34010.387    2573.3369   -36583.724    107.14589    242.02445 
   24550    136.47669   -269.93973    127104.49   -33996.672    2573.8937   -36570.565    107.36649    242.07682 
   24600    137.50527   -234.87228    127051.14   -34032.673    2593.2924   -36625.965    107.71241    243.90128 
   24650    136.64618   -188.58133    127078.36    -33998.59    2577.0903    -36575.68    108.10553    242.37746 
   24700    136.57747   -32.760944    127068.75   -34005.762    2575.7945   -36581.556    108.11002    242.25559 
   24750    135.09935   -126.39892    127098.35   -33996.007    2547.9177   -36543.924    108.49063    239.63375 
   24800    134.64482   -132.20183    127108.59   -34001.129    2539.3455   -36540.475    108.61346    238.82753 
   24850    136.67851   -122.43076    127046.52   -33963.115    2577.6999   -36540.815    108.80991    242.43479 
   24900    136.28801   -137.60962    127076.91   -33932.184    2570.3353    -36502.52    109.02791    241.74214 
   24950    136.62975   -321.08994    127025.72    -33910.93    2576.7804   -36487.711    109.09537    242.34831 
   25000    135.80622   -284.81971     127046.2   -33929.233     2561.249   -36490.482    109.06146    240.88757 
   25050    138.03217    -134.7255    127080.36    -33888.14    2603.2294   -36491.369    109.17916    244.83586 
   25100    135.78217   -318.63293    127172.13   -33914.947    2560.7953   -36475.742    109.46234     240.8449 
   25150    135.06751   -351.49894    127178.68    -33937.85    2547.3171   -36485.168    109.75227    239.57727 
   25200    136.94419    -130.0734    127151.11   -33949.477    2582.7107   -36532.188    110.10455    242.90606 
   25250    135.51261   -155.78739    127137.18   -33959.112    2555.7116   -36514.824    110.29284    240.36677 
   25300    136.16653   -115.04672    127092.92   -33907.047    2568.0442   -36475.092    110.48696    241.52666 
   25350    134.07198   -215.56057    127058.88   -33950.784     2528.542   -36479.326    110.75883    237.81145 
   25400    136.58416   -492.73923    127045.25   -33948.964    2575.9206   -36524.884      110.833    242.26745 
   25450    136.17377   -209.02349    126931.24   -33975.878    2568.1808   -36544.058    110.93975    241.53951 
   25500    132.59521   -224.32031    126960.85   -33994.882    2500.6906   -36495.572    111.24048      235.192 
   25550    133.48601   -34.936262    127015.42     -34000.3    2517.4909   -36517.791    111.41351    236.77208 
   25600    135.88485   -311.35678    127019.06    -33998.93    2562.7319   -36561.662    111.50273    241.02704 
   25650    135.90558   -287.79183    126925.18   -34039.229    2563.1229   -36602.352    112.06605    241.06381 
   25700    137.17871   -354.13645    126881.24   -34025.153    2587.1335   -36612.286    112.19651    243.32203 
   25750    135.23347   -328.44721     126931.8   -34019.719    2550.4471   -36570.166    112.37796    239.87164 
   25800    134.17163   -356.95839    126972.97   -34003.749    2530.4213    -36534.17    112.73639     237.9882 
   25850     135.0369   -264.97463    126992.34   -33990.869    2546.7398   -36537.609    113.10935    239.52297 
   25900    129.65688   -493.24479    127077.54   -33983.435     2445.275    -36428.71     113.5793    229.98012 
   25950    132.88925   -333.76458    127128.58   -34000.056    2506.2362   -36506.292    114.00974    235.71357 
   26000    135.09896   -27.101994    127173.81   -33998.947    2547.9103   -36546.858    113.97709    239.63305 
   26050    132.22872   -68.689714    127284.84   -34056.032    2493.7787   -36549.811     114.1032    234.54193 
   26100    135.21835   -260.75825    127373.04   -34070.566    2550.1621   -36620.728    114.63301    239.84483 
   26150    131.30863   -53.552085    127466.49   -34031.931    2476.4264   -36508.357    114.69153    232.90993 
   26200    134.94028   -90.930719    127584.11   -33974.425    2544.9178   -36519.343     114.9198     239.3516 
   26250    137.76618    -157.7562    127618.52   -33991.713     2598.213   -36589.926     115.3605    244.36406 
   26300    134.55925    -513.0823    127633.68   -33972.673    2537.7316   -36510.404    115.81678    238.67574 
   26350    137.72666   -286.04045    127572.67   -33966.332    2597.4677   -36563.799    116.13319    244.29397 
   26400    135.43765   -534.10929     127467.8   -33981.161    2554.2979   -36535.459     116.3036    240.23381 
   26450    134.22025    -33.56968    127454.75   -34000.253    2531.3381   -36531.591    116.61639    238.07443 
   26500     134.3346   -298.99822    127525.67   -34000.195    2533.4949   -36533.689    116.82276    238.27727 
   26550     135.3825   -204.93585    127553.59   -34013.454    2553.2577   -36566.712     116.9216    240.13599 
   26600    137.25133   -46.401492    127571.68   -33966.774    2588.5032   -36555.277    117.27522    243.45085 
   26650    136.66066    -398.0905    127603.72   -33991.447    2577.3633   -36568.811    117.63587    242.40314 
   26700    135.99771   -315.91504    127601.87   -33951.068    2564.8603   -36515.929     117.7598    241.22722 
   26750    136.93776    -302.1197    127488.78   -33920.743    2582.5893   -36503.332    117.86597    242.89464 
   26800    134.98536   -372.71878    127520.44   -33994.591     2545.768   -36540.359    118.10955    239.43157 
   26850     135.7188    -65.23214    127658.92   -33958.344    2559.6003   -36517.944    118.63565    240.73251 
   26900    131.74164   -175.61764    127664.13   -33944.421    2484.5927   -36429.013    118.92852    233.67799 
   26950    135.86146    -305.3709    127776.57   -34000.491    2562.2908   -36562.781     119.2084    240.98555 
   27000    137.28375   -380.55582    127873.12   -33952.886    2589.1146   -36542.001     119.2095    243.50835 
   27050    135.85186   -226.65256    127880.69    -33978.56    2562.1098    -36540.67    119.76851    240.96853 
   27100     138.2373   -179.56614    127864.41   -33965.727    2607.0981   -36572.825    119.83681    245.19972 
   27150    135.46198    32.217757    127957.11   -33998.053    2554.7568    -36552.81    120.40122    240.27697 
   27200    136.35422   -145.25719    128004.07   -33988.954     2571.584   -36560.538    120.59032    241.85958 
   27250    135.48988   -398.57402    128050.19   -33961.715    2555.2829   -36516.998    120.89257    240.32645 
   27300    137.10918   -354.21934    128013.87   -33934.622    2585.8223   -36520.445    121.24045    243.19871 
   27350    135.75317   -238.16371    128097.59   -33996.224    2560.2484   -36556.473     121.7366    240.79346 
   27400    136.37259   -281.42198    128079.82   -34010.136    2571.9304   -36582.067    121.74647    241.89216 
   27450    137.31959   -338.75152    128029.49   -33999.231    2589.7906   -36589.022    121.92649    243.57193 
   27500    135.83121   -490.41682     128064.7   -33987.462    2561.7203   -36549.182    122.24027    240.93189 
   27550    135.11764    -485.8684    128088.45   -34008.971    2548.2626   -36557.233    122.15719    239.66619 
   27600    137.50786   -169.70438    128131.25   -33987.687    2593.3412   -36581.028    122.50721    243.90587 
   27650    134.10576   -23.776245    128140.38   -34041.687    2529.1789   -36570.866    122.65781    237.87136 
   27700    133.45379   -338.57522    128145.96   -34038.978    2516.8831   -36555.861    123.19062    236.71492 
   27750    134.75213   -395.48839    128028.74   -34046.339    2541.3694   -36587.709    123.04101    239.01787 
   27800    133.24464   -220.91947    128069.35   -34048.284    2512.9386   -36561.222    123.18159    236.34393 
   27850    136.73907   -298.32109    128086.82    -34027.77     2578.842   -36606.612    123.47946    242.54221 
   27900    136.91293   -496.28432    127991.01   -33973.862     2582.121   -36555.983    123.68931     242.8506 
   27950    135.31319   -300.58506    127958.99   -33997.212    2551.9507   -36549.162    124.00715    240.01306 
   28000    137.07403   -382.51262    127937.12   -33925.987    2585.1594   -36511.147    124.02386    243.13636 
   28050    135.62896   -287.88661    127937.53   -33951.636    2557.9059   -36509.541    124.31563    240.57315 
   28100    137.16608    -524.6577    127793.44   -33976.233    2586.8954   -36563.128    124.31511    243.29963 
   28150    136.58312   -472.91125    127742.78   -33954.371     2575.901   -36530.272    124.66294     242.2656 
   28200    137.14495   -316.64855    127691.63   -33990.232    2586.4969   -36576.728     124.7559    243.26215 
   28250    135.27984   -185.25208    127733.86   -34037.198    2551.3217   -36588.519    125.13048     239.9539 
   28300    133.86914   -498.20237    127730.81   -34089.701    2524.7164   -36614.417    125.02387    237.45165 
   28350    134.39164   -467.69497    127722.72    -34086.07    2534.5706    -36620.64    125.23942    238.37844 
   28400    136.33733   -185.05141    127794.16   -34084.729    2571.2656   -36655.995    125.54254    241.82964 
   28450    134.91399    -136.0791    127849.23   -34077.488    2544.4219    -36621.91    125.88976    239.30497 
   28500    137.93884   -279.26965    127950.71   -34098.899    2601.4692   -36700.369    126.01571    244.67032 
   28550    134.70472   -252.70298    127983.03   -34107.159    2540.4752   -36647.635    126.30072    238.93378 
   28600    137.03955   -497.05266    127998.51   -34096.629    2584.5091   -36681.138    126.66903     243.0752 
   28650    134.99274   -363.39611     127936.2   -34051.058    2545.9071   -36596.965    127.07902    239.44465 
   28700      134.546   -474.77912    127885.66   -34061.525    2537.4818   -36599.007    127.58373    238.65224 
   28750     134.5009   -324.77143    127854.18   -34024.498    2536.6311   -36561.129    127.70006    238.57224 
   28800    135.25674    3.2465059     127823.3   -34055.994     2550.886    -36606.88    127.62848    239.91293 
   28850    132.08544   -373.20274    127813.78   -34073.478    2491.0766   -36564.555    128.18721    234.28779 
   28900    135.36526    61.466976     127838.5   -34090.787    2552.9326    -36643.72    128.56098    240.10541 
   28950    134.03733   -403.76186    127879.94   -34055.812    2527.8885     -36583.7    129.28463    237.74999 
   29000    134.75821   -95.976634    127786.49   -34081.296     2541.484    -36622.78    129.45976    239.02866 
   29050    135.49101   -181.65007    127795.55   -34057.194    2555.3042   -36612.498    129.65646    240.32846 
   29100    135.87644    46.016271     127834.3    -34025.78    2562.5734   -36588.353    130.33036    241.01213 
   29150    133.66222   -48.331606    127785.52   -34053.868     2520.814   -36574.682    130.63833    237.08462 
   29200    133.77187   -13.591446    127840.95   -34076.433    2522.8821   -36599.315    131.01295    237.27913 
   29250    132.53568   -147.07526    127807.12   -34048.894    2499.5679   -36548.462     130.9099    235.08641 
   29300      134.991   -167.62157    127795.39   -34056.692    2545.8742   -36602.566    131.01191    239.44156 
   29350    136.27871    -164.9789    127794.84   -34043.808    2570.1599   -36613.968    131.11513    241.72564 
   29400    134.48297   -87.350069    127725.07   -34087.793    2536.2931   -36624.086     131.3338    238.54045 
   29450    136.02724   -55.518355    127749.06   -34090.405    2565.4174   -36655.823    131.35753    241.27961 
   29500    134.13673   -363.20467    127769.02   -34048.351    2529.7632   -36578.114    131.73619     237.9263 
   29550    135.39766   -76.832082    127759.74   -34045.195    2553.5437   -36598.738    132.07789    240.16288 
   29600    137.46374   -398.78106    127807.02   -34014.638     2592.509   -36607.147    132.17325     243.8276 
   29650     136.3296   -467.11708     127852.4   -34032.615    2571.1198   -36603.734    132.35397    241.81593 
   29700    133.82152   -83.755018    127824.15   -34070.631    2523.8183    -36594.45    132.60571    237.36718 
   29750    135.07109   -350.94165    127772.99   -34062.714    2547.3848   -36610.098     133.1056    239.58363 
   29800    136.48314   -297.16393     127760.6     -34040.2    2574.0154   -36614.216    133.21837    242.08826 
   29850    136.75481   -210.63752    127733.07   -34040.125     2579.139   -36619.264    133.48487    242.57014 
   29900    134.20829   -393.84759    127795.37   -34043.703    2531.1126   -36574.815    133.78028    238.05322 
   29950    134.41181   -388.00315     127778.8   -34035.371     2534.951   -36570.322    133.99132    238.41422 
   30000    138.59482   -67.053447    127794.04   -34011.055    2613.8408   -36624.896    134.14342    245.83387 
   30050    138.84872     -117.284    127775.01   -33969.405    2618.6293   -36588.034    134.31151    246.28423 
   30100    138.20884   -143.09508    127788.21   -33987.234    2606.5613   -36593.796    134.38042    245.14923 
   30150    137.99692   -168.91242    127808.16   -33989.092    2602.5647   -36591.656    134.24676    244.77335 
   30200    134.67156    7.3277443    127784.68   -33982.877    2539.8498   -36522.727    134.46549    238.87496 
   30250    138.69747    42.660732    127826.16   -33972.369    2615.7768   -36588.146    134.79133    246.01595 
   30300    138.64692   -166.57094    127871.39   -33960.927    2614.8235    -36575.75    135.04334    245.92629 
   30350    137.14714   -336.58146    127766.35   -34023.233    2586.5382   -36609.771     135.2476    243.26604 
   30400    133.86306   -545.08137    127733.99   -34005.618    2524.6017    -36530.22    135.38026    237.44086 
   30450    136.74936   -244.52179    127731.51   -34041.822    2579.0363   -36620.858    135.72871    242.56048 
   30500    135.63687     -92.4325    127736.62   -34016.854    2558.0552   -36574.909    135.63413    240.58719 
   30550    133.21782   -288.81171    127632.17   -34108.808    2512.4327   -36621.241    135.73065    236.29636 
   30600     135.1786   -367.82719    127554.61   -34118.533    2549.4124   -36667.945    135.93762    239.77432 
   30650     131.5794   -328.23449    127497.94   -34126.654    2481.5328   -36608.187    136.39586     233.3902 
   30700    135.02099   -305.20447    127382.23   -34113.029    2546.4399   -36659.469    136.42598    239.49476 
   30750     134.5412    118.50764    127422.03   -34089.532    2537.3913   -36626.924    136.23641    238.64373 
   30800    134.55228   -262.49108    127407.17   -34092.174    2537.6001   -36629.774     136.0112    238.66337 
   30850    132.41591   -319.53784    127401.92   -34089.755    2497.3092   -36587.064    135.71235    234.87397 
   30900    134.83674   -311.10875    127309.04   -34000.936     2542.965   -36543.901    135.82519    239.16794 
   30950     134.9108   -224.14053    127266.97   -34014.666    2544.3618   -36559.028    136.01713    239.29932 
   31000    136.50443   -402.77532    127191.64   -34000.807     2574.417   -36575.224    136.11148    242.12603 
   31050    133.98897   -281.77856    127132.57   -34017.264    2526.9763   -36544.241     136.1517     237.6642 
   31100    135.28188   -68.295043    127078.89    -34006.34    2551.3601     -36557.7    136.45419    239.95751 
   31150    132.99664   -157.40412    127025.57   -34051.936    2508.2615   -36560.198    136.45141    235.90405 
   31200    134.01882   -298.83895    127023.73   -34062.155    2527.5393   -36589.694    136.82341    237.71714 
   31250    133.89691   -337.25563    126960.58   -34043.874    2525.2403   -36569.114    137.08184    237.50092 
   31300    133.24628   -165.76649    126911.91   -34140.178    2512.9696   -36653.148    137.23282    236.34685 
   31350    131.23493   -99.464692    126925.75   -34085.477    2475.0363   -36560.513    137.47176     232.7792 
   31400    132.85771    138.71159    127004.22    -34060.13    2505.6413   -36565.771    137.71003    235.65762 
   31450      133.408    -15.27626    126982.74   -34067.942    2516.0196   -36583.962    137.60334    236.63371 
   31500    136.20638   -196.24939    126993.51   -34053.278    2568.7959   -36622.074    137.83586    241.59736 
   31550    135.41349   -48.217471    127060.57    -34068.96    2553.8423   -36622.802    138.19131    240.19096 
   31600    133.92793   -156.78513    127093.74   -34029.785    2525.8251    -36555.61    138.37167    237.55593 
   31650    134.62745   -355.15471     127128.9    -34007.47    2539.0179   -36546.488    138.98687    238.79671 
   31700    135.24812   -214.14632    127160.82   -33986.196    2550.7234   -36536.919    139.37676    239.89763 
   31750    134.76831    28.457309    127285.46   -33986.719    2541.6745   -36528.394    139.87753    239.04657 
   31800    136.15156   -121.35785    127345.92   -34034.353    2567.7619   -36602.115    140.11659    241.50011 
   31850     134.2966   -24.383401    127332.27   -34079.485    2532.7782   -36612.263    140.46943    238.20986 
   31900     131.3315   -233.11991     127378.9   -34106.301    2476.8577   -36583.158    140.81605    232.95049 
   31950    131.59842   -275.90249    127417.65   -34049.069    2481.8915   -36530.961    141.20063    233.42394 
   32000    136.11705   -455.91788     127390.6   -34017.343    2567.1112   -36584.454    141.50284    241.43891 
   32050    136.33657   -212.95874    127289.12   -33997.354    2571.2512   -36568.605    141.39691    241.82828 
   32100     135.4746   -468.52386    127343.82   -34045.005    2554.9948   -36599.999    141.63784    240.29935 
   32150    133.01027   -349.15631    127290.42   -34092.358    2508.5185   -36600.876    141.78131    235.92822 
   32200     134.4916   -380.93163    127276.91   -34088.067    2536.4558   -36624.523    142.03532    238.55575 
   32250    133.94704   -105.89847    127254.66   -34077.208    2526.1856   -36603.394    142.65216    237.58983 
   32300    132.78909   -218.44428    127289.79   -34089.794    2504.3472   -36594.141    142.80803    235.53591 
   32350    137.96152   -112.60123    127329.26   -34018.316    2601.8971   -36620.213    143.00391    244.71055 
   32400    134.62778   -111.89642    127359.81   -33946.647    2539.0241   -36485.671    143.25319     238.7973 
   32450    137.54805   -443.59175    127415.99   -33898.327    2594.0992   -36492.426    143.83904    243.97716 
   32500    138.14933   -195.64861    127413.36   -33897.419     2605.439   -36502.858    144.28227    245.04368 
   32550    135.16721   -343.31591     127411.3   -33943.288    2549.1976   -36492.486    144.58044    239.75412 
   32600    134.43271    -295.1971    127366.85   -33952.552    2535.3451   -36487.897    144.70708    238.45129 
   32650      137.432   -319.53415    127306.81   -33903.601    2591.9106   -36495.511    145.04419    243.77132 
   32700    135.11284   -249.11403     127287.3   -33953.383    2548.1721   -36501.555     145.2914    239.65767 
   32750    136.05591   -338.73461    127274.16   -33962.125     2565.958   -36528.083    145.43227    241.33046 
   32800    135.65289   -101.41113    127331.07    -33969.79    2558.3573   -36528.147    145.54124     240.6156 
   32850    136.94542   -318.80395     127358.8   -33985.255    2582.7339   -36567.989    145.77429    242.90824 
   32900    132.96218   -181.86259    127303.33   -34027.262    2507.6115   -36534.874    145.95361    235.84292 
   32950    134.33278   -279.74451    127280.15   -34046.172    2533.4605   -36579.633    146.28181    238.27404 
   33000    132.62418    -410.3025    127347.93    -34028.11     2501.237   -36529.347     146.2722     235.2434 
   33050    135.32558   -77.257534    127299.06    -33968.07    2552.1843   -36520.255    146.72135    240.03503 
   33100    134.90933   -300.59427    127283.15   -34013.652     2544.334   -36557.986    147.09596     239.2967 
   33150    134.11382    -398.0639    127295.55   -34031.859    2529.3309    -36561.19    147.24746    237.88565 
   33200    138.56472   -201.61532    127319.83   -33976.707    2613.2731    -36589.98    147.57292    245.78048 
   33250    136.98025     -265.486    127414.31   -33947.948    2583.3907   -36531.339    147.82615    242.97001 
   33300    136.85594   -472.87843    127401.15     -33967.5    2581.0463   -36548.547      148.039    242.74952 
   33350    135.31888   -287.35649    127399.58   -34002.948    2552.0579   -36555.006    148.54057    240.02314 
   33400    135.51677   -526.95469    127350.05    -33997.63    2555.7901    -36553.42    148.68221    240.37416 
   33450    133.36607   -456.49739    127215.13   -34025.968    2515.2288   -36541.197    148.33226    236.55934 
   33500    133.47306   -406.49055    127165.19   -34029.785    2517.2465   -36547.031    148.56178     236.7491 
   33550    132.36151   -342.64654    127054.43   -34049.304    2496.2832   -36545.587    148.86248    234.77748 
   33600    135.82352   -222.57899     127061.5   -34061.366    2561.5753   -36622.941    148.85243    240.91826 
   33650     133.0754   -218.93022    127097.98   -34072.593    2509.7468    -36582.34    148.79197    236.04375 
   33700    136.06021   -589.79141     127075.8   -34055.563    2566.0391   -36621.603    148.91862    241.33809 
   33750     135.5853   -223.15774    127080.78   -34010.546    2557.0825   -36567.628    149.20115    240.49571 
   33800    134.05688   -77.975827    127110.31   -34048.323    2528.2572    -36576.58    149.60398    237.78467 
   33850    135.27711   -471.52249    127085.83     -34029.8    2551.2703    -36581.07    150.05285    239.94906 
   33900    133.54146   -319.10959    127092.05   -34032.473    2518.5365    -36551.01    150.00315    236.87042 
   33950    136.11121   -370.55955    127021.15    -34044.13    2567.0009   -36611.131    150.26408    241.42854 
[...]
   92000    137.46461   -232.58191    126832.34   -33979.768    2592.5256   -36572.293    393.04385    243.82916 
   92050    138.10081   -292.04408    126963.94   -33969.326     2604.524    -36573.85    392.98785    244.95762 
   92100    136.59965   -345.04159    126992.96   -33969.848    2576.2128   -36546.061    393.16911    242.29493 
   92150    136.42606   -229.52945    127006.41   -34019.718    2572.9389   -36592.657    393.64753    241.98701 
   92200    138.79585   -137.11316    127054.08   -34054.743    2617.6322   -36672.375    393.83476    246.19045 
   92250    134.90313   -102.38776    127083.07   -34098.435     2544.217   -36642.652    394.26982     239.2857 
   92300    135.58188    66.140383    127145.99   -34087.334     2557.018   -36644.352    394.32892    240.48964 
   92350    133.95783    18.181833    127274.33   -34067.321    2526.3891    -36593.71    394.56021    237.60897 
   92400    136.80829   -116.46696    127344.25   -34095.579    2580.1476   -36675.727    394.81655      242.665 
   92450    135.93445    23.977948    127387.36    -34119.02    2563.6674   -36682.687    394.90062    241.11502 
   92500    131.95399   -487.62444    127445.44   -34198.886    2488.5975   -36687.484    395.04347    234.05464 
   92550    133.24156   -135.97113    127375.87   -34117.424    2512.8806   -36630.305    395.39251    236.33848 
   92600    134.74217   -387.99051    127346.13   -34093.546    2541.1815   -36634.728    395.71222     239.0002 
   92650    134.89995   -102.48757    127236.26   -34094.601     2544.157   -36638.759    395.49859    239.28006 
   92700    133.39045   -128.80215    127196.96   -34119.179    2515.6885   -36634.868    395.85967    236.60256 
   92750    134.55609    15.431826    127302.19   -34111.466     2537.672   -36649.138    396.45115    238.67014 
   92800    135.75447   -215.76466    127359.83   -34097.664    2560.2731   -36657.937    396.90395    240.79578 
   92850    131.81709   -73.418749    127472.61   -34110.185    2486.0157   -36596.201    397.09498    233.81181 
   92900    133.48252   -155.04488    127541.71   -34135.177     2517.425   -36652.602    397.47917    236.76589 
   92950    134.52593   -278.62589    127538.02   -34178.773    2537.1033   -36715.876    397.57247    238.61665 
   93000    135.47963   -316.22929    127545.71   -34186.041    2555.0896   -36741.131    397.88493    240.30828 
   93050    134.09292   -326.48645    127565.08   -34161.184    2528.9368   -36690.121    398.28074    237.84858 
   93100    133.04775   -118.51679    127585.55   -34129.296    2509.2253   -36638.521     398.2858     235.9947 
   93150    134.30716    -190.3268     127580.1   -34054.391    2532.9773   -36587.368    398.57901     238.2286 
   93200    138.01252   -234.71195    127583.24    -34039.92    2602.8588   -36642.779    398.74638    244.80101 
   93250    137.92078   -134.79933    127579.44   -33990.565    2601.1287   -36591.694    398.71765    244.63828 
   93300    136.12111    -509.6816    127533.76   -34039.868    2567.1877   -36607.056    398.78993    241.44611 
   93350     132.5638    -169.9253    127448.23   -34085.925    2500.0983   -36586.023    398.99652     235.1363 
   93400    134.05039    -6.634444    127495.64   -34064.158    2528.1347   -36592.293     399.2707    237.77314 
   93450    132.77254   -108.72102    127505.74     -34067.8    2504.0351   -36571.835    399.23907    235.50656 
   93500    135.63183    -115.6243    127560.43   -34063.486    2557.9601   -36621.446    400.14075    240.57824 
   93550    132.87051   -297.33375    127417.35   -34122.609    2505.8828   -36628.492    400.17038    235.68033 
   93600    132.36772   -145.27874    127361.19   -34099.905    2496.4002   -36596.305    400.89557    234.78849 
   93650    135.64757   -156.70871     127385.6   -34089.973    2558.2569    -36648.23    401.22765    240.60616 
   93700    134.41986   -79.477717    127446.56   -34057.106    2535.1028   -36592.209    401.69201     238.4285 
   93750    136.06669   -97.231333    127614.29   -34037.502    2566.1614   -36603.664    402.30656    241.34958 
   93800    135.65496    38.700393    127768.78   -34047.041    2558.3963   -36605.437      402.356    240.61927 
   93850     136.5075   -106.87577    127755.05   -34052.913    2574.4747   -36627.388    402.34437    242.13146 
   93900    136.21474    -342.7467    127750.44   -34049.592    2568.9536   -36618.546    402.34228    241.61219 
   93950    135.63469   -202.41079    127854.72   -34044.975     2558.014   -36602.989     402.7833    240.58332 
   94000    135.69295    34.941907    127901.06   -34067.789    2559.1128   -36626.902    403.04513    240.68666 
   94050    136.65352   -257.82637    127941.47   -34064.504    2577.2287   -36641.732    403.11116    242.39048 
   94100    136.20761   -384.33075    127882.36   -34104.854    2568.8189   -36673.673    402.88855    241.59953 
   94150    134.79458    -337.2112    127830.35   -34084.468    2542.1698   -36626.638    403.14597    239.09316 
   94200    132.97669   -330.70277    127789.47   -34037.948    2507.8852   -36545.833    403.45412    235.86866 
   94250    135.43384   -251.22769    127804.55   -34057.969     2554.226   -36612.195    403.79024    240.22705 
   94300    133.86966   -256.14824       127792   -34061.027    2524.7263   -36585.753    404.03381    237.45258 
   94350    133.71605   -146.54308    127801.11   -34091.326    2521.8293   -36613.155    404.36956    237.18012 
   94400    136.32716   -180.45153     127791.1   -34075.315    2571.0737   -36646.388    404.58885    241.81159 
   94450    133.10946   -591.65861    127638.81   -34098.884    2510.3892   -36609.273    404.47879    236.10416 
   94500    132.40651   -176.63687    127499.21   -34131.761    2497.1318   -36628.893    404.40912    234.85729 
   94550    135.42059   -453.47854    127458.71   -34084.779    2553.9761   -36638.755    404.38306    240.20355 
   94600    131.51796   -269.57083    127422.32   -34116.782    2480.3742   -36597.157    404.93402    233.28123 
   94650    133.70806   -529.81872    127436.41   -34124.131    2521.6786    -36645.81    405.90521    237.16594 
   94700    133.41676   -462.55176    127412.17   -34159.219    2516.1848   -36675.404    405.81392    236.64925 
   94750    133.05972   -162.24691    127330.34   -34109.049    2509.4511     -36618.5    405.94017    236.01593 
   94800    132.91102    -181.0001    127313.89   -34078.915    2506.6468   -36585.561    405.50047    235.75219 
   94850    138.10835   -356.74122     127233.7   -34042.253    2604.6662    -36646.92    405.66323    244.97099 
   94900    137.07445   -304.92059    127215.04   -34073.638    2585.1673   -36658.806    405.59956     243.1371 
   94950    133.81224   -152.00822    127254.45   -34047.201    2523.6433   -36570.844    405.88335    237.35072 
   95000     134.2104    23.760747    127397.29   -34009.739    2531.1526   -36540.891    406.11861    238.05697 
   95050    137.09557   -209.39542    127479.03   -34002.621    2585.5657   -36588.186    406.43763    243.17457 
   95100    137.97058   -329.17931    127433.19   -33990.453    2602.0679   -36592.521    406.53381    244.72663 
   95150    134.35224   -138.48753    127463.77   -33970.763    2533.8276   -36504.591    406.47866    238.30857 
   95200     137.3991   -265.81456    127577.38   -33944.566    2591.2899   -36535.856    406.97388    243.71295 
   95250    138.22317   -445.10209    127557.42    -33967.64    2606.8316   -36574.472    406.64631    245.17465 
   95300    137.12635   -319.96789    127477.04   -33963.646    2586.1462   -36549.793    407.19277    243.22917 
   95350    137.48974   -353.73764    127456.63   -33956.462    2592.9995   -36549.462    407.91235    243.87373 
   95400    135.87926     -229.715    127444.42   -34028.657    2562.6266   -36591.284    407.98783    241.01713 
   95450    136.36459   -344.84512    127583.21   -34040.173    2571.7796   -36611.953    408.38746    241.87798 
   95500    135.46887   -472.80795    127557.78   -34099.013    2554.8867     -36653.9    408.57702    240.28919 
   95550    136.80336   -262.58927    127487.57   -34055.848    2580.0547   -36635.903     408.6177    242.65626 
   95600     137.9908   -208.98009    127481.45   -33986.915    2602.4493   -36589.365    408.40774    244.76249 
   95650    134.71658   -96.008576    127530.16   -34043.647    2540.6988   -36584.346    408.52402    238.95481 
   95700    135.21036    -193.4852    127585.03   -34120.437    2550.0113   -36670.449    408.74122    239.83066 
   95750    136.16312    53.488808    127696.25   -34097.428    2567.9799   -36665.408    408.84822    241.52062 
   95800     135.3151   -392.02464    127696.71   -34083.626    2551.9867   -36635.613    409.65072    240.01645 
   95850    135.08247   -397.92603    127678.27   -34099.496    2547.5994   -36647.096    409.91158    239.60382 
   95900    138.63546   -439.24989    127656.04   -34037.375    2614.6072   -36651.983    410.43114    245.90595 
   95950    136.81715   -223.29148    127592.09   -34060.536    2580.3146    -36640.85    410.25785    242.68071 
   96000    135.38528   -57.755229    127666.61   -34042.275    2553.3103   -36595.586    410.32572    240.14093 
   96050    134.28545    34.999314    127705.88   -34154.218    2532.5679   -36686.786    410.35773    238.19009 
   96100    133.64954    -200.3907    127820.62   -34171.368    2520.5749   -36691.943    410.64111    237.06214 
   96150    133.36006   -274.70826    127853.81   -34172.881    2515.1154   -36687.996    410.69009    236.54867 
   96200     132.1978   -148.12874     127808.2   -34164.213    2493.1956   -36657.409    410.63508     234.4871 
   96250    133.83565   -203.48015    127744.83   -34177.881    2524.0847   -36701.966     410.9498    237.39224 
   96300    133.71058   -209.34158    127794.48   -34139.969    2521.7261   -36661.695    411.12514    237.17041 
   96350    134.19919   -294.16627    127836.48   -34128.083     2530.941   -36659.024    411.60514    238.03708 
   96400       136.72   -482.22015    127858.85   -34106.233    2578.4825   -36684.716    412.27444     242.5084 
   96450    133.69346   -404.28652    127891.07   -34097.555    2521.4033   -36618.958    412.38151    237.14005 
   96500    135.70473   -424.78828    127903.67   -34082.704    2559.3349   -36642.039    412.52945    240.70755 
   96550    136.12418   -236.46339    127853.15   -34092.555    2567.2455     -36659.8    412.62096    241.45154 
   96600    136.43913   -390.86612    127873.24   -33996.941    2573.1854   -36570.126    412.33308     242.0102 
   96650    137.50548   -330.17299    127780.56   -33965.547    2593.2963   -36558.843    412.47065    243.90165 
   96700    136.36772    -184.6386    127791.61    -33995.62    2571.8386   -36567.459    412.58984    241.88353 
   96750    134.65864    -555.1924    127760.77    -34094.72    2539.6062   -36634.326    413.12347    238.85204 
   96800    134.15154   -512.29529    127754.56   -34133.118    2530.0423    -36663.16    413.18295    237.95256 
   96850    135.93669   -44.476552    127820.09   -34080.288    2563.7096   -36643.997    412.95504    241.11899 
   96900    135.02326   -334.27764    127785.46   -34034.889    2546.4827   -36581.372    413.54285    239.49878 
   96950    136.04496   -353.36473     127649.9    -34065.27    2565.7515   -36631.021     413.5583    241.31104 
   97000    137.30009   -303.67169    127652.78   -34076.139    2589.4227   -36665.561    413.54116    243.53733 
   97050    136.25131   -292.31896    127576.27   -34064.777    2569.6432    -36634.42    413.78588    241.67705 
   97100    133.87731   -365.90342    127512.56   -34033.988    2524.8704   -36558.859    413.83784    237.46614 
   97150    136.09995    -187.4783    127464.86   -34029.938    2566.7886   -36596.726    414.38472    241.40857 
   97200    138.21682   -31.303274    127515.58    -34107.31    2606.7119   -36714.022    414.71676     245.1634 
   97250    137.62668    -82.87525    127632.43   -34032.632    2595.5821   -36628.214    414.87821    244.11663 
   97300    136.06687    3.0607958    127712.21   -34047.044    2566.1646   -36613.209    415.14647    241.34989 
   97350    136.22947   -453.65738    127644.68   -34039.067    2569.2313   -36608.298     415.1587    241.63831 
   97400    136.26116   -279.59239    127610.25   -34087.513    2569.8289   -36657.342     415.2654    241.69452 
   97450    135.09728   -456.52125    127551.46    -34089.98    2547.8786   -36637.859    415.29177    239.63007 
   97500    134.90248   -487.30828    127525.77    -34120.35    2544.2048   -36664.555    415.35522    239.28455 
   97550    135.98638   -30.218206    127524.88   -34117.713    2564.6468    -36682.36     415.6424    241.20713 
   97600     131.9422   -270.71724    127507.77   -34135.174    2488.3751   -36623.549    416.04076    234.03372 
   97650    133.68817   -305.44306    127478.93   -34098.926    2521.3034   -36620.229    416.04168    237.13065 
   97700    132.18935   -446.59447    127440.22   -34120.413    2493.0363    -36613.45    415.65107    234.47211 
   97750    135.98169   -313.45053     127378.5   -34107.894    2564.5583   -36672.452    415.83288    241.19881 
   97800    136.46217   -320.77688    127412.49   -34111.728    2573.6199   -36685.348    416.18029    242.05106 
   97850    134.66711   -196.10029    127444.38   -34106.102    2539.7659   -36645.868    416.23417    238.86707 
   97900     134.1897   -379.73381    127402.95   -34128.407     2530.762   -36659.169    416.70025    238.02024 
   97950    131.90325   -226.20439    127329.77    -34112.51    2487.6406    -36600.15    416.28996    233.96464 
   98000    133.47546   -304.48293     127279.5   -34152.793    2517.2919   -36670.085    416.50404    236.75337 
   98050    134.94315    -215.6968       127318   -34180.007    2544.9719   -36724.979    416.62404    239.35669 
   98100    132.82058   -231.36277    127399.52    -34157.27    2504.9411   -36662.211     417.0392    235.59176 
   98150    135.81679   -337.14645    127411.78   -34151.704    2561.4484   -36713.153     417.3487    240.90632 
   98200    133.20778   -260.83773    127457.01   -34138.784    2512.2434   -36651.027     417.5265    236.27855 
   98250    134.22371   -70.982959    127471.22   -34059.195    2531.4036   -36590.598    417.21858    238.08058 
   98300    137.74663   -58.635443    127539.98   -34026.557    2597.8443   -36624.401    416.63057    244.32939 
   98350    136.11998   -647.99157    127522.61   -34055.854    2567.1664    -36623.02    417.14553    241.44411 
   98400    132.64724    81.144181    127537.85   -34088.158     2501.672    -36589.83    416.99593     235.2843 
   98450    134.59307   -287.83623    127599.56   -34106.499    2538.3695   -36644.868    417.35724    238.73573 
   98500    135.51441   -181.20145    127558.35   -34077.547    2555.7455   -36633.292    417.39203    240.36996 
   98550    137.31806    7.7586731    127612.38   -34135.966    2589.7617   -36725.728    417.78416    243.56921 
   98600    132.88748   -186.59026    127635.51   -34181.577    2506.2028    -36687.78    418.26412    235.71043 
   98650    135.12745   -282.44022    127627.27   -34175.074    2548.4476   -36723.522    418.35202    239.68359 
   98700    133.53243   -419.69381    127623.45   -34158.762    2518.3663   -36677.129    418.18083    236.85441 
   98750    136.79096   -297.86297    127593.49   -34129.408    2579.8207   -36709.229    418.12565    242.63426 
   98800    132.13938   -411.82083    127512.03   -34097.545    2492.0939   -36589.639    418.40133    234.38347 
   98850    133.01246    23.696805    127621.62   -34138.869    2508.5599   -36647.429    418.54365    235.93212 
   98900    133.80936   -83.844434    127664.45   -34148.304     2523.589   -36671.893    418.81682    237.34561 
   98950    135.38182    -18.65497    127742.45   -34070.866     2553.245   -36624.111    418.96307    240.13479 
   99000     137.7562   -242.77848    127653.13   -34051.365    2598.0247    -36649.39    419.01704    244.34636 
   99050    136.54692   -250.59079    127583.64   -34009.541    2575.2182   -36584.759    419.22676    242.20139 
   99100    134.54275   -123.79627    127682.95   -34026.479    2537.4205     -36563.9    418.87561    238.64648 
   99150    136.72658   -505.05133    127644.24   -34005.502    2578.6066   -36584.109    418.81207    242.52007 
   99200    135.00213   -14.828334    127681.23   -33958.935    2546.0842   -36505.019    419.28981    239.46131 
   99250    136.83821   -91.583824    127770.38   -33954.382    2580.7119   -36535.094    419.54657    242.71807 
   99300    136.67372   -11.683456    127824.78   -33985.562    2577.6096   -36563.172    419.33837     242.4263 
   99350    134.37962   -305.23275    127771.47   -33996.911    2534.3439   -36531.255    419.42885    238.35712 
   99400    137.75456   -289.14213    127801.97    -34011.77    2597.9938   -36609.763    419.17301    244.34345 
   99450    135.75865   -3.3999072    127898.41   -34006.311    2560.3518   -36566.663    419.33662    240.80319 
   99500    133.96479   -342.08854    127963.34   -33977.523    2526.5203   -36504.043    419.42808    237.62131 
   99550    134.54793   -347.00983    127931.82   -34018.867    2537.5182   -36556.385    419.49857    238.65567 
   99600    135.63663   -143.88649    127883.47   -34020.314    2558.0507   -36578.365    419.51684    240.58676 
   99650    137.07746   -343.20062    127914.47   -34042.654    2585.2241   -36627.878    419.52332    243.14245 
   99700    136.52401   -104.20736    127892.46   -34091.944    2574.7863    -36666.73    419.36023    242.16076 
   99750    136.55802    79.388073    127938.24   -34043.604    2575.4275   -36619.031    419.77042    242.22107 
   99800    135.02871   -262.61651     127877.7   -34031.474    2546.5855   -36578.059     419.5932    239.50846 
   99850    136.46325   -220.42304    127949.05   -33986.101    2573.6404   -36559.742    420.21495    242.05299 
   99900       136.62   -263.93953    128002.08   -33977.601    2576.5964   -36554.198     420.2605    242.33101 
   99950    135.50173   -193.34626    127995.13   -33933.991    2555.5063   -36489.498    420.45221    240.34747 
  100000    135.96296   -128.73959    127986.49   -34024.257    2564.2051   -36588.462    420.57326    241.16559 
Loop time of 100.643 on 60 procs for 100000 steps with 6328 atoms

Performance: 429.242 ns/day, 0.056 hours/ns, 993.616 timesteps/s
99.7% CPU use with 60 MPI tasks x no OpenMP threads

MPI task timing breakdown:
Section |  min time  |  avg time  |  max time  |%varavg| %total
---------------------------------------------------------------
Pair    | 18.744     | 42.086     | 69.098     | 336.0 | 41.82
Neigh   | 0.93021    | 2.01       | 5.6388     | 115.4 |  2.00
Comm    | 17.66      | 43.675     | 66.316     | 317.9 | 43.40
Output  | 0.20497    | 0.20893    | 0.22465    |   0.5 |  0.21
Modify  | 8.1911     | 11.286     | 14.114     |  51.2 | 11.21
Other   |            | 1.376      |            |       |  1.37

Nlocal:    105.467 ave 245 max 63 min
Histogram: 44 4 0 0 0 0 0 0 5 7
Nghost:    807.467 ave 1055 max 504 min
Histogram: 24 0 0 0 0 0 0 0 24 12
Neighs:    0 ave 0 max 0 min
Histogram: 60 0 0 0 0 0 0 0 0 0
FullNghs:  8641.73 ave 30900 max 2383 min
Histogram: 48 0 0 0 0 0 0 0 2 10

Total # of neighbors = 518504
Ave neighs/atom = 81.9381
Neighbor list builds = 5998
Dangerous builds = 0

write_data		${DIR}/data.eq-${NAME}-${TEMP}
write_data		run_14/data.eq-${NAME}-${TEMP}
write_data		run_14/data.eq-het_freeze_14-${TEMP}
write_data		run_14/data.eq-het_freeze_14-240
undump          1

reset_timestep  0

unfix           2
unfix           3
unfix           4


################################################
#######         Run Simulation         #########
################################################

log				${DIR}/log.run_${NAME}
log				run_14/log.run_${NAME}
log				run_14/log.run_het_freeze_14
