
# Create simulation box and atoms

read_data data.ML_graphite_m1000atm_250K
  orthogonal box = (0 0 1.04861) to (49.22 49.0196 38.9514)
  5 by 4 by 4 MPI processor grid
  reading atoms ...
  5031 atoms
  reading velocities ...
  5031 velocities
group water type 1
2271 atoms in group water
group graphite type 2
2760 atoms in group graphite

# Define potential

pair_style sw
pair_coeff * * MLC_e.sw mW C


# Fix graphite atoms in place

fix 5 graphite setforce 0.0 0.0 0.0
velocity graphite set 0.0 0.0 0.0


# Equilibration of molecular water

# Add velocity/set timestep

velocity	    water create ${TEMP} ${SEED} rot yes dist gaussian
velocity	    water create 250 ${SEED} rot yes dist gaussian
velocity	    water create 250 15943 rot yes dist gaussian
timestep	    5.0

# Define output

compute			1 water msd
compute			3 water temp
thermo	    	50
thermo_style	custom step temp press vol etotal ke pe c_1[4] c_3

# Neighbor lists

neigh_modify    delay 0 every 1 check yes

# Set fixes

fix             1 water momentum 10 linear 1 1 1 rescale
fix             2 water nve
fix             3 water temp/csvr ${TEMP} ${TEMP} 500.0 ${SEED}
fix             3 water temp/csvr 250 ${TEMP} 500.0 ${SEED}
fix             3 water temp/csvr 250 250 500.0 ${SEED}
fix             3 water temp/csvr 250 250 500.0 15943
fix             4 water press/berendsen z ${PRES} ${PRES} 1000.0 modulus 20000
fix             4 water press/berendsen z -1000 ${PRES} 1000.0 modulus 20000
fix             4 water press/berendsen z -1000 -1000 1000.0 modulus 20000

# Run 0.5 ns equilibration

dump		    1 all atom 2000 ${DIR}/eq.${NAME}-${TEMP}.dump
dump		    1 all atom 2000 run_1/eq.${NAME}-${TEMP}.dump
dump		    1 all atom 2000 run_1/eq.het_freeze_1-${TEMP}.dump
dump		    1 all atom 2000 run_1/eq.het_freeze_1-250.dump

reset_timestep  0

run	            100000
Neighbor list info ...
  update every 1 steps, delay 0 steps, check yes
  max neighbors/atom: 2000, page size: 100000
  master list distance cutoff = 6.67472
  ghost atom cutoff = 6.67472
  binsize = 3.33736, bins = 15 15 12
  1 neighbor lists, perpetual/occasional/extra = 1 0 0
  (1) pair sw, perpetual
      attributes: full, newton on
      pair build: full/bin/atomonly
      stencil: full/bin/3d
      bin: standard
Per MPI rank memory allocation (min/avg/max) = 4.069 | 4.188 | 4.476 Mbytes
Step Temp Press Volume TotEng KinEng PotEng c_1[4] c_3 
       0    112.82306   -1433.2777    91449.793   -21655.009    1691.6097   -23346.618            0          250 
      50    113.69597   -988.38581    91430.987   -21643.514    1704.6977   -23348.212   0.53256229    251.93424 
     100    110.98326   -1382.2525    91423.124   -21667.365    1664.0247    -23331.39   0.88148952    245.92327 
     150    112.24233   -1284.2028    91346.361   -21703.028    1682.9024    -23385.93    1.0380086    248.71317 
     200    111.88345   -1076.8129    91332.598   -21776.042    1677.5217   -23453.564    1.2008858    247.91796 
     250    111.88687   -1456.5359    91353.975   -21797.264    1677.5729   -23474.837    1.3973734    247.92553 
     300    109.77981   -1294.9626    91349.124   -21769.735    1645.9808   -23415.716    1.6079347    243.25659 
     350    109.93889   -1362.6549    91282.941   -21768.526     1648.366   -23416.892     1.805177    243.60909 
     400    114.47224   -1215.0403    91299.514   -21704.635    1716.3365   -23420.971    1.9689783    253.65434 
     450    112.93505   -1141.2094    91327.028   -21694.922    1693.2888   -23388.211     2.095263    250.24814 
     500    109.13469   -1392.7388    91332.495   -21704.187    1636.3081   -23340.495    2.2548113    241.82708 
     550    111.84444    -1159.649    91344.336   -21697.471    1676.9367   -23374.407    2.4647588    247.83151 
     600    110.04406   -1391.9762    91271.767     -21733.5    1649.9428   -23383.442    2.6088394    243.84212 
     650    111.14508   -1553.5132    91119.758    -21744.13    1666.4509    -23410.58    2.7446486    246.28182 
     700    112.78278    -913.5925    91097.921   -21737.805    1691.0058   -23428.811    2.8634803    249.91075 
     750    109.37062   -1518.2253    91100.237   -21743.703    1639.8457   -23383.548    3.0073846    242.34989 
     800    111.15155   -1481.9643    91072.685   -21761.613     1666.548   -23428.161    3.2196859    246.29617 
     850    112.03934   -1201.3518    91046.874   -21769.396     1679.859   -23449.255    3.3253684    248.26338 
     900    110.44002   -947.33583    91090.726   -21743.888    1655.8797   -23399.768    3.4223065    244.71952 
     950    112.39481   -1338.7767    91126.395   -21683.584    1685.1887   -23368.773    3.5649173    249.05105 
    1000    116.09095   -1145.7098    91204.646   -21693.953    1740.6068    -23434.56    3.7473896    257.24119 
    1050    114.45349   -1270.2158    91267.875   -21696.993    1716.0555   -23413.048     3.868995     253.6128 
    1100    117.96824   -1145.9009     91319.39   -21679.531    1768.7538   -23448.285    4.0722953    261.40099 
    1150    115.42932   -1266.5764    91342.639   -21663.254    1730.6866   -23393.941    4.1667521    255.77511 
    1200    116.87175   -1229.4931    91340.971   -21683.406    1752.3136    -23435.72    4.2367974    258.97132 
    1250    112.71398   -1115.8311    91435.754   -21731.303    1689.9742   -23421.277    4.4586854    249.75829 
    1300    114.02801     -1313.73    91500.724   -21716.538    1709.6761   -23426.214    4.5702836       252.67 
    1350    111.42507   -1088.4894    91445.941   -21725.959     1670.649   -23396.608    4.6730178    246.90225 
    1400    110.27562   -1266.7102    91468.472   -21744.922    1653.4146   -23398.337    4.7954861    244.35522 
    1450     112.0954   -1422.9363    91459.772   -21767.324    1680.6996   -23448.023    4.9450354    248.38761 
    1500    110.84176   -1498.3218    91475.724   -21728.912    1661.9031   -23390.815    5.1610999    245.60972 
    1550     112.6441   -1153.0342    91423.462   -21729.859    1688.9264   -23418.785    5.2735288    249.60344 
    1600    112.34096   -1381.6444    91399.767   -21761.538    1684.3813   -23445.919    5.4266725    248.93173 
    1650    112.82091   -1433.4189    91391.357   -21742.445    1691.5775   -23434.022    5.6103424    249.99524 
    1700    111.08388   -1220.0745    91365.758   -21703.842    1665.5333   -23369.375    5.9082129    246.14622 
    1750    114.38236    -1351.272    91369.689   -21714.922    1714.9891   -23429.911    6.0963904    253.45519 
    1800    112.22349   -1461.7757    91381.044   -21722.502      1682.62   -23405.122      6.23415    248.67142 
    1850    113.15007   -1176.1177    91387.344   -21748.966    1696.5126   -23445.478    6.3633381    250.72459 
    1900     112.4297   -1247.6172    91406.211   -21762.111    1685.7119   -23447.823    6.5316537    249.12837 
    1950    111.49824    -1286.338    91462.348   -21767.931    1671.7461   -23439.677    6.8193129    247.06439 
    2000    114.14181    -919.1901    91521.529   -21729.209    1711.3823   -23440.592     7.153553    252.92216 
    2050    114.22989   -1277.0802    91657.042   -21710.267    1712.7029    -23422.97    7.4365483    253.11733 
    2100    111.81898   -1337.1488     91694.54   -21716.334     1676.555   -23392.889    7.5403972    247.77509 
    2150    115.22751    -1004.762    91693.971    -21711.47    1727.6607    -23439.13    7.6852394    255.32792 
    2200     112.3285   -1197.3484    91760.729   -21729.942    1684.1946   -23414.137    7.8607484    248.90413 
    2250    108.81903   -1313.8051    91795.766    -21758.43    1631.5754   -23390.005    7.9483941    241.12763 
    2300    112.89318   -1254.0382    91795.318   -21752.817     1692.661   -23445.478    7.9894128    250.15537 
    2350    113.32504   -1302.5122    91826.499   -21761.055    1699.1361   -23460.191    8.0496401    251.11231 
    2400    112.82132   -1159.1825    91846.384   -21712.632    1691.5835   -23404.216    8.2749473    249.99613 
    2450      112.141   -1280.8486    91849.785   -21760.345    1681.3833   -23441.728    8.3227926    248.48866 
    2500    110.48588   -1433.0397    91797.589   -21798.855    1656.5672   -23455.422    8.4002631    244.82112 
    2550    112.62471    -1323.114    91830.829   -21803.224    1688.6357    -23491.86    8.5568986    249.56047 
    2600    114.50795   -1280.4678    91853.951   -21767.666    1716.8721   -23484.539    8.6074573    253.73349 
    2650    113.74674   -1700.4372    91897.567   -21741.215    1705.4589   -23446.674    8.7377246    252.04675 
    2700    114.69778   -1048.2916    91844.589   -21680.705    1719.7183   -23400.423    8.8013608    254.15412 
    2750    115.38577   -1033.8483    91862.464   -21689.591    1730.0335   -23419.624    8.9165301    255.67859 
    2800    111.70008   -1387.4063    91914.076   -21719.872    1674.7723   -23394.645    9.1163556    247.51163 
    2850    111.94796   -1182.9959    91983.827   -21742.951    1678.4889    -23421.44    9.1297954    248.06089 
    2900    113.39862   -1507.7426     91980.42   -21709.259    1700.2393   -23409.498    9.3234799    251.27535 
    2950    117.60337   -1087.2745     91915.09   -21687.186    1763.2832   -23450.469    9.3467852    260.59249 
    3000    115.12393   -1180.8535    91926.161   -21700.124    1726.1077   -23426.231    9.4330986     255.0984 
    3050    112.12596   -1378.3693    91935.621   -21712.312    1681.1577   -23393.469    9.6138565    248.45532 
    3100    114.02591   -1215.8932    91878.947   -21689.448    1709.6446   -23399.092    9.7722568    252.66534 
    3150    112.25001   -1337.3678    91793.997   -21657.863    1683.0177   -23340.881    9.8983002     248.7302 
    3200    114.13349   -1396.9006    91762.409   -21658.814    1711.2576   -23370.072    10.113112    252.90373 
    3250    113.46879   -1411.3798    91712.992   -21701.351    1701.2915   -23402.642    10.256526    251.43085 
    3300    112.66953   -1176.7518    91714.778   -21690.849    1689.3078   -23380.157    10.417421     249.6598 
    3350     113.7836   -1165.4291    91727.795    -21688.36    1706.0115   -23394.372    10.530284    252.12842 
    3400    111.34297   -1305.5686    91720.059   -21699.262    1669.4179    -23368.68    10.724249    246.72032 
    3450    117.04998   -1283.7263    91767.336   -21656.871    1754.9859   -23411.857    10.760405    259.36625 
    3500    116.17317    -1266.697    91763.176   -21643.056    1741.8395   -23384.895    10.970817    257.42337 
    3550    116.20696   -1318.4578    91801.944   -21632.037    1742.3461   -23374.383    11.108598    257.49825 
    3600    115.09302   -1384.0907    91784.063   -21640.997    1725.6443   -23366.642    11.407412    255.02991 
    3650    115.35262     -1258.77    91747.403   -21670.291    1729.5366   -23399.827    11.666755    255.60514 
    3700    112.95566   -1365.3479    91741.699   -21688.589    1693.5978   -23382.187    11.736172    250.29381 
    3750    112.15512   -1615.7813    91642.064   -21726.734     1681.595   -23408.329    11.800488    248.51995 
    3800    110.23199   -1131.2248    91528.154   -21743.692    1652.7605   -23396.453    11.877544    244.25855 
    3850     110.2894   -1332.4523    91546.826   -21731.549    1653.6214    -23385.17    11.896073    244.38577 
    3900    114.46901   -1132.9221    91510.597   -21770.891    1716.2883   -23487.179    11.927781     253.6472 
    3950    112.72789   -1263.4757    91588.948   -21770.846    1690.1828   -23461.029    12.166223    249.78912 
    4000    108.12955   -1467.9798    91705.015   -21755.467    1621.2377   -23376.704    12.358607    239.59985 
    4050    110.58877   -1642.5614      91689.6   -21745.141      1658.11   -23403.251    12.498911    245.04914 
    4100    109.70525   -1345.6908    91573.145   -21766.824    1644.8629   -23411.687     12.58025    243.09137 
    4150    110.70739   -1360.6402    91526.963    -21762.81    1659.8884   -23422.698    12.788348    245.31196 
    4200    111.82666   -1742.4458    91483.535   -21746.395    1676.6701   -23423.065    12.968842    247.79211 
    4250     112.7044   -1471.9968    91449.112   -21701.799    1689.8305   -23391.629    12.937885    249.73706 
    4300    110.37439   -1291.9431    91515.385   -21700.523    1654.8956   -23355.418    13.163222    244.57408 
    4350    110.58041   -1350.5306    91467.062   -21712.498    1657.9845   -23370.482    13.321522    245.03059 
    4400    112.69383   -1331.5029    91490.171   -21676.814    1689.6721   -23366.486    13.484896    249.71364 
    4450     110.6839   -1370.9724    91463.903   -21687.987    1659.5363   -23347.523    13.596189    245.25993 
    4500    110.23506   -1521.7925    91419.222   -21718.729    1652.8065   -23371.535    13.664064    244.26534 
    4550    109.73567   -1469.1084     91358.41   -21713.806     1645.319   -23359.125    13.776803    243.15877 
    4600    111.89249   -1652.7395    91283.888   -21736.887    1677.6571   -23414.544    14.076456    247.93797 
    4650    111.32416   -1562.4321    91280.161   -21746.548    1669.1359   -23415.684    14.304255    246.67864 
    4700    112.73188   -1265.0399    91252.153   -21688.957    1690.2426   -23379.199    14.521062    249.79796 
    4750    112.80564   -1341.3689     91284.81    -21642.47    1691.3484   -23333.818    14.632932    249.96139 
    4800    113.88959   -1511.9434     91266.32    -21645.35    1707.6007   -23352.951    14.869193    252.36328 
    4850    114.91688   -1250.3405    91275.662   -21655.023    1723.0033   -23378.027    15.038585    254.63961 
    4900    113.94402   -1320.8232    91299.704   -21660.555    1708.4167   -23368.972    15.299461    252.48388 
    4950    113.81793   -1258.8821    91262.372   -21634.607    1706.5263   -23341.133     15.43696    252.20449 
    5000    118.44906    -1277.884    91214.591   -21591.658     1775.963   -23367.621     15.64537    262.46642 
    5050     114.4585   -1009.5997    91226.542   -21629.369    1716.1305     -23345.5    15.879192    253.62389 
    5100    112.69347   -1410.0423    91239.824   -21682.257    1689.6667   -23371.924     16.11889    249.71284 
    5150    114.25364   -1314.7623    91247.433   -21673.477     1713.059   -23386.536    16.203025    253.16995 
    5200    113.47178   -1333.6255    91216.379   -21695.842    1701.3363   -23397.179    16.286047    251.43748 
    5250    112.18741   -1103.2429    91164.938    -21691.47    1682.0791   -23373.549    16.452923    248.59149 
    5300    112.12429   -1116.9939     91185.47   -21631.792    1681.1327   -23312.924    16.571828    248.45162 
    5350    112.68296   -1175.8731    91194.251   -21661.868    1689.5092   -23351.378    16.601205    249.68956 
    5400    108.87401   -1424.7212    91225.748   -21666.599    1632.3997   -23298.998    16.728748    241.24946 
    5450    113.58571   -1182.2211    91172.224   -21647.701    1703.0445   -23350.746    16.817482    251.68993 
    5500    113.70552   -1403.3283     91144.15   -21637.626    1704.8409   -23342.466    17.129871    251.95541 
    5550    115.75543   -1721.8273    91102.142   -21655.551    1735.5761   -23391.127    17.447961    256.49772 
    5600    109.62694   -1569.6319    90987.239   -21721.281    1643.6887    -23364.97    17.682672    242.91784 
    5650    110.35616   -1418.3147    90928.691   -21724.863    1654.6222   -23379.486    17.889011    244.53369 
    5700     108.8142   -1776.3764     90813.06   -21708.619    1631.5029   -23340.122      18.1445    241.11692 
    5750    112.00462   -1669.1986    90692.135   -21675.778    1679.3384   -23355.117     18.28231    248.18644 
    5800    111.55582   -1355.9215    90689.276   -21706.501    1672.6094    -23379.11    18.364895    247.19198 
    5850    114.28491   -1066.8006    90723.931   -21697.757    1713.5279   -23411.285    18.562701    253.23925 
    5900    109.94253   -1577.2904    90750.165    -21738.46    1648.4205    -23386.88    18.947196    243.61714 
    5950    113.29839    -1257.089    90693.034   -21735.224    1698.7365    -23433.96    19.119698    251.05325 
    6000    112.16666   -1316.2914    90697.009   -21703.512    1681.7679    -23385.28    19.146608     248.5455 
    6050    112.03759   -1284.0429    90670.063   -21703.413    1679.8328   -23383.246    19.151301    248.25951 
    6100    114.71316   -1361.2285    90696.144   -21689.198    1719.9489   -23409.147    19.302807     254.1882 
    6150     112.7241   -1580.8718    90718.617   -21679.612     1690.126   -23369.738    19.274706    249.78072 
    6200     112.8262   -1451.1608    90684.423   -21691.969    1691.6567   -23383.626    19.303096    250.00695 
    6250    113.25701   -1227.4202    90694.556   -21674.236    1698.1161   -23372.352    19.552353    250.96157 
    6300    113.47918   -1420.9453    90779.138   -21662.735    1701.4472   -23364.182    19.680983    251.45386 
    6350    112.68173   -1151.3998    90804.716    -21598.28    1689.4906    -23287.77    19.857555    249.68682 
    6400    117.12423    -1087.284    90838.822   -21581.435    1756.0991   -23337.534    19.930554    259.53078 
    6450    113.48832   -1275.3132    90946.044   -21606.341    1701.5842   -23307.926    20.189698    251.47411 
    6500    114.97131   -1357.7176    90976.123   -21652.555    1723.8195   -23376.374     20.33151    254.76022 
    6550    114.37643   -977.49061    90945.011   -21662.897    1714.9001   -23377.797    20.499444    253.44204 
    6600    112.45744   -1417.6286    90905.849   -21629.458    1686.1277   -23315.586    20.677939    249.18983 
    6650    114.72576   -1190.8161    90903.416   -21638.307    1720.1377   -23358.445    20.683787     254.2161 
    6700    113.51744   -984.09997    90944.129   -21663.452    1702.0209   -23365.473    20.820816    251.53865 
    6750    114.41757   -1434.8292    91024.513   -21668.777    1715.5169   -23384.294    21.048745    253.53321 
    6800    109.66795   -1262.0808    91028.304   -21695.552    1644.3036   -23339.855    21.343292    243.00871 
    6850    113.86972   -1275.1891    91069.086   -21704.026    1707.3027   -23411.329    21.812256    252.31924 
    6900    115.49665   -1331.3792    91074.414    -21672.71    1731.6961   -23404.406    21.909418    255.92429 
    6950    114.98912   -1404.6855    91144.285   -21686.323    1724.0864   -23410.409    22.318065    254.79967 
    7000    114.28379   -1317.0014    91089.242   -21667.399    1713.5112    -23380.91    22.471499    253.23678 
    7050    116.83312   -1236.9954    91083.776    -21655.82    1751.7344   -23407.555     22.65328    258.88572 
    7100    114.81677   -1480.9313    91093.788   -21656.741    1721.5023   -23378.244    22.757509    254.41778 
    7150    111.57482   -1375.9983    91072.229    -21711.25    1672.8942   -23384.144    22.910251    247.23407 
    7200    111.91913   -1343.2866    91082.708   -21745.751    1678.0566   -23423.808    23.133263    247.99702 
    7250    111.69438   -1579.7847    90981.308   -21715.542    1674.6868   -23390.229     23.35633    247.49899 
    7300    113.76744    -1384.421    90973.423   -21704.361    1705.7692   -23410.131    23.429249     252.0926 
    7350    112.72893   -1190.4877    90981.005   -21711.849    1690.1984   -23402.047    23.637972    249.79143 
    7400    111.72831   -1404.1014    90936.012   -21707.636    1675.1956   -23382.831    23.763283    247.57419 
    7450    111.24005   -1004.9212    91014.678   -21717.243    1667.8749   -23385.117    23.802431    246.49228 
    7500    107.00901   -1155.8022    91125.015   -21755.925    1604.4368   -23360.362    23.888351    237.11688 
    7550    111.72314   -1294.6505    91146.591   -21721.879    1675.1181   -23396.997    24.041642    247.56274 
    7600    111.66023   -1264.5631    91107.914   -21722.873    1674.1749   -23397.047    24.312515    247.42334 
    7650    113.66726   -1285.0739     91178.97   -21666.109    1704.2672   -23370.376     24.74405    251.87062 
    7700    113.14871   -1305.5303    91145.199   -21630.229    1696.4924   -23326.721    25.144926     250.7216 
    7750    113.36979   -1335.7646    91146.067   -21617.781    1699.8071   -23317.588     25.39396    251.21147 
    7800    114.52218   -1214.2323    91218.303   -21626.798    1717.0854   -23343.883    25.681242    253.76501 
    7850    114.39092    -1024.684    91243.049   -21603.225    1715.1174   -23318.343    25.841091    253.47416 
    7900    113.58621   -1351.7287    91235.737   -21659.402    1703.0519   -23362.454    26.134645    251.69103 
    7950    114.32973   -1149.4895    91240.303   -21650.248    1714.1999   -23364.448    26.196793    253.33856 
    8000    113.63292   -1246.8449    91277.355   -21640.908    1703.7522    -23344.66    26.374344    251.79452 
    8050    110.75195   -1474.6609     91255.87   -21666.406    1660.5565   -23326.963    26.442778     245.4107 
    8100    112.25746   -1197.1131    91276.053   -21695.769    1683.1294   -23378.899    26.700877    248.74671 
    8150    113.52396   -901.49867    91314.859   -21689.986    1702.1186   -23392.105    26.874958    251.55309 
    8200    117.53627   -989.13657    91407.777   -21631.386     1762.277   -23393.663     27.11078     260.4438 
    8250    114.66467   -1164.9018    91440.372   -21678.005    1719.2219   -23397.227    27.376808    254.08075 
    8300    112.95143   -1187.0631    91460.312   -21685.119    1693.5344   -23378.654    27.261736    250.28445 
    8350     111.9873   -1470.9996    91392.253   -21707.227    1679.0787   -23386.306    27.478385    248.14807 
    8400    113.97836   -1331.8503    91327.026   -21673.168    1708.9317     -23382.1    27.647014    252.55999 
    8450    114.25219   -1361.1455      91309.8   -21709.635    1713.0372   -23422.672     27.65478    253.16674 
    8500    113.94363   -1214.6744    91225.894   -21660.296    1708.4109   -23368.707    27.605747    252.48302 
    8550    110.58416   -1073.8936    91271.716   -21670.917    1658.0407   -23328.958    27.675014     245.0389 
    8600    111.81695   -947.33228    91248.147   -21639.533    1676.5247   -23316.058    27.909457    247.77061 
    8650    115.39161   -1246.4861    91271.291   -21660.027    1730.1212   -23390.148    28.095979    255.69154 
    8700    115.15685   -1228.2893     91363.33   -21687.673    1726.6013   -23414.274    28.278123    255.17135 
    8750    112.27202   -1536.0885    91425.813   -21665.671    1683.3476   -23349.019    28.536526    248.77896 
    8800    112.59593   -1432.7446    91353.418   -21653.048    1688.2042   -23341.252    28.948819    249.49671 
    8850    112.03875   -1146.5384    91312.918   -21695.703    1679.8502   -23375.553    29.163831    248.26208 
    8900    112.86527   -1228.8717    91414.175   -21709.519    1692.2426   -23401.762    29.528191    250.09353 
    8950    112.47231   -1235.7179     91394.47   -21698.627    1686.3507   -23384.978    29.662568    249.22278 
    9000    109.61846   -1506.3009    91418.991    -21732.63    1643.5616   -23376.192    29.598841    242.89906 
    9050    110.66966     -1389.93    91427.171   -21745.006    1659.3227   -23404.329     29.86931    245.22837 
    9100    114.23765   -1161.6265    91377.775   -21723.061    1712.8193   -23435.881    29.927029    253.13453 
    9150    110.37816   -1598.8172    91437.135   -21712.119    1654.9521   -23367.072    30.005933    244.58244 
    9200    110.80536   -904.79659    91425.904   -21700.284    1661.3573   -23361.642    30.315128    245.52905 
    9250    115.69519   -1170.2156    91391.295   -21695.401    1734.6729   -23430.074    30.599829    256.36423 
    9300    114.87411   -1352.9796    91402.489   -21687.931     1722.362   -23410.293    30.831921    254.54482 
    9350    113.70221   -1175.7776    91413.232    -21665.79    1704.7912   -23370.581    31.004252    251.94807 
    9400    114.40439   -1119.9852    91465.173   -21677.208    1715.3193   -23392.527    31.067375    253.50399 
    9450    112.95524   -1334.9404    91484.816   -21691.718    1693.5915   -23385.309    31.209811    250.29289 
    9500    113.38089   -1137.5069     91482.68   -21674.579    1699.9736   -23374.553    31.447541    251.23608 
    9550    114.65638   -1374.5811    91479.638   -21677.429    1719.0976   -23396.527    31.754991    254.06239 
    9600    112.87684    -1239.864    91430.087   -21656.722    1692.4161   -23349.138    31.821127    250.11917 
    9650    113.80699   -1361.4626    91348.323    -21649.72    1706.3622   -23356.082    32.050667    252.18025 
    9700    113.61128   -1631.3974     91248.35   -21677.029    1703.4278   -23380.456    32.237813    251.74658 
    9750    112.29176   -1354.9907    91226.512   -21687.809    1683.6436   -23371.452    32.396071     248.8227 
    9800    113.84408   -1303.7948    91217.773   -21665.408    1706.9182   -23372.326    32.535615    252.26242 
    9850    114.41638   -1318.8814    91244.907   -21653.805     1715.499   -23369.304    32.613481    253.53056 
    9900     113.0743   -1515.4256    91163.981   -21627.533    1695.3766    -23322.91    32.892906     250.5567 
    9950     115.5735   -1431.7987    91112.439    -21615.66    1732.8484   -23348.509    33.022368    256.09459 
   10000    112.71944   -1688.2223    91025.398   -21605.034     1690.056    -23295.09    33.284658    249.77038 
   10050    112.95177   -1583.8947    90962.063    -21644.64    1693.5394    -23338.18    33.539022    250.28519 
   10100    114.99581   -1294.7068    90963.362   -21582.826    1724.1868   -23307.013    33.708927     254.8145 
   10150    115.91827   -1279.5065    90995.463   -21562.657    1738.0177   -23300.675    34.117892    256.85855 
   10200    113.20705   -1242.4676     91077.43    -21608.61    1697.3671   -23305.977    34.363235    250.85087 
   10250    113.53361   -1270.6648    91059.833   -21608.467    1702.2633    -23310.73    34.570799    251.57447 
   10300    114.47316   -1149.7586    91106.547   -21596.045    1716.3505   -23312.396    34.752863    253.65639 
   10350    113.05056   -1045.7619    91119.893   -21634.539    1695.0207    -23329.56    34.900832    250.50411 
   10400    112.82333   -1269.8344    91138.772   -21660.385    1691.6137   -23351.998    34.789927    250.00059 
   10450     115.1193   -1289.7149    91154.577   -21663.352    1726.0383    -23389.39    34.921461    255.08814 
   10500     114.1337   -1248.5361     91133.28   -21649.524    1711.2607   -23360.785    35.157387    252.90418 
   10550    113.70726   -1063.1762    91183.461   -21673.214     1704.867   -23378.081    35.376145    251.95927 
   10600    113.56789   -1063.4772    91189.274   -21674.751    1702.7773   -23377.528    35.312898    251.65044 
   10650    112.98508   -1139.7934    91175.572   -21650.626     1694.039   -23344.664    35.345918    250.35902 
   10700    115.25275   -1248.6156    91288.143   -21628.173    1728.0392   -23356.212      35.4358    255.38385 
   10750    112.57699   -1298.3974    91321.237     -21653.5    1687.9202   -23341.421    35.694416    249.45473 
   10800    113.35978    -1434.119    91292.854   -21689.392    1699.6569   -23389.049    35.952688    251.18928 
   10850    111.78149   -1249.6366    91237.597   -21686.715    1675.9929   -23362.708    36.220052    247.69203 
   10900    112.87547   -1447.5483    91204.903   -21678.738    1692.3955   -23371.134    36.582203    250.11612 
   10950    114.33844   -1181.0893    91237.529   -21718.139    1714.3304   -23432.469    36.744987    253.35786 
   11000    112.88885   -1426.3628    91272.339   -21757.354    1692.5962    -23449.95    37.054785    250.14579 
   11050     108.6686   -1358.4608    91289.357   -21729.837    1629.3199   -23359.157    37.343026    240.79429 
   11100    109.85073    -1778.498    91193.305    -21743.05    1647.0441   -23390.094    37.586687    243.41372 
   11150    112.37583   -1076.5072    91060.168   -21725.193    1684.9041   -23410.097    37.805794    249.00899 
   11200    110.46353   -1489.7544    91038.486    -21733.89    1656.2321   -23390.122    38.038545     244.7716 
   11250    111.66969   -1104.1622    91040.388   -21675.323    1674.3167    -23349.64    38.097404     247.4443 
   11300    113.86622   -1018.0425    91084.721    -21653.93    1707.2502    -23361.18    38.270267    252.31148 
   11350    111.04819   -1756.7217    91087.981    -21687.21    1664.9981   -23352.208    38.463628    246.06712 
   11400    111.27353   -1312.0743    91080.807   -21656.558    1668.3768   -23324.935    38.691499    246.56645 
   11450    110.94539   -1163.2746    91164.332    -21670.83    1663.4569   -23334.287    39.000007    245.83934 
   11500    112.09109   -1378.8072    91178.537    -21659.24    1680.6348   -23339.875    39.105558    248.37804 
   11550    113.43369   -1451.4517    91124.322   -21677.667    1700.7651   -23378.432    39.102521    251.35306 
   11600    111.32535   -1305.2007    91038.707   -21666.164    1669.1538   -23335.318      39.0836    246.68128 
   11650    112.09758   -1501.0096    91014.354   -21657.334    1680.7321   -23338.066    38.979004    248.39243 
   11700    110.30936   -1478.0748    90968.518   -21674.093    1653.9205   -23328.014    39.104879    244.42998 
   11750    112.94321   -1317.2945    90953.096   -21620.748    1693.4111   -23314.159    39.215748    250.26623 
   11800    114.88268   -1478.5679    90867.604   -21591.725    1722.4905   -23314.216    39.348909    254.56382 
   11850    114.31355   -1156.6282    90838.871   -21596.265    1713.9574   -23310.223    39.548093    253.30272 
   11900    112.16581   -1374.6833    90847.432   -21632.813    1681.7552   -23314.568    39.947859    248.54363 
   11950    114.21693   -1170.4985     90883.32   -21623.724    1712.5086   -23336.233    39.915803    253.08861 
   12000    115.40856   -1390.1261    90940.963   -21601.908    1730.3753   -23332.284    39.932631     255.7291 
   12050    117.33782   -1329.6238    90972.995   -21616.755    1759.3016   -23376.057    40.065783    260.00406 
   12100     113.9904   -1114.9456    91018.314   -21647.488    1709.1122   -23356.601    40.574532    252.58666 
   12150    113.26493    -1139.742    91052.022   -21661.063    1698.2348   -23359.298    40.648288    250.97911 
   12200    116.41945   -1119.6919    91164.318   -21658.747     1745.532    -23404.28    40.597554    257.96908 
   12250    112.49679   -1314.4902     91222.72    -21665.89    1686.7177   -23352.608    40.907642    249.27703 
   12300    113.06859   -1483.0759    91204.006   -21697.109     1695.291     -23392.4    40.908876    250.54406 
   12350    112.88195   -1339.1993    91180.622   -21672.347    1692.4926    -23364.84    41.205315    250.13049 
   12400    115.55783   -1385.6922    91164.866   -21661.139    1732.6134   -23393.752    41.612674    256.05986 
   12450    113.50808   -1009.9003    91210.694   -21672.786    1701.8805   -23374.666     41.94398    251.51791 
   12500    111.38711   -1427.2276    91185.681   -21672.749    1670.0799   -23342.829    42.238173    246.81814 
   12550    112.77139   -1771.3239    91208.855   -21656.705    1690.8349    -23347.54    42.453448     249.8855 
   12600    114.26611   -1346.9092    91211.356   -21643.303     1713.246   -23356.549    42.740145     253.1976 
   12650    112.92298   -1066.2626    91241.966   -21659.406    1693.1079   -23352.514    42.959203    250.22141 
   12700    111.55302   -1121.7588    91314.011   -21654.103    1672.5674   -23326.671    42.975626    247.18578 
   12750    110.47874   -1237.3629    91326.805   -21702.075    1656.4602   -23358.536    43.276198    244.80532 
   12800    111.47427   -1148.4366    91357.194   -21653.986    1671.3866   -23325.373    43.506753    247.01126 
   12850    114.27768   -1310.1321    91308.302   -21664.477    1713.4195   -23377.897    43.798094    253.22323 
   12900    112.49297   -1576.8996    91238.336   -21720.414    1686.6604   -23407.074    44.230461    249.26855 
   12950     111.9377   -1194.8342    91211.647   -21732.731    1678.3351   -23411.066    44.463706    248.03817 
   13000      112.822   -1623.6884    91155.471   -21748.061    1691.5938   -23439.654    44.551267    249.99764 
   13050    111.75237   -1333.2169    91066.699   -21723.343    1675.5563   -23398.899    44.777695    247.62749 
   13100    110.52517   -1485.7217    91083.455   -21724.159    1657.1563   -23381.316    45.347138     244.9082 
   13150    110.19465   -1003.6767    91055.241   -21770.903    1652.2007   -23423.104    45.455107    244.17581 
   13200    107.92004   -1170.1179    91062.909   -21799.949    1618.0963   -23418.045    45.725481    239.13559 
   13250    109.05559   -1400.7078     91085.11   -21783.023    1635.1222   -23418.145    45.822355    241.65181 
   13300    112.24949   -1409.6118    91084.905   -21752.451    1683.0099   -23435.461    45.671984    248.72905 
   13350     110.8704   -1280.3127    91117.654   -21772.024    1662.3325   -23434.357    45.445569    245.67318 
   13400     112.0325   -1241.2886    91152.379    -21771.15    1679.7564   -23450.906    45.623745    248.24823 
   13450    108.87532    -1258.658    91197.259   -21784.891    1632.4194    -23417.31    45.757166    241.25236 
   13500    114.15323   -857.41025    91217.286   -21747.385    1711.5535   -23458.938    45.849072    252.94746 
   13550    110.77323   -946.49068    91271.357   -21732.996    1660.8756   -23393.871     46.22349    245.45787 
   13600    112.31366   -1262.6178    91253.595   -21748.005    1683.9721   -23431.977    46.320938    248.87125 
   13650    113.22061   -1137.1819    91323.453   -21706.304    1697.5703   -23403.875    46.494425     250.8809 
   13700    111.69999   -1173.1919    91314.802   -21680.253     1674.771   -23355.024    46.698583    247.51144 
   13750    111.60374   -1040.5794    91331.395   -21704.611    1673.3278   -23377.939    46.793016    247.29815 
   13800    112.73721   -1335.0248    91362.014   -21664.225    1690.3225   -23354.548    46.897719    249.80977 
   13850    112.26093   -1280.1818    91317.703   -21645.312    1683.1814   -23328.493    47.384423    248.75439 
   13900    116.46604   -1099.7617      91302.8   -21640.107    1746.2306   -23386.338    47.747129    258.07233 
   13950    115.45901   -1276.1003    91296.447   -21664.742    1731.1318   -23395.873    47.767339     255.8409 
   14000    113.72322   -1503.9572    91216.179   -21650.067    1705.1063   -23355.173    47.751772    251.99463 
   14050    113.98245   -1316.0297    91195.715   -21649.874     1708.993   -23358.867    47.678945    252.56905 
   14100    113.68875   -1349.1293    91170.377   -21690.656    1704.5894   -23395.245    47.857753    251.91825 
   14150    114.58222   -1509.4331    91173.426   -21716.675    1717.9857    -23434.66    47.939901    253.89806 
   14200     115.8073   -1388.0594     91113.44   -21699.395    1736.3537   -23435.749    48.385918    256.61264 
   14250    112.32116   -1214.1766    91030.579   -21729.545    1684.0844    -23413.63    48.646188    248.88785 
   14300    110.66694   -1278.4921    90999.964   -21789.208     1659.282    -23448.49    48.925646    245.22234 
   14350    112.43124    -1283.598     91042.25   -21790.812     1685.735   -23476.547    49.154827    249.13178 
   14400    109.20129   -1194.4671    90999.717   -21821.114    1637.3068   -23458.421    49.312856    241.97467 
   14450    113.63803   -1082.4786    91025.286   -21767.006     1703.829   -23470.835    49.370975    251.80586 
   14500    113.55146   -1306.4429    91063.663   -21716.032    1702.5309   -23418.563    49.220822    251.61402 
   14550    112.83728   -1275.2836    91043.251   -21741.774    1691.8229   -23433.596    49.265096    250.03151 
   14600    110.67382   -1418.1051    91039.777   -21711.689    1659.3851   -23371.074    49.139127    245.23758 
   14650    118.33345   -1315.1248    91014.214   -21694.298    1774.2296   -23468.527    49.313559    262.21024 
   14700    115.51345   -1181.5494    91046.567   -21694.146     1731.948   -23426.094    49.379514    255.96153 
   14750    114.92179   -979.59468    91125.996   -21664.111    1723.0769   -23387.188    49.586513    254.65048 
   14800     113.2119   -1552.0207    91143.585    -21661.13    1697.4397   -23358.569    49.903276    250.86161 
   14850    113.64998   -1306.0625    91078.015   -21669.613    1704.0081   -23373.621    50.309693    251.83234 
   14900    112.95629   -1333.7399    91004.939   -21691.067    1693.6073   -23384.674    50.547899    250.29522 
   14950    117.08305   -1240.2247    91052.984   -21664.858    1755.4817    -23420.34    50.704287    259.43952 
   15000    114.63804   -1384.8048    91039.214    -21707.55    1718.8225   -23426.372    51.240469    254.02173 
   15050    111.39526   -1337.1226    91042.704   -21722.127     1670.202   -23392.329    51.422597    246.83619 
   15100    108.45762   -1386.9714     91058.94   -21756.446    1626.1566   -23382.603    51.617212     240.3268 
   15150    112.95864   -1148.7023    91097.927   -21708.112    1693.6425   -23401.754    51.825014    250.30042 
   15200     113.8344   -1271.4894     91179.87   -21698.701    1706.7732   -23405.474    51.721296    252.24098 
   15250    113.84824   -1243.8322    91123.218   -21705.773    1706.9807   -23412.754    51.899009    252.27166 
   15300     117.8834   -977.49709    91162.181   -21719.252    1767.4818   -23486.734    51.782985    261.21301 
   15350    114.41847   -1293.5457    91258.416   -21728.097    1715.5304   -23443.628    51.790627     253.5352 
   15400    111.67462    -1264.451    91265.684   -21721.912    1674.3906   -23396.302     51.89053    247.45522 
   15450    110.16375   -1356.6476    91255.002   -21744.443    1651.7374    -23396.18    51.891014    244.10734 
   15500    112.50492   -1208.4192    91229.882    -21777.02    1686.8397    -23463.86    52.163692    249.29504 
   15550    110.55369   -1107.6278    91257.276   -21793.917     1657.584   -23451.501    52.367526     244.9714 
   15600     111.0266   -1265.1009    91153.973   -21808.378    1664.6745   -23473.053    52.598601     246.0193 
   15650    111.63081   -1370.4337    91066.716   -21767.721    1673.7337   -23441.454    52.885361    247.35814 
   15700    111.21586   -1133.5136    91051.535   -21786.074    1667.5121   -23453.586    52.745729    246.43866 
   15750     114.4394   -1234.5553    90974.705   -21777.413    1715.8443   -23493.258    52.853753    253.58159 
   15800    109.90513   -1325.5449    90997.834   -21787.832    1647.8598   -23435.692    52.996563    243.53429 
   15850    109.02882   -1223.1587    90952.425   -21829.649    1634.7208    -23464.37    53.153887    241.59249 
   15900    109.50393   -1399.0273    91021.364   -21835.785    1641.8444    -23477.63    53.335577    242.64528 
   15950    107.02381   -1645.0018    91032.325   -21855.105    1604.6588   -23459.764    53.632175    237.14968 
   16000    108.05843   -1648.0796    91025.889   -21834.229    1620.1714     -23454.4    53.833963    239.44226 
   16050    110.13482   -1480.7715    90965.677   -21787.215    1651.3037   -23438.519    54.308268    244.04324 
   16100    111.66079   -1407.5124     90954.28   -21770.772    1674.1832   -23444.955    54.551944    247.42457 
   16150    109.93099    -1593.441    90922.983   -21782.409    1648.2476   -23430.657    54.882655    243.59158 
   16200    112.71019   -977.74578    90981.212   -21758.217    1689.9173   -23448.134    55.268989    249.74989 
   16250    109.55192   -1293.3962    91072.113    -21754.01    1642.5639   -23396.574    55.566478    242.75161 
   16300     110.2602   -1196.5716    91057.111    -21738.88    1653.1835   -23392.063     55.89283    244.32106 
   16350    112.28087   -1316.6186    91083.231   -21734.143    1683.4803   -23417.624    56.052356    248.79857 
   16400    111.54194   -1506.7451    91032.954   -21712.799    1672.4012     -23385.2    56.165098    247.16121 
   16450    114.72245   -1330.8013    90948.987   -21666.838    1720.0881   -23386.926    56.213435    254.20878 
   16500    114.42332   -1649.1042    90817.852   -21663.083    1715.6031   -23378.686    56.356944    253.54594 
   16550    114.26664   -1379.0785    90716.711   -21638.402     1713.254   -23351.656     56.42733    253.19878 
   16600    112.82036   -1325.5966    90703.601   -21677.402    1691.5692   -23368.972    56.144219    249.99402 
   16650    112.92797   -837.16502    90739.342   -21684.995    1693.1827   -23378.178    55.874309    250.23247 
   16700    112.98141   -1518.4762    90659.277    -21704.07     1693.984   -23398.054    55.986704    250.35089 
   16750    111.50191   -1458.8073    90726.459   -21710.339    1671.8011    -23382.14    56.508785    247.07252 
   16800    111.24686   -1352.0774    90715.623   -21707.952    1667.9769   -23375.929    56.531721    246.50735 
   16850    112.59029   -1117.9712    90765.688   -21699.394    1688.1196   -23387.514    56.469616     249.4842 
   16900    111.38537   -1196.7062    90796.926    -21706.94    1670.0538   -23376.994    56.469302    246.81429 
   16950    111.76953   -1136.1676    90812.646   -21715.845    1675.8135   -23391.658    56.829548    247.66551 
   17000    111.81454   -1200.4853    90846.613   -21736.315    1676.4884   -23412.803    56.920622    247.76525 
   17050    112.83822   -859.83462    90932.481   -21704.339     1691.837   -23396.176    57.108537    250.03359 
   17100    111.65722   -1173.1791    90999.972   -21728.951    1674.1296   -23403.081    57.237062    247.41665 
   17150    109.06936     -1303.27    91003.593   -21756.643    1635.3286   -23391.972    57.479024    241.68232 
   17200    109.30641   -1189.6155    90954.511   -21768.921    1638.8829   -23407.804    57.800418     242.2076 
   17250    109.33198   -1043.1335    90991.067   -21737.775    1639.2662   -23377.041    58.317482    242.26425 
   17300     113.4983    -1007.668      91049.1   -21705.685    1701.7338   -23407.419    58.574865    251.49622 
   17350    113.10862   -1018.4622    91105.041   -21705.326    1695.8912   -23401.217      58.7358    250.63275 
   17400    111.83453   -1089.0448    91236.274   -21680.662    1676.7881    -23357.45    59.035568    247.80955 
   17450    112.56242   -1293.6768    91203.998   -21682.946    1687.7018   -23370.648    59.414443    249.42245 
   17500    111.87781    -1060.934    91210.414   -21695.892     1677.437   -23373.329    59.732573    247.90545 
   17550    109.42057   -1210.0148    91273.531   -21686.766    1640.5945    -23327.36    59.909685    242.46056 
   17600     113.0842   -1592.6467     91173.04   -21674.878    1695.5251   -23370.403    60.236205    250.57865 
   17650    114.14704   -1405.5864     91066.87   -21635.078    1711.4608   -23346.539    60.349633    252.93376 
   17700    114.77781   -1419.4436    91055.188   -21635.526    1720.9181   -23356.444    60.641096    254.33144 
   17750    115.32089   -1621.3011    91025.975   -21650.811    1729.0609   -23379.871    60.939468    255.53484 
   17800    113.83309   -1253.6513    90986.617   -21654.214    1706.7536   -23360.968    61.228396    252.23809 
   17850    114.32745   -1229.7839    90989.334   -21635.869    1714.1658   -23350.035    61.542585    253.33352 
   17900    110.52428   -1350.4673    91020.741   -21652.114     1657.143   -23309.257     61.86464    244.90623 
   17950    113.92837   -1011.7289    91047.468   -21627.187    1708.1821   -23335.369    62.370821    252.44921 
   18000    112.39343   -1353.1887    91128.891    -21576.43     1685.168   -23261.598    62.590907      249.048 
   18050    111.80345   -1083.1963    91183.571   -21598.798    1676.3221    -23275.12    62.561867    247.74068 
   18100    115.25666   -1185.1279    91226.678   -21652.885    1728.0978   -23380.983    62.705047    255.39252 
   18150    114.85631   -1291.7922    91228.474   -21629.308    1722.0951   -23351.403    62.782577    254.50539 
   18200    113.56422   -921.66783    91272.724   -21637.137    1702.7222   -23339.859    62.727936    251.64229 
   18250    114.58541   -1229.9626    91329.787   -21606.186    1718.0335   -23324.219    63.246014    253.90512 
   18300    113.44057   -976.84667    91379.775   -21674.153    1700.8683   -23375.021     63.15904    251.36832 
   18350    111.54699   -1114.0208    91444.818   -21714.974     1672.477   -23387.451    63.198965    247.17241 
   18400    114.20059    -1018.092    91436.655     -21667.4    1712.2637   -23379.664    63.531668    253.05241 
   18450    111.25836    -1115.988    91367.732   -21707.002    1668.1494   -23375.152    63.628724    246.53285 
   18500    114.64872   -1107.7513     91411.86   -21709.208    1718.9826   -23428.191    63.804349    254.04539 
   18550      114.346   -1103.9953    91450.095   -21725.741    1714.4438   -23440.185    63.938765    253.37462 
   18600    110.40605   -950.82374    91465.675   -21731.428    1655.3703   -23386.798     63.98419    244.64424 
   18650    114.09451   -1406.7316    91475.217   -21701.993    1710.6732   -23412.666    64.116415    252.81736 
   18700    114.62023   -1170.9377    91540.626   -21722.118    1718.5555   -23440.674    64.226651    253.98227 
   18750    112.55771   -1236.3984    91555.923   -21809.928    1687.6311   -23497.559    64.594749    249.41201 
   18800    111.11523   -1382.5151    91493.954   -21777.009    1666.0034   -23443.012    65.031023    246.21568 
   18850     109.0766   -1334.6511    91375.521   -21758.013    1635.4373    -23393.45    65.281396    241.69838 
   18900    109.43273   -1463.5669     91339.41   -21755.317    1640.7768   -23396.094    65.644767     242.4875 
   18950    111.12136   -1369.7451    91247.179   -21786.501    1666.0953   -23452.596    65.861919    246.22928 
   19000    109.81335   -1340.8035    91212.503   -21770.928    1646.4837   -23417.412    66.077678    243.33091 
   19050    110.19337   -1175.8495    91195.506   -21745.142    1652.1814   -23397.324    66.164883    244.17296 
   19100    111.32416   -1260.5582    91193.608   -21739.739     1669.136   -23408.875    66.142049    246.67865 
   19150    110.10286   -1451.4899    91187.058   -21722.373    1650.8245   -23373.198    66.346614    243.97242 
   19200    114.51237   -1440.5403    91130.948    -21713.73    1716.9382   -23430.668    66.040981    253.74326 
   19250    117.12779   -1237.9516    91169.352   -21686.278    1756.1526   -23442.431    66.279061    259.53868 
   19300    111.42541   -1236.7561    91179.566   -21703.896     1670.654    -23374.55    66.247364    246.90299 
   19350    113.25208   -1305.0215    91169.799   -21714.588    1698.0421    -23412.63     66.07509    250.95063 
   19400    113.44628    -1008.201    91193.612   -21706.838    1700.9539   -23407.792    66.263592    251.38096 
   19450    112.64466   -1185.8062    91292.715    -21698.66    1688.9349   -23387.595    66.271175    249.60469 
   19500    113.16614   -1013.2808     91324.92   -21749.908    1696.7537   -23446.662    66.622186    250.76022 
   19550    113.57565   -1124.7102    91394.579   -21732.532    1702.8937   -23435.426    66.849958    251.66764 
   19600    113.08219   -1117.5584    91400.532   -21746.671    1695.4949   -23442.166    66.742638    250.57419 
   19650    110.77923   -1501.7385    91396.681   -21744.038    1660.9656   -23405.004    67.087143    245.47117 
   19700    111.71282   -1398.5545    91376.705   -21746.419    1674.9633   -23421.383    67.211441    247.53986 
   19750    109.70599   -1450.6204    91326.813   -21757.369     1644.874   -23402.243    67.254959    243.09301 
   19800    110.83524   -1323.9538    91327.469   -21707.536    1661.8054   -23369.341    67.366905    245.59527 
   19850    113.00851   -1098.0306     91391.72   -21648.814    1694.3902   -23343.205    67.605741    250.41093 
   19900     113.1968     -1375.85    91372.078   -21643.957    1697.2134    -23341.17     67.39654    250.82816 
   19950    115.74128   -1064.8025     91336.69   -21660.572    1735.3639   -23395.936    67.799118    256.46636 
   20000      114.715   -1217.3668    91330.299    -21631.24    1719.9764   -23351.216    68.072929    254.19226 
   20050    117.44555    -1482.412    91323.542   -21637.444    1760.9168   -23398.361    68.243676    260.24278 
   20100    116.73964   -1335.1448    91269.813   -21645.054    1750.3328   -23395.387    68.548339    258.67859 
   20150    113.63095   -1302.0354    91243.879   -21720.185    1703.7228   -23423.908    68.884621    251.79018 
   20200    112.39334   -1445.5068    91201.106   -21706.109    1685.1667   -23391.276    69.351322     249.0478 
   20250    112.09634   -1561.3783    91151.271   -21701.546    1680.7137   -23382.259    69.755236    248.38969 
   20300    112.72503   -1233.1728    91041.614   -21698.025    1690.1399   -23388.165    70.007138    249.78278 
   20350    110.82332   -1247.0653    91012.737   -21750.862    1661.6266   -23412.489    70.264513    245.56885 
   20400    110.38955     -1292.13     91006.03   -21795.474    1655.1229   -23450.597     70.38151    244.60768 
   20450    112.40832   -1081.3998    91023.182   -21778.049    1685.3912    -23463.44    70.812363    249.08098 
   20500    110.30429   -1486.8303    91048.128   -21786.112    1653.8445   -23439.957    70.936451    244.41875 
   20550    111.50423   -1423.8121     91071.07    -21767.84    1671.8358   -23439.676    71.183832    247.07766 
   20600     110.8205   -1534.8203    91041.505   -21793.042    1661.5843   -23454.626    71.604419     245.5626 
   20650    112.55749   -1239.5894     91030.69   -21737.379    1687.6279   -23425.007    71.745465    249.41153 
   20700    112.43711   -870.37174    91078.496   -21749.439     1685.823   -23435.262    71.969327    249.14479 
   20750    113.83916   -1276.9437    91151.874   -21729.087    1706.8445   -23435.931    72.399854    252.25152 
   20800      112.706   -1140.8696    91183.329   -21714.068    1689.8546   -23403.923    72.714173    249.74062 
   20850     113.9906   -1238.9802    91256.384   -21714.625    1709.1152   -23423.741    72.730742    252.58711 
   20900    112.77914   -1190.4093    91241.315   -21705.902    1690.9511   -23396.853    72.500422    249.90267 
   20950    114.25476   -1415.4954    91243.354   -21746.813    1713.0758   -23459.889    72.630437    253.17244 
   21000    112.85295   -1263.5174     91267.46   -21752.776    1692.0578   -23444.834    72.864905    250.06623 
   21050    114.16371     -1197.12    91233.797   -21772.326    1711.7106   -23484.037    72.862275    252.97068 
   21100    114.82292   -1210.6944    91229.108   -21721.499    1721.5946   -23443.093    73.046645    254.43141 
   21150    114.79766   -1219.2331    91269.612   -21707.342    1721.2158   -23428.558    73.316716    254.37543 
   21200    110.51497   -1408.2609    91323.523   -21745.978    1657.0034   -23402.981    73.385828    244.88559 
   21250    112.22962   -1318.0779    91350.874   -21731.137    1682.7119   -23413.849    73.406109    248.68501 
   21300    113.57707   -1312.1861    91426.342   -21725.573    1702.9149   -23428.488    73.689942    251.67077 
   21350     112.2215   -1423.2892    91411.601   -21788.688    1682.5902   -23471.278    74.142055    248.66702 
   21400    110.64308   -1245.7055    91382.078   -21765.977    1658.9241   -23424.901    74.256088    245.16946 
   21450    115.21722   -1400.7465     91390.93   -21726.336    1727.5065   -23453.843    74.218343    255.30512 
   21500    112.07369   -1380.1597     91358.07   -21735.478     1680.374   -23415.852     74.34867    248.33949 
   21550    112.52397   -1683.4683    91275.991   -21766.223    1687.1253   -23453.348    74.233407    249.33725 
   21600    109.14591   -1443.4247     91152.25   -21779.162    1636.4764   -23415.639    74.038357    241.85195 
   21650    110.56948   -1372.4016    91153.083   -21744.904    1657.8207   -23402.725    74.213133    245.00639 
   21700    109.97738   -1635.2441     91113.55   -21744.125     1648.943   -23393.068    74.307025    243.69436 
   21750      113.229   -1258.1966     91064.11   -21713.448    1697.6961   -23411.144     74.12848    250.89949 
   21800    113.99545   -1154.2576    91061.459   -21698.072    1709.1878   -23407.259    74.306536    252.59784 
   21850    110.59278    -1333.802    91062.297   -21729.051      1658.17   -23387.221    74.317075      245.058 
   21900    113.55399   -1301.0778    91036.931   -21723.783    1702.5688   -23426.352    74.612186    251.61963 
   21950    112.14654   -1233.0847    91046.996   -21711.998    1681.4663   -23393.464    74.768134    248.50092 
   22000    110.00102   -1259.3112    91067.818   -21747.504    1649.2976   -23396.801    75.281838    243.74676 
   22050     108.0533   -1331.1064    91002.314    -21794.64    1620.0944   -23414.735    75.688988    239.43088 
   22100    112.64247   -1258.8378    90961.209   -21753.735    1688.9021   -23442.637    75.819775    249.59984 
   22150    111.79407    -1325.165    90972.784   -21760.942    1676.1815   -23437.123    76.120333    247.71989 
   22200    110.56979   -1130.8051    90954.293   -21731.617    1657.8253   -23389.442    76.343987    245.00707 
   22250    110.39615   -1040.6521      91063.7   -21702.845    1655.2218   -23358.066    76.265923     244.6223 
   22300    111.33825   -1439.1959    91061.219   -21715.565    1669.3472   -23384.912    76.009147    246.70986 
   22350    112.15995   -1430.8213    91070.751   -21685.892    1681.6674    -23367.56    75.921586    248.53065 
   22400    115.09159    -1376.678    91070.987   -21657.318    1725.6228    -23382.94    75.963206    255.02674 
   22450    113.98248   -1665.9378     91028.17   -21595.624    1708.9933   -23304.617    76.387654     252.5691 
   22500    114.40238   -1315.6058    90972.743   -21587.394    1715.2892   -23302.683    76.635549    253.49956 
   22550     114.2373   -1163.5306    90988.581   -21615.245     1712.814   -23328.059    76.624186    253.13375 
   22600    117.10339   -1058.7919    91052.953   -21644.501    1755.7867   -23400.287    77.086429    259.48461 
   22650    114.10437   -1487.3853    91092.038   -21699.206     1710.821   -23410.027    77.406603     252.8392 
   22700      112.053   -1585.2445    91106.602   -21720.256    1680.0638    -23400.32     77.45052    248.29365 
   22750    110.83676   -1702.3331    91064.976   -21748.067    1661.8282   -23409.895    77.581956    245.59864 
   22800    111.34175   -1067.4707    91072.149   -21760.366    1669.3997   -23429.766    77.395006    246.71762 
   22850    111.03143   -1342.5477    91088.217   -21736.585    1664.7469   -23401.332    77.547554    246.02999 
   22900    113.35869   -1285.9276    91093.789   -21718.111    1699.6407   -23417.751    77.430999    251.18688 
   22950    112.32524    -1246.593    91160.201    -21696.24    1684.1457   -23380.386    77.480507     248.8969 
   23000     111.0707   -1729.7809    91189.184   -21685.598    1665.3357   -23350.934    77.562697    246.11702 
   23050    113.51366    -1374.634    91158.367   -21671.983    1701.9641   -23373.947    77.691423    251.53027 
   23100    113.82135   -1355.1708    91181.052   -21692.935    1706.5775   -23399.513    77.800306    252.21207 
   23150     110.7857   -1432.9866    91222.122   -21717.307    1661.0626   -23378.369    78.090264     245.4855 
   23200    111.65587    -1513.975     91148.59   -21703.601    1674.1095   -23377.711    78.295606    247.41368 
   23250     114.2228   -1190.9317    91181.893    -21705.84    1712.5967   -23418.436    78.703986    253.10163 
   23300    112.97453   -1627.7026    91213.217   -21702.931    1693.8808   -23396.812    78.746953    250.33564 
   23350    116.06341   -1710.0298    91111.933   -21693.101    1740.1938   -23433.295    79.001176    257.18016 
   23400    111.36172   -1620.5941    91010.149   -21740.689    1669.6992   -23410.388    78.835751    246.76188 
   23450    113.06756    -1184.592    90974.122   -21702.872    1695.2756   -23398.148    79.168793    250.54178 
   23500    113.81384   -1250.6178    90988.403   -21724.483    1706.4649   -23430.948    79.337567    252.19543 
   23550    113.63622   -1116.0829    91017.058   -21763.532    1703.8017   -23467.334    79.445009    251.80184 
   23600    111.39935   -1583.1765    90951.359   -21719.558    1670.2634   -23389.821    79.558475    246.84527 
   23650    112.35754   -1188.2051    90924.307   -21736.746    1684.6299   -23421.376    79.529086    248.96847 
   23700    113.56678   -1538.2659    90921.171   -21712.091    1702.7606   -23414.852    79.449489    251.64797 
   23750    112.31296   -1618.7456    90847.852   -21728.919    1683.9615   -23412.881    79.312754    248.86968 
   23800    112.45124   -1514.6748    90786.067   -21737.767    1686.0348   -23423.802    79.678382    249.17609 
   23850    110.35095   -1307.4789    90737.829   -21729.041    1654.5442   -23383.585    79.912877    244.52215 
   23900    112.75062    -1051.907    90749.373   -21678.534    1690.5236   -23369.058    80.205483    249.83949 
   23950    110.63262   -1310.1573    90762.565   -21674.589    1658.7674   -23333.357    80.265244     245.1463 
   24000    115.51491   -715.08422    90792.401   -21649.639    1731.9698   -23381.609     80.46958    255.96475 
   24050     114.9093   -1129.2318    90826.658   -21700.591    1722.8896    -23423.48    80.608903     254.6228 
   24100    111.48678   -1076.5659    90801.633   -21705.876    1671.5743    -23377.45    80.720131      247.039 
   24150    109.47974    -1105.205    90851.325   -21752.241    1641.4817   -23393.722    80.763301    242.59168 
   24200    111.49285   -1380.1941    90935.284    -21753.07    1671.6653   -23424.735    80.903688    247.05245 
   24250    111.11809   -1164.0026    90954.004   -21763.403    1666.0462   -23429.449    81.103639    246.22202 
   24300    111.52306   -1232.7282    90962.849   -21731.649    1672.1182   -23403.767    81.113838    247.11939 
   24350    111.05045   -1352.5335    90909.156   -21734.065    1665.0321   -23399.097    81.304569    246.07214 
   24400    113.13991   -1121.0669    90990.845   -21726.759    1696.3604    -23423.12     81.87471    250.70209 
   24450    112.77432    -1164.753    91068.503   -21710.433    1690.8789   -23401.312    82.096693    249.89199 
   24500    111.41459   -974.51263    91070.091   -21713.377    1670.4918   -23383.869    82.214967    246.87903 
   24550    113.78468   -1306.3239    91111.747   -21682.348    1706.0276   -23388.375    82.703295     252.1308 
   24600    114.16212    -1415.349    91062.342   -21711.961    1711.6868   -23423.648    82.970168    252.96716 
   24650    112.92805   -1134.9469    91127.307   -21704.121    1693.1838   -23397.304    83.242081    250.23263 
   24700    112.68541    -1330.073    91131.799   -21693.809    1689.5459   -23383.354    83.316213    249.69499 
   24750    115.96316   -1273.4304    91160.581   -21673.365    1738.6907   -23412.056    83.712167    256.95801 
   24800    113.29064   -1421.9079    91149.277   -21682.294    1698.6204   -23380.915    83.738441     251.0361 
   24850    113.91931   -1076.9662    91112.005    -21663.91    1708.0462   -23371.956    83.624198    252.42912 
   24900    114.60653   -1404.6221    91071.344   -21678.442    1718.3501   -23396.792     84.20315    253.95191 
   24950    114.42421   -1438.7043    91070.671   -21697.879    1715.6165   -23413.495    84.382877    253.54792 
   25000    114.06157   -1473.9591    91090.338   -21709.659    1710.1793   -23419.838    84.678976    252.74437 
   25050    112.41079   -1429.7405     91155.45   -21709.195    1685.4283   -23394.623    84.759293    249.08646 
   25100    112.28929   -1594.5475    91101.224   -21758.253    1683.6067    -23441.86    84.775124    248.81725 
   25150    115.43713   -1296.1779    91103.137   -21722.582    1730.8037   -23453.385      84.7833    255.79242 
   25200    114.69803   -1166.1216    91129.557   -21740.616     1719.722   -23460.338    84.712457    254.15467 
   25250    110.90455   -1567.7511    91086.183   -21791.475    1662.8445    -23454.32    84.918945    245.74884 
   25300    111.11299   -1466.9466    91096.058   -21836.118    1665.9699   -23502.088    84.961715    246.21073 
   25350    108.59115   -1463.5131    91055.027   -21843.692    1628.1587   -23471.851    85.388158    240.62269 
   25400     108.9915   -1286.9546    91038.847   -21846.417    1634.1612   -23480.578    85.614956    241.50979 
   25450     111.3308   -1463.7793    91000.013   -21848.235    1669.2355   -23517.471    85.672223    246.69335 
   25500    112.49774   -1508.4238    90972.128   -21823.466     1686.732   -23510.198    86.010146    249.27914 
   25550    107.32918   -1634.5821    90939.959    -21816.66    1609.2373   -23425.898    86.354272    237.82633 
   25600    113.78025   -1077.9151    90949.285   -21824.925    1705.9614   -23530.886     86.80075    252.12101 
   25650    111.56564   -1130.8595    90933.278   -21774.442    1672.7566   -23447.199    87.144931    247.21373 
   25700    110.73111   -1413.5276    90972.978   -21825.055    1660.2441   -23485.299    87.344061    245.36453 
   25750    111.17897   -1043.6929    90930.094   -21784.345    1666.9591   -23451.304     87.33805    246.35694 
   25800    112.92419   -960.27329    90988.556   -21747.282     1693.126   -23440.408    87.553838    250.22409 
   25850    109.90218   -1491.0811    90934.203   -21812.847    1647.8155   -23460.662    87.497783    243.52773 
   25900    113.52682   -1119.8749    90935.746   -21779.459    1702.1615   -23481.621    88.207199    251.55944 
   25950    112.02235   -1283.6129    90991.156   -21777.457    1679.6043   -23457.062    88.455888    248.22574 
   26000    112.03033   -1519.3467    91048.821   -21757.024    1679.7239   -23436.748     88.50331    248.24341 
   26050     113.9435   -1107.3911    91022.612   -21707.656     1708.409   -23416.065    88.777539    252.48274 
   26100    115.21414   -1266.7709    91051.449   -21694.229    1727.4603   -23421.689    88.761406     255.2983 
   26150    114.47073   -1458.1253    91132.459   -21710.517     1716.314   -23426.831    88.833499      253.651 
   26200    112.69215   -1491.8167    91130.431   -21713.519    1689.6469   -23403.165    88.908354    249.70993 
   26250      112.349   -1166.4678    91116.397   -21707.689    1684.5019   -23392.191    89.103445    248.94955 
   26300    114.06312   -1438.1338     91122.46   -21685.238    1710.2025   -23395.441    89.062703     252.7478 
   26350    112.80501   -1299.4805    91212.505   -21688.533    1691.3391   -23379.872    89.105796    249.96001 
   26400    115.18219   -1038.7876    91307.177   -21683.476    1726.9813   -23410.457    89.050133     255.2275 
   26450    115.68975   -1075.8085    91301.691   -21690.681    1734.5913   -23425.273    89.345065    256.35217 
   26500    110.65645   -991.42415    91335.579   -21720.885    1659.1247    -23380.01     89.71779     245.1991 
   26550    109.92757   -1621.3064    91353.501   -21689.372    1648.1962   -23337.568    89.626227    243.58399 
   26600    112.54386   -1602.9746    91340.528   -21677.255    1687.4235   -23364.679    89.508941    249.38133 
   26650    112.69716   -1629.4088    91263.619   -21715.143     1689.722   -23404.865       89.895    249.72102 
   26700    112.94243      -1212.6    91224.825   -21711.805    1693.3994   -23405.204    89.957492     250.2645 
   26750    111.46378   -1363.1311    91180.908   -21708.773    1671.2293   -23380.002    90.078272    246.98801 
   26800     111.5356   -1511.6427    91222.612   -21684.745    1672.3063   -23357.051    89.950287    247.14718 
   26850    111.49547   -1698.2766     91234.13   -21659.029    1671.7046   -23330.733    90.012409    247.05825 
   26900    109.32094   -1508.8672    91184.521    -21707.24    1639.1008   -23346.341    90.221442     242.2398 
   26950    111.92114   -1703.7902    91112.923   -21666.616    1678.0868   -23344.703    90.103393    248.00147 
   27000    110.36254   -1525.4058    91060.058   -21660.958    1654.7179   -23315.676    89.971886    244.54782 
   27050    113.99175   -1778.1273    91027.385   -21693.621    1709.1324   -23402.754    90.108542    252.58964 
   27100    111.79389   -1397.7089    90943.176   -21688.078    1676.1788   -23364.257    90.051048    247.71949 
   27150     113.5304   -1422.0639    90935.783   -21685.787    1702.2152   -23388.002    90.437998    251.56737 
   27200    110.23246    -1226.275    90935.305   -21711.438    1652.7675   -23364.205    90.694167    244.25959 
   27250     115.2443   -1264.0791    90974.755   -21675.676    1727.9124   -23403.589    91.334402    255.36511 
   27300    114.49814   -1190.1489    91010.151   -21622.036    1716.7249    -23338.76    91.469107    253.71173 
   27350    116.43279   -1046.7401    91066.555   -21614.612    1745.7321   -23360.345    91.753778    257.99865 
   27400    113.13351   -1240.4977    91131.082   -21646.553    1696.2644   -23342.817    91.741554    250.68791 
   27450    115.77516   -1399.7386    91120.562   -21661.208     1735.872    -23397.08    91.796504    256.54144 
   27500    113.89211   -1106.5275    91115.456   -21667.285    1707.6385   -23374.924    91.848455    252.36886 
   27550    109.98132   -1278.4857    91066.147   -21663.232    1649.0021   -23312.234    92.124456     243.7031 
   27600    111.84381   -1090.3566    91177.197   -21679.432    1676.9273   -23356.359    92.411044    247.83012 
   27650    110.71342   -885.59614    91212.456   -21689.304    1659.9789   -23349.283    92.376701    245.32533 
   27700    114.09702   -1626.6731    91225.668   -21678.977    1710.7108   -23389.688    92.761507    252.82292 
   27750    115.35865   -1443.4734    91179.822   -21634.535     1729.627   -23364.162    93.135022    255.61851 
   27800    115.21936   -1261.1202    91257.945   -21644.931    1727.5385    -23372.47    93.399069    255.30986 
   27850    113.22719   -1299.1196     91202.99   -21685.155     1697.669   -23382.824     93.47061     250.8955 
   27900    112.29353   -1476.5439    91210.499   -21706.323    1683.6701   -23389.993    93.448427    248.82662 
   27950    113.72615   -1319.8638    91127.409   -21701.358    1705.1501   -23406.508    93.267662    252.00111 
   28000    113.52118   -1206.2701    91165.546   -21692.441     1702.077   -23394.518    93.170506    251.54694 
   28050    111.46576   -1524.3671    91102.965   -21691.939    1671.2591   -23363.198    93.202195    246.99242 
   28100    112.15559   -1187.1847    91072.577   -21685.501     1681.602   -23367.103    93.006668    248.52098 
   28150    112.95621   -1240.5766    91131.324   -21677.299    1693.6061   -23370.906    93.098369    250.29505 
   28200    110.72105    -1447.527    91136.069   -21691.484    1660.0932   -23351.577    93.406213    245.34224 
   28250    113.98761   -1138.4696    91071.869   -21682.914    1709.0704   -23391.984    93.589808    252.58049 
   28300    111.04154   -961.48975    91091.909   -21672.229    1664.8985   -23337.127    93.848384     246.0524 
   28350     112.0676   -1163.3095    91119.869   -21669.316    1680.2827   -23349.598    94.233688      248.326 
   28400    113.25868   -1264.7655     91134.27   -21672.093    1698.1411   -23370.234    94.407972    250.96527 
   28450    115.90305   -1273.7623    91163.515   -21652.932    1737.7894   -23390.722    94.924043    256.82482 
   28500    115.12811   -1340.0352    91108.371   -21700.024    1726.1703   -23426.194    95.027383    255.10765 
   28550    114.29949   -1330.3372    91020.997   -21690.837    1713.7465   -23404.584    95.242208    253.27156 
   28600    111.87253   -1209.0597    91010.923   -21693.495    1677.3579   -23370.853    95.633236    247.89376 
   28650    115.13798   -1199.6639    91016.259   -21665.118    1726.3183   -23391.436    95.667308    255.12953 
   28700    113.42168   -1136.8944    90923.555   -21638.609    1700.5851   -23339.195    95.906504    251.32645 
   28750    113.95308   -895.09787    90904.987   -21649.811    1708.5526   -23358.364    96.402803    252.50396 
   28800    112.75564   -1297.6345    90932.482   -21708.218    1690.5988   -23398.817    96.573697     249.8506 
   28850    111.38233   -1305.2418    90926.904   -21716.802    1670.0081    -23386.81    96.738337    246.80754 
   28900    110.93164   -1130.4939    90943.729   -21706.938    1663.2507   -23370.189    97.164674    245.80887 
   28950    111.33499   -1259.6111    90983.335   -21728.371    1669.2983   -23397.669    97.812359    246.70264 
   29000    113.40278   -1353.4275    91040.776   -21689.209    1700.3017   -23389.511     97.89117    251.28458 
   29050    111.11616   -1118.9329    91064.024   -21708.439    1666.0172   -23374.456    97.877723    246.21774 
   29100    110.90282   -1253.4074    91041.945   -21737.818    1662.8187   -23400.637    97.836902    245.74502 
   29150    113.69887   -1328.8608    91042.534   -21730.146    1704.7411   -23434.887    98.102907    251.94066 
   29200    113.43647   -989.32421    91058.595   -21742.476    1700.8069   -23443.282    98.420559    251.35923 
   29250    112.32628   -1293.1579    90976.942   -21733.955    1684.1612   -23418.116    98.653048     248.8992 
   29300    111.04949   -1506.4867     90886.21   -21784.072    1665.0177    -23449.09     98.86877    246.07001 
   29350    106.35285   -1232.0933     90909.65   -21772.451    1594.5988    -23367.05     98.69733    235.66293 
   29400    112.70009    -1275.564     91000.61   -21740.626    1689.7659   -23430.392     99.04312    249.72751 
   29450    114.36993   -1402.4755    90992.091   -21706.937    1714.8027   -23421.739    99.336616    253.42765 
   29500    114.72978   -1239.2397    91020.182   -21718.209     1720.198   -23438.407    99.567827    254.22502 
   29550    113.38616   -1294.8784    91033.316   -21721.353    1700.0525   -23421.406    99.936707    251.24775 
   29600    112.83485   -1358.7805    91092.362   -21707.426    1691.7864   -23399.212    100.09625    250.02612 
   29650     111.5574   -1092.2596     91219.54   -21704.828     1672.633   -23377.461    100.23048    247.19547 
   29700    113.72167   -1364.5218    91267.695   -21722.267     1705.083    -23427.35    100.11337    251.99119 
   29750    114.57866   -1396.4911    91314.441   -21693.114    1717.9322   -23411.046    100.24637    253.89015 
   29800    115.17052   -1362.9648    91358.399   -21699.641    1726.8062   -23426.447    100.91419    255.20163 
   29850     112.7232   -892.83595    91349.706    -21672.74    1690.1124   -23362.852     101.1126    249.77871 
   29900    116.42349   -1281.8876    91344.707   -21627.968    1745.5926   -23373.561    100.92332    257.97804 
   29950    115.99083   -1167.6336    91341.236   -21633.529    1739.1055   -23372.634    100.96071    257.01932 
   30000    113.14655   -1438.6015    91352.384   -21675.724    1696.4599   -23372.184    101.09435     250.7168 
   30050    113.57048   -1265.6478     91355.42   -21654.195    1702.8162   -23357.011    101.45917    251.65618 
   30100    116.34386   -1034.8927    91371.167   -21642.875    1744.3986   -23387.273    101.27236    257.80158 
   30150    116.51519   -1231.3888    91345.563   -21651.186    1746.9675   -23398.153    101.45732    258.18123 
   30200    114.67611   -1481.0801      91347.4    -21670.45    1719.3933   -23389.843    101.80713    254.10609 
   30250    115.32114   -1484.4987     91359.52   -21664.716    1729.0645    -23393.78    102.26034    255.53538 
   30300    112.30048   -1153.1788    91285.524   -21659.064    1683.7743   -23342.839    102.55946    248.84202 
   30350    116.56048     -1370.46    91252.921   -21682.399    1747.6466   -23430.045    102.58542     258.2816 
   30400    112.05625   -1129.9988    91196.474   -21643.099    1680.1125   -23323.211    103.28007    248.30085 
   30450    111.40329   -1444.9868    91166.314   -21674.479    1670.3224   -23344.801    103.41352    246.85399 
   30500    110.75709   -1469.8145    91194.464   -21687.798    1660.6336   -23348.431    103.98146    245.42209 
   30550    111.28551   -1465.0342    91183.614    -21676.46    1668.5565   -23345.016    104.31057      246.593 
   30600    110.33903   -1258.2151    91214.074   -21702.603    1654.3655   -23356.968    104.43245    244.49574 
   30650     112.6047   -1099.2981    91318.982    -21692.05    1688.3357   -23380.386    104.47972    249.51615 
   30700    113.11059   -1306.1639    91356.667   -21677.138    1695.9208   -23373.059    104.73613    250.63713 
   30750    113.04007    -1406.444    91321.439    -21637.74    1694.8635   -23332.604    104.66223    250.48087 
   30800     111.2283   -1369.2459    91351.731   -21666.764    1667.6987   -23334.463    104.85861    246.46623 
   30850    112.76956   -1355.2885    91339.045   -21672.672    1690.8075    -23363.48    105.23966    249.88145 
   30900    112.30549   -1481.6083    91343.947   -21660.505    1683.8496   -23344.354    105.33377    248.85314 
   30950    113.51189     -1360.23    91391.157   -21652.351    1701.9376   -23354.289    105.73184    251.52634 
   31000    114.01562   -1366.8507    91412.344   -21677.063    1709.4903   -23386.553    105.46946    252.64255 
   31050    112.61024   -1512.8951    91408.725   -21685.133    1688.4188   -23373.552    105.28206    249.52842 
   31100    113.01254   -1415.1487    91366.877   -21673.063    1694.4507   -23367.514    105.04624    250.41986 
   31150     113.8714    -1378.642    91374.884   -21619.171    1707.3279   -23326.498    104.98999    252.32296 
   31200    114.09046   -1421.9211    91418.466   -21586.649    1710.6124   -23297.261     105.3304    252.80838 
   31250    116.69741   -1454.3426     91452.49   -21566.402    1749.6996   -23316.101    105.79498    258.58501 
   31300     114.9011   -1412.0713    91412.431   -21584.302    1722.7667   -23307.069    106.06331    254.60464 
   31350    114.53273   -1576.9218    91329.787   -21626.332    1717.2436   -23343.575    106.28498    253.78839 
   31400    115.03247   -1670.7109    91284.631   -21666.552    1724.7365   -23391.289    106.53785    254.89575 
   31450    111.21205   -1430.6513     91259.03   -21699.531     1667.455   -23366.986    106.76401    246.43022 
   31500    112.61001   -1447.7477    91252.415   -21757.505    1688.4153    -23445.92    106.81828     249.5279 
   31550    108.53233   -1627.3385    91262.197   -21783.868    1627.2767   -23411.144    106.97957    240.49234 
   31600     110.0624   -1230.3613    91237.111   -21777.778    1650.2178   -23427.996    107.38093    243.88277 
   31650    110.37173    -1512.952    91215.568     -21800.2    1654.8557   -23455.056    107.66615    244.56819 
   31700     109.6862   -1228.3387      91247.7   -21789.661    1644.5773   -23434.238     107.9957    243.04916 
   31750    113.96287   -1363.7704    91296.032   -21749.193    1708.6995   -23457.892      108.406    252.52566 
   31800    113.13147   -1583.0437    91263.718    -21707.37    1696.2339   -23403.604    108.84056     250.6834 
   31850    113.22502   -1492.7736    91254.321   -21738.938    1697.6365   -23436.574    108.86639    250.89069 
   31900    114.74263   -1371.0532    91183.098   -21669.054    1720.3907   -23389.445    109.14403    254.25349 
   31950    114.34454    -1143.853    91149.952   -21683.946     1714.422   -23398.368    109.59824    253.37138 
   32000    113.26409   -1392.9829    91193.536   -21698.455    1698.2223   -23396.678      109.982    250.97726 
   32050     113.8242    -991.5728    91240.968   -21722.264    1706.6203   -23428.884    110.14092    252.21839 
   32100     112.4913   -1253.8114    91272.798   -21721.559    1686.6355   -23408.194    109.81027    249.26487 
   32150    112.79804   -1230.7488    91310.782   -21712.139    1691.2346   -23403.374    109.88855    249.94456 
   32200    112.96454   -1105.3706    91300.781   -21677.978    1693.7309   -23371.709    110.07956    250.31349 
   32250    114.60313   -1290.9416    91303.715   -21683.617    1718.2991   -23401.917    110.27183    253.94437 
   32300    111.99256   -1510.1918    91379.457   -21698.656    1679.1576   -23377.813    110.77283    248.15973 
   32350    112.21416    -1383.054    91315.815     -21702.8    1682.4801    -23385.28    110.96983    248.65076 
   32400    112.83627   -1269.9217    91282.275   -21706.856    1691.8078   -23398.663    111.03536    250.02928 
   32450    115.04278   -1359.8304    91239.424   -21694.516    1724.8911   -23419.407    111.18746    254.91859 
   32500    113.52668   -1214.3113    91211.901   -21724.013    1702.1594   -23426.172     111.4441    251.55912 
   32550    112.29119   -1191.5033    91171.361   -21741.337    1683.6351   -23424.972    111.60281    248.82145 
   32600    111.39132   -1444.5471    91167.621   -21770.598    1670.1429   -23440.741    111.68937    246.82746 
   32650    112.09429   -1233.1321    91148.074   -21781.603     1680.683   -23462.286    111.63819    248.38515 
   32700     110.7481   -1127.3132    91102.412    -21766.65    1660.4988   -23427.149    111.76184    245.40218 
   32750    111.83791   -1259.2559    91168.331    -21752.06    1676.8389   -23428.899    112.10996    247.81705 
   32800     110.7408    -1350.162    91153.081   -21727.118    1660.3894   -23387.507    112.38664    245.38601 
   32850     110.8029   -1298.2628    91154.992   -21716.644    1661.3204   -23377.964    112.58435     245.5236 
   32900    110.05835   -1346.9152    91148.496   -21736.831    1650.1571   -23386.989    113.00901    243.87379 
   32950    112.96087   -1132.8059    91212.237   -21683.048    1693.6759   -23376.724    113.18105    250.30536 
   33000    114.33199    -1151.601    91216.152   -21681.892    1714.2338   -23396.126    113.13813    253.34358 
   33050    116.58438   -1138.2305    91241.003   -21682.316    1748.0049   -23430.321    113.56333    258.33455 
   33100    115.90482   -1202.6155    91215.994   -21660.562    1737.8159   -23398.378    113.97786    256.82874 
   33150     113.7524   -793.76667    91278.808   -21684.515    1705.5437   -23390.058    113.78173    252.05928 
   33200    113.76435    -1040.338    91304.502   -21668.969    1705.7229   -23374.692    113.74812    252.08576 
   33250    117.38381     -1075.13    91328.584   -21649.111    1759.9912   -23409.102    114.06032    260.10598 
   33300    112.87439   -1396.8393     91318.66   -21666.827    1692.3793   -23359.207    114.49071    250.11373 
   33350    114.25915   -1578.2088    91277.433   -21670.882    1713.1417   -23384.023     114.5571    253.18217 
   33400    114.62435   -1418.8871    91237.728   -21669.057    1718.6173   -23387.675    114.44824     253.9914 
   33450    113.33548   -1256.8739    91212.795   -21653.613    1699.2926   -23352.906     114.3687    251.13544 
   33500    115.01785   -1293.3325     91200.97   -21647.093    1724.5171    -23371.61    114.45235    254.86333 
   33550    114.07737   -1547.9849    91181.567   -21636.306    1710.4162   -23346.722     114.6204    252.77938 
   33600    112.90137    -1041.305    91158.925   -21651.996    1692.7838    -23344.78    114.13041    250.17352 
   33650    111.70823   -1657.1673    91097.531   -21680.961    1674.8946   -23355.855    114.37233     247.5297 
   33700    112.36683   -1174.0824    91083.585   -21694.723    1684.7693   -23379.492    114.16434    248.98907 
   33750    112.82899    -1394.117    91069.833   -21664.183    1691.6986   -23355.882    114.21223    250.01313 
   33800    112.44051   -1566.0957     91077.39   -21665.906    1685.8739    -23351.78    114.29967    249.15232 
   33850    116.29549   -1268.0242    91033.817   -21652.755    1743.6735   -23396.428    114.12001    257.69442 
   33900    114.64301   -1054.4694    91041.598   -21624.567     1718.897   -23343.464     113.9733    254.03275 
   33950    114.01334   -1203.3024    91091.088   -21634.591    1709.4561   -23344.047    114.14432    252.63749 
[...]
   92000    114.68955   -1544.6923    91486.796   -21729.136    1719.5949   -23448.731     308.4251    254.13588 
   92050    113.92052   -1221.7413    91387.132   -21711.565    1708.0644   -23419.629    308.12235    252.43182 
   92100      112.782   -1310.4322    91362.868   -21643.442     1690.994   -23334.436    307.67161    249.90901 
   92150     116.4457   -1509.9764    91362.782   -21650.346    1745.9257   -23396.272     307.9849    258.02726 
   92200    114.04003   -1266.5725    91379.468   -21647.021    1709.8563   -23356.877    308.67485    252.69664 
   92250    112.91195   -1631.4612    91395.101   -21679.573    1692.9425   -23372.516    308.29927    250.19697 
   92300     111.6699   -1490.8469    91317.796   -21663.744    1674.3199   -23338.064    308.45255    247.44476 
   92350    112.16247   -1228.9779     91262.05   -21705.957    1681.7051   -23387.662    308.53894    248.53622 
   92400    109.96138    -1220.602    91260.478   -21736.826    1648.7032   -23385.529    308.36853    243.65892 
   92450    113.54319   -1188.7376     91282.94   -21732.354     1702.407   -23434.761    308.42669    251.59571 
   92500    113.65336   -998.99966    91351.531   -21756.722    1704.0588   -23460.781    308.68786    251.83983 
   92550    110.09849   -1477.4519    91394.602   -21787.748    1650.7589   -23438.507    308.87568    243.96274 
   92600    111.40457   -1337.1546    91468.757   -21768.986    1670.3416   -23439.328    308.42925    246.85682 
   92650    112.54234   -1339.8953     91419.72   -21755.839    1687.4006    -23443.24     308.7569    249.37795 
   92700     112.6691   -1467.7423     91283.16    -21745.23    1689.3013   -23434.531    308.85625    249.65884 
   92750     112.6962    -1257.012    91283.472   -21743.969    1689.7076   -23433.677    309.18469     249.7189 
   92800    113.14336   -1112.3039      91294.7   -21766.569     1696.412   -23462.981    308.87921    250.70973 
   92850    113.87911   -1007.2886    91387.808   -21755.659    1707.4435   -23463.103    309.01776    252.34005 
   92900    111.36325    -1077.484    91381.744   -21798.161     1669.722   -23467.883    309.25186    246.76526 
   92950    110.31446   -1099.2913    91451.386   -21779.102    1653.9971   -23433.099    309.10047     244.4413 
   93000    111.19786   -1373.9046    91581.042   -21799.153    1667.2424   -23466.395    309.74698    246.39879 
   93050    109.99163   -1507.5192     91560.78   -21789.132    1649.1567   -23438.288    309.82563    243.72594 
   93100    112.80252   -1182.5013    91565.081    -21807.74    1691.3017   -23499.042    310.36045    249.95448 
   93150    109.02047   -1267.6723    91555.095   -21812.117    1634.5956   -23446.712    310.77929    241.57398 
   93200    112.55479   -1423.2493     91604.93   -21771.855    1687.5874   -23459.443    311.59875    249.40555 
   93250    112.98789   -1568.0034    91649.234   -21779.015     1694.081   -23473.096    311.61248    250.36523 
   93300    111.61868    -1271.263    91636.266   -21765.624    1673.5519   -23439.176    311.42739    247.33126 
   93350    113.45922   -1276.0436    91714.383    -21729.51    1701.1479   -23430.658    311.73511    251.40963 
   93400    112.86862   -1365.1324    91776.657   -21746.025    1692.2928   -23438.318    311.51164    250.10096 
   93450    113.11861   -1295.5999     91817.13   -21725.889    1696.0411    -23421.93    311.61201     250.6549 
   93500    113.30011     -1209.23    91888.486   -21676.705    1698.7624   -23375.467     312.3045    251.05708 
   93550    112.82313   -1591.0625     91896.28   -21699.474    1691.6107   -23391.085    312.21983    250.00015 
   93600    113.39146   -1380.1859    91845.072   -21714.457     1700.132   -23414.589    312.48594    251.25949 
   93650     115.9975   -1287.1263    91842.766   -21697.863    1739.2056   -23437.069    312.18694    257.03411 
   93700     116.5996   -1270.0064    91841.497   -21688.798    1748.2331   -23437.031    312.40541    258.36828 
   93750    111.75999   -1349.7513    91836.412    -21718.41    1675.6706   -23394.081    312.62736    247.64438 
   93800     111.1926   -1377.7534    91882.285   -21770.016    1667.1635   -23437.179    312.88679    246.38713 
   93850    113.76395   -1159.9211    91946.577   -21740.745    1705.7168   -23446.462    313.15411    252.08487 
   93900    112.09959    -1155.566    91968.917   -21767.814    1680.7623   -23448.577    313.00956    248.39689 
   93950    113.84129   -1647.6081    91919.547   -21711.931    1706.8765   -23418.808    313.10748    252.25625 
   94000    112.76703   -1375.5881    91872.984   -21690.219    1690.7696   -23380.989    313.25332    249.87584 
   94050     116.0196   -1324.6658    91855.976   -21707.189    1739.5369   -23446.726    313.41894    257.08308 
   94100     113.3367   -1204.3922    91841.958   -21725.308    1699.3109   -23424.619    313.37253    251.13815 
   94150    115.28598   -1197.7305    91812.286   -21704.428    1728.5374   -23432.965    313.08542    255.45747 
   94200    112.95867    -1189.696     91821.06   -21767.685     1693.643   -23461.328    313.28698     250.3005 
   94250    113.04569   -1253.1629    91840.475    -21788.36    1694.9477   -23483.308     313.6813    250.49331 
   94300    111.77153   -942.98702    91840.944   -21772.545    1675.8435   -23448.388    313.29201    247.66995 
   94350    110.33644   -1601.5004     91818.14   -21761.613    1654.3267    -23415.94    313.08566    244.49001 
   94400    118.65099   -1488.7221    91771.758   -21710.021    1778.9905   -23489.012    313.08227    262.91386 
   94450    113.27975   -1477.9955     91794.36   -21756.992     1698.457   -23455.449    313.25722    251.01196 
   94500    112.53022   -1373.5196    91772.107   -21767.606     1687.219   -23454.825    313.71404    249.35111 
   94550    109.57872   -1549.6769     91749.42   -21788.084    1642.9657    -23431.05    313.96349    242.81099 
   94600    112.95665      -1243.7    91740.247   -21779.123    1693.6127   -23472.735    314.14139    250.29602 
   94650     114.3234   -1102.1536    91740.712   -21781.182     1714.105   -23495.287    314.24742    253.32454 
   94700    111.03591   -1144.0089    91746.452   -21740.438    1664.8141   -23405.253    314.40025    246.03993 
   94750     115.9516   -1570.2136    91788.279   -21763.748    1738.5174   -23502.266    315.05747    256.93241 
   94800    110.98627   -1374.9785    91877.826   -21785.806    1664.0698   -23449.876    315.32661    245.92993 
   94850    113.39058    -1128.258    91890.473   -21757.759    1700.1188   -23457.878    315.81213    251.25754 
   94900    111.76696   -1135.9668    91947.204   -21793.215    1675.7751    -23468.99     316.5453    247.65983 
   94950    111.28654   -1358.7027    91893.254   -21801.107    1668.5719   -23469.679    316.70073    246.59528 
   95000    112.44084   -1221.6028    91875.863   -21798.703    1685.8788   -23484.582    316.95308    249.15304 
   95050    110.75069   -1141.3684    91897.972   -21795.482    1660.5376   -23456.019    317.75494    245.40791 
   95100    109.83762   -1488.6086    91919.389   -21809.265    1646.8476   -23456.112    318.08516    243.38469 
   95150    114.23861   -1479.3677    91891.148   -21794.595    1712.8337   -23507.428    317.86403    253.13666 
   95200    113.45387   -1392.9585    91856.589   -21764.175    1701.0677   -23465.242    317.82696    251.39778 
   95250    110.33576    -1520.342    91784.029   -21801.153    1654.3164   -23455.469    317.77935    244.48849 
   95300    115.51582   -1440.4011    91766.963   -21782.333    1731.9836   -23514.316     317.9857    255.96678 
   95350    111.45873   -1537.5732    91766.596   -21761.853    1671.1537   -23433.006    318.40935    246.97684 
   95400    109.21932   -1186.7278    91694.444   -21764.982     1637.577   -23402.559    318.71163    242.01461 
   95450    113.63067   -1572.5415    91603.375   -21760.226    1703.7186   -23463.945     318.9081    251.78956 
   95500    113.63627   -1005.3427    91601.244   -21757.324    1703.8025   -23461.126    319.21714    251.80196 
   95550    114.29372   -1316.4056    91600.994   -21721.226    1713.6599   -23434.886    318.85311    253.25876 
   95600    116.34894   -1058.8334    91563.057   -21739.338    1744.4749   -23483.813    318.76925    257.81286 
   95650    114.65951   -1352.6935    91519.033   -21712.022    1719.1445   -23431.166      318.619    254.06932 
   95700    113.89457   -1040.0443    91514.765   -21711.443    1707.6753   -23419.118    318.48957     252.3743 
   95750    112.92748   -1133.6278    91527.251   -21691.499    1693.1753   -23384.675      318.879    250.23138 
   95800    111.48592   -1282.4746    91534.212    -21718.16    1671.5613   -23389.722    319.09835    247.03708 
   95850    110.18825   -1284.8687    91656.877   -21727.876    1652.1047    -23379.98    319.31308    244.16163 
   95900    110.87685   -1244.0712    91641.085   -21737.325    1662.4292   -23399.754    319.46793    245.68746 
   95950    113.34844   -1422.7678    91609.762   -21739.856     1699.487   -23439.343    319.31866    251.16417 
   96000       111.68   -1280.0761    91582.659   -21734.881    1674.4712   -23409.352    319.20537    247.46714 
   96050    113.99409   -1260.2344    91525.783   -21733.486    1709.1675   -23442.654    318.73759    252.59484 
   96100     111.0487   -1236.1136    91520.824   -21738.301    1665.0059   -23403.307      319.793    246.06827 
   96150     113.2001   -1386.1795    91507.841   -21702.568    1697.2628   -23399.831    320.02345    250.83546 
   96200    110.23701   -1401.9355    91496.435   -21738.689    1652.8358   -23391.525    319.82792    244.26967 
   96250    113.76381   -1218.6342    91446.394   -21777.071    1705.7147   -23482.786    319.83585    252.08456 
   96300    115.02611    -1087.176    91453.457   -21748.297    1724.6411   -23472.938    319.76992    254.88165 
   96350    111.28761   -1160.3358    91463.963   -21751.587    1668.5879   -23420.175    320.67601    246.59765 
   96400    113.01775   -1291.2363    91499.027   -21789.095    1694.5288   -23483.623     321.1176     250.4314 
   96450    111.49457   -1134.1373    91540.365    -21787.51    1671.6909   -23459.201    321.37499    247.05624 
   96500     113.7566   -1369.1642    91561.079   -21787.057    1705.6067   -23492.663     321.3611     252.0686 
   96550    110.51397   -1151.2278    91625.403   -21779.073    1656.9884   -23436.061    321.18683    244.88338 
   96600    112.91721   -1310.2161    91538.586   -21752.186    1693.0213   -23445.207     321.5773    250.20862 
   96650    113.89828   -1471.4009    91544.786   -21747.954    1707.7309   -23455.685    321.10146    252.38252 
   96700    113.69092   -1171.1357    91576.811    -21758.51    1704.6219   -23463.132    320.96816    251.92304 
   96750    111.38818   -1370.7347    91598.822   -21750.088    1670.0959   -23420.184    320.96337    246.82051 
   96800     115.1128   -1595.4442    91539.879   -21744.886    1725.9408   -23470.827    321.30725    255.07374 
   96850    113.92615   -1291.3647    91453.094   -21732.501    1708.1488   -23440.649    321.12167    252.44428 
   96900    112.49879   -1234.4776    91448.004   -21764.523    1686.7478   -23451.271    320.71883    249.28146 
   96950     112.5407   -1290.0544    91398.276   -21791.826    1687.3761   -23479.202    321.55148    249.37432 
   97000    114.48675   -1330.3557    91367.491   -21755.756    1716.5541    -23472.31    321.37025    253.68649 
   97050     113.9192   -1470.7104      91315.3   -21754.541    1708.0446   -23462.585    320.85744    252.42889 
   97100    108.53566   -1312.2484    91268.343     -21764.5    1627.3266   -23391.827    321.23328    240.49971 
   97150    113.04808   -1306.6648    91295.795   -21784.526    1694.9836    -23479.51    321.24232    250.49862 
   97200    110.95426   -1428.3735    91251.164   -21833.166    1663.5899   -23496.756    321.01836      245.859 
   97250    111.41114    -1177.388    91221.809   -21854.922    1670.4401   -23525.362    321.25246    246.87138 
   97300    110.12833   -1052.1339    91291.061   -21842.433    1651.2063   -23493.639    321.68194    244.02886 
   97350    113.49976    -1030.343    91256.455   -21870.049    1701.7557   -23571.805    322.48823    251.49946 
   97400    109.16075   -1540.2348    91258.579   -21856.244    1636.6989   -23492.943    322.52139    241.88483 
   97450    110.47099   -1530.3951    91271.362   -21832.089     1656.344   -23488.434    322.59607    244.78815 
   97500    109.58609   -1384.4298    91216.929    -21839.84    1643.0762   -23482.916    323.08002    242.82733 
   97550    108.07135   -848.02614    91155.367   -21824.966    1620.3651   -23445.331    322.94493    239.47089 
   97600    112.36487   -1186.4474    91219.866   -21772.358    1684.7398   -23457.098     322.9631     248.9847 
   97650    112.32662   -1304.9235    91247.075   -21758.414    1684.1663    -23442.58    322.98707    248.89995 
   97700    112.49142   -1181.7676    91228.225   -21769.125    1686.6372   -23455.762    323.22514    249.26513 
   97750    110.68432   -1115.0999     91247.01   -21773.324    1659.5425   -23432.866    322.95064    245.26085 
   97800    110.81154   -1391.2114     91260.52   -21743.797    1661.4501   -23405.247    323.13218    245.54276 
   97850    114.80492   -1420.0027    91255.634   -21710.713    1721.3246   -23432.038    322.39694    254.39151 
   97900    112.48672   -1330.5778    91261.569   -21698.738    1686.5668   -23385.305    322.33735    249.25472 
   97950    116.52905   -1070.1294    91259.658   -21663.263    1747.1754   -23410.438    322.42401    258.21195 
   98000    112.27165   -1173.3489    91316.948   -21723.346    1683.3421   -23406.688    322.59947    248.77814 
   98050    112.85776   -1495.7696    91308.791   -21730.295    1692.1299   -23422.425      322.694    250.07688 
   98100    115.52213   -1488.9677    91289.959   -21673.913    1732.0782   -23405.992    322.95398    255.98077 
   98150    115.73382   -1080.4132    91293.783   -21661.098    1735.2521    -23396.35    322.84479    256.44983 
   98200    114.59393   -1372.6772    91325.139    -21691.22    1718.1612   -23409.382      323.028    253.92399 
   98250    112.91336   -1336.8677    91327.957   -21715.475    1692.9637   -23408.438    323.04557     250.2001 
   98300    113.26715   -1408.9355    91363.362   -21714.812    1698.2681    -23413.08    323.54583    250.98403 
   98350    115.12425   -1374.4911    91359.188   -21699.311    1726.1125   -23425.423     323.2937    255.09911 
   98400    113.97677   -1368.8071    91338.725   -21716.962    1708.9078    -23425.87     323.5078    252.55645 
   98450    112.73311   -1266.5021    91335.374    -21747.86     1690.261   -23438.121    323.55468    249.80068 
   98500    111.51573   -1340.9553    91421.309   -21758.329    1672.0082   -23430.337    324.06408    247.10313 
   98550    112.17388   -1215.2254    91409.819   -21726.056    1681.8762   -23407.932    324.35525    248.56151 
   98600    110.82286    -1366.303    91394.139   -21686.448    1661.6197   -23348.068    324.48876    245.56783 
   98650    112.91045   -1430.4812     91439.95   -21728.836    1692.9199   -23421.756    324.30964    250.19363 
   98700    110.44055   -1303.3979    91460.016   -21746.436    1655.8876   -23402.324    324.25278    244.72069 
   98750    111.21774   -1118.1047    91475.039   -21749.027    1667.5404   -23416.568    324.86334    246.44284 
   98800    110.40008   -1114.6609    91511.042   -21810.247    1655.2809   -23465.528    323.98033    244.63102 
   98850    108.75101   -1208.7398    91493.917   -21803.745    1630.5555   -23434.301    324.81094    240.97691 
   98900     110.3211    -1389.631     91457.62   -21821.501    1654.0966   -23475.598    324.75592    244.45601 
   98950    109.70046   -1153.7718    91429.878   -21845.183     1644.791   -23489.974    325.13846    243.08074 
   99000     108.9998   -1478.1828    91445.594   -21846.199    1634.2857   -23480.484    324.80241    241.52819 
   99050    110.43397   -1408.2757    91425.212   -21884.286    1655.7889   -23540.074    324.90218     244.7061 
   99100    111.38777   -1621.5701    91417.642   -21884.461    1670.0897   -23554.551    325.13262     246.8196 
   99150    110.51743   -1140.0631    91358.236   -21891.216    1657.0402   -23548.256    325.27649    244.89104 
   99200    106.57833   -1158.7812    91358.697   -21894.138    1597.9796   -23492.118    325.78839    236.16257 
   99250    110.29093   -1316.2063    91383.578   -21852.953    1653.6443   -23506.597    325.79241    244.38916 
   99300    109.08975   -1313.5656    91328.711   -21829.902    1635.6344   -23465.536    325.69598    241.72752 
   99350    112.20126   -1099.4837     91326.99   -21786.488    1682.2867   -23468.775    324.85535    248.62217 
   99400    113.62533   -1447.2156    91290.571   -21779.562    1703.6385     -23483.2    324.60172    251.77772 
   99450    109.22405   -1326.2554    91335.804   -21786.211     1637.648   -23423.859    325.01607    242.02509 
   99500    115.20832   -1409.3012    91289.366   -21779.525     1727.373   -23506.898    324.14345    255.28539 
   99550    111.02905   -1223.4634    91240.592    -21748.12    1664.7113   -23412.831      323.818    246.02473 
   99600    112.42847   -1453.0312    91191.514   -21758.039    1685.6934   -23443.733    324.02994    249.12564 
   99650    116.73426   -1146.9354    91128.674   -21706.722    1750.2521   -23456.974    323.41224    258.66666 
   99700    113.08417   -1283.0509    91098.776   -21697.506    1695.5246    -23393.03    323.45175    250.57858 
   99750    111.48464   -1394.0605    91048.344   -21724.536    1671.5422   -23396.078    323.43051    247.03426 
   99800    112.31493   -1408.2908    91052.514   -21753.375    1683.9911   -23437.366    323.49277    248.87406 
   99850    111.98156   -1611.7322    91025.296   -21745.949    1678.9927   -23424.942    323.73452    248.13536 
   99900     111.2233   -1503.9603    90936.101   -21741.673    1667.6237   -23409.296    323.76196    246.45515 
   99950    110.84793   -1370.9849    90874.502   -21763.029    1661.9957   -23425.025    324.13034     245.6234 
  100000    112.23904   -1319.3424    90882.712   -21760.764    1682.8532   -23443.617    324.09757    248.70589 
Loop time of 42.8257 on 80 procs for 100000 steps with 5031 atoms

Performance: 1008.741 ns/day, 0.024 hours/ns, 2335.048 timesteps/s
99.9% CPU use with 80 MPI tasks x no OpenMP threads

MPI task timing breakdown:
Section |  min time  |  avg time  |  max time  |%varavg| %total
---------------------------------------------------------------
Pair    | 5.93       | 17.502     | 24.803     | 168.7 | 40.87
Neigh   | 0.48268    | 1.2548     | 3.4273     |  95.7 |  2.93
Comm    | 10.108     | 17.081     | 28.395     | 161.9 | 39.88
Output  | 0.12107    | 0.12524    | 0.29156    |   5.3 |  0.29
Modify  | 4.042      | 5.9374     | 7.504      |  39.0 | 13.86
Other   |            | 0.9256     |            |       |  2.16

Nlocal:    62.8875 ave 144 max 33 min
Histogram: 60 0 0 0 0 0 0 0 5 15
Nghost:    671.25 ave 831 max 387 min
Histogram: 20 0 0 0 0 0 0 34 6 20
Neighs:    0 ave 0 max 0 min
Histogram: 80 0 0 0 0 0 0 0 0 0
FullNghs:  5912.55 ave 18722 max 1213 min
Histogram: 60 0 0 0 0 0 0 0 0 20

Total # of neighbors = 473004
Ave neighs/atom = 94.0179
Neighbor list builds = 5933
Dangerous builds = 0

write_data		${DIR}/data.eq-${NAME}-${TEMP}
write_data		run_1/data.eq-${NAME}-${TEMP}
write_data		run_1/data.eq-het_freeze_1-${TEMP}
write_data		run_1/data.eq-het_freeze_1-250
undump          1

reset_timestep  0

unfix           2
unfix           3
unfix           4


################################################
#######         Run Simulation         #########
################################################

log				${DIR}/log.run_${NAME}
log				run_1/log.run_${NAME}
log				run_1/log.run_het_freeze_1
