LAMMPS data file via write_data, version 16 Mar 2018, timestep = 8000000

6328 atoms
2 atom types

0.0000000000000000e+00 4.9219999999999999e+01 xlo xhi
0.0000000000000000e+00 4.9019635930410494e+01 ylo yhi
2.0579166232731794e+00 5.8004083376725227e+01 zlo zhi

Masses

1 18.015
2 12.01

Atoms # atomic

141 1 1.1813928688281884e+01 9.4560366942202485e+00 1.3955519186729232e+01 -2 4 0
1899 1 3.4911670896286003e-02 2.2165259634017254e+00 2.9843919763006630e+00 -1 -4 0
1372 1 1.1812016910580599e+01 2.0556080860079673e+00 9.2204438088210807e+00 -1 3 1
3440 1 4.7380093807707224e+00 2.6185528032475247e+00 2.8016080321708907e+00 -2 2 1
4545 1 1.1873760600143857e+01 6.6794153899466284e+00 1.2746571188515738e+01 -3 3 1
4787 1 9.2899261143455085e+00 3.0811486472726450e+00 2.8750551701876468e+00 -3 -1 1
283 1 2.4347903653358092e+00 6.3481658301414559e+00 3.0873507467077803e+00 3 -1 0
3719 1 7.0473463966388854e+00 6.7093557523138250e+00 2.9701153356334888e+00 4 1 0
4583 1 1.1444143738774391e+01 6.7426902485478504e+00 2.8057806080921832e+00 0 4 1
4584 1 4.5264991978879952e+00 1.0215783233508535e+01 2.4664675733307448e+00 0 0 1
5223 1 4.6005287499568013e+00 1.0162797906696680e+01 1.3077032158839915e+01 0 -3 1
4878 1 9.0466504763211315e+00 1.0514067202650194e+01 2.8229289712787526e+00 -5 4 1
269 1 2.4322881101854121e+00 1.3457647153856545e+00 6.3483462895646356e+00 2 0 0
1258 1 4.8139235408380507e+00 2.8340431482631656e+00 5.5746542366163068e+00 1 2 0
5999 1 7.1118167453386656e+00 1.4597606255612583e+00 6.1879850495232125e+00 -2 1 1
133 1 1.1483995809618227e+01 4.1480494969236554e+00 2.1197734159291142e+00 -1 1 1
217 1 9.4977867978526245e+00 2.9090975778705332e+00 5.5005780145738115e+00 -3 -3 1
397 1 2.0851171816296170e+00 6.2926266055735862e+00 5.7627380641912751e+00 0 0 1
138 1 7.1026172826443847e+00 6.7387036543501253e+00 5.9674884060474911e+00 -3 1 1
6250 1 4.6431162743007963e+00 5.2656362573608595e+00 6.2901521697441689e+00 -3 -2 1
4743 1 1.1527549155520084e+01 6.5885141788699872e+00 5.6576297434014950e+00 2 1 0
4629 1 9.2881514763496451e+00 5.3722707809533476e+00 6.6779986992345766e+00 0 -1 1
5178 1 2.4880152458098475e+00 9.1080110785374977e+00 6.6355910397638862e+00 -1 2 0
3592 1 4.8370635588504340e+00 1.0108553500906488e+01 5.3180452946696501e+00 -4 2 0
3050 1 7.1049310376253114e+00 9.6304554100036466e+00 6.8577746825379631e+00 0 0 0
80 1 9.2780459276660618e+00 1.0478182797147102e+01 5.6225629643334312e+00 1 0 0
5044 1 1.1655146975307460e+01 9.3777938223817614e+00 6.3028690821410089e+00 -1 -1 0
1771 1 2.6421557603127805e+00 1.4478497217606241e+00 9.0970950998377234e+00 1 3 1
4 1 7.0033660861276310e+00 9.1447835207855839e+00 1.3962237466120047e+01 0 -1 1
5228 1 6.7855388244619492e+00 1.4779358400225844e+00 9.0009869086793017e+00 -1 1 1
1285 1 4.7411979846974681e+00 2.8335816899392521e+00 9.9404499464554590e+00 1 2 1
6102 1 9.1793717093253271e+00 2.7535400514692157e+00 9.8640486928022995e+00 -1 2 1
4633 1 9.0860149355779285e+00 5.7736325694907018e+00 1.3521985428282360e+01 3 -2 0
3662 1 2.3993176837581704e+00 6.3156548720642940e+00 1.0375013926478196e+01 0 -1 1
1616 1 4.5340183888618562e+00 5.3443282440531430e+00 9.0824612125925626e+00 3 1 0
1705 1 6.9102973308564186e+00 6.5287520255142466e+00 9.9541417043888885e+00 0 0 0
2835 1 9.3331863801870902e+00 5.4447029268156033e+00 9.3514497980202833e+00 0 1 1
3007 1 1.1504400744296801e+01 6.8453291647509733e+00 1.0160663196108169e+01 -1 6 1
343 1 2.2086673631697988e+00 8.8662804111139994e+00 9.6152920303889147e+00 6 -1 0
1959 1 6.7878076780473418e+00 9.2653330633187689e+00 9.4053883009506585e+00 -2 -2 0
3637 1 4.5292372279030211e+00 1.0247427591806041e+01 1.0260088264810838e+01 7 2 0
1660 1 1.1570970656927479e+01 9.3322883489719199e+00 9.2142149193187404e+00 -1 -1 1
3434 1 9.2944059283042435e+00 1.0667329524164295e+01 1.0140126891416031e+01 1 -2 0
3433 1 2.5265690098145970e+00 1.4911726046943767e+00 1.3839421899381836e+01 6 2 1
4792 1 2.3860435981606716e+00 9.0031238500416180e+00 1.3945533526988116e+01 2 2 0
4882 1 4.7285775771730307e+00 2.8549700369912179e+00 1.2744890461447850e+01 0 -1 0
3360 1 7.1670955532482372e+00 1.6883469163242624e+00 1.3776646980052165e+01 2 1 0
3584 1 1.1675360317244341e+01 2.0240073727921724e+00 1.3562237014336013e+01 1 -1 1
3389 1 9.3816751063376174e+00 3.0653692690851875e+00 1.2653702678850337e+01 0 -2 0
455 1 2.2920913209230678e+00 6.4735487680287989e+00 1.2985765520502246e+01 1 -2 0
3424 1 9.2745809589877855e+00 1.0413026842019212e+01 1.2973415148746188e+01 2 -3 0
1583 1 4.4509211243683913e+00 5.4514950096193182e+00 1.3635830009015669e+01 2 4 0
2046 1 6.6489858897093965e+00 6.7268937423918080e+00 1.2592207100519161e+01 -3 -2 1
2009 1 1.1714073063384296e+01 1.8908475342355511e+00 6.4862254434412980e+00 3 1 0
3712 1 2.0997503938462336e-02 2.2151067298388321e+00 1.2845528821227170e+01 2 2 0
6042 1 6.5645735211932801e-02 2.3118334307737061e+00 9.9285056217588803e+00 2 -3 1
4819 1 2.6945169664511451e-02 1.0013155272766321e+01 5.6814015708072638e+00 0 -1 1
2025 1 2.4634404610518837e-01 5.0735411119224292e+00 9.1072563343675501e+00 -3 2 0
3405 1 4.5835593898431171e-02 9.9585307919995874e+00 2.9961928777022995e+00 0 1 1
1270 1 1.1263809417693658e+01 1.1960089125709688e+01 2.1693185016176670e+00 -2 1 1
3335 1 6.9707585123045908e+00 4.3004426339501016e+00 2.1831911645050042e+00 2 -2 0
2822 1 3.0166417447686857e+00 1.4259651479236859e+00 1.6615951036745315e+01 1 2 0
4409 1 5.1558438365510044e+00 3.0064293567965461e-01 2.0198239513600736e+01 5 -2 0
41 1 7.3720015543544770e+00 1.8764430210013823e+00 1.6461599937589746e+01 -1 1 1
3624 1 1.2159657961885662e+01 3.9148260158603159e+00 2.4371154222455562e+01 -3 -1 1
2907 1 9.6278421683112985e+00 9.2938967734331512e-01 1.7293207786562231e+01 -2 -1 1
728 2 9.8440000000000012e+00 1.1366872099805333e+01 2.6692403891619715e+01 0 0 0
2824 1 2.4024000308112217e+00 3.8524341841401752e+00 1.7474099918033879e+01 -3 1 1
5240 1 6.9715144144977277e+00 4.4888686738406465e+00 1.7246366941334585e+01 0 -1 0
2850 1 4.5642987626991935e+00 7.9923708304440346e+00 1.7431273324632961e+01 0 -4 0
386 1 4.4761149441789572e+00 5.4830490319420644e+00 1.6648867205619947e+01 4 -2 0
5014 1 9.2879377383514559e+00 5.5075604391635027e+00 1.6231608942585840e+01 -1 0 0
456 1 6.6091350912094038e+00 1.1753035327760264e+01 2.4127677606879399e+01 5 1 0
3414 1 2.2855736495523717e+00 1.1599361509314557e+01 1.7374876592547189e+01 1 2 0
4617 1 2.1230993382594692e+00 8.7729801378851064e+00 1.6675963134164284e+01 5 3 1
154 1 6.9912492774749824e+00 9.1229014902069760e+00 1.6606912508365486e+01 -4 -4 0
5031 1 1.1814623060210714e+01 4.7362037712872045e+00 1.7125186587276779e+01 0 2 0
3342 1 9.0901930468699828e+00 8.1118588633344952e+00 1.7658771320762632e+01 2 2 1
1915 1 1.1432712934543988e+01 9.5940842597698381e+00 1.6744043969786119e+01 -1 -1 0
685 2 8.6134999999999984e+00 9.2355835810918343e+00 2.6692403891619715e+01 0 0 0
1872 1 2.8073811460043405e+00 1.2089132640252513e+00 2.1099961350049750e+01 0 -1 0
3183 1 2.3825230007324283e+00 3.7179787076138648e+00 2.0130770095651215e+01 3 4 1
232 1 1.1321431374576644e+01 1.2080723736442600e+01 2.0031447075098704e+01 -1 0 1
1740 1 7.1619496976857242e+00 2.0205327599940484e+00 2.1036873495581037e+01 0 2 0
4498 1 6.9969924844967677e+00 4.4766306691138285e+00 2.0018552124707973e+01 0 1 1
1564 1 1.2049189352361260e+01 1.8588705325974064e+00 2.0932942232664630e+01 1 0 1
2799 1 9.5066381184533597e+00 7.5992939266088877e-01 2.0028625997731844e+01 -1 -1 1
4732 1 6.7885464929915589e+00 1.1544235189220664e+01 1.9998800943842806e+01 3 3 1
1793 1 1.1613987509017409e+01 2.0361094088211642e+00 1.6260339765947748e+01 0 2 0
775 2 1.2304999999999998e+01 1.1366872099805333e+01 2.6692403891619715e+01 0 0 0
1720 1 4.6335737306788287e+00 5.2489394708572226e+00 2.0950136615435028e+01 2 -1 1
1302 1 4.4496929985577918e+00 7.8455979480702212e+00 2.0191874655356720e+01 0 2 1
1924 1 9.2317336431355841e+00 5.4909906534743822e+00 2.1157650021366063e+01 1 -2 1
40 1 9.0308339209924871e+00 8.0370104490896406e+00 2.0352987024506508e+01 2 2 1
448 1 1.1356987511055268e+01 4.3587690872656664e+00 1.9984252856254543e+01 -1 0 1
1703 1 2.1106570590993110e+00 9.0519631434987726e+00 2.1078176041873903e+01 -3 -1 0
3499 1 1.9368142980768628e+00 1.1571302965026803e+01 2.0336576165619856e+01 1 2 0
773 2 1.1074500000000002e+01 1.0656442593567498e+01 2.6692403891619715e+01 0 0 0
4413 1 6.7881370014320730e+00 9.1739961714984730e+00 2.1020059702897349e+01 1 -3 1
6007 1 1.1315643386402778e+01 9.5504606298749977e+00 2.1046431752764811e+01 0 2 0
3054 1 2.8124706570890807e+00 4.8515953530109956e-01 2.3820109344933339e+01 3 1 0
1528 1 2.4112161538800554e+00 3.2846481753412293e+00 2.4019059644136245e+01 3 -1 0
233 1 7.1791088979410240e+00 9.4928339314743948e-01 2.3507360400089066e+01 0 4 0
302 1 7.1780375993001160e+00 3.7043080350725170e+00 2.4369859671805184e+01 -2 0 0
726 2 8.6134999999999984e+00 1.0656442593567498e+01 2.6692403891619715e+01 0 0 0
732 2 1.1074500000000002e+01 9.2355835810918343e+00 2.6692403891619715e+01 0 0 0
730 2 9.8440000000000012e+00 8.5251540748539956e+00 2.6692403891619715e+01 0 0 0
4994 1 4.7744664006024831e+00 4.7130395574544899e+00 2.3656322321018759e+01 -5 -2 1
3344 1 4.4750560748574104e+00 7.4037980384712698e+00 2.4376184631141456e+01 2 1 0
3600 1 9.5637814576142617e+00 5.2105144892746882e+00 2.3661165856760547e+01 0 -5 0
4827 1 2.0550922375542457e+00 8.8807592581038772e+00 2.3753335562116849e+01 -3 -1 1
2006 1 1.6514543358361995e+00 1.1394347898604051e+01 2.4323080503450601e+01 -2 -8 0
3525 1 6.8573865939791530e+00 1.1714521498132486e+01 1.7185866271867418e+01 6 0 0
2871 1 6.6972605302541428e+00 9.1349802730658691e+00 2.3816415996756927e+01 -4 2 1
1835 1 9.2674555075990259e+00 7.9370438377293349e+00 2.4352521749808158e+01 3 0 1
3364 1 1.1077236469227948e+01 9.7755985164119199e+00 2.3967113436452038e+01 0 -2 0
552 2 0.0000000000000000e+00 2.8417180249513345e+00 2.6692403891619715e+01 0 0 0
554 2 0.0000000000000000e+00 0.0000000000000000e+00 2.6692403891619715e+01 0 0 0
556 2 1.2305000000000001e+00 7.1042950623783474e-01 2.6692403891619715e+01 0 0 0
563 2 1.2305000000000001e+00 2.1312885187134998e+00 2.6692403891619715e+01 0 0 0
565 2 2.4610000000000003e+00 2.8417180249513345e+00 2.6692403891619715e+01 0 0 0
567 2 2.4610000000000003e+00 0.0000000000000000e+00 2.6692403891619715e+01 0 0 0
569 2 3.6915000000000004e+00 7.1042950623783474e-01 2.6692403891619715e+01 0 0 0
584 2 3.6914999999999996e+00 2.1312885187134998e+00 2.6692403891619715e+01 0 0 0
586 2 4.9220000000000006e+00 2.8417180249513332e+00 2.6692403891619715e+01 0 0 0
588 2 4.9220000000000006e+00 0.0000000000000000e+00 2.6692403891619715e+01 0 0 0
590 2 6.1524999999999999e+00 7.1042950623783407e-01 2.6692403891619715e+01 0 0 0
613 2 6.1524999999999999e+00 2.1312885187134989e+00 2.6692403891619715e+01 0 0 0
615 2 7.3829999999999991e+00 2.8417180249513345e+00 2.6692403891619715e+01 0 0 0
617 2 7.3829999999999991e+00 0.0000000000000000e+00 2.6692403891619715e+01 0 0 0
619 2 8.6134999999999984e+00 7.1042950623783407e-01 2.6692403891619715e+01 0 0 0
650 2 8.6134999999999984e+00 2.1312885187135002e+00 2.6692403891619715e+01 0 0 0
652 2 9.8440000000000012e+00 2.8417180249513332e+00 2.6692403891619715e+01 0 0 0
654 2 9.8440000000000012e+00 0.0000000000000000e+00 2.6692403891619715e+01 0 0 0
656 2 1.1074500000000002e+01 7.1042950623783330e-01 2.6692403891619715e+01 0 0 0
695 2 1.1074500000000002e+01 2.1312885187135002e+00 2.6692403891619715e+01 0 0 0
559 2 0.0000000000000000e+00 4.2625770374269996e+00 2.6692403891619715e+01 0 0 0
561 2 1.2305000000000001e+00 4.9730065436648339e+00 2.6692403891619715e+01 0 0 0
576 2 1.2305000000000001e+00 6.3938655561404980e+00 2.6692403891619715e+01 0 0 0
580 2 2.4610000000000003e+00 4.2625770374269996e+00 2.6692403891619715e+01 0 0 0
582 2 3.6914999999999996e+00 4.9730065436648339e+00 2.6692403891619715e+01 0 0 0
605 2 3.6914999999999996e+00 6.3938655561404980e+00 2.6692403891619715e+01 0 0 0
557 2 0.0000000000000000e+00 7.1042950623783341e+00 2.6692403891619715e+01 0 0 0
578 2 2.4610000000000003e+00 7.1042950623783341e+00 2.6692403891619715e+01 0 0 0
609 2 4.9220000000000006e+00 4.2625770374269978e+00 2.6692403891619715e+01 0 0 0
611 2 6.1524999999999999e+00 4.9730065436648339e+00 2.6692403891619715e+01 0 0 0
642 2 6.1524999999999999e+00 6.3938655561404980e+00 2.6692403891619715e+01 0 0 0
646 2 7.3829999999999991e+00 4.2625770374269996e+00 2.6692403891619715e+01 0 0 0
607 2 4.9220000000000006e+00 7.1042950623783341e+00 2.6692403891619715e+01 0 0 0
644 2 7.3830000000000009e+00 7.1042950623783341e+00 2.6692403891619715e+01 0 0 0
648 2 8.6135000000000002e+00 4.9730065436648339e+00 2.6692403891619715e+01 0 0 0
687 2 8.6135000000000002e+00 6.3938655561404980e+00 2.6692403891619715e+01 0 0 0
691 2 9.8440000000000012e+00 4.2625770374270004e+00 2.6692403891619715e+01 0 0 0
693 2 1.1074500000000002e+01 4.9730065436648339e+00 2.6692403891619715e+01 0 0 0
734 2 1.1074500000000002e+01 6.3938655561404980e+00 2.6692403891619715e+01 0 0 0
689 2 9.8440000000000012e+00 7.1042950623783341e+00 2.6692403891619715e+01 0 0 0
570 2 0.0000000000000000e+00 1.1366872099805333e+01 2.6692403891619715e+01 0 0 0
599 2 2.4610000000000003e+00 1.1366872099805333e+01 2.6692403891619715e+01 0 0 0
634 2 3.6914999999999996e+00 1.0656442593567499e+01 2.6692403891619715e+01 0 0 0
601 2 2.4610000000000003e+00 8.5251540748539991e+00 2.6692403891619715e+01 0 0 0
572 2 0.0000000000000000e+00 8.5251540748539991e+00 2.6692403891619715e+01 0 0 0
603 2 3.6915000000000004e+00 9.2355835810918343e+00 2.6692403891619715e+01 0 0 0
574 2 1.2305000000000001e+00 9.2355835810918343e+00 2.6692403891619715e+01 0 0 0
597 2 1.2305000000000001e+00 1.0656442593567498e+01 2.6692403891619715e+01 0 0 0
679 2 6.1524999999999999e+00 1.0656442593567499e+01 2.6692403891619715e+01 0 0 0
683 2 7.3830000000000009e+00 8.5251540748539991e+00 2.6692403891619715e+01 0 0 0
640 2 6.1524999999999999e+00 9.2355835810918343e+00 2.6692403891619715e+01 0 0 0
681 2 7.3829999999999991e+00 1.1366872099805333e+01 2.6692403891619715e+01 0 0 0
636 2 4.9220000000000006e+00 1.1366872099805333e+01 2.6692403891619715e+01 0 0 0
638 2 4.9220000000000006e+00 8.5251540748539991e+00 2.6692403891619715e+01 0 0 0
3170 1 1.1484463120426533e+01 1.2054187774217155e+01 1.7385429511511589e+01 0 -2 1
3510 1 1.1992714455762535e+01 1.2329753037195763e+00 2.3600598267975162e+01 3 3 0
5290 1 9.8159918187097892e-02 7.2652827500534087e+00 2.0260107041061044e+01 3 0 1
6178 1 5.3113150038158681e+00 3.3461624824494918e-01 1.7368252021183441e+01 -4 3 0
1609 1 4.8276253399954235e-02 4.9914654521972501e+00 1.6497933559432809e+01 0 0 1
4647 1 1.0042490598343079e-01 4.6573836815660412e+00 2.1005430059713682e+01 4 -2 1
3104 1 6.3236022816085002e-01 7.1753446364439810e-02 1.7421428648370643e+01 0 4 1
553 2 0.0000000000000000e+00 1.4208590124756650e+00 3.0030999999999288e+01 0 0 0
555 2 0.0000000000000000e+00 0.0000000000000000e+00 3.0030999999999288e+01 0 0 0
564 2 1.2305000000000001e+00 2.1312885187134998e+00 3.0030999999999288e+01 0 0 0
566 2 2.4610000000000003e+00 1.4208590124756650e+00 3.0030999999999288e+01 0 0 0
568 2 2.4610000000000003e+00 0.0000000000000000e+00 3.0030999999999288e+01 0 0 0
585 2 3.6914999999999996e+00 2.1312885187134998e+00 3.0030999999999288e+01 0 0 0
562 2 1.2305000000000001e+00 3.5521475311891644e+00 3.0030999999999288e+01 0 0 0
583 2 3.6914999999999996e+00 3.5521475311891644e+00 3.0030999999999288e+01 0 0 0
881 2 0.0000000000000000e+00 2.8417180249513345e+00 3.3369596108378261e+01 0 0 0
882 2 0.0000000000000000e+00 0.0000000000000000e+00 3.3369596108378261e+01 0 0 0
883 2 1.2305000000000001e+00 7.1042950623783474e-01 3.3369596108378261e+01 0 0 0
887 2 1.2305000000000001e+00 2.1312885187134998e+00 3.3369596108378261e+01 0 0 0
888 2 2.4610000000000003e+00 2.8417180249513345e+00 3.3369596108378261e+01 0 0 0
889 2 2.4610000000000003e+00 0.0000000000000000e+00 3.3369596108378261e+01 0 0 0
890 2 3.6915000000000004e+00 7.1042950623783474e-01 3.3369596108378261e+01 0 0 0
898 2 3.6914999999999996e+00 2.1312885187134998e+00 3.3369596108378261e+01 0 0 0
587 2 4.9220000000000006e+00 1.4208590124756650e+00 3.0030999999999288e+01 0 0 0
589 2 4.9220000000000006e+00 0.0000000000000000e+00 3.0030999999999288e+01 0 0 0
614 2 6.1524999999999999e+00 2.1312885187134989e+00 3.0030999999999288e+01 0 0 0
616 2 7.3829999999999991e+00 1.4208590124756659e+00 3.0030999999999288e+01 0 0 0
618 2 7.3829999999999991e+00 0.0000000000000000e+00 3.0030999999999288e+01 0 0 0
612 2 6.1524999999999999e+00 3.5521475311891644e+00 3.0030999999999288e+01 0 0 0
899 2 4.9220000000000006e+00 2.8417180249513332e+00 3.3369596108378261e+01 0 0 0
900 2 4.9220000000000006e+00 0.0000000000000000e+00 3.3369596108378261e+01 0 0 0
901 2 6.1524999999999999e+00 7.1042950623783407e-01 3.3369596108378261e+01 0 0 0
913 2 6.1524999999999999e+00 2.1312885187134989e+00 3.3369596108378261e+01 0 0 0
914 2 7.3829999999999991e+00 2.8417180249513345e+00 3.3369596108378261e+01 0 0 0
915 2 7.3829999999999991e+00 0.0000000000000000e+00 3.3369596108378261e+01 0 0 0
651 2 8.6134999999999984e+00 2.1312885187135002e+00 3.0030999999999288e+01 0 0 0
653 2 9.8440000000000012e+00 1.4208590124756659e+00 3.0030999999999288e+01 0 0 0
655 2 9.8440000000000012e+00 0.0000000000000000e+00 3.0030999999999288e+01 0 0 0
696 2 1.1074500000000002e+01 2.1312885187135002e+00 3.0030999999999288e+01 0 0 0
649 2 8.6134999999999984e+00 3.5521475311891657e+00 3.0030999999999288e+01 0 0 0
694 2 1.1074500000000002e+01 3.5521475311891644e+00 3.0030999999999288e+01 0 0 0
916 2 8.6134999999999984e+00 7.1042950623783407e-01 3.3369596108378261e+01 0 0 0
932 2 8.6134999999999984e+00 2.1312885187135002e+00 3.3369596108378261e+01 0 0 0
933 2 9.8440000000000012e+00 2.8417180249513332e+00 3.3369596108378261e+01 0 0 0
934 2 9.8440000000000012e+00 0.0000000000000000e+00 3.3369596108378261e+01 0 0 0
935 2 1.1074500000000002e+01 7.1042950623783330e-01 3.3369596108378261e+01 0 0 0
955 2 1.1074500000000002e+01 2.1312885187135002e+00 3.3369596108378261e+01 0 0 0
558 2 0.0000000000000000e+00 5.6834360499026637e+00 3.0030999999999288e+01 0 0 0
560 2 0.0000000000000000e+00 4.2625770374269996e+00 3.0030999999999288e+01 0 0 0
577 2 1.2305000000000001e+00 6.3938655561404980e+00 3.0030999999999288e+01 0 0 0
579 2 2.4610000000000003e+00 5.6834360499026637e+00 3.0030999999999288e+01 0 0 0
581 2 2.4610000000000003e+00 4.2625770374269996e+00 3.0030999999999288e+01 0 0 0
606 2 3.6914999999999996e+00 6.3938655561404980e+00 3.0030999999999288e+01 0 0 0
575 2 1.2305000000000001e+00 7.8147245686161639e+00 3.0030999999999288e+01 0 0 0
604 2 3.6914999999999996e+00 7.8147245686161639e+00 3.0030999999999288e+01 0 0 0
885 2 0.0000000000000000e+00 4.2625770374269996e+00 3.3369596108378261e+01 0 0 0
886 2 1.2305000000000001e+00 4.9730065436648339e+00 3.3369596108378261e+01 0 0 0
894 2 1.2305000000000001e+00 6.3938655561404980e+00 3.3369596108378261e+01 0 0 0
896 2 2.4610000000000003e+00 4.2625770374269996e+00 3.3369596108378261e+01 0 0 0
897 2 3.6914999999999996e+00 4.9730065436648339e+00 3.3369596108378261e+01 0 0 0
909 2 3.6914999999999996e+00 6.3938655561404980e+00 3.3369596108378261e+01 0 0 0
884 2 0.0000000000000000e+00 7.1042950623783341e+00 3.3369596108378261e+01 0 0 0
895 2 2.4610000000000003e+00 7.1042950623783341e+00 3.3369596108378261e+01 0 0 0
608 2 4.9220000000000006e+00 5.6834360499026637e+00 3.0030999999999288e+01 0 0 0
610 2 4.9220000000000006e+00 4.2625770374269978e+00 3.0030999999999288e+01 0 0 0
643 2 6.1524999999999999e+00 6.3938655561404980e+00 3.0030999999999288e+01 0 0 0
645 2 7.3829999999999991e+00 5.6834360499026637e+00 3.0030999999999288e+01 0 0 0
647 2 7.3829999999999991e+00 4.2625770374269996e+00 3.0030999999999288e+01 0 0 0
641 2 6.1524999999999999e+00 7.8147245686161639e+00 3.0030999999999288e+01 0 0 0
911 2 4.9220000000000006e+00 4.2625770374269978e+00 3.3369596108378261e+01 0 0 0
912 2 6.1524999999999999e+00 4.9730065436648339e+00 3.3369596108378261e+01 0 0 0
928 2 6.1524999999999999e+00 6.3938655561404980e+00 3.3369596108378261e+01 0 0 0
930 2 7.3829999999999991e+00 4.2625770374269996e+00 3.3369596108378261e+01 0 0 0
910 2 4.9220000000000006e+00 7.1042950623783341e+00 3.3369596108378261e+01 0 0 0
929 2 7.3830000000000009e+00 7.1042950623783341e+00 3.3369596108378261e+01 0 0 0
688 2 8.6135000000000002e+00 6.3938655561404980e+00 3.0030999999999288e+01 0 0 0
690 2 9.8440000000000012e+00 5.6834360499026637e+00 3.0030999999999288e+01 0 0 0
692 2 9.8440000000000012e+00 4.2625770374270004e+00 3.0030999999999288e+01 0 0 0
735 2 1.1074500000000002e+01 6.3938655561404980e+00 3.0030999999999288e+01 0 0 0
686 2 8.6135000000000002e+00 7.8147245686161639e+00 3.0030999999999288e+01 0 0 0
733 2 1.1074500000000002e+01 7.8147245686161639e+00 3.0030999999999288e+01 0 0 0
931 2 8.6135000000000002e+00 4.9730065436648339e+00 3.3369596108378261e+01 0 0 0
951 2 8.6135000000000002e+00 6.3938655561404980e+00 3.3369596108378261e+01 0 0 0
953 2 9.8440000000000012e+00 4.2625770374270004e+00 3.3369596108378261e+01 0 0 0
954 2 1.1074500000000002e+01 4.9730065436648339e+00 3.3369596108378261e+01 0 0 0
975 2 1.1074500000000002e+01 6.3938655561404980e+00 3.3369596108378261e+01 0 0 0
952 2 9.8440000000000012e+00 7.1042950623783341e+00 3.3369596108378261e+01 0 0 0
571 2 0.0000000000000000e+00 9.9460130873296642e+00 3.0030999999999288e+01 0 0 0
573 2 0.0000000000000000e+00 8.5251540748539991e+00 3.0030999999999288e+01 0 0 0
600 2 2.4610000000000003e+00 9.9460130873296642e+00 3.0030999999999288e+01 0 0 0
602 2 2.4610000000000003e+00 8.5251540748539991e+00 3.0030999999999288e+01 0 0 0
596 2 1.2305000000000001e+00 1.2077301606043163e+01 3.0030999999999288e+01 0 0 0
598 2 1.2305000000000001e+00 1.0656442593567498e+01 3.0030999999999288e+01 0 0 0
633 2 3.6914999999999996e+00 1.2077301606043163e+01 3.0030999999999288e+01 0 0 0
635 2 3.6914999999999996e+00 1.0656442593567499e+01 3.0030999999999288e+01 0 0 0
892 2 0.0000000000000000e+00 8.5251540748539991e+00 3.3369596108378261e+01 0 0 0
893 2 1.2305000000000001e+00 9.2355835810918343e+00 3.3369596108378261e+01 0 0 0
907 2 2.4610000000000003e+00 8.5251540748539991e+00 3.3369596108378261e+01 0 0 0
908 2 3.6915000000000004e+00 9.2355835810918343e+00 3.3369596108378261e+01 0 0 0
891 2 0.0000000000000000e+00 1.1366872099805333e+01 3.3369596108378261e+01 0 0 0
905 2 1.2305000000000001e+00 1.0656442593567498e+01 3.3369596108378261e+01 0 0 0
906 2 2.4610000000000003e+00 1.1366872099805333e+01 3.3369596108378261e+01 0 0 0
924 2 3.6914999999999996e+00 1.0656442593567499e+01 3.3369596108378261e+01 0 0 0
637 2 4.9220000000000006e+00 9.9460130873296642e+00 3.0030999999999288e+01 0 0 0
639 2 4.9220000000000006e+00 8.5251540748539991e+00 3.0030999999999288e+01 0 0 0
682 2 7.3830000000000009e+00 9.9460130873296642e+00 3.0030999999999288e+01 0 0 0
684 2 7.3830000000000009e+00 8.5251540748539991e+00 3.0030999999999288e+01 0 0 0
678 2 6.1524999999999999e+00 1.2077301606043163e+01 3.0030999999999288e+01 0 0 0
680 2 6.1524999999999999e+00 1.0656442593567499e+01 3.0030999999999288e+01 0 0 0
926 2 4.9220000000000006e+00 8.5251540748539991e+00 3.3369596108378261e+01 0 0 0
927 2 6.1524999999999999e+00 9.2355835810918343e+00 3.3369596108378261e+01 0 0 0
949 2 7.3830000000000009e+00 8.5251540748539991e+00 3.3369596108378261e+01 0 0 0
925 2 4.9220000000000006e+00 1.1366872099805333e+01 3.3369596108378261e+01 0 0 0
947 2 6.1524999999999999e+00 1.0656442593567499e+01 3.3369596108378261e+01 0 0 0
948 2 7.3829999999999991e+00 1.1366872099805333e+01 3.3369596108378261e+01 0 0 0
729 2 9.8440000000000012e+00 9.9460130873296642e+00 3.0030999999999288e+01 0 0 0
731 2 9.8440000000000012e+00 8.5251540748539956e+00 3.0030999999999288e+01 0 0 0
725 2 8.6135000000000002e+00 1.2077301606043163e+01 3.0030999999999288e+01 0 0 0
727 2 8.6134999999999984e+00 1.0656442593567498e+01 3.0030999999999288e+01 0 0 0
772 2 1.1074500000000002e+01 1.2077301606043163e+01 3.0030999999999288e+01 0 0 0
774 2 1.1074500000000002e+01 1.0656442593567498e+01 3.0030999999999288e+01 0 0 0
950 2 8.6134999999999984e+00 9.2355835810918343e+00 3.3369596108378261e+01 0 0 0
973 2 9.8440000000000012e+00 8.5251540748539956e+00 3.3369596108378261e+01 0 0 0
974 2 1.1074500000000002e+01 9.2355835810918343e+00 3.3369596108378261e+01 0 0 0
971 2 8.6134999999999984e+00 1.0656442593567498e+01 3.3369596108378261e+01 0 0 0
972 2 9.8440000000000012e+00 1.1366872099805333e+01 3.3369596108378261e+01 0 0 0
995 2 1.1074500000000002e+01 1.0656442593567498e+01 3.3369596108378261e+01 0 0 0
996 2 1.2304999999999998e+01 1.1366872099805333e+01 3.3369596108378261e+01 0 0 0
3125 1 2.0244860701416427e+00 4.0790783112910844e+00 3.5849532433788838e+01 -1 2 0
2015 1 6.6575884914342254e+00 3.9315462432933135e+00 3.5634791337910684e+01 -1 3 -1
4825 1 6.5632169399457592e+00 1.4345725702307215e+00 3.6687195471165495e+01 3 0 -1
548 1 1.0746081135656480e+01 1.1462650154176078e+01 4.2842949184574685e+01 -1 1 -1
6090 1 1.0939901184452133e+01 1.6758595841716339e+00 3.6762114278472914e+01 -1 0 0
4885 1 1.1081972054174853e+01 4.2364202270887024e+00 3.5771889406014608e+01 -1 0 0
1578 1 8.9305280730483911e+00 1.3530333581695353e-01 3.5863713207188454e+01 2 3 -1
546 1 4.3475321633127217e+00 7.9112532400092812e+00 3.5876502078449349e+01 1 5 -1
3286 1 4.4672032447581831e+00 5.0912114216926856e+00 3.6510691977550081e+01 1 -1 -1
4813 1 8.5767039106123431e+00 7.5529638165508350e+00 3.5642937189767665e+01 2 -1 -1
6303 1 1.8552368822945442e+00 1.1205481977290614e+01 3.5837730319913042e+01 1 2 -1
3376 1 1.8973642440561198e+00 8.6431465801245562e+00 3.6731288743433353e+01 -3 2 0
3302 1 6.3355575688362178e+00 1.1484230196589520e+01 4.3162406814370534e+01 2 1 0
4465 1 6.5235270262774501e+00 1.1078116254863586e+01 3.5543967894027020e+01 0 0 0
3287 1 6.5927732729631368e+00 8.8205837203829898e+00 3.7054110678597588e+01 2 -4 -1
5259 1 1.0839209061676803e+01 1.1633095731279155e+01 3.5654113404966274e+01 -4 4 -1
5256 1 1.0847356200811479e+01 9.0197630936330668e+00 3.6646406179105213e+01 -1 1 0
2856 1 2.3380517624462072e+00 1.5555819915373958e+00 3.6790580662874603e+01 -2 2 0
3460 1 2.0007264418108823e+00 1.1279469708152576e+00 3.9558890876330281e+01 1 -1 0
2965 1 1.9343880173306596e+00 1.1449999101761639e+01 4.3118477316245212e+01 1 1 0
6254 1 6.6574143051530985e+00 1.5369917879032426e+00 3.9630648655975627e+01 -1 1 0
3026 1 1.1491754234711983e+01 1.5881332012142459e+00 3.9349818560767346e+01 -2 0 -1
5119 1 1.0691061226734197e+01 1.1668914060586395e+01 4.0182530959275134e+01 -1 4 -1
3506 1 3.8263645963435922e+00 7.8621646168270969e+00 4.0372896720728342e+01 4 1 -1
4923 1 4.1016413710630859e+00 5.4350110841995605e+00 3.9270740496489388e+01 0 2 -1
6017 1 8.7271089995423790e+00 5.2763874461422278e+00 3.6724918833086178e+01 -3 3 0
4513 1 8.5252925757419504e+00 7.7674772554387834e+00 4.0506955233633285e+01 -2 -4 -1
1390 1 8.8654338271048783e+00 5.0975405507239842e+00 3.9676317088150689e+01 5 3 0
1698 1 1.5152038257713096e+00 8.8037227935003806e+00 3.9354181909192150e+01 2 0 -1
6046 1 1.7262325839881003e+00 1.1337016814324492e+01 4.0315965752963756e+01 -4 2 -1
356 1 6.4816225789649140e+00 1.1574637494060575e+01 4.0262056111201879e+01 -2 3 0
1693 1 6.2016695416173357e+00 9.0604200685135368e+00 3.9597686756895499e+01 7 2 -1
4523 1 1.0879083730620204e+01 9.0337364985788824e+00 3.9469922543532739e+01 -2 4 0
3654 1 1.9307338753006051e+00 3.7204576390965762e+00 4.0598828886627857e+01 0 2 0
1659 1 1.8576457831157611e+00 3.8335927837507398e+00 4.3302143399993206e+01 0 -5 -1
4520 1 6.4519276913683736e+00 3.8453448265488479e+00 4.3269119634333485e+01 3 -2 0
3260 1 6.2304583496223831e+00 4.2405400669732902e+00 4.0555949641073056e+01 4 2 0
4671 1 1.0964203596331027e+01 4.3402512952501393e+00 4.2987944759672260e+01 -3 -2 0
1297 1 4.2934673347524361e+00 7.7139890537312672e+00 4.3090849169435458e+01 -1 1 0
6307 1 1.1194428879013422e+01 4.1191105274915305e+00 4.0288777914769959e+01 0 -1 0
23 1 8.6168607186548307e+00 7.6860722649770974e+00 4.3102391315044038e+01 -3 -3 0
1830 1 8.8203248422038069e-02 1.0218476335936695e-01 3.6248926030344990e+01 -1 -1 -1
1443 1 9.0856923771233493e+00 5.0388196479078473e-01 4.0309801942176783e+01 -2 6 0
6218 1 4.4300691440514397e+00 2.3096877769714017e-01 4.0439362266611134e+01 2 5 0
4450 1 9.1386117097018804e+00 4.7199665834057286e-01 4.3094824927482009e+01 -4 2 0
2960 1 1.0792181354084107e-02 4.8710612145210659e+00 3.9611840718824425e+01 4 4 0
6144 1 4.4390762917640103e+00 2.8364984032225893e-01 4.3323201825147478e+01 2 1 -1
6162 1 4.4353197267585642e+00 2.2831214284033469e-01 3.5656739339010237e+01 1 -3 0
2145 1 1.0851879572349494e+01 8.9785035823053683e+00 4.3990242488435733e+01 0 -1 0
4739 1 1.1431591966186048e+01 1.7943751578047105e+00 4.3820483637773862e+01 -2 4 0
3270 1 2.2694553053094775e+00 1.1183467244566281e+00 4.7102656771422701e+01 1 -5 0
3527 1 9.4465929573789644e+00 6.1878125923823457e-01 4.7716440452012783e+01 -1 0 0
4838 1 6.9524986759326728e+00 1.3475186153600058e+00 4.6848907395182330e+01 0 -1 -1
3580 1 4.2565016694121303e+00 7.8353694429537111e+00 5.5105993469957454e+01 1 -3 0
4918 1 1.1782587056394503e+01 1.4612192478404404e+00 4.6353927512710413e+01 3 -1 -1
4682 1 2.1251818052366835e+00 1.3349332668900507e+00 4.4381458018832518e+01 2 1 -1
4461 1 4.4232413672531825e+00 4.8627631896726315e+00 4.6773517865141571e+01 -6 0 0
3442 1 9.2110551631782247e+00 6.6217311851330984e-01 5.7557313888424595e+01 -2 1 -1
5022 1 4.2848875768978587e+00 7.4890563837411559e+00 4.7953331994315661e+01 6 2 0
5007 1 8.9878358509542675e+00 5.1766019097671645e+00 4.6906558298319965e+01 0 -1 -1
1600 1 9.5748265883336749e+00 5.0524426795909450e-01 5.0234335232073896e+01 -4 5 0
2119 1 1.8989252075014331e+00 8.8879443606200148e+00 4.6977837229976615e+01 3 1 0
203 1 1.9602273766441867e+00 8.8082491582841396e+00 4.4308344125711798e+01 4 -2 -1
4590 1 6.5652255475743546e+00 8.7364537578757560e+00 4.6859523530945950e+01 -2 2 0