LAMMPS data file via write_data, version 16 Mar 2018, timestep = 100000

6328 atoms
2 atom types

0.0000000000000000e+00 4.9219999999999999e+01 xlo xhi
0.0000000000000000e+00 4.9019635930410494e+01 ylo yhi
3.6822461586133990e+00 5.6379753841388009e+01 zlo zhi

Masses

1 18.015
2 12.01

Atoms # atomic

216 1 6.7909050166330500e+00 2.7814859869140927e+00 6.5351705810887033e+00 0 2 0
6081 1 4.2617236294367506e+00 4.1361546811382359e+00 6.8309609667243318e+00 1 0 1
1339 1 2.1688321794609120e+00 1.9758167907009028e+00 7.1996227214573461e+00 1 0 1
6120 1 1.2371623437063872e+00 1.7557452886622706e+00 1.4577445872718595e+01 0 0 1
4778 1 8.7997772151831768e+00 1.1663056161852968e+01 1.4559435984647717e+01 0 0 0
1823 1 9.6829737128240101e+00 4.7330564877212433e+00 7.4023604515611705e+00 0 1 0
99 1 7.4390821824435855e+00 9.4260180144711858e-01 4.4994174915788054e+00 0 1 0
135 1 1.0272298673672996e+01 3.8932090029319871e-01 7.6495885065290690e+00 0 0 0
4701 1 8.0041796718526772e+00 1.0718516545650051e+01 1.2035636592539250e+01 1 1 1
1849 1 6.0341506796067899e+00 4.6097170945500449e-01 8.9330946775021864e+00 1 0 1
6144 1 8.3573591944982475e+00 4.9212695351507794e+00 4.8448174354073181e+00 1 0 0
3513 1 9.8149419951654355e+00 7.5719153420082330e+00 7.8804979479139945e+00 0 1 0
1681 1 6.6582741185512919e+00 1.2143543890180025e+01 1.5979270067843549e+01 -1 0 1
4968 1 8.6929461320525405e+00 2.3920848433995192e+00 8.6980534780014516e+00 1 0 0
466 1 5.7615066500621137e-01 9.8240906601837956e+00 7.6181850966660392e+00 1 1 0
5106 1 2.1963079970805524e+00 1.1983701239934391e+01 7.2371682364188477e+00 1 0 0
119 1 1.7877570447177462e+00 7.4021349442814151e+00 7.8248412342075602e+00 0 1 0
3227 1 6.1259790365836047e+00 9.5801704089148974e+00 6.4502538276785613e+00 0 0 1
1309 1 8.3973717051741765e+00 1.0437104411299625e+01 4.5677991272918028e+00 0 0 1
4677 1 1.1854640723912018e+01 8.0063110869020129e+00 1.3534809490643827e+01 0 0 1
139 1 1.0790989356268549e+01 8.6120981206685610e+00 5.0141870741839369e+00 1 0 1
1535 1 2.3589891532649943e+00 3.4419995823686831e+00 4.3043479674137135e+00 1 1 0
3078 1 4.8531557883129519e+00 3.1414274687983212e+00 9.4024327645427075e+00 0 0 1
6189 1 4.9366685146308242e+00 1.1697848069530025e+01 8.4600868584113016e+00 0 1 1
3329 1 5.4032986262127363e+00 1.1294919373813670e+01 1.2879509287507961e+01 0 0 0
2024 1 7.4352452981313384e+00 3.2862588500115839e+00 1.0761753221762746e+01 1 1 0
3047 1 1.0022222114265032e+01 2.5093577625189472e+00 1.1940830286534736e+01 0 0 1
3537 1 1.2002988337284654e+01 2.6250647461422312e+00 9.5120638627281409e+00 1 1 0
1514 1 2.7870188719693210e+00 6.1867727596328077e+00 5.3555729247029600e+00 1 2 1
4594 1 2.8219772543944637e+00 4.1601519249058461e+00 1.0974024042118135e+01 0 1 0
2819 1 4.6536772518113487e+00 6.4965513186289732e+00 1.1326437180128689e+01 0 0 1
1645 1 7.3678852266898227e+00 6.1421240957805914e+00 1.0861603479043653e+01 -1 0 1
4871 1 1.0320929535170306e+01 3.7642577860806303e-01 4.7806979930751972e+00 0 1 1
1924 1 1.0888761508769580e+01 7.2149073477111516e+00 1.0451880491301450e+01 0 1 1
2075 1 8.0759354106427383e-01 1.0644061326914960e+01 1.0152537154408444e+01 1 0 1
1837 1 3.6419194004068509e+00 1.0518476014583008e+01 1.0774208531368208e+01 1 1 0
1683 1 4.1430568184961780e+00 8.4541550877783607e+00 9.0174276550183876e+00 0 0 0
1928 1 1.8832441571328937e+00 8.8279914879919961e+00 1.3689248497256946e+01 2 0 0
1468 1 6.9678972172006883e+00 7.5162839349508550e+00 8.5078679190683850e+00 0 1 1
6143 1 7.4635267586076024e+00 1.0635970651009652e+01 9.3136139110745955e+00 1 0 0
1354 1 1.0164513052962448e+01 1.0850776666327986e+01 7.9436456929061805e+00 0 0 1
2822 1 4.5831762534116089e+00 8.1815234585997914e+00 4.4166046853887808e+00 1 -1 0
1956 1 1.2207366380966130e+01 4.9600476712365120e+00 1.3285997470570416e+01 0 0 0
3018 1 4.6076346400644876e+00 8.3672132525548992e+00 1.3340388232302901e+01 0 1 0
3722 1 2.7585433309111811e+00 3.9203302210730406e+00 1.3702941137345626e+01 1 0 0
3608 1 1.0710313911071951e+01 1.0532096206827697e+01 1.0715172022526524e+01 0 0 0
3051 1 2.0529346371567474e+00 6.2948115734862373e+00 1.4695600352928016e+01 0 1 1
1925 1 7.5680678737165001e+00 4.1466895268001993e+00 1.3772067145595830e+01 1 0 0
1399 1 5.0539780487776582e+00 2.7304644245183192e+00 1.4739174121452784e+01 0 0 1
5219 1 1.0614106853692295e+01 9.6305611862204028e+00 1.5470583802643219e+01 -1 -1 0
4940 1 1.0067925109768190e+01 2.7812787933312109e+00 1.5061447131753335e+01 1 0 0
4955 1 8.0737860735373719e+00 7.2190431751967132e+00 1.4891806307372333e+01 0 0 1
4913 1 5.4901974115251084e+00 6.1647405878843768e+00 1.5031514776566816e+01 0 1 0
3256 1 1.0919676174691237e+00 1.0857800169535844e+01 1.5276253577760881e+01 0 1 1
4685 1 8.7642482535583550e+00 8.3125150168132880e+00 1.2544074818245447e+01 0 0 1
1395 1 1.1113200193303530e+00 5.9807669228444045e+00 1.0115861201498328e+01 0 0 1
4966 1 5.9196521830791271e+00 5.6860841222714775e+00 3.9534311380404707e+00 0 1 1
6060 1 2.1427537667229890e+00 1.0376939540204058e+01 4.5615223136456988e+00 0 0 1
3610 1 7.3470066004944101e-02 8.0923146209200016e+00 1.1882861260577233e+01 -1 0 0
3297 1 1.1822552466021746e+01 3.9842442648486620e+00 5.8671954533770112e+00 2 2 1
5118 1 5.3261116192449007e+00 2.2656158630330506e-01 1.3714888884760748e+01 1 0 0
4686 1 7.1206687326872486e-01 7.9933044590362359e+00 4.0301677541738128e+00 -1 0 0
1288 1 9.8752403597818574e+00 2.6172673862816964e-02 1.5674997543063151e+01 -1 0 1
1921 1 3.8846912622646230e+00 6.5393455194704746e+00 1.7280905432845874e+01 1 0 0
775 2 1.2304999999999998e+01 1.1366872099805333e+01 2.6886268121477144e+01 0 0 0
1691 1 8.9276772490483047e+00 8.4832394269853477e+00 1.7239072356840943e+01 0 0 0
4741 1 2.7052776376535066e+00 1.0640013987017072e+00 1.7643676223175266e+01 1 0 0
2883 1 5.7210858150156572e+00 1.4925700031229256e+00 2.0751371682667838e+01 1 0 0
5075 1 8.9490121905690643e+00 2.2875694753639246e+00 1.7966608022763495e+01 0 -1 0
3055 1 8.1908679942619766e+00 4.8001448433186535e+00 1.9363556767287037e+01 0 0 0
4744 1 1.9355101740480665e+00 1.0358269812031986e+00 2.4398101629229249e+01 1 0 1
6000 1 2.1679422037380118e+00 7.1908008850128038e+00 2.0532819237919021e+01 -1 0 1
5984 1 3.9287707933060583e+00 3.2141259199209906e+00 2.0943418649009114e+01 0 0 0
3438 1 1.0923888470019323e+00 7.1302027757381108e+00 1.7733246957377411e+01 1 1 0
3196 1 5.2877753554089413e+00 5.0325571829932594e+00 1.9078768021628207e+01 1 1 0
1254 1 5.5239933280252087e+00 5.6082543647927583e+00 2.3705329686228257e+01 0 0 0
1877 1 4.9291883535395140e+00 6.4858581351055911e-01 2.3702893215864737e+01 0 1 0
726 2 8.6134999999999984e+00 1.0656442593567498e+01 2.6886268121477144e+01 0 0 0
3584 1 8.1152770715461546e+00 2.6910404973515321e+00 2.1275532485153800e+01 -1 0 1
5026 1 3.1561439156179318e+00 1.1216320649138510e+01 1.9406284870919102e+01 1 0 1
3370 1 7.7063259452476656e+00 1.0926092060741485e+01 2.0194141115496144e+01 0 -1 0
3594 1 9.8606487161967582e+00 2.6861838227329426e-01 2.1466871530808369e+01 1 1 0
3007 1 4.7737860938169057e+00 8.7780041383023217e+00 1.8827666405911227e+01 0 2 1
2042 1 1.0362220100067553e+01 9.1853751026709851e+00 1.9668691256783791e+01 0 0 1
6041 1 1.1747353446137467e+01 5.8534246839959234e+00 1.9847529597023431e+01 1 -1 1
732 2 1.1074500000000002e+01 9.2355835810918343e+00 2.6886268121477144e+01 0 0 0
2026 1 1.7348390139667680e+00 5.4500974599947991e+00 2.4442715148139346e+01 1 1 1
292 1 1.4258476463511200e+00 2.6818380766643499e+00 1.9729062730403527e+01 1 0 0
3244 1 3.6946903659440022e+00 3.4567299129322544e+00 2.3887353933408288e+01 1 -1 0
3121 1 7.7973770524728030e+00 3.8336936825470107e+00 2.3881443429818688e+01 0 1 0
1388 1 7.4419866962168628e+00 1.3904163058536432e+00 2.4719900875140901e+01 0 0 1
3344 1 1.3924648775892010e+00 9.9289833833894825e+00 2.1443702629399006e+01 2 1 0
4948 1 6.8342014166461222e+00 9.9497948357212103e+00 1.7529700078669343e+01 1 0 0
3251 1 1.0210895806784704e+01 5.1663005010484877e+00 2.4472530136034031e+01 1 1 1
310 1 1.0147170353404970e+01 5.6958358916554088e+00 1.7216923625378790e+01 0 1 1
432 1 3.3101069009799930e+00 7.9947189202539644e+00 2.3531683798153470e+01 0 1 0
31 1 5.1074839306446833e+00 6.8425682188964263e+00 2.1215785069846980e+01 0 0 0
2827 1 5.9125557809803286e+00 9.1096380786772002e+00 2.4430674269053767e+01 1 1 0
3409 1 1.0877424950569011e+01 7.7956137731758810e+00 2.4328263341691017e+01 1 0 0
1502 1 9.2528306874394115e+00 6.4006841888619892e+00 2.1687613255254686e+01 0 -1 0
728 2 9.8440000000000012e+00 1.1366872099805333e+01 2.6886268121477144e+01 0 0 0
3354 1 1.0154062347790733e+00 1.0213432669889773e+01 2.4129798168032423e+01 0 0 0
149 1 4.9876489029088473e+00 2.5435740534361027e+00 1.7413218006838385e+01 2 0 0
685 2 8.6134999999999984e+00 9.2355835810918343e+00 2.6886268121477144e+01 0 0 0
6255 1 5.3160014599296606e+00 1.1715325641708089e+01 2.4119582282175351e+01 1 0 1
773 2 1.1074500000000002e+01 1.0656442593567498e+01 2.6886268121477144e+01 0 0 0
177 1 8.9707105850855484e+00 9.6248161033960642e+00 2.4447175681441237e+01 1 -1 1
1473 1 5.3690675917920858e+00 1.2052512427730495e+01 2.1057211975050581e+01 0 1 1
198 1 7.7433747672842399e+00 8.7378917512956846e+00 2.1912212116141870e+01 1 0 0
552 2 0.0000000000000000e+00 2.8417180249513345e+00 2.6886268121477144e+01 0 0 0
554 2 0.0000000000000000e+00 0.0000000000000000e+00 2.6886268121477144e+01 0 0 0
556 2 1.2305000000000001e+00 7.1042950623783474e-01 2.6886268121477144e+01 0 0 0
563 2 1.2305000000000001e+00 2.1312885187134998e+00 2.6886268121477144e+01 0 0 0
565 2 2.4610000000000003e+00 2.8417180249513345e+00 2.6886268121477144e+01 0 0 0
567 2 2.4610000000000003e+00 0.0000000000000000e+00 2.6886268121477144e+01 0 0 0
569 2 3.6915000000000004e+00 7.1042950623783474e-01 2.6886268121477144e+01 0 0 0
584 2 3.6914999999999996e+00 2.1312885187134998e+00 2.6886268121477144e+01 0 0 0
586 2 4.9220000000000006e+00 2.8417180249513332e+00 2.6886268121477144e+01 0 0 0
588 2 4.9220000000000006e+00 0.0000000000000000e+00 2.6886268121477144e+01 0 0 0
590 2 6.1524999999999999e+00 7.1042950623783407e-01 2.6886268121477144e+01 0 0 0
613 2 6.1524999999999999e+00 2.1312885187134989e+00 2.6886268121477144e+01 0 0 0
615 2 7.3829999999999991e+00 2.8417180249513345e+00 2.6886268121477144e+01 0 0 0
617 2 7.3829999999999991e+00 0.0000000000000000e+00 2.6886268121477144e+01 0 0 0
619 2 8.6134999999999984e+00 7.1042950623783407e-01 2.6886268121477144e+01 0 0 0
650 2 8.6134999999999984e+00 2.1312885187135002e+00 2.6886268121477144e+01 0 0 0
652 2 9.8440000000000012e+00 2.8417180249513332e+00 2.6886268121477144e+01 0 0 0
654 2 9.8440000000000012e+00 0.0000000000000000e+00 2.6886268121477144e+01 0 0 0
656 2 1.1074500000000002e+01 7.1042950623783330e-01 2.6886268121477144e+01 0 0 0
695 2 1.1074500000000002e+01 2.1312885187135002e+00 2.6886268121477144e+01 0 0 0
559 2 0.0000000000000000e+00 4.2625770374269996e+00 2.6886268121477144e+01 0 0 0
561 2 1.2305000000000001e+00 4.9730065436648339e+00 2.6886268121477144e+01 0 0 0
576 2 1.2305000000000001e+00 6.3938655561404980e+00 2.6886268121477144e+01 0 0 0
580 2 2.4610000000000003e+00 4.2625770374269996e+00 2.6886268121477144e+01 0 0 0
582 2 3.6914999999999996e+00 4.9730065436648339e+00 2.6886268121477144e+01 0 0 0
605 2 3.6914999999999996e+00 6.3938655561404980e+00 2.6886268121477144e+01 0 0 0
557 2 0.0000000000000000e+00 7.1042950623783341e+00 2.6886268121477144e+01 0 0 0
578 2 2.4610000000000003e+00 7.1042950623783341e+00 2.6886268121477144e+01 0 0 0
609 2 4.9220000000000006e+00 4.2625770374269978e+00 2.6886268121477144e+01 0 0 0
611 2 6.1524999999999999e+00 4.9730065436648339e+00 2.6886268121477144e+01 0 0 0
642 2 6.1524999999999999e+00 6.3938655561404980e+00 2.6886268121477144e+01 0 0 0
646 2 7.3829999999999991e+00 4.2625770374269996e+00 2.6886268121477144e+01 0 0 0
607 2 4.9220000000000006e+00 7.1042950623783341e+00 2.6886268121477144e+01 0 0 0
644 2 7.3830000000000009e+00 7.1042950623783341e+00 2.6886268121477144e+01 0 0 0
648 2 8.6135000000000002e+00 4.9730065436648339e+00 2.6886268121477144e+01 0 0 0
687 2 8.6135000000000002e+00 6.3938655561404980e+00 2.6886268121477144e+01 0 0 0
691 2 9.8440000000000012e+00 4.2625770374270004e+00 2.6886268121477144e+01 0 0 0
693 2 1.1074500000000002e+01 4.9730065436648339e+00 2.6886268121477144e+01 0 0 0
734 2 1.1074500000000002e+01 6.3938655561404980e+00 2.6886268121477144e+01 0 0 0
689 2 9.8440000000000012e+00 7.1042950623783341e+00 2.6886268121477144e+01 0 0 0
572 2 0.0000000000000000e+00 8.5251540748539991e+00 2.6886268121477144e+01 0 0 0
574 2 1.2305000000000001e+00 9.2355835810918343e+00 2.6886268121477144e+01 0 0 0
601 2 2.4610000000000003e+00 8.5251540748539991e+00 2.6886268121477144e+01 0 0 0
603 2 3.6915000000000004e+00 9.2355835810918343e+00 2.6886268121477144e+01 0 0 0
570 2 0.0000000000000000e+00 1.1366872099805333e+01 2.6886268121477144e+01 0 0 0
597 2 1.2305000000000001e+00 1.0656442593567498e+01 2.6886268121477144e+01 0 0 0
599 2 2.4610000000000003e+00 1.1366872099805333e+01 2.6886268121477144e+01 0 0 0
634 2 3.6914999999999996e+00 1.0656442593567499e+01 2.6886268121477144e+01 0 0 0
681 2 7.3829999999999991e+00 1.1366872099805333e+01 2.6886268121477144e+01 0 0 0
640 2 6.1524999999999999e+00 9.2355835810918343e+00 2.6886268121477144e+01 0 0 0
679 2 6.1524999999999999e+00 1.0656442593567499e+01 2.6886268121477144e+01 0 0 0
636 2 4.9220000000000006e+00 1.1366872099805333e+01 2.6886268121477144e+01 0 0 0
638 2 4.9220000000000006e+00 8.5251540748539991e+00 2.6886268121477144e+01 0 0 0
683 2 7.3830000000000009e+00 8.5251540748539991e+00 2.6886268121477144e+01 0 0 0
730 2 9.8440000000000012e+00 8.5251540748539956e+00 2.6886268121477144e+01 0 0 0
3125 1 1.1099296871366848e+01 5.8412745695527091e-01 1.8547876799471027e+01 -1 1 1
3124 1 1.1929382982992786e+01 8.1078688823453966e+00 2.1595928951940706e+01 0 1 1
3199 1 8.5219822922012667e-01 5.0628707217644173e+00 2.1774344920975160e+01 0 -1 1
427 1 6.8148735358670152e+00 6.7965970691122302e-01 1.8135251615986991e+01 1 -1 0
6058 1 9.9004137831984327e+00 3.8763269955756297e-01 2.4346423892396995e+01 1 1 1
1432 1 1.2976999561175831e-01 4.6775645819801106e+00 1.8058229770384688e+01 0 0 0
4821 1 9.7076431442780216e+00 1.2204524596615677e+01 2.3528874652410590e+01 1 1 1
2028 1 1.2118350390798236e+01 1.2100470675808927e+01 1.9383109528992620e+01 0 0 0
553 2 0.0000000000000000e+00 1.4208590124756650e+00 3.0031000000000770e+01 0 0 0
555 2 0.0000000000000000e+00 0.0000000000000000e+00 3.0031000000000770e+01 0 0 0
564 2 1.2305000000000001e+00 2.1312885187134998e+00 3.0031000000000770e+01 0 0 0
566 2 2.4610000000000003e+00 1.4208590124756650e+00 3.0031000000000770e+01 0 0 0
568 2 2.4610000000000003e+00 0.0000000000000000e+00 3.0031000000000770e+01 0 0 0
585 2 3.6914999999999996e+00 2.1312885187134998e+00 3.0031000000000770e+01 0 0 0
562 2 1.2305000000000001e+00 3.5521475311891644e+00 3.0031000000000770e+01 0 0 0
583 2 3.6914999999999996e+00 3.5521475311891644e+00 3.0031000000000770e+01 0 0 0
881 2 0.0000000000000000e+00 2.8417180249513345e+00 3.3175731878522626e+01 0 0 0
882 2 0.0000000000000000e+00 0.0000000000000000e+00 3.3175731878522626e+01 0 0 0
883 2 1.2305000000000001e+00 7.1042950623783474e-01 3.3175731878522626e+01 0 0 0
887 2 1.2305000000000001e+00 2.1312885187134998e+00 3.3175731878522626e+01 0 0 0
888 2 2.4610000000000003e+00 2.8417180249513345e+00 3.3175731878522626e+01 0 0 0
889 2 2.4610000000000003e+00 0.0000000000000000e+00 3.3175731878522626e+01 0 0 0
890 2 3.6915000000000004e+00 7.1042950623783474e-01 3.3175731878522626e+01 0 0 0
898 2 3.6914999999999996e+00 2.1312885187134998e+00 3.3175731878522626e+01 0 0 0
587 2 4.9220000000000006e+00 1.4208590124756650e+00 3.0031000000000770e+01 0 0 0
589 2 4.9220000000000006e+00 0.0000000000000000e+00 3.0031000000000770e+01 0 0 0
614 2 6.1524999999999999e+00 2.1312885187134989e+00 3.0031000000000770e+01 0 0 0
616 2 7.3829999999999991e+00 1.4208590124756659e+00 3.0031000000000770e+01 0 0 0
618 2 7.3829999999999991e+00 0.0000000000000000e+00 3.0031000000000770e+01 0 0 0
612 2 6.1524999999999999e+00 3.5521475311891644e+00 3.0031000000000770e+01 0 0 0
899 2 4.9220000000000006e+00 2.8417180249513332e+00 3.3175731878522626e+01 0 0 0
900 2 4.9220000000000006e+00 0.0000000000000000e+00 3.3175731878522626e+01 0 0 0
901 2 6.1524999999999999e+00 7.1042950623783407e-01 3.3175731878522626e+01 0 0 0
913 2 6.1524999999999999e+00 2.1312885187134989e+00 3.3175731878522626e+01 0 0 0
914 2 7.3829999999999991e+00 2.8417180249513345e+00 3.3175731878522626e+01 0 0 0
915 2 7.3829999999999991e+00 0.0000000000000000e+00 3.3175731878522626e+01 0 0 0
651 2 8.6134999999999984e+00 2.1312885187135002e+00 3.0031000000000770e+01 0 0 0
653 2 9.8440000000000012e+00 1.4208590124756659e+00 3.0031000000000770e+01 0 0 0
655 2 9.8440000000000012e+00 0.0000000000000000e+00 3.0031000000000770e+01 0 0 0
696 2 1.1074500000000002e+01 2.1312885187135002e+00 3.0031000000000770e+01 0 0 0
649 2 8.6134999999999984e+00 3.5521475311891657e+00 3.0031000000000770e+01 0 0 0
694 2 1.1074500000000002e+01 3.5521475311891644e+00 3.0031000000000770e+01 0 0 0
916 2 8.6134999999999984e+00 7.1042950623783407e-01 3.3175731878522626e+01 0 0 0
932 2 8.6134999999999984e+00 2.1312885187135002e+00 3.3175731878522626e+01 0 0 0
933 2 9.8440000000000012e+00 2.8417180249513332e+00 3.3175731878522626e+01 0 0 0
934 2 9.8440000000000012e+00 0.0000000000000000e+00 3.3175731878522626e+01 0 0 0
935 2 1.1074500000000002e+01 7.1042950623783330e-01 3.3175731878522626e+01 0 0 0
955 2 1.1074500000000002e+01 2.1312885187135002e+00 3.3175731878522626e+01 0 0 0
558 2 0.0000000000000000e+00 5.6834360499026637e+00 3.0031000000000770e+01 0 0 0
560 2 0.0000000000000000e+00 4.2625770374269996e+00 3.0031000000000770e+01 0 0 0
577 2 1.2305000000000001e+00 6.3938655561404980e+00 3.0031000000000770e+01 0 0 0
579 2 2.4610000000000003e+00 5.6834360499026637e+00 3.0031000000000770e+01 0 0 0
581 2 2.4610000000000003e+00 4.2625770374269996e+00 3.0031000000000770e+01 0 0 0
606 2 3.6914999999999996e+00 6.3938655561404980e+00 3.0031000000000770e+01 0 0 0
575 2 1.2305000000000001e+00 7.8147245686161639e+00 3.0031000000000770e+01 0 0 0
604 2 3.6914999999999996e+00 7.8147245686161639e+00 3.0031000000000770e+01 0 0 0
885 2 0.0000000000000000e+00 4.2625770374269996e+00 3.3175731878522626e+01 0 0 0
886 2 1.2305000000000001e+00 4.9730065436648339e+00 3.3175731878522626e+01 0 0 0
894 2 1.2305000000000001e+00 6.3938655561404980e+00 3.3175731878522626e+01 0 0 0
896 2 2.4610000000000003e+00 4.2625770374269996e+00 3.3175731878522626e+01 0 0 0
897 2 3.6914999999999996e+00 4.9730065436648339e+00 3.3175731878522626e+01 0 0 0
909 2 3.6914999999999996e+00 6.3938655561404980e+00 3.3175731878522626e+01 0 0 0
884 2 0.0000000000000000e+00 7.1042950623783341e+00 3.3175731878522626e+01 0 0 0
895 2 2.4610000000000003e+00 7.1042950623783341e+00 3.3175731878522626e+01 0 0 0
608 2 4.9220000000000006e+00 5.6834360499026637e+00 3.0031000000000770e+01 0 0 0
610 2 4.9220000000000006e+00 4.2625770374269978e+00 3.0031000000000770e+01 0 0 0
643 2 6.1524999999999999e+00 6.3938655561404980e+00 3.0031000000000770e+01 0 0 0
645 2 7.3829999999999991e+00 5.6834360499026637e+00 3.0031000000000770e+01 0 0 0
647 2 7.3829999999999991e+00 4.2625770374269996e+00 3.0031000000000770e+01 0 0 0
641 2 6.1524999999999999e+00 7.8147245686161639e+00 3.0031000000000770e+01 0 0 0
911 2 4.9220000000000006e+00 4.2625770374269978e+00 3.3175731878522626e+01 0 0 0
912 2 6.1524999999999999e+00 4.9730065436648339e+00 3.3175731878522626e+01 0 0 0
928 2 6.1524999999999999e+00 6.3938655561404980e+00 3.3175731878522626e+01 0 0 0
930 2 7.3829999999999991e+00 4.2625770374269996e+00 3.3175731878522626e+01 0 0 0
910 2 4.9220000000000006e+00 7.1042950623783341e+00 3.3175731878522626e+01 0 0 0
929 2 7.3830000000000009e+00 7.1042950623783341e+00 3.3175731878522626e+01 0 0 0
688 2 8.6135000000000002e+00 6.3938655561404980e+00 3.0031000000000770e+01 0 0 0
690 2 9.8440000000000012e+00 5.6834360499026637e+00 3.0031000000000770e+01 0 0 0
692 2 9.8440000000000012e+00 4.2625770374270004e+00 3.0031000000000770e+01 0 0 0
735 2 1.1074500000000002e+01 6.3938655561404980e+00 3.0031000000000770e+01 0 0 0
686 2 8.6135000000000002e+00 7.8147245686161639e+00 3.0031000000000770e+01 0 0 0
733 2 1.1074500000000002e+01 7.8147245686161639e+00 3.0031000000000770e+01 0 0 0
931 2 8.6135000000000002e+00 4.9730065436648339e+00 3.3175731878522626e+01 0 0 0
951 2 8.6135000000000002e+00 6.3938655561404980e+00 3.3175731878522626e+01 0 0 0
953 2 9.8440000000000012e+00 4.2625770374270004e+00 3.3175731878522626e+01 0 0 0
954 2 1.1074500000000002e+01 4.9730065436648339e+00 3.3175731878522626e+01 0 0 0
975 2 1.1074500000000002e+01 6.3938655561404980e+00 3.3175731878522626e+01 0 0 0
952 2 9.8440000000000012e+00 7.1042950623783341e+00 3.3175731878522626e+01 0 0 0
571 2 0.0000000000000000e+00 9.9460130873296642e+00 3.0031000000000770e+01 0 0 0
573 2 0.0000000000000000e+00 8.5251540748539991e+00 3.0031000000000770e+01 0 0 0
600 2 2.4610000000000003e+00 9.9460130873296642e+00 3.0031000000000770e+01 0 0 0
602 2 2.4610000000000003e+00 8.5251540748539991e+00 3.0031000000000770e+01 0 0 0
596 2 1.2305000000000001e+00 1.2077301606043163e+01 3.0031000000000770e+01 0 0 0
598 2 1.2305000000000001e+00 1.0656442593567498e+01 3.0031000000000770e+01 0 0 0
633 2 3.6914999999999996e+00 1.2077301606043163e+01 3.0031000000000770e+01 0 0 0
635 2 3.6914999999999996e+00 1.0656442593567499e+01 3.0031000000000770e+01 0 0 0
892 2 0.0000000000000000e+00 8.5251540748539991e+00 3.3175731878522626e+01 0 0 0
893 2 1.2305000000000001e+00 9.2355835810918343e+00 3.3175731878522626e+01 0 0 0
907 2 2.4610000000000003e+00 8.5251540748539991e+00 3.3175731878522626e+01 0 0 0
908 2 3.6915000000000004e+00 9.2355835810918343e+00 3.3175731878522626e+01 0 0 0
891 2 0.0000000000000000e+00 1.1366872099805333e+01 3.3175731878522626e+01 0 0 0
905 2 1.2305000000000001e+00 1.0656442593567498e+01 3.3175731878522626e+01 0 0 0
906 2 2.4610000000000003e+00 1.1366872099805333e+01 3.3175731878522626e+01 0 0 0
924 2 3.6914999999999996e+00 1.0656442593567499e+01 3.3175731878522626e+01 0 0 0
637 2 4.9220000000000006e+00 9.9460130873296642e+00 3.0031000000000770e+01 0 0 0
639 2 4.9220000000000006e+00 8.5251540748539991e+00 3.0031000000000770e+01 0 0 0
682 2 7.3830000000000009e+00 9.9460130873296642e+00 3.0031000000000770e+01 0 0 0
684 2 7.3830000000000009e+00 8.5251540748539991e+00 3.0031000000000770e+01 0 0 0
678 2 6.1524999999999999e+00 1.2077301606043163e+01 3.0031000000000770e+01 0 0 0
680 2 6.1524999999999999e+00 1.0656442593567499e+01 3.0031000000000770e+01 0 0 0
926 2 4.9220000000000006e+00 8.5251540748539991e+00 3.3175731878522626e+01 0 0 0
927 2 6.1524999999999999e+00 9.2355835810918343e+00 3.3175731878522626e+01 0 0 0
949 2 7.3830000000000009e+00 8.5251540748539991e+00 3.3175731878522626e+01 0 0 0
925 2 4.9220000000000006e+00 1.1366872099805333e+01 3.3175731878522626e+01 0 0 0
947 2 6.1524999999999999e+00 1.0656442593567499e+01 3.3175731878522626e+01 0 0 0
948 2 7.3829999999999991e+00 1.1366872099805333e+01 3.3175731878522626e+01 0 0 0
729 2 9.8440000000000012e+00 9.9460130873296642e+00 3.0031000000000770e+01 0 0 0
731 2 9.8440000000000012e+00 8.5251540748539956e+00 3.0031000000000770e+01 0 0 0
725 2 8.6135000000000002e+00 1.2077301606043163e+01 3.0031000000000770e+01 0 0 0
727 2 8.6134999999999984e+00 1.0656442593567498e+01 3.0031000000000770e+01 0 0 0
772 2 1.1074500000000002e+01 1.2077301606043163e+01 3.0031000000000770e+01 0 0 0
774 2 1.1074500000000002e+01 1.0656442593567498e+01 3.0031000000000770e+01 0 0 0
950 2 8.6134999999999984e+00 9.2355835810918343e+00 3.3175731878522626e+01 0 0 0
973 2 9.8440000000000012e+00 8.5251540748539956e+00 3.3175731878522626e+01 0 0 0
974 2 1.1074500000000002e+01 9.2355835810918343e+00 3.3175731878522626e+01 0 0 0
971 2 8.6134999999999984e+00 1.0656442593567498e+01 3.3175731878522626e+01 0 0 0
972 2 9.8440000000000012e+00 1.1366872099805333e+01 3.3175731878522626e+01 0 0 0
995 2 1.1074500000000002e+01 1.0656442593567498e+01 3.3175731878522626e+01 0 0 0
996 2 1.2304999999999998e+01 1.1366872099805333e+01 3.3175731878522626e+01 0 0 0
6075 1 1.1086954230951276e+01 1.1795429940228896e+01 4.1991705975980423e+01 0 0 0
168 1 1.1887297377446474e+01 7.2213865183235013e+00 3.8540116427921831e+01 0 1 0
4457 1 1.4502332118097144e-01 8.7312335425633520e+00 4.0433148363190057e+01 0 0 0
2054 1 5.4363400372211501e+00 1.6788969892321557e+00 3.6014043389437305e+01 0 0 0
4797 1 5.3789332130479641e+00 6.1757543359982225e+00 4.1605291222729193e+01 0 0 -1
3095 1 9.9849907884982816e+00 1.4369508209443709e+00 3.6057788105752323e+01 0 1 -1
3603 1 1.1484212822987459e+01 4.1201527764828647e+00 3.9385827824848576e+01 0 1 0
5066 1 2.4066560007585500e+00 4.3040250738843557e+00 3.5783556607749304e+01 1 1 -1
3540 1 1.0876864748041613e+00 5.2695583260119960e+00 4.0573154311175500e+01 1 1 -1
4723 1 2.4325313850890233e+00 1.3293179556203321e+00 3.5832427251153703e+01 0 1 0
3248 1 6.0172839703327261e+00 4.2971146953154618e+00 3.7036006298806925e+01 1 1 -1
3110 1 9.5224848816159469e+00 6.9536301405651715e+00 3.5371945702918950e+01 0 -1 -1
3027 1 1.2761596888422768e+00 2.4054403842900274e+00 4.1264986569879184e+01 1 1 -1
3066 1 9.2021805380879957e+00 7.3761230030757172e+00 4.1736730163549453e+01 1 1 0
4859 1 2.9227353882789511e+00 1.0179160485059054e+01 3.8012772348975076e+01 0 1 -1
277 1 1.4834774355120421e+00 7.3766405185189861e+00 3.8393294406960493e+01 0 1 -1
5112 1 4.1251428138429791e+00 8.1839909532173909e+00 3.5478818162985220e+01 1 1 -1
3700 1 4.9215805127454511e+00 1.0834531844092556e+01 3.6027497167560483e+01 1 0 0
1282 1 9.1008315006688534e+00 9.6953623255914252e+00 4.0244083466510077e+01 0 0 0
3274 1 3.7968512064183919e+00 6.0796832805410288e+00 3.7643456055323767e+01 1 -1 0
3346 1 6.8036943576015876e+00 6.7197903913276162e+00 3.5640087051008706e+01 1 0 -1
1350 1 7.6221443955931258e+00 9.7783456656271941e+00 3.5839737564360618e+01 0 -2 -1
3270 1 1.1169135666680276e+01 9.9903429261918912e+00 3.8440423245798684e+01 1 0 0
3655 1 9.1665194407527810e+00 6.7641894524904105e+00 3.8356179400795938e+01 0 1 0
298 1 1.0408553667984226e+01 1.0032864478222116e+01 3.5821166317853411e+01 0 1 -1
2142 1 3.2355949274553817e+00 1.4776209375626284e+00 3.8498364733710204e+01 1 0 0
336 1 1.3185539819955283e-01 6.2440190750602031e+00 4.3004307467259537e+01 -1 0 -1
4629 1 3.2148168136714226e+00 4.9006347174331273e+00 4.2862446238535526e+01 -1 0 0
4584 1 1.2766671400587586e+00 1.0513771139016857e+01 3.5861006875251718e+01 1 0 0
2988 1 6.0623271382484294e+00 9.2321391786601625e-01 4.1429781419274775e+01 -1 1 0
1259 1 1.0172057439104288e+01 1.8478133959768195e+00 3.8977937843529475e+01 0 1 0
6063 1 7.3300214684931051e+00 1.1515815028683718e+01 4.1592591816582640e+01 0 1 0
5989 1 7.3721591115559155e+00 8.8206693147271533e+00 3.8277671973808935e+01 0 0 0
2847 1 3.7775288183353437e+00 3.9908374858790618e+00 3.9489570665946388e+01 1 1 0
6032 1 8.2696050948161393e+00 4.4694556496259548e+00 4.2941694570805254e+01 1 0 0
338 1 5.2031058390420002e+00 9.8246525659631558e+00 4.1741775870207334e+01 0 0 0
3352 1 8.0547048742131580e+00 4.1619290728988245e+00 3.8767286223921460e+01 1 2 -1
6291 1 6.3855300464433906e+00 3.5928826049788363e+00 4.1002763901712200e+01 1 0 0
217 1 9.6013061750904316e-01 7.6727125534207374e+00 3.5659470010596941e+01 0 1 0
3052 1 1.0843032009617760e+01 4.8709290306867015e+00 4.1793513472473478e+01 0 0 0
186 1 4.9358769936962288e+00 8.3522504946472527e+00 3.9229124706055075e+01 0 1 -1
6245 1 2.3844873577694585e+00 8.2172650979570570e+00 4.1855997614773827e+01 1 0 -1
6237 1 2.6247402726962394e+00 1.1651864617556280e+01 4.0529025952673734e+01 1 1 -1
5004 1 3.6608645060749052e+00 1.9674300565137690e+00 4.2708323060739588e+01 1 0 -1
1743 1 3.5897242551631514e+00 1.1236053288334771e+00 4.5467720089695590e+01 0 1 -1
4609 1 6.0208849841618157e+00 1.6045167107378462e+00 4.7119727481002570e+01 1 -1 -1
5995 1 1.0035934828967120e+01 6.5749683239837813e+00 5.5817988181028753e+01 -1 1 0
381 1 8.4277364717308405e+00 2.3498125570932111e+00 4.5412194827391033e+01 0 0 -1
1366 1 9.2479898211148175e+00 2.4671884535492330e+00 4.8063531456789249e+01 0 0 -1
1263 1 6.7704826763592765e+00 1.1876973423567629e+01 5.3046810213467879e+01 1 0 0
1428 1 9.9728700500033405e+00 7.1205230485443938e+00 5.1169165748944010e+01 -1 0 0
3552 1 1.7688199831244922e+00 3.0723844599679362e+00 4.6558114941628617e+01 1 1 0
2093 1 3.1646052759524270e+00 5.2981522924023494e+00 4.5487589464433555e+01 1 0 0
3003 1 4.1434185505396499e+00 1.1026997041957914e+01 4.4152099586733939e+01 0 1 -1
6320 1 5.4952419092918534e+00 4.5009293303214832e+00 4.6922166946071115e+01 0 1 -1
1337 1 7.3646644818569831e+00 6.1396209093188094e+00 4.5310431420135103e+01 0 0 0
1712 1 2.3854076500434958e+00 7.9102349034386252e+00 4.6276730005808474e+01 3 1 -1
3195 1 1.9163507486243070e+00 9.8589579836850234e+00 4.4042446458191250e+01 -1 0 -1
448 1 3.9280679764643720e+00 8.5852636573973609e+00 4.8488615660634210e+01 0 1 0
1435 1 7.3220489095081760e+00 1.0724689537961723e+01 4.4758364353926609e+01 0 0 0
4846 1 9.7718980169366310e-01 1.1822979287379454e+01 4.6894513288671988e+01 0 2 0
4865 1 9.8443852094227804e+00 9.2616896398321540e+00 4.5600122585289100e+01 0 0 -1
225 1 1.0911759600949912e+01 9.1766515765014791e+00 4.3284785986469331e+01 1 0 -1
4873 1 3.3291308393315910e+00 1.1796055388870306e+00 5.0361606656943238e+01 -1 1 0
5994 1 1.4021585485646912e+00 3.0064846780089138e+00 4.9405501425261320e+01 0 2 -1
197 1 6.4861727510358707e+00 9.4358189313214724e-01 4.9600624726007524e+01 1 0 -1
5187 1 1.0193108018840633e+01 8.6844267724894380e+00 5.3585753827230960e+01 0 0 -1
3392 1 9.4060410180141005e+00 3.8713761408111078e+00 5.0384524418919682e+01 0 0 0
218 1 1.3397734538515382e+00 6.0905683522756311e+00 4.9590010459658885e+01 1 -1 -1
25 1 1.8634580437710406e+00 6.1580014032032233e+00 5.3581859172310146e+01 1 1 -1