LAMMPS data file via write_data, version 29 Oct 2020, timestep = 50000

6589 atoms
2 atom types

0.0 49.22 xlo xhi
0.0 49.019635930410494 ylo yhi
0.8486345867857921 59.21336541321476 zlo zhi

Masses

1 18.015
2 12.01

Atoms # atomic

5147 1 1.7766378621105452 4.896361130659264 8.98774124738399 1 0 0
5194 1 4.789339985284692 1.778307318731823 6.352811246550638 1 1 0
4787 1 5.899807491216806 19.325378382985825 7.831883115115594 0 0 1
54 1 24.547315002710768 9.627844639621124 15.019012809688162 0 -1 1
4627 1 18.731935898861416 16.80979125102459 5.55650910631195 0 0 1
4730 1 17.24001981253752 13.872104544566106 12.124643161093344 1 -1 1
36 1 5.382918440458244 8.864891570818576 7.076131381323647 0 0 1
3471 1 5.08216777002287 2.283852076443019 3.230498685649323 0 1 0
1896 1 1.4418091324080113 4.098329749207088 5.214907633242384 1 0 0
335 1 24.607821842817852 13.58374441914416 10.703215646371122 1 0 0
1388 1 8.676340410286997 0.07122771407033213 2.1071588819663125 1 1 1
6484 1 10.777789493627838 16.016639878379543 8.887388797598112 -1 1 1
2190 1 8.130795621391407 2.1577977600163343 3.89793455288053 0 0 1
1884 1 10.734571077800563 3.5290635434256306 8.05402940577281 0 1 0
3083 1 6.553104088647987 14.606098986697626 12.65860954420326 1 -1 1
3665 1 1.1519249339620106 6.254720075776121 2.2794712837913247 1 0 0
1733 1 11.906253853695608 12.426962431092644 10.0361063118079 0 2 1
6284 1 23.919400826127223 1.019300214908735 5.4777027028545175 0 1 1
3716 1 12.858174952612437 8.3651186322102 1.119924905814521 0 0 0
1629 1 14.312271576187765 9.056070935591826 4.180379402424462 0 -1 1
2070 1 6.083902693798954 11.924292877528003 2.928492285961578 1 1 0
3459 1 22.715043207006477 20.84407023971286 2.199219343583757 1 0 0
1490 1 0.9513398223614825 12.82741283673714 5.502199225276792 0 0 1
3157 1 2.437541715373386 2.7081464355562455 7.5952748892533615 1 0 1
3059 1 3.8261648504195107 13.730043920106967 3.696255739480354 0 0 1
3504 1 11.902344881965178 8.254793227330877 5.3058017306782475 0 -1 0
1890 1 3.6038725323343113 11.749122894173288 14.477508738974466 1 1 0
2031 1 10.313406706923448 18.91864929665962 8.049164364856416 1 0 0
5411 1 11.986773287439975 14.89403261967555 6.16494209304293 -1 0 0
3448 1 9.358797300067215 14.36942567467371 2.51360762754683 0 0 0
5059 1 20.614520279287547 19.211530573838417 1.7956021791138266 0 1 0
2144 1 17.71022688757572 7.602542146828895 8.298558797707853 0 0 0
2094 1 6.957328007861567 4.878378544677401 18.223301552459645 0 -1 0
4772 1 8.195645363008875 18.19045210518206 6.044555099710415 2 0 1
3079 1 9.710617938562836 13.354022652833471 5.074938383692541 2 0 1
6492 1 18.159615395540897 21.243530208447567 11.39746377189689 1 0 0
3127 1 9.012612938546685 9.709564382114591 2.0531822232615706 -1 0 1
3053 1 10.305330241936343 7.220374325877971 2.231358139595285 0 0 0
6448 1 22.308379732707337 2.39063717250739 15.53673249675553 1 1 0
2032 1 7.998399899960888 16.601677405752355 8.320330042982242 0 1 0
1826 1 22.992902609084098 17.062397191312357 1.6681520610420337 -1 0 0
1320 1 6.73591097168302 10.320032021631798 8.819774635193088 0 0 1
3337 1 24.041011178496706 12.195663571136201 16.181905029093393 0 0 0
3242 1 22.929891876302893 9.283110620476727 2.3349658773577167 0 0 1
572 1 4.204370837433956 12.909685517460847 9.12228944695091 -1 0 1
5137 1 15.889278498188942 16.475177471756094 12.25447325203443 1 0 0
4799 1 2.906494340007964 2.6402746197872657 12.20676474531726 1 1 1
3495 1 7.107096330913982 21.759531609957236 19.17516935417167 -1 0 0
3564 1 15.24618321085703 12.412991029409975 6.790859726580307 0 -1 0
3544 1 11.948923501063026 3.7301123739818176 16.690001034555756 0 1 0
4949 1 22.97189244425777 12.013802348030643 1.9187903049209254 2 1 1
1686 1 9.505377138898627 19.389910502960223 15.75106372094221 0 1 0
2018 1 21.09930665107056 5.756860813998687 3.005732546057334 0 -1 1
1785 1 21.54091665351853 0.441382110043163 8.243271935476002 0 1 1
260 1 22.946258502513004 13.583381061735095 4.099575738205042 0 1 0
1400 1 4.511854513341002 16.182103111092218 4.811666499935372 2 0 1
6529 1 15.97889692397756 0.9373232200800509 1.0083838484220276 0 0 1
1582 1 8.587356511516075 23.041685737634896 2.6711588432259257 0 0 1
3796 1 23.49940522778416 8.323997772125242 7.154097163472761 0 0 1
3016 1 23.980661363970533 19.794848754753417 11.126710894485061 -1 1 1
4938 1 2.4676754523928337 19.927136744716872 1.9877504870607359 2 0 1
3816 1 9.678360283787265 11.173308390958807 19.8766959214329 1 0 0
495 1 0.8096771747160472 14.94623454875161 9.634699018184216 -1 0 1
5401 1 23.072621781014565 15.137436916198745 12.14053246614395 0 2 0
3273 1 18.434863950723024 6.941345248713619 3.3780426621491784 1 1 1
1712 1 22.742448163160606 2.9178166281330626 12.564860685097784 -2 2 0
5100 1 18.128660321930564 5.364229303474616 16.318592847979446 0 1 0
6227 1 3.3920058989459427 12.545050211498797 0.9651240700963275 0 -1 1
2091 1 9.897777652739537 21.639286361498453 13.075840680177626 0 0 0
4709 1 21.39573522637468 12.045557787485194 5.865477336249792 1 -1 1
3417 1 13.745169595697 20.8233813371585 14.545432271362543 1 -1 0
3407 1 5.89844369437187 7.974443146395617 19.235864047949924 0 0 0
2216 1 12.891406101232409 1.7713447966783868 15.386174154296096 1 -1 1
1467 1 15.189760308955837 2.2725732764215927 3.6266052823937374 0 0 1
7 1 11.895031354431179 1.093815481913239 13.00777555805632 0 1 1
344 1 19.76899750546211 4.352690073400713 9.988873667066875 0 0 0
3396 1 11.537711965711383 8.904446581149617 7.80171178951259 1 0 0
1357 1 6.808138078888726 13.398597428639402 7.934777864508621 1 -1 1
3737 1 24.137610539695743 14.41891120923889 7.8607327469736 1 1 0
6512 1 11.680208544116535 20.6559627633578 3.8790232384727434 0 1 1
2104 1 21.1709810649504 2.497122632344367 5.67426805889426 0 0 0
3221 1 16.073185054422034 14.095903751640812 19.39859019352324 0 0 1
3868 1 19.430850941303692 1.7733152216964787 18.74263569349368 0 -1 0
6341 1 0.0907141465781747 24.197357619054056 5.0920142321806985 0 0 1
1760 1 4.352306200036265 0.5845555889455638 11.714354014525853 1 0 1
2053 1 0.87674181921186 0.42343551341729313 1.1238302916043983 0 -1 0
3041 1 6.381685118806976 3.4196051379428694 7.719485485286662 0 0 1
3648 1 16.595929735969293 3.346219864306085 12.117250149256446 0 1 0
3743 1 3.242130217925509 24.446487501994884 14.419565256861507 0 -1 0
2125 1 10.705920366318253 15.504128301158737 11.530348585204662 -1 1 0
3202 1 18.131119924104016 19.329755319254264 19.7056401064488 2 -1 1
5302 1 24.5427388913478 7.22495847961937 11.441854545522705 0 0 0
1777 1 20.644783533322514 8.073507844555424 7.225202367031305 0 2 0
3785 1 17.14411390657151 10.700983188231403 8.006877020294755 -1 0 0
1631 1 0.9649905968608157 8.001304827218148 6.991484941034729 2 -1 1
3661 1 4.245276861370086 6.324812616828842 16.418779477716242 -1 1 0
3200 1 14.078519000244635 11.06154616239296 10.55667664523398 0 0 0
6231 1 21.126013261745424 16.010458128966476 3.972716848256693 0 0 1
6565 1 8.877853467212597 5.5198502576028945 6.9704399627927 1 0 1
1325 1 12.97256270206324 12.198797919647902 14.931323269313806 0 1 1
1355 1 16.020518471759765 4.034361348579287 7.815275044553988 0 0 1
1343 1 20.70419638543703 10.620427390733779 11.708114915936633 0 0 0
564 1 14.570862887693272 18.069881880784635 1.2822801163459476 1 0 0
441 1 20.832620006167005 10.512263520091373 8.677575123778116 0 1 0
3133 1 20.915631740268015 23.46157807124426 7.84401502076502 0 1 1
1864 1 2.6637738378018856 8.853084096074678 2.3358092474296708 2 1 0
3808 1 7.822035504254738 5.243482834843815 4.350303658454648 0 0 0
4769 1 16.00583804371345 14.265396632920023 14.697526481259668 0 1 1
1994 1 6.111465649357371 18.44022339177548 15.28067427718218 0 1 0
3469 1 9.030994803997999 8.117857108465152 8.304590993663812 1 1 1
328 1 13.893167778386205 8.708047875735344 9.335636381297569 1 -1 0
3292 1 8.748116513603707 15.014982662658376 16.950404845857967 1 1 1
4918 1 22.158131210593748 6.238949568438444 16.425580540307706 -2 1 1
4841 1 13.794531530157391 2.9617613584802016 6.257120026612156 -1 -1 1
4827 1 2.136953296186471 6.714919277187052 4.771475454358786 1 1 0
1905 1 22.781267864418318 23.090945200800597 3.6690799950458195 0 0 0
3154 1 13.640547171063421 16.66357374932312 10.794483614583827 1 1 1
1585 1 16.728826168576127 11.150886908542327 11.040417746887755 -1 -1 1
3405 1 1.8724585763171675 23.001335556231652 8.091268549206852 0 -1 1
3841 1 21.007493206607148 15.679121944504706 19.3717110382824 -1 0 1
4659 1 21.018998456712445 18.65621411158102 20.224414309630962 1 0 1
4712 1 14.40629547281905 16.58469994901837 5.989099446134126 1 1 1
1470 1 15.225467513930608 20.29554627446095 4.464135929196777 2 0 0
5373 1 5.172385978468205 20.99104767255471 15.023079279624888 0 0 0
3170 1 11.561793453689942 23.99630820523997 6.478738920342179 -1 -1 1
6280 1 6.199659891565812 16.95934628986746 10.649850721860131 0 -1 1
1625 1 16.44891580170626 14.582219146646219 5.019607446504982 0 1 1
1720 1 23.861195112318683 11.896982824743755 19.059279826510775 1 0 0
8 1 21.290775943810512 13.11145230818364 20.075631507939214 0 -1 0
4894 1 2.264177487941194 2.449280299924009 3.022020719156139 1 2 0
282 1 12.213223102148474 11.956452350692855 6.748064948310452 2 0 0
551 1 24.334432971208628 19.37817651183221 3.7844312613452695 0 0 1
3369 1 21.048097362364956 3.752105451169301 18.92089864601717 0 0 0
3673 1 2.4850570835650077 21.716943385960636 13.826428642116221 2 1 0
127 1 6.792045738573499 15.624823481567068 3.1254607488297803 0 2 0
418 1 17.448615037610292 16.16605910689259 2.6827643796840497 1 0 0
4864 1 1.4751051288561288 1.055585497553181 14.521623780571758 0 1 0
1462 1 23.929536796425484 23.2661159240669 8.38681954640193 0 1 1
4593 1 19.22307434288278 21.10602005212998 8.412351294180695 0 1 1
2993 1 0.005090586152064383 17.308177106463827 3.7707896775217526 0 1 1
1412 1 15.859477132482187 23.523083407880858 6.87845668630663 0 -1 1
40 1 19.261407830906187 2.837803732186085 12.898488742694886 0 1 1
3370 1 10.634186570655519 6.105783695932815 4.580987120742323 -1 -1 0
545 1 2.3474338262289556 21.232097228666408 10.571817026687803 1 0 1
5432 1 22.75916970627705 5.330820003933726 10.575410579379529 2 0 0
3756 1 7.706953084519662 8.338874035210818 4.000518723347618 0 1 0
4964 1 6.4062875765844085 0.8400732312864079 9.676441292638978 2 2 0
1378 1 0.9542501106711646 20.419104738980106 16.925647093325622 0 -1 1
4579 1 14.170362939946537 5.811838733747648 9.517600532323216 0 0 1
336 1 7.226713712573613 8.335966512288351 13.067103623509935 2 1 0
1909 1 17.405402212258505 9.852535203698752 14.742906024406732 1 0 0
5338 1 5.973946463590883 16.94827119319908 20.293978623510306 1 0 0
3490 1 19.176798441356897 2.4061430265578823 3.7666656730526533 1 0 1
4865 1 17.488914824894874 2.5324876648504833 5.6493668614843084 -1 0 0
3113 1 15.120704959240417 12.643247408934172 1.5631814045019627 0 1 1
5515 1 23.897574033247672 14.810363154534953 19.932915462412623 -1 1 1
62 1 6.890682484785403 4.313330582057001 13.269924087208706 1 1 1
2925 1 8.755728802393046 1.0605290291196483 16.990035760018223 0 0 1
6524 1 9.462215433818143 22.6731759098442 17.886430562490425 1 1 1
3045 1 3.2761747061252273 15.11680099766296 7.360826737829101 0 0 1
4600 1 4.616743114068913 11.877350065626448 5.872033804580564 1 0 1
3376 1 9.416033148380471 11.709480981146154 7.995070081607065 1 -1 0
501 1 21.705151495102218 22.073952046141265 17.277542033545352 1 1 0
3264 1 3.719419823265003 6.5232903563966484 9.732263174674518 0 2 1
3598 1 24.30284734386122 3.8339682473296945 5.1374658867124285 1 0 0
3707 1 23.337872938864386 5.315538701995852 7.984444852481151 -1 0 1
3531 1 11.15747932430288 12.834471613609436 12.619697193263095 0 0 0
6474 1 23.97342071940247 9.613998612066212 12.231450979126695 0 -2 1
160 1 13.027991254779959 2.911522489178163 19.031801924516035 0 0 0
4613 1 10.633028587016762 2.1415524791526064 5.430922816447928 -1 0 0
26 1 3.609357301057281 6.234037718812921 19.154891082277285 0 0 1
6533 1 4.019481944357684 7.4047023794119005 13.610321212322274 1 0 1
1824 1 23.636562932372474 6.365577278233624 2.706087427983217 0 1 0
3092 1 6.927273063301153 5.943195951983718 15.412191393137508 0 0 1
303 1 8.277127714406538 14.399263395370717 10.222524695043301 1 1 0
1839 1 14.360320760262839 16.756142055055246 15.01066722448864 2 1 0
1768 1 12.603420528816498 7.4308296793093165 11.91747186598088 1 -1 1
220 1 19.385818676385462 11.635042613028563 3.6380220641300904 1 0 0
3569 1 18.09020696546358 9.238469251046263 12.336411494799247 0 1 1
5143 1 20.126024392059804 7.449648464738779 15.134818333380105 0 -1 0
4782 1 20.076720810110775 7.438479002193195 10.351873731033066 1 1 0
3279 1 15.552055591495453 5.1815525543363705 18.95592545220979 1 -1 1
2263 1 4.696463438114205 12.659476902943135 12.037690208051293 0 1 1
1427 1 19.29753034755607 7.453581363606655 19.77074694577955 0 0 1
3329 1 3.387140592220066 11.503344350995986 18.672921533886495 2 0 1
224 1 21.587545138037203 16.597085845236272 6.816836540828644 1 -1 1
6268 1 8.412155455514114 23.36586952292209 5.914526058160872 1 0 1
3208 1 21.409403966159932 14.082433185331027 7.798163378160718 0 0 1
3424 1 15.684572331968756 11.88704317033245 15.708870123847365 1 1 0
3682 1 16.80298746380604 18.620404896989157 10.665681255887431 1 0 0
3512 1 12.14235128752795 22.406780959265795 16.887045502485485 0 -2 0
232 1 23.31868726773227 11.211264149291667 9.87619581083715 -2 -1 0
3507 1 2.933436531034205 18.148361225349483 11.177059876620282 0 -1 0
5268 1 3.0603718224445857 8.887093870746956 8.218736978774022 0 1 0
3427 1 15.152148238516329 20.288223062822517 7.231777757986223 0 -2 0
1407 1 3.1158808148405477 18.98958865266465 6.397563350144179 0 -1 0
364 1 20.16789822195615 13.478886258180914 11.604215386311434 0 0 0
2124 1 10.819732702502856 19.731116173764427 11.000989893519279 1 0 0
5198 1 14.192194781619524 19.590366107552132 11.030445972676644 -1 1 0
5262 1 16.704781828794317 23.654992022034342 9.561578964736025 0 -1 0
3720 1 23.750753411713987 17.67152018416064 13.026361642625528 0 -1 0
3710 1 18.79351675779451 20.470625001948815 14.009615176563276 -1 0 0
1502 1 22.892382348433788 17.791009181804714 9.551704591390642 1 1 0
330 1 4.837418643859783 9.263495708493165 4.148567828508764 -1 1 0
4677 1 6.690121922729961 20.899277718327642 4.816526043636667 0 1 1
3198 1 18.005093513111248 9.1803536487824 5.199981460725083 0 1 0
5115 1 2.190444590287108 1.9403500748148692 19.50168582419236 1 0 0
4753 1 0.5535033478366582 18.672610430703042 6.870964938963092 1 0 1
3593 1 1.7832430442825846 5.904363737106102 12.244487192458024 -1 1 0
4673 1 18.870419014520383 1.3646674953883173 10.008903192440084 0 1 1
324 1 8.434059218984547 23.53984519933434 11.298357321066721 0 -1 0
6277 1 16.577884949191443 12.026329939047578 3.9562519629627153 0 1 1
5274 1 16.989436399942093 18.8015827898861 2.5340664488162647 1 2 0
6447 1 16.463389445048318 0.11020521686810272 13.144691823910208 1 0 1
1853 1 0.7559062114049454 13.236303227792725 2.6902865021249838 1 1 0
231 1 9.50272254121912 20.10434753663957 2.5670354211082076 2 2 1
3794 1 18.00595475524158 5.296219025490569 5.851670429963999 0 0 0
1763 1 2.122437213270593 11.558396538760933 7.875374467074213 0 -1 0
1333 1 2.06213247888693 8.816342964797721 18.626333119875053 1 0 1
233 1 5.215034395484856 19.009004088103286 18.264147419857906 0 0 0
1336 1 5.904878493455476 6.292853960723211 8.370916536109569 0 1 1
6427 1 10.078252940621706 14.140887418569067 19.912776132843018 1 1 1
270 1 11.997382120516233 5.397974883057044 19.79148133541 1 1 0
4830 1 7.435299790482931 6.253759201285746 10.958269640160589 0 -1 0
4689 1 17.013305098645876 5.563796718077332 10.62799719823164 0 1 0
6436 1 9.2666539470708 2.234682686997761 12.598056653811666 0 2 1
4666 1 7.748115628832935 10.856455643209616 5.787375489035254 1 1 1
93 1 18.384240679089668 15.363823157383422 18.294365011203865 2 0 0
5230 1 1.0570483544320317 10.078760333542625 13.278245127690091 0 1 0
3570 1 16.307576935227203 14.72003497873166 9.141471614690413 0 1 0
5388 1 13.998172378868528 4.682397761924476 2.2035787645599916 -1 1 0
2131 1 4.585394287622099 4.822304870474518 11.586097561984014 1 0 1
5297 1 10.130813536142739 5.07018145627369 12.450989671839125 1 0 0
4846 1 8.675216324383927 7.461882667403205 19.591749184009537 0 2 1
6377 1 12.738813495534922 14.904122448271568 16.32359060421424 1 1 1
5151 1 12.806457967555014 5.090844316663794 13.906139772819568 0 0 0
3749 1 19.386028896850764 10.780263161789495 19.034501959901 -1 1 0
218 1 9.903477197826673 8.023207151012183 10.881486796222566 1 0 0
208 1 13.423235039383256 14.736207996395963 8.673559201924586 1 0 1
482 1 14.82216086402873 22.863458938264213 3.0300688131421256 0 0 1
6576 1 21.488063985095838 16.419794768987597 16.453114968157596 2 1 1
2075 1 8.972841279617498 7.441947072426822 15.35622317090966 0 0 0
2973 1 13.647137666740742 13.085949123383239 18.48005979731306 1 1 1
243 1 13.964035525796255 5.605811792243951 16.76595033206601 1 1 1
1803 1 11.046916153138689 7.723486363906347 17.80676835331655 -1 1 1
1604 1 10.987611550176029 10.859073839827257 15.94189890459472 1 0 0
46 1 21.389226400115735 8.306555944090933 13.05533204066661 0 2 0
3126 1 2.8590561636164136 20.53367138270116 18.89171173228282 2 0 1
1982 1 6.9706210697852775 22.128071420834043 9.558347549328646 1 1 1
5309 1 8.75730009386702 2.0933844592477593 9.454706786991812 1 1 0
2183 1 18.99863293544008 1.5128574459828816 15.42424658081098 1 1 0
6355 1 10.962976934246695 1.2924904221352644 19.9953258253649 1 2 1
4983 1 20.543868818946013 4.97754472148674 7.3054707134718635 1 1 0
3395 1 11.141951384611868 16.295558613577345 18.36678961943333 0 1 0
6222 1 16.693086108161523 23.479922246992086 0.8841292622867808 0 2 1
4926 1 15.752054688111738 20.10540877740178 16.476033282010192 -2 0 0
5305 1 3.60243336533363 13.893588151614278 16.542610424932896 0 0 0
3 1 14.06759470850181 21.515366152630545 18.5519999095372 1 0 1
3393 1 23.39415808187959 22.83736620128408 19.824766274958606 0 1 0
6205 1 19.644690549008825 10.03579188006464 16.483693397681673 0 0 1
4820 1 14.714168340727866 9.050046668604267 18.43675249303584 0 0 1
348 1 19.069601374533555 12.793239067245725 9.155742663211972 0 0 0
3647 1 15.139050007545807 7.662102166922856 14.774014989671409 2 1 0
3465 1 10.198596033109123 21.16912405885165 5.912598824034947 2 1 0
5095 1 2.139942113516146 19.19601343331507 14.328628012671038 0 -1 0
6251 1 20.599937828910246 16.389582731612318 10.65289662587138 1 0 1
6394 1 8.430044925547199 17.721984071025144 17.671478692527618 1 -2 1
5181 1 4.293643896605932 17.28220343026155 8.738380613275913 1 -1 0
2156 1 14.21537893134375 22.353246683673486 10.196494128387654 2 0 0
2076 1 8.731807949544496 4.579582385077137 1.9255536158996651 1 1 0
4660 1 10.885993373314585 17.75389271326584 12.715834347029505 -1 -2 1
2957 1 0.9393623947443304 12.828477820473179 14.535707680171924 0 1 1
1326 1 8.819914851900645 14.611042151129196 14.29946471882177 1 0 1
1757 1 12.148221468292247 18.768891691208434 15.411005283776678 1 -1 0
323 1 7.355259803291778 14.77622361192464 5.920046809441134 0 0 0
5139 1 3.100726846534413 17.89341648396132 16.725663579114624 1 1 0
304 1 5.33032276598038 2.8927324615762835 16.41820474598758 0 0 1
3240 1 5.905479551484195 0.7905985900242627 1.0989490806422988 0 0 0
6216 1 4.6700308267388015 21.7170548980506 7.254159327610013 0 0 1
3700 1 7.829067781417124 19.338155945201926 9.787417265081652 1 0 0
4763 1 8.264088195703849 11.908990721228928 15.447361517722419 -1 0 1
6316 1 23.73317982152547 24.277512863035113 13.325218740033112 -1 -1 1
1513 1 21.709585591988542 20.03506813245725 7.510610317897101 0 0 0
3244 1 0.2955797685646515 3.00984462133249 10.773699487719126 0 0 0
2932 1 8.163260951519561 22.107185864554097 15.487169380163337 0 1 1
1765 1 10.648067590279998 10.330767571982673 4.019033005209032 1 0 0
3741 1 17.538828985028314 19.062004294886613 7.761914880526381 1 0 0
141 1 0.4033257837130343 22.854881751175224 18.6894833703468 0 1 0
1802 1 5.018341011140824 21.47529709664618 11.873338547593933 2 0 0
464 1 14.647128021597982 23.57714236382717 12.794887376536098 0 0 0
185 1 3.1395361628390233 3.7091878912217555 14.822758284457006 1 1 1
4947 1 20.78360173438352 9.027740995382503 4.630140979066967 0 1 1
2980 1 21.868862932096288 19.107360017234583 17.21497519463088 1 0 1
50 1 0.8078948237343565 4.284866615908335 18.59680081578409 1 0 1
3596 1 6.573180042421721 24.245862383444237 7.670365029066787 1 0 0
4665 1 2.7506101937206635 17.600140766090853 3.5205707002925046 1 1 1
3863 1 8.412904840738205 17.60557090822849 14.145318408735791 2 0 1
1796 1 15.68969812668342 1.7754405366061086 15.112244263034453 0 0 0
1694 1 16.287149109163813 2.3865848101079346 19.232067406092668 1 0 1
3669 1 20.393311509732143 21.65436456791952 19.976690128900405 -1 0 1
1949 1 9.797262440037542 10.252141017358833 13.270750019918735 1 0 1
1511 1 11.934878016260765 4.390221183700973 10.336412862450183 1 0 0
4785 1 13.629318081779028 18.56002655427465 3.9321484978929995 1 1 1
3690 1 12.311196608690281 7.9177379011252444 15.088280590360947 1 0 0
1793 1 15.904426809036293 0.24801540500843997 17.597785156683393 0 0 0
1305 1 20.34316035444556 17.346079406382163 13.384495899083351 1 2 1
3827 1 6.997777799236879 18.15611398572256 2.978452719794325 0 0 1
2989 1 6.3111564899458825 23.515830610887836 13.332493258465735 0 0 1
5465 1 20.37592846301049 23.03123111870327 4.946019633746754 0 0 0
6201 1 24.089448541083254 4.2706495669155835 17.181880289731854 0 1 1
381 1 20.327234539483197 4.111254645021852 16.442994667029865 0 1 0
9 1 9.508057298369058 0.10256077367541587 7.316653828581368 1 0 0
5046 1 21.911076623784368 21.915920730415763 10.463820252009628 1 -1 0
5333 1 12.031169853164892 22.848801538937977 2.188252282355101 1 1 0
108 1 15.656037202206425 7.324438958617979 2.3147408914959775 -1 1 0
3803 1 8.060879153778549 9.497762407381996 17.662575239935858 0 0 1
6285 1 2.9472125002968474 24.19021067351722 5.615886899463664 1 0 1
4779 1 18.434910266744144 18.98072004529421 16.757366261084407 0 1 1
6491 1 5.12870512222868 9.852437851578483 11.450424448620344 0 0 1
3266 1 22.246098838184594 7.758823829058027 18.771020429649244 0 -1 0
1537 1 13.814716268896884 3.0303295663846113 12.14910534592899 0 0 1
41 1 4.002851394155319 0.4971396196145359 17.462937809029643 1 0 1
6260 1 4.198748462068365 16.832237674899204 13.54933625817041 0 0 1
2146 1 24.58920469084514 20.749702796016344 7.695541509091472 0 -1 1
4586 1 16.07168305471287 17.200761422611677 17.70465323164862 1 0 1
1460 1 13.172934737370113 18.365481958258844 8.122150758211607 0 1 1
3268 1 12.210758133036697 10.11390014058155 18.58251325191123 0 1 1
286 1 18.493371975145216 14.656216182861684 15.761502314710512 0 -1 0
2024 1 17.76118548787447 17.027929472920526 14.842980365001406 0 1 0
3562 1 15.074375634625016 8.892805678780759 7.048273824155085 0 0 0
4775 1 23.891661778656452 3.661395642269791 19.91187473277696 1 0 1
4773 1 20.074719589356462 12.400379726709572 14.701732427791322 -1 0 1
3211 1 18.4095383468365 19.33539887479004 5.214124059554978 2 1 1
4734 1 13.362015864259417 18.80845383867851 18.11285144945803 2 -2 1
1553 1 1.507104712046936 0.5345070193390968 8.569833812469634 0 0 1
1805 1 16.398239008116185 11.45051018254375 18.42658291171501 0 -1 0
5409 1 18.309977485479664 0.41216363897872155 7.26092282202724 0 2 0
2130 1 24.026139745460103 1.5959616464440494 8.727779087602961 0 0 0
513 1 1.8738488454318052 15.444150621240395 14.995365776084242 1 0 0
2205 1 1.407300168394636 7.620142369115948 14.934689249577916 0 0 0
6425 1 16.003324399522196 4.725477094949181 14.547356073936811 1 1 1
1419 1 20.556356504865857 20.33343406572572 4.802695808874572 1 0 1
2235 1 4.052989719953809 21.206577815485335 4.19876200946793 1 1 1
4889 1 23.91051615244911 17.39545903432542 5.3978681154817405 1 1 1
399 1 19.573635036734956 23.610962317753422 11.089492397167252 0 0 0
168 1 0.7349077032478809 5.011314254337509 15.76986982141005 0 -1 0
2220 1 21.436020023482442 20.1023909466337 13.042324693142495 -1 1 1
3272 1 23.42691393280241 21.69416443601216 14.667584823999581 0 0 0
1495 1 18.30775850823653 16.419398163173753 8.830435875951899 -1 0 1
254 1 9.342996707174523 3.3279532591932024 18.42832646845327 1 1 1
194 1 4.8225822150083415 22.546670967666522 17.586949803939028 0 1 1
5486 1 6.037824353338444 7.859066749796614 1.7079637508373646 1 0 1
130 1 6.090450845767014 10.365757030889531 14.773650392196908 0 -1 1
3813 1 17.740048867000045 6.634565340755719 13.124077634169268 -2 1 1
4920 1 4.162226558444593 9.225815994874797 16.62409717126623 0 1 1
358 1 22.339984286906347 13.995597824111975 15.0355735367628 0 0 0
1395 1 5.963910856848614 15.091442029747801 17.307429694758046 2 1 1
2210 1 17.07671513158113 7.402631838160023 18.252452240742528 -1 1 1
5138 1 5.975040546837108 23.07675675717297 2.8031267351926292 0 0 0
4810 1 7.242020925414974 1.7774303989666422 14.67036961358037 0 0 1
1302 1 20.378901785861764 3.60149809807961 1.0172863633411522 0 0 1
5116 1 2.6259758164445035 8.99332256023969 11.314320640249164 1 1 0
5506 1 0.7472068634103668 17.76266169115724 9.866608606936104 1 1 1
3487 1 0.026149239145701806 22.53992276892108 15.024957757090398 0 0 0
5248 1 19.50992291360744 23.6485529046367 14.438765108433028 1 0 0
154 1 17.85361756203497 23.432357784962193 16.679376123081624 1 1 0
5385 1 3.3339500020954405 16.39185085470303 19.148269095824034 0 0 0
4911 1 7.905326930756433 19.329549787345954 20.240269416594643 1 -1 1
239 1 11.734720326751278 19.164914668160886 0.8587352659683205 0 1 0
1512 1 22.593567402102423 1.883942736280485 1.0442925490073236 0 1 1
25 1 24.264002103979344 4.429314711176525 0.8880644586710105 -1 1 0
4900 1 22.39279907491413 10.708657673355654 24.214991565342377 1 0 0
5521 1 6.138132251261632 22.51892720053301 38.615453182103245 0 1 0
3825 1 23.07652645966224 4.325117660770317 35.84293000784515 1 -1 0
439 1 0.5388556274810153 8.519894087847463 23.375145247995295 0 1 0
1445 1 17.635852981327666 13.546575815570483 38.52648242507773 0 0 0
6477 1 9.369351583462517 2.689576489368694 36.12080638750081 0 0 0
3214 1 2.2897955082591497 6.26765323492536 36.921297364058965 1 0 0
5042 1 24.21209700871579 12.974675818195042 24.09058044729264 0 1 0
360 1 5.037307185787725 10.040543777102773 23.987188487413537 2 -1 1
3365 1 3.9041325179774353 14.68334269623867 23.811844988360637 1 1 0
6332 1 5.774282948308515 4.058687914258831 20.513006229035337 0 0 1
242 1 5.89947947014869 10.294357054742077 20.46624985227989 -1 0 0
484 1 2.521989128795214 9.499185420272694 36.44632990576169 0 0 0
1965 1 21.236473043002054 17.78099175270826 22.85980614318814 0 0 0
1289 1 23.270107191637617 23.684512899793212 24.04828667314271 1 1 1
2134 1 21.71383446281411 13.550565565899875 22.58516018800454 1 0 1
2958 1 8.71020078908866 2.350901979650554 21.562096553466546 1 0 1
3807 1 2.966198439082674 19.99618228370951 21.952834755742035 1 -1 1
266 1 3.0683777013552063 4.070483674997364 21.2087655693358 1 0 0
1889 1 21.00674954457878 9.95992233058603 37.419155059497776 0 2 -1
361 1 7.377538060296437 0.03382648081090878 38.305622150067144 -1 0 -1
1920 1 5.12063831933008 20.024681027797644 35.82769946749974 -1 -1 -1
1580 1 3.0183378056926986 14.653833375780394 38.50608992826003 0 0 -1
6480 1 22.29179326756312 3.6381806695392465 39.17943625479217 0 1 0
1917 1 16.563346687082404 22.198170004408937 24.619502199054143 -1 0 1
1846 1 18.878123460315145 2.0652942793122167 23.89959139352815 1 0 0
6353 1 4.275197065459114 14.760662121161708 36.04093276565572 0 0 0
417 1 5.986961602886088 21.07977959632811 23.871096346851576 2 -1 0
1751 1 2.6917406937926196 19.67221253912486 36.98560573854918 0 1 -1
3752 1 17.322218469668186 10.348130529683202 23.14673871168914 0 1 0
1986 1 15.918049127691717 6.704522319484558 36.496089080668675 -1 -1 -1
294 1 12.033293103295048 17.771869448296155 23.260168616792967 0 1 0
3031 1 18.688625784770935 5.412987050019826 24.47756901190771 0 1 1
2160 1 10.01469847114212 9.614192269728687 24.333706676348758 0 -1 1
3571 1 18.399805221865673 24.0761462505295 23.701766902075402 1 2 0
2098 1 17.800916653666125 5.336011904346455 39.27411403105913 0 0 -1
3768 1 11.91760409207612 4.99475609061313 24.015193611910707 2 1 0
3320 1 8.72771296390203 3.9285607620897416 24.39398893043503 0 0 0
1516 1 15.023301289466032 9.08607795445909 21.305983940992157 0 0 1
1883 1 13.10695565693457 6.700007029984401 22.170918697383676 1 1 0
3799 1 15.82465166665577 17.385000406203368 20.970006262738103 1 1 1
1742 1 16.3850918601367 4.029368939021477 23.44952598711943 -1 0 0
3275 1 15.73290681203828 23.42588807618048 20.504752484061957 0 1 0
1679 1 22.55505406601249 6.998761722872442 24.034696112597356 -2 1 0
4589 1 1.5401796047257312 22.298350419757554 37.326578298666014 1 1 0
6522 1 6.261583896065452 7.73020534804227 22.959196475226246 1 1 1
3722 1 15.217487195853455 9.512123146658228 36.74834207304887 -1 -1 0
4863 1 9.359348657936717 19.519443664345438 35.81545259878585 0 -1 0
3160 1 23.587648352817588 16.582880953378105 35.632688136016235 0 1 0
5212 1 7.233448133272435 15.139007792480982 23.059145067835715 0 0 0
580 1 8.214787941472935 9.490276392296309 21.654589632062102 0 0 0
147 1 12.357392667934457 15.166829639141556 24.206207498598694 -1 -1 1
1935 1 0.5582543575455814 14.156767638634392 21.260673877484418 2 0 0
5016 1 9.9934634014121 14.302424650821184 22.936167954903492 1 -1 0
1960 1 12.603714947763144 9.17912330864676 24.038487101414738 1 0 0
3175 1 17.106979404460702 16.564299884389776 39.55086384489973 0 0 0
6498 1 8.983949582884515 22.291569808140427 36.65549660925143 1 -1 0
5218 1 0.8237826178362179 22.234474573599094 23.058820634790088 0 1 0
1559 1 18.652697678025085 12.709094237511179 36.06574829987225 -2 0 -1
5402 1 20.22850393022368 8.893074986006724 23.428495953855844 0 1 0
1426 1 7.33201129022353 9.350308503388298 39.174061804558285 2 0 0
3698 1 23.028516169513534 1.7762420423542162 36.84851729617881 1 0 -1
5391 1 12.770358054200239 12.010919200660403 38.68402505549622 -2 0 -1