LAMMPS data file via write_data, version 16 Mar 2018, timestep = 100000

6337 atoms
2 atom types

0.0000000000000000e+00 4.9219999999999999e+01 xlo xhi
0.0000000000000000e+00 4.9019635930410494e+01 ylo yhi
2.4487497446963857e+00 5.7613250255301509e+01 zlo zhi

Masses

1 18.015
2 12.01

Atoms # atomic

4870 1 2.4814339088638464e+00 1.5000656543818598e+00 4.0804440582695367e+00 1 0 0
1616 1 4.0507313949567330e+00 3.5438045818634016e+00 5.6537792004719876e+00 1 0 1
6333 1 6.3701238317629567e+00 1.8366311966315525e+00 4.9193337615074997e+00 0 0 1
4865 1 3.3991967694235510e+00 7.8639884911310514e+00 3.6358526296014002e+00 0 1 0
1729 1 7.2658977704002323e+00 7.1263723546776472e+00 2.9716941405429704e+00 0 -1 0
6264 1 5.2939286153818133e+00 5.9032525298731331e+00 4.8204610419102583e+00 0 0 1
1776 1 8.5343805536465727e+00 6.6400646721275516e+00 5.6357977292702985e+00 1 0 1
217 1 5.8363272979734793e-01 1.0521748508993323e+01 3.6601616811894813e+00 0 0 1
220 1 2.1147674389700977e+00 8.9846080184281902e+00 5.8963794643050509e+00 0 1 1
1833 1 5.5148803683843797e+00 9.8008697293328186e+00 3.7401400333818158e+00 0 1 0
6321 1 7.0136837109043570e+00 1.1075654004982427e+01 5.8794422579167485e+00 0 0 0
1455 1 8.5194329377620814e+00 1.2186424806665958e+01 3.8234047506960085e+00 0 0 1
3499 1 4.1211576296348573e+00 3.6264813451402804e+00 8.3287658729591207e+00 0 1 0
5978 1 6.4071764481833748e-01 2.4203818722077615e+00 5.9957632861232453e+00 1 0 1
2167 1 5.6131137672773566e+00 1.5187065600725875e+00 9.2777617608017877e+00 1 0 1
2828 1 8.8778293988269343e+00 1.8755993278001204e+00 6.4929351557778965e+00 -1 0 1
3107 1 8.6409397964374524e+00 1.4992258976634798e+00 9.2263984958765093e+00 1 0 0
1619 1 1.1551424187814376e+00 5.2807822159081415e+00 6.0784364382998746e+00 2 1 1
1478 1 2.8182254201691501e+00 6.5764394905846606e+00 7.9131856940402310e+00 0 0 1
3076 1 6.0834485320014506e+00 5.8368337996062483e+00 9.0103239132091080e+00 0 0 1
2992 1 8.3433545249820504e+00 4.6162077902433278e+00 7.4408525999802153e+00 0 0 0
4667 1 5.8637980449147262e+00 7.7032715158838583e+00 6.9394441000509692e+00 0 1 1
118 1 4.0511452398994292e+00 9.9537883143308328e+00 8.0322036260933576e+00 0 0 0
3120 1 8.5326908402183896e+00 9.0367883301813734e+00 7.0497162037214558e+00 0 1 0
1353 1 2.6258631114632274e+00 2.7796288100687576e+00 1.2195528202838913e+01 1 0 1
435 1 1.6834458266006427e+00 1.9384244459168847e+00 9.5742655445773384e+00 0 0 0
3051 1 5.0092077822680130e+00 1.4360167617603776e+00 1.1917433151094027e+01 1 1 1
3139 1 9.7042513927929015e+00 3.6359395769293990e+00 1.0802181966931883e+01 1 1 1
6153 1 2.7744922052544667e+00 5.0646289931238675e+00 1.0565521958740263e+01 1 0 1
1609 1 4.4784081776510236e+00 6.9100515053779512e+00 1.1876503332501919e+01 0 1 1
4552 1 1.8976565138868329e-01 5.6584858782654486e+00 1.1270792682657900e+01 1 1 1
2936 1 6.8250089400447820e+00 7.8242142219352679e+00 1.0975239791764922e+01 0 1 1
83 1 3.0077679639062977e+00 9.0790871334353707e+00 1.1727150987835415e+01 0 1 0
1637 1 1.4579847988280132e+00 9.0892293313222581e+00 9.6283762909891184e+00 1 1 0
5229 1 5.9086862485372507e+00 1.2196569612251226e+01 1.2444195686891911e+01 0 0 1
4790 1 5.6758441558925536e+00 1.0438501966821070e+01 1.0475271973415413e+01 1 1 0
5133 1 9.3317599266738629e+00 8.6002024180694612e+00 1.2407416463359887e+01 0 1 0
4544 1 7.4467445810489408e-01 1.9827964207477837e+00 1.3975341611333317e+01 1 0 1
1363 1 4.1815965813004077e+00 3.6007646415041710e+00 1.4722757550935901e+01 0 0 1
2046 1 9.0001157131815503e+00 3.6573815791007775e+00 1.3488701555085536e+01 1 0 0
472 1 6.8421272095973498e+00 2.1736225151706088e+00 1.4094952246782404e+01 0 0 0
5129 1 1.9986877341220479e+00 7.2651243050497998e+00 1.5303851268885353e+01 1 1 0
4499 1 8.8715435800566489e-01 7.9330040689317238e+00 1.3047493187689605e+01 0 1 1
319 1 4.6107360131864867e+00 6.3707789942329613e+00 1.4541177129078358e+01 0 0 0
540 1 7.7767042132571795e+00 6.3697825436209623e+00 1.3684029698316829e+01 1 1 1
3011 1 3.8210918731857220e+00 1.1239012750991330e+01 1.3481665413680952e+01 1 1 1
1796 1 4.3482686965402424e+00 1.0578409679136175e+01 1.6041408258617011e+01 1 1 1
2041 1 7.9595163473595214e+00 1.1706332264061608e+01 1.4296239942564224e+01 1 1 0
1740 1 3.8520751107930313e+00 1.0584263721358931e+00 1.6830385204548399e+01 1 0 0
3127 1 1.7835870821326305e+00 2.9102998806432372e+00 1.6243303465113041e+01 -1 0 0
3571 1 6.4300612568565754e+00 3.1030463960351433e+00 1.6819077178832920e+01 1 0 0
1514 1 6.4090719091901462e+00 1.4009481578805689e+00 1.9083567588047845e+01 1 0 1
1679 1 9.1577175250622780e+00 1.3531727064799939e+00 1.8630500384911439e+01 0 1 1
5092 1 2.8216477372372393e+00 5.3644069272869981e+00 1.9203294121782875e+01 1 0 0
1885 1 1.2601097329171742e+00 5.3874620830216449e+00 1.7032915950602877e+01 0 2 0
1982 1 5.0611781190255991e+00 5.3962555701559358e+00 1.7494973566770003e+01 1 1 0
53 1 8.9255395087960334e+00 7.9445786385335362e+00 1.7506019811856206e+01 0 1 0
1383 1 6.5510261953516196e+00 7.2306753010664488e+00 1.9288620425432207e+01 0 1 0
5021 1 8.3565892434141027e+00 5.4004376955782147e+00 1.6576562064751535e+01 1 1 0
410 1 2.2587570554463254e+00 9.1426613108160648e+00 1.7393721467582687e+01 0 1 0
3650 1 5.5080100499086422e+00 9.8779309180526056e+00 1.9204300549756443e+01 0 0 0
2013 1 6.9002630319418614e+00 9.7330166710874497e+00 1.6596967592166905e+01 1 1 0
2870 1 3.6517195172894716e+00 1.4944642273061524e+00 2.0803663115056008e+01 0 1 1
5149 1 1.5080116490140607e+00 2.9415716791479971e+00 1.9871799670678300e+01 0 0 1
3563 1 7.4688883337895016e+00 3.7622395621890745e+00 2.2085420908156408e+01 1 -2 1
2124 1 7.7670375821034110e+00 1.7414127009914893e-01 2.2089086411759290e+01 0 1 0
141 1 3.8061250285344606e-01 4.1822124861495906e+00 2.2202296448966631e+01 0 0 0
195 1 4.6233014410960980e+00 4.1394510329232741e+00 2.1465314405790252e+01 0 1 0
1762 1 2.4798606202613001e+00 7.8985575704033133e+00 1.9936572599056966e+01 0 0 0
3623 1 4.5520343836302235e-01 7.0805523878533592e+00 2.1291305886491195e+01 1 1 0
396 1 4.7517971553092524e+00 7.4062528033674750e+00 2.1678051364754118e+01 -1 -1 0
3569 1 8.0285239583268275e+00 6.5897499791030301e+00 2.1561621886532123e+01 0 1 0
318 1 2.3856136830133980e+00 1.0179250281343139e+01 2.1737950736302132e+01 -1 1 0
1954 1 5.0403258318992918e+00 1.1264307295930928e+01 2.1773800724892322e+01 0 0 0
4828 1 8.0220204281102241e+00 1.0236679205613163e+01 2.1313816535495402e+01 1 -1 0
427 1 9.8029060403545163e+00 8.4991248330704892e+00 2.0372998465618210e+01 0 0 0
1929 1 2.1866127259072341e+00 1.7515396358967856e+00 2.3462166375969918e+01 0 1 0
1965 1 6.8062400613022440e+00 1.4774990799830321e+00 2.4265260567989657e+01 0 1 0
5050 1 3.1773985706204111e+00 4.4862784112289535e+00 2.4241189264089119e+01 1 0 0
199 1 2.5913070479889262e+00 7.0966364863501044e+00 2.3910134035351078e+01 -1 1 0
3514 1 6.2290490143643495e+00 4.5766955689772173e+00 2.4457769370188398e+01 0 0 0
3387 1 7.4936994920194993e+00 7.3456752713935112e+00 2.4446874534189796e+01 0 0 1
3226 1 1.9147200092574819e+00 1.0036886868456772e+01 2.4622032860030277e+01 0 0 1
1811 1 4.8278227901340065e+00 1.1722702088193916e+01 2.4561635481372690e+01 0 1 0
1814 1 5.1685812757520244e+00 8.9812245423979338e+00 2.4145929037539851e+01 0 1 0
3036 1 8.6025769542603623e+00 9.9347494999162134e+00 2.4021508782402098e+01 0 1 1
554 2 0.0000000000000000e+00 2.8417180249513345e+00 2.6854246809477782e+01 0 0 0
556 2 0.0000000000000000e+00 0.0000000000000000e+00 2.6854246809477782e+01 0 0 0
558 2 1.2305000000000001e+00 7.1042950623783474e-01 2.6854246809477782e+01 0 0 0
565 2 1.2305000000000001e+00 2.1312885187134998e+00 2.6854246809477782e+01 0 0 0
567 2 2.4610000000000003e+00 2.8417180249513345e+00 2.6854246809477782e+01 0 0 0
569 2 2.4610000000000003e+00 0.0000000000000000e+00 2.6854246809477782e+01 0 0 0
571 2 3.6915000000000004e+00 7.1042950623783474e-01 2.6854246809477782e+01 0 0 0
586 2 3.6914999999999996e+00 2.1312885187134998e+00 2.6854246809477782e+01 0 0 0
588 2 4.9220000000000006e+00 2.8417180249513332e+00 2.6854246809477782e+01 0 0 0
590 2 4.9220000000000006e+00 0.0000000000000000e+00 2.6854246809477782e+01 0 0 0
592 2 6.1524999999999999e+00 7.1042950623783407e-01 2.6854246809477782e+01 0 0 0
615 2 6.1524999999999999e+00 2.1312885187134989e+00 2.6854246809477782e+01 0 0 0
617 2 7.3829999999999991e+00 2.8417180249513345e+00 2.6854246809477782e+01 0 0 0
619 2 7.3829999999999991e+00 0.0000000000000000e+00 2.6854246809477782e+01 0 0 0
621 2 8.6134999999999984e+00 7.1042950623783407e-01 2.6854246809477782e+01 0 0 0
652 2 8.6134999999999984e+00 2.1312885187135002e+00 2.6854246809477782e+01 0 0 0
561 2 0.0000000000000000e+00 4.2625770374269996e+00 2.6854246809477782e+01 0 0 0
563 2 1.2305000000000001e+00 4.9730065436648339e+00 2.6854246809477782e+01 0 0 0
578 2 1.2305000000000001e+00 6.3938655561404980e+00 2.6854246809477782e+01 0 0 0
582 2 2.4610000000000003e+00 4.2625770374269996e+00 2.6854246809477782e+01 0 0 0
584 2 3.6914999999999996e+00 4.9730065436648339e+00 2.6854246809477782e+01 0 0 0
607 2 3.6914999999999996e+00 6.3938655561404980e+00 2.6854246809477782e+01 0 0 0
559 2 0.0000000000000000e+00 7.1042950623783341e+00 2.6854246809477782e+01 0 0 0
580 2 2.4610000000000003e+00 7.1042950623783341e+00 2.6854246809477782e+01 0 0 0
611 2 4.9220000000000006e+00 4.2625770374269978e+00 2.6854246809477782e+01 0 0 0
613 2 6.1524999999999999e+00 4.9730065436648339e+00 2.6854246809477782e+01 0 0 0
644 2 6.1524999999999999e+00 6.3938655561404980e+00 2.6854246809477782e+01 0 0 0
648 2 7.3829999999999991e+00 4.2625770374269996e+00 2.6854246809477782e+01 0 0 0
650 2 8.6135000000000002e+00 4.9730065436648339e+00 2.6854246809477782e+01 0 0 0
689 2 8.6135000000000002e+00 6.3938655561404980e+00 2.6854246809477782e+01 0 0 0
609 2 4.9220000000000006e+00 7.1042950623783341e+00 2.6854246809477782e+01 0 0 0
646 2 7.3830000000000009e+00 7.1042950623783341e+00 2.6854246809477782e+01 0 0 0
574 2 0.0000000000000000e+00 8.5251540748539991e+00 2.6854246809477782e+01 0 0 0
576 2 1.2305000000000001e+00 9.2355835810918343e+00 2.6854246809477782e+01 0 0 0
603 2 2.4610000000000003e+00 8.5251540748539991e+00 2.6854246809477782e+01 0 0 0
605 2 3.6915000000000004e+00 9.2355835810918343e+00 2.6854246809477782e+01 0 0 0
572 2 0.0000000000000000e+00 1.1366872099805333e+01 2.6854246809477782e+01 0 0 0
599 2 1.2305000000000001e+00 1.0656442593567498e+01 2.6854246809477782e+01 0 0 0
601 2 2.4610000000000003e+00 1.1366872099805333e+01 2.6854246809477782e+01 0 0 0
636 2 3.6914999999999996e+00 1.0656442593567499e+01 2.6854246809477782e+01 0 0 0
687 2 8.6134999999999984e+00 9.2355835810918343e+00 2.6854246809477782e+01 0 0 0
685 2 7.3830000000000009e+00 8.5251540748539991e+00 2.6854246809477782e+01 0 0 0
640 2 4.9220000000000006e+00 8.5251540748539991e+00 2.6854246809477782e+01 0 0 0
683 2 7.3829999999999991e+00 1.1366872099805333e+01 2.6854246809477782e+01 0 0 0
681 2 6.1524999999999999e+00 1.0656442593567499e+01 2.6854246809477782e+01 0 0 0
638 2 4.9220000000000006e+00 1.1366872099805333e+01 2.6854246809477782e+01 0 0 0
642 2 6.1524999999999999e+00 9.2355835810918343e+00 2.6854246809477782e+01 0 0 0
728 2 8.6134999999999984e+00 1.0656442593567498e+01 2.6854246809477782e+01 0 0 0
555 2 0.0000000000000000e+00 1.4208590124756650e+00 3.0030999999998983e+01 0 0 0
557 2 0.0000000000000000e+00 0.0000000000000000e+00 3.0030999999998983e+01 0 0 0
566 2 1.2305000000000001e+00 2.1312885187134998e+00 3.0030999999998983e+01 0 0 0
568 2 2.4610000000000003e+00 1.4208590124756650e+00 3.0030999999998983e+01 0 0 0
570 2 2.4610000000000003e+00 0.0000000000000000e+00 3.0030999999998983e+01 0 0 0
587 2 3.6914999999999996e+00 2.1312885187134998e+00 3.0030999999998983e+01 0 0 0
564 2 1.2305000000000001e+00 3.5521475311891644e+00 3.0030999999998983e+01 0 0 0
585 2 3.6914999999999996e+00 3.5521475311891644e+00 3.0030999999998983e+01 0 0 0
883 2 0.0000000000000000e+00 2.8417180249513345e+00 3.3207753190520471e+01 0 0 0
884 2 0.0000000000000000e+00 0.0000000000000000e+00 3.3207753190520471e+01 0 0 0
885 2 1.2305000000000001e+00 7.1042950623783474e-01 3.3207753190520471e+01 0 0 0
889 2 1.2305000000000001e+00 2.1312885187134998e+00 3.3207753190520471e+01 0 0 0
890 2 2.4610000000000003e+00 2.8417180249513345e+00 3.3207753190520471e+01 0 0 0
891 2 2.4610000000000003e+00 0.0000000000000000e+00 3.3207753190520471e+01 0 0 0
892 2 3.6915000000000004e+00 7.1042950623783474e-01 3.3207753190520471e+01 0 0 0
900 2 3.6914999999999996e+00 2.1312885187134998e+00 3.3207753190520471e+01 0 0 0
589 2 4.9220000000000006e+00 1.4208590124756650e+00 3.0030999999998983e+01 0 0 0
591 2 4.9220000000000006e+00 0.0000000000000000e+00 3.0030999999998983e+01 0 0 0
616 2 6.1524999999999999e+00 2.1312885187134989e+00 3.0030999999998983e+01 0 0 0
618 2 7.3829999999999991e+00 1.4208590124756659e+00 3.0030999999998983e+01 0 0 0
620 2 7.3829999999999991e+00 0.0000000000000000e+00 3.0030999999998983e+01 0 0 0
653 2 8.6134999999999984e+00 2.1312885187135002e+00 3.0030999999998983e+01 0 0 0
614 2 6.1524999999999999e+00 3.5521475311891644e+00 3.0030999999998983e+01 0 0 0
651 2 8.6134999999999984e+00 3.5521475311891657e+00 3.0030999999998983e+01 0 0 0
901 2 4.9220000000000006e+00 2.8417180249513332e+00 3.3207753190520471e+01 0 0 0
902 2 4.9220000000000006e+00 0.0000000000000000e+00 3.3207753190520471e+01 0 0 0
903 2 6.1524999999999999e+00 7.1042950623783407e-01 3.3207753190520471e+01 0 0 0
915 2 6.1524999999999999e+00 2.1312885187134989e+00 3.3207753190520471e+01 0 0 0
916 2 7.3829999999999991e+00 2.8417180249513345e+00 3.3207753190520471e+01 0 0 0
917 2 7.3829999999999991e+00 0.0000000000000000e+00 3.3207753190520471e+01 0 0 0
918 2 8.6134999999999984e+00 7.1042950623783407e-01 3.3207753190520471e+01 0 0 0
934 2 8.6134999999999984e+00 2.1312885187135002e+00 3.3207753190520471e+01 0 0 0
560 2 0.0000000000000000e+00 5.6834360499026637e+00 3.0030999999998983e+01 0 0 0
562 2 0.0000000000000000e+00 4.2625770374269996e+00 3.0030999999998983e+01 0 0 0
579 2 1.2305000000000001e+00 6.3938655561404980e+00 3.0030999999998983e+01 0 0 0
581 2 2.4610000000000003e+00 5.6834360499026637e+00 3.0030999999998983e+01 0 0 0
583 2 2.4610000000000003e+00 4.2625770374269996e+00 3.0030999999998983e+01 0 0 0
608 2 3.6914999999999996e+00 6.3938655561404980e+00 3.0030999999998983e+01 0 0 0
577 2 1.2305000000000001e+00 7.8147245686161639e+00 3.0030999999998983e+01 0 0 0
606 2 3.6914999999999996e+00 7.8147245686161639e+00 3.0030999999998983e+01 0 0 0
887 2 0.0000000000000000e+00 4.2625770374269996e+00 3.3207753190520471e+01 0 0 0
888 2 1.2305000000000001e+00 4.9730065436648339e+00 3.3207753190520471e+01 0 0 0
896 2 1.2305000000000001e+00 6.3938655561404980e+00 3.3207753190520471e+01 0 0 0
898 2 2.4610000000000003e+00 4.2625770374269996e+00 3.3207753190520471e+01 0 0 0
899 2 3.6914999999999996e+00 4.9730065436648339e+00 3.3207753190520471e+01 0 0 0
911 2 3.6914999999999996e+00 6.3938655561404980e+00 3.3207753190520471e+01 0 0 0
886 2 0.0000000000000000e+00 7.1042950623783341e+00 3.3207753190520471e+01 0 0 0
897 2 2.4610000000000003e+00 7.1042950623783341e+00 3.3207753190520471e+01 0 0 0
610 2 4.9220000000000006e+00 5.6834360499026637e+00 3.0030999999998983e+01 0 0 0
612 2 4.9220000000000006e+00 4.2625770374269978e+00 3.0030999999998983e+01 0 0 0
645 2 6.1524999999999999e+00 6.3938655561404980e+00 3.0030999999998983e+01 0 0 0
647 2 7.3829999999999991e+00 5.6834360499026637e+00 3.0030999999998983e+01 0 0 0
649 2 7.3829999999999991e+00 4.2625770374269996e+00 3.0030999999998983e+01 0 0 0
690 2 8.6135000000000002e+00 6.3938655561404980e+00 3.0030999999998983e+01 0 0 0
643 2 6.1524999999999999e+00 7.8147245686161639e+00 3.0030999999998983e+01 0 0 0
688 2 8.6135000000000002e+00 7.8147245686161639e+00 3.0030999999998983e+01 0 0 0
913 2 4.9220000000000006e+00 4.2625770374269978e+00 3.3207753190520471e+01 0 0 0
914 2 6.1524999999999999e+00 4.9730065436648339e+00 3.3207753190520471e+01 0 0 0
930 2 6.1524999999999999e+00 6.3938655561404980e+00 3.3207753190520471e+01 0 0 0
932 2 7.3829999999999991e+00 4.2625770374269996e+00 3.3207753190520471e+01 0 0 0
933 2 8.6135000000000002e+00 4.9730065436648339e+00 3.3207753190520471e+01 0 0 0
953 2 8.6135000000000002e+00 6.3938655561404980e+00 3.3207753190520471e+01 0 0 0
912 2 4.9220000000000006e+00 7.1042950623783341e+00 3.3207753190520471e+01 0 0 0
931 2 7.3830000000000009e+00 7.1042950623783341e+00 3.3207753190520471e+01 0 0 0
573 2 0.0000000000000000e+00 9.9460130873296642e+00 3.0030999999998983e+01 0 0 0
575 2 0.0000000000000000e+00 8.5251540748539991e+00 3.0030999999998983e+01 0 0 0
602 2 2.4610000000000003e+00 9.9460130873296642e+00 3.0030999999998983e+01 0 0 0
604 2 2.4610000000000003e+00 8.5251540748539991e+00 3.0030999999998983e+01 0 0 0
598 2 1.2305000000000001e+00 1.2077301606043163e+01 3.0030999999998983e+01 0 0 0
600 2 1.2305000000000001e+00 1.0656442593567498e+01 3.0030999999998983e+01 0 0 0
635 2 3.6914999999999996e+00 1.2077301606043163e+01 3.0030999999998983e+01 0 0 0
637 2 3.6914999999999996e+00 1.0656442593567499e+01 3.0030999999998983e+01 0 0 0
894 2 0.0000000000000000e+00 8.5251540748539991e+00 3.3207753190520471e+01 0 0 0
895 2 1.2305000000000001e+00 9.2355835810918343e+00 3.3207753190520471e+01 0 0 0
909 2 2.4610000000000003e+00 8.5251540748539991e+00 3.3207753190520471e+01 0 0 0
910 2 3.6915000000000004e+00 9.2355835810918343e+00 3.3207753190520471e+01 0 0 0
893 2 0.0000000000000000e+00 1.1366872099805333e+01 3.3207753190520471e+01 0 0 0
907 2 1.2305000000000001e+00 1.0656442593567498e+01 3.3207753190520471e+01 0 0 0
908 2 2.4610000000000003e+00 1.1366872099805333e+01 3.3207753190520471e+01 0 0 0
926 2 3.6914999999999996e+00 1.0656442593567499e+01 3.3207753190520471e+01 0 0 0
639 2 4.9220000000000006e+00 9.9460130873296642e+00 3.0030999999998983e+01 0 0 0
641 2 4.9220000000000006e+00 8.5251540748539991e+00 3.0030999999998983e+01 0 0 0
684 2 7.3830000000000009e+00 9.9460130873296642e+00 3.0030999999998983e+01 0 0 0
686 2 7.3830000000000009e+00 8.5251540748539991e+00 3.0030999999998983e+01 0 0 0
680 2 6.1524999999999999e+00 1.2077301606043163e+01 3.0030999999998983e+01 0 0 0
682 2 6.1524999999999999e+00 1.0656442593567499e+01 3.0030999999998983e+01 0 0 0
727 2 8.6135000000000002e+00 1.2077301606043163e+01 3.0030999999998983e+01 0 0 0
729 2 8.6134999999999984e+00 1.0656442593567498e+01 3.0030999999998983e+01 0 0 0
928 2 4.9220000000000006e+00 8.5251540748539991e+00 3.3207753190520471e+01 0 0 0
929 2 6.1524999999999999e+00 9.2355835810918343e+00 3.3207753190520471e+01 0 0 0
951 2 7.3830000000000009e+00 8.5251540748539991e+00 3.3207753190520471e+01 0 0 0
952 2 8.6134999999999984e+00 9.2355835810918343e+00 3.3207753190520471e+01 0 0 0
927 2 4.9220000000000006e+00 1.1366872099805333e+01 3.3207753190520471e+01 0 0 0
949 2 6.1524999999999999e+00 1.0656442593567499e+01 3.3207753190520471e+01 0 0 0
950 2 7.3829999999999991e+00 1.1366872099805333e+01 3.3207753190520471e+01 0 0 0
973 2 8.6134999999999984e+00 1.0656442593567498e+01 3.3207753190520471e+01 0 0 0
2892 1 2.8387165755050572e+00 2.6212775645102147e+00 3.5416639889746058e+01 0 0 0
6100 1 2.1018625089645253e+00 3.4185759890586231e-01 3.6334564790113902e+01 1 1 0
505 1 7.9328225635632377e+00 1.8021489948361795e+00 3.6137935603239292e+01 0 0 0
3236 1 5.6617570092884115e+00 3.1207543025944706e+00 3.6084117968497672e+01 1 0 0
1581 1 2.4506822510576973e+00 7.5361454179227545e+00 3.5591263841533241e+01 0 0 0
519 1 1.9232683800203134e+00 5.0634590109138902e+00 3.6583377266415440e+01 0 1 0
3664 1 5.5221530645818868e+00 6.1243344887573068e+00 3.5905619991428487e+01 1 1 -1
5974 1 8.3583897893299319e+00 5.4732289284686013e+00 3.5685464879317443e+01 1 1 0
3284 1 4.7443679212584184e+00 1.1747398075151443e+01 3.5672288264146182e+01 1 -1 -1
2924 1 1.2459814847623252e-01 9.0056180145106062e+00 3.5731403330159729e+01 1 1 0
4780 1 5.1397419157125999e+00 9.0783043554161669e+00 3.6512577228860295e+01 1 0 0
5020 1 8.5802531323337750e+00 9.9142958365948246e+00 3.5879666707489548e+01 1 0 -1
3367 1 2.9343474738296087e+00 9.5612770700733452e-01 3.9211476586620861e+01 0 0 -1
1391 1 2.5976973802019404e-01 2.3305789919590136e-01 3.9841672054592209e+01 0 0 0
2952 1 5.5957807167256730e+00 1.9741108110487833e+00 3.8716316769021091e+01 1 0 0
3251 1 8.9813200754481830e+00 1.9188642173530950e+00 3.9183456578399394e+01 1 0 -1
1876 1 3.6612807816646038e+00 5.7924730172777101e+00 3.8528591214658178e+01 0 1 -1
3536 1 9.2245889843003610e+00 4.5009372153230505e+00 3.8186903135793877e+01 0 0 -1
1588 1 6.3205515972112307e+00 4.8843518798517245e+00 3.9005318088250931e+01 0 1 -1
4547 1 3.7270877359503216e+00 9.0876654095227334e+00 3.9006681779789652e+01 1 0 0
6293 1 8.5738271348558504e-01 9.6972934434031508e+00 3.8280109684565247e+01 1 1 0
4730 1 3.7537472766571662e+00 1.1650743148573135e+01 3.9780958033225545e+01 0 1 0
3005 1 7.2528463212402823e+00 9.8174039928712507e+00 3.8069909202650621e+01 0 0 0
1325 1 4.7361800463402561e+00 3.0459898523137934e+00 4.2517177629337120e+01 0 1 -1
3531 1 1.9850052014349244e+00 2.5861527772073338e+00 4.1546299859030420e+01 1 0 -1
391 1 4.5791099159365511e-01 3.4355814768370023e+00 4.3745586039278777e+01 1 -1 -1
1726 1 7.0175612444587872e+00 1.3116411361505218e+00 4.1453634885131834e+01 -1 1 -1
5210 1 2.5389632755897251e+00 5.6520041904217928e+00 4.1123617040457241e+01 0 0 0
6201 1 4.3465438242376186e-01 7.5804724568995967e+00 4.2167097024077442e+01 0 0 -1
1238 1 8.2539823980678477e+00 5.6339773809704123e+00 4.3047419473334315e+01 0 0 0
4548 1 5.8944095613494802e+00 5.5657752678807846e+00 4.1502574029780902e+01 0 0 0
6205 1 4.4646634663921692e+00 8.2447937700781022e+00 4.1853617454787852e+01 1 1 0
4864 1 3.1372011937318613e+00 1.1164149785279145e+01 4.3527104955164184e+01 0 0 -1
1897 1 2.6274587351884264e+00 8.5604175437816181e+00 4.3701731948511494e+01 0 -1 -1
4465 1 6.6960136843354681e+00 9.5891838495965409e+00 4.2923714275454593e+01 0 0 0
1422 1 8.3580557420964112e+00 9.1617595063097301e+00 4.0493424029120533e+01 0 1 -1
4593 1 9.8339103259848404e+00 1.1464429774440029e+01 4.1287835816115084e+01 0 0 0
1732 1 5.4616032446827827e+00 1.2029759179961220e+01 4.1933676733643132e+01 1 -1 -1
1510 1 4.3300717160083666e+00 3.4272764697168459e+00 4.5199613987091865e+01 -1 1 0
1342 1 2.6231353006916742e+00 1.0482823996475892e+00 4.5802545068555915e+01 0 0 0
394 1 8.6290702124387799e+00 3.6169334761202041e+00 4.5017500445738918e+01 0 0 -1
158 1 6.3294363811743271e+00 3.0340216600968550e+00 4.7125642149760118e+01 0 1 -1
3254 1 8.0548852027750932e+00 8.3293840043155054e-01 4.4196548336187419e+01 1 0 0
1426 1 1.8653273589408583e+00 4.8402180328266020e+00 4.6119643337843456e+01 0 1 -1
3366 1 3.8663091863372041e+00 6.7956409534757087e+00 4.5761567954685162e+01 0 1 -1
131 1 6.3812528277973479e+00 6.2738597400317673e+00 4.6144465893821710e+01 0 0 -1
1401 1 8.1815041067642085e+00 7.7792531039171884e+00 4.4578229557133533e+01 0 0 0
4756 1 4.2780749711687938e-01 8.9170252520643274e+00 4.5347621469288868e+01 1 -1 0
3680 1 1.0050601348672579e+00 1.1223923730358203e+01 4.6462050156011493e+01 0 0 0
1457 1 3.7940345664291084e+00 1.1593650425840236e+01 4.6222460063464901e+01 0 0 0
3465 1 8.2381693071544202e+00 1.2252675792092790e+01 4.5343830362314804e+01 0 0 -1
4883 1 4.5455614582917514e+00 1.0233017630234049e+00 4.8078723323375023e+01 1 1 -1
1531 1 2.5840815370347539e+00 9.3347785085018486e-01 5.0196660590875560e+01 0 1 0
6085 1 3.2398139077679927e-01 2.3552364933727974e+00 4.7313994930782989e+01 1 1 0
3305 1 2.8813993656289072e+00 3.7560809961919719e+00 5.0282668007098870e+01 0 1 -1
1820 1 9.1722233880727604e+00 1.9231702497448961e+00 4.8067705683419106e+01 0 0 -1
4727 1 5.6626074799719162e-01 4.3240500648342435e+00 4.9296406061275093e+01 0 0 0
1789 1 2.2771779530027203e-01 7.2953929567964799e+00 5.0284180153558999e+01 1 1 -1
6013 1 5.8662052446666513e+00 4.1683502351145139e+00 4.9800636448849787e+01 1 1 0
3140 1 9.4780382475088771e+00 6.8221374508025239e+00 4.8537034890858315e+01 1 -1 -1
6229 1 6.2951012187635129e+00 7.0003736707141035e+00 5.0659495205479679e+01 0 1 0
1978 1 3.1346311445629413e+00 9.2194692482924427e+00 5.0068202869737355e+01 0 1 -1
545 1 3.9060813264228300e+00 8.8937346606451690e+00 4.7356470469451480e+01 1 0 0
1408 1 6.7252804826723924e+00 8.3115786570743762e+00 4.8203778356645657e+01 0 0 0
544 1 8.2015297724344975e+00 1.0635897943568214e+01 4.7441126629532121e+01 0 1 -1
4443 1 5.4219081944010927e+00 1.0965269462407731e+01 4.9587132125525201e+01 0 0 -1
1660 1 9.3718225954932510e+00 9.2710453045657071e-01 5.4033862689548364e+01 0 1 -1
4996 1 6.6960241345455209e+00 1.3324353305888113e+00 5.2644813321538017e+01 1 -1 -1
3634 1 8.0650426877985542e+00 2.8332203566713372e+00 5.0755577652554706e+01 1 0 0
4605 1 2.5626746816369348e+00 4.3139569305449399e+00 5.2931149425454691e+01 1 -1 0
485 1 2.7588478323220889e+00 7.0638913338024905e+00 5.3906142042911910e+01 0 0 0
3373 1 8.8625046861811043e+00 7.3183807357778194e+00 5.1840813366325115e+01 1 1 -1
3156 1 2.7714160313918006e+00 1.1558805155031191e+01 5.3344257963064827e+01 1 0 -1
1263 1 1.3793915045270522e-01 8.2704849343147480e+00 5.3580764015992564e+01 0 0 0
128 1 4.5796446964237614e+00 8.2797240925750817e+00 5.2163070309804105e+01 1 1 -1
23 1 9.8358998517794727e-01 1.0293264003333082e+01 5.1496524917366472e+01 0 0 0
5993 1 7.4528083023206371e+00 1.0397565739264765e+01 5.1882452543779294e+01 0 0 -1
1810 1 4.8705379999334770e+00 2.9136695557511452e+00 5.4303419678809504e+01 0 0 -1
1694 1 1.0330544065653415e+00 2.6974857249431921e+00 5.4389486061834951e+01 1 0 -1
4977 1 1.8843911487999516e+00 3.3185873516096378e+00 5.6775953259350182e+01 1 1 -1
269 1 2.8000686232155982e+00 4.6266050846793194e-01 5.4433091883345284e+01 0 1 0
1410 1 5.4071137123508279e+00 4.1069556980201694e-01 5.6203018180183250e+01 0 0 0
1775 1 9.8004252502219202e+00 1.1143821909012706e+00 5.6678259166594557e+01 0 1 -1
1822 1 7.0583604917360185e+00 2.0235855419226860e+00 5.7577052651652494e+01 0 0 -1
1291 1 2.1083696748362284e+00 6.0099670543800796e+00 5.7036238268407629e+01 0 1 -1
551 1 8.7613911897457388e+00 6.0111293169696935e+00 5.4278109580293751e+01 0 0 0
262 1 7.4020142233944304e+00 4.8086766438912951e+00 5.6672580732397613e+01 0 0 -1
5193 1 1.4701554801797869e+00 1.0855559280602204e+01 5.5640953855222740e+01 0 1 0
3199 1 3.4146245318811133e+00 9.0796312783492823e+00 5.6156984783485413e+01 1 1 0
2956 1 7.3623969878976681e+00 9.6783378641419535e+00 5.6792070125517498e+01 0 1 0
1970 1 5.4180675600742108e+00 1.0114094694471385e+01 5.4551340508566980e+01 0 0 -1
395 1 2.9442078266593326e+00 1.5944329800508305e+01 4.8627911702383422e+00 0 0 0
4791 1 2.7872693633564638e+00 1.3252328457988369e+01 5.6188774486511495e+00 1 0 1
2951 1 4.4908859581217166e+00 1.2518194581130713e+01 3.4362499386492331e+00 0 0 0
2006 1 6.5609655776899496e+00 1.4316903410100906e+01 3.2872257524247068e+00 1 0 0
4602 1 2.8213936588826480e+00 1.7540325606310827e+01 2.6032340869079316e+00 1 -1 1
1618 1 4.2863834588532548e+00 2.0285875441337726e+01 4.8720018480619194e+00 1 0 1
5249 1 6.8636892869690476e+00 1.7130226374179760e+01 3.6859682154932063e+00 1 -1 0
3369 1 5.2285122491114935e+00 1.9057363412099882e+01 2.5347807938534128e+00 1 0 0
3147 1 3.2287905964565016e+00 2.2541833858815117e+01 3.2208830150498753e+00 0 0 0
4759 1 1.7248276025185074e+00 2.3934172621149234e+01 5.0568441471220851e+00 2 -1 1
3605 1 8.3019498061275936e+00 2.2691114417974863e+01 4.7084882389794318e+00 0 -1 0
5150 1 9.6854757649529688e+00 2.1033672333270584e+01 2.8350325789720263e+00 1 1 0
5301 1 4.7830662486387746e-02 1.2943011993497223e+01 7.7883192181666869e+00 1 0 1
5091 1 2.9851080100474956e+00 1.2607510805379345e+01 8.3558171775718666e+00 1 1 0
1986 1 6.8220267292734533e+00 1.4289215458108002e+01 6.3226195297520436e+00 1 1 0
4742 1 9.3262830782645239e+00 1.5331455772816719e+01 6.8308449193092793e+00 -1 0 0
3400 1 4.9919693477223372e+00 1.4637646126115612e+01 8.6831387801871038e+00 1 1 0
5045 1 9.7112003608169273e-01 1.7042831973726081e+01 6.4656740501420407e+00 1 0 0
30 1 4.0934165819733872e+00 1.7848015935371130e+01 8.8044209063644274e+00 0 0 0
1655 1 2.7333588044533381e+00 1.9046605348269324e+01 6.8200769183093124e+00 0 0 0
3180 1 5.1972939725955358e+00 1.6765998205568778e+01 6.3905467382580605e+00 0 1 1
3704 1 6.8949479098162563e+00 1.9744691207721299e+01 8.1687790389222226e+00 0 1 1
6046 1 8.1574319253046585e+00 1.7735414556664175e+01 6.1356322529516110e+00 0 0 0
6042 1 1.8614573943576784e+00 2.1279603963823185e+01 8.4153757414342607e+00 0 0 1
2989 1 2.9516061980154702e+00 2.3722451586539187e+01 9.3106823214556798e+00 0 1 1
4795 1 6.2629319507021979e+00 2.1777802398587092e+01 6.4439190835873852e+00 1 0 0
3202 1 9.7508333657315553e+00 2.0587248602151739e+01 6.9531943255269910e+00 0 1 0
87 1 5.5603972349665121e+00 2.3666341605252935e+01 8.0620769231377523e+00 0 0 1
1508 1 1.7907016789291055e+00 1.4754473126187490e+01 1.0624104174585352e+01 0 0 1
4434 1 5.3962572889337634e+00 1.5035200378991428e+01 1.1525264561198179e+01 1 1 1
5106 1 8.0767340739956204e+00 1.6087010437763595e+01 1.1423075067883158e+01 1 0 0
5115 1 9.6200740577865673e+00 1.4614010763992802e+01 9.6875644736546302e+00 1 0 0
1362 1 3.1820890308141356e+00 1.7077630925745016e+01 1.1073152531195147e+01 1 0 0
5320 1 1.7205123559276534e+00 1.8822899263447059e+01 1.2616330259444384e+01 0 0 0
3469 1 7.7263487528288888e+00 1.8846054594580707e+01 1.2206853279582091e+01 0 -1 1
3177 1 5.0343727129396285e+00 1.9341436793922625e+01 1.2785121928335887e+01 -1 1 0
487 1 1.8889871725564018e+00 2.1417952800775410e+01 1.1359612223089492e+01 1 0 0
4425 1 4.6461781694225737e+00 2.0493502937398066e+01 1.0183716516701320e+01 0 0 1
3588 1 3.8952692487605658e+00 2.3762176173192262e+01 1.2125671628684811e+01 1 0 0
240 1 6.4115242424483689e+00 2.2942008250657448e+01 1.0751160301885504e+01 1 0 0
3303 1 8.4304669262098066e+00 2.1093653305186145e+01 1.0169932624096578e+01 0 0 0
329 1 1.7826421033030810e+00 1.3247299492773378e+01 1.3284979816930720e+01 1 -1 0