LAMMPS data file via write_data, version 16 Mar 2018, timestep = 6000000

6337 atoms
2 atom types

0.0000000000000000e+00 4.9219999999999999e+01 xlo xhi
0.0000000000000000e+00 4.9019635930410494e+01 ylo yhi
1.7017503411219721e+00 5.8360249658871965e+01 zlo zhi

Masses

1 18.015
2 12.01

Atoms # atomic

6232 1 9.1239868051895090e-01 3.3562110375597904e+00 4.4789344606829076e+00 1 -2 0
427 1 4.3793147137706692e+00 8.6437307129433461e-01 5.1582703883719860e+00 -1 2 0
5204 1 4.2881829636601152e+00 5.0334078728082321e-01 2.4597954742577972e+00 -1 -1 0
1276 1 3.2180906307934327e+00 1.0010124530421328e+01 8.3522204662315893e+00 3 2 1
4681 1 8.8950642722593702e+00 2.3178552969799888e+00 4.7168357037844855e+00 2 -1 1
4619 1 4.9796229284604978e+00 4.8968214180048015e+00 1.9183449437894440e+00 0 0 1
24 1 9.6825360995257661e+00 2.0529043638111499e-01 8.4518504957353446e+00 -2 1 1
4804 1 9.4629970074965541e+00 6.4896725654375276e+00 4.4582659720499684e+00 -1 1 1
4695 1 5.1837592469922873e+00 5.0856378777236166e+00 4.7988625177999431e+00 0 -1 1
2081 1 1.5729939351337234e+00 8.0343833053526694e+00 4.4802937540548804e+00 0 3 1
2884 1 9.3038396102896659e+00 6.6971166513252847e+00 1.8295614876694093e+00 3 2 1
1958 1 4.0784339918748183e+00 9.0340738437238883e+00 3.4862608216304904e+00 0 -1 0
1573 1 5.1838655920988153e+00 1.1353780070213718e+01 6.8680419719139385e+00 1 2 1
35 1 8.0870141425304798e+00 1.0967147742291505e+01 3.3469187059440326e+00 -1 0 1
3247 1 6.3829566358052103e+00 9.3828293122471731e+00 4.9745989850715233e+00 0 5 1
444 1 1.9732238160338336e+00 1.4042978051679040e+00 6.1966525089572366e+00 -2 1 0
1558 1 7.1704366309972603e+00 6.9152211543462858e+00 5.6152237644838134e+00 -2 1 1
6132 1 6.4753690064794629e+00 2.8791185783583009e+00 5.9544920492079374e+00 -1 -2 1
4566 1 2.8269477250829351e+00 1.1422805947425926e+01 2.4384217119643350e+00 -1 1 0
132 1 7.5215664721419948e+00 1.1735430525856763e+01 8.0699874710115118e+00 -1 0 1
4421 1 1.0795768182577505e+00 9.7879288941068374e+00 6.7640829428629665e+00 1 2 1
3426 1 2.5453969112813368e+00 3.0444714912777004e+00 2.0582504358662583e+00 0 -2 1
3075 1 2.3530157453504286e+00 5.5537666461541093e+00 5.8869226248213709e+00 0 2 1
5195 1 8.5446051596957417e+00 2.4568948806981243e+00 1.8437176968467439e+00 4 -1 0
4586 1 6.9074839942540933e+00 6.8250882103293966e+00 8.5312708736334706e+00 0 0 0
1662 1 6.6143834834400028e+00 2.6329864169153905e+00 8.5514818707705551e+00 -1 2 0
3586 1 1.7284412411670563e-01 1.2150450826350758e+01 2.9693020720343424e+00 2 0 0
6078 1 3.9312436335494736e+00 3.2734348407367917e+00 9.4648218957565131e+00 0 1 1
3146 1 3.5225280505810659e+00 3.5100676078101407e+00 1.2100031242243540e+01 2 1 1
3616 1 7.1861596362480320e+00 4.3271073781372799e-01 9.7435211886789652e+00 -2 -1 1
3453 1 4.4707320960576915e+00 8.1142768234355671e+00 1.2094359685816016e+01 0 0 0
126 1 4.3931469932322047e+00 7.7088310192130196e+00 9.4041636691249639e+00 -1 1 0
2134 1 7.8920352533357727e+00 4.4995369037606938e+00 9.8587502697174152e+00 0 2 1
3560 1 8.0052382401385742e+00 5.0315031283208675e+00 1.2718278581532500e+01 0 3 0
4885 1 2.9705326474725493e+00 1.2010391427221604e+01 1.0403271479701395e+01 -1 1 0
2151 1 1.1189358648763981e+00 1.0839833461539719e+01 1.2314509033717908e+01 2 1 1
4564 1 5.3067398606433134e+00 5.8192124037067270e+00 1.5827838800427367e+01 0 3 0
3456 1 6.4532312829743397e+00 1.0042545098869692e+01 1.5615875245698495e+01 0 -2 0
351 1 8.6804254442992459e+00 9.6987567517742193e+00 1.1940036056949275e+01 1 -2 1
3019 1 4.8367154883086219e+00 1.2867238100324163e+00 1.3449426734074478e+01 0 2 1
4755 1 9.7098379463767581e-01 4.1926775772195448e+00 1.3170014279736970e+01 3 2 0
3620 1 8.9069790851919812e+00 2.5160224569173026e+00 1.3542234680220695e+01 2 -1 0
6151 1 7.3851352560246548e+00 7.2479151797903407e-01 1.2429802737614155e+01 0 0 1
222 1 8.3161401679310547e+00 9.4040528314343330e+00 9.1061759022079993e+00 0 0 0
2922 1 5.3100302805765045e+00 5.6340277416070697e+00 1.2918469801573153e+01 1 0 1
3032 1 6.3354182509860433e+00 1.0065318156027274e+01 1.2907799806464137e+01 0 0 1
5279 1 1.7656762596081534e+00 8.4852718810046639e+00 1.3212721591233695e+01 2 -1 1
1448 1 1.0046573693895924e-01 6.0905759049769959e+00 9.5367437862459568e+00 -3 1 1
3128 1 9.6061342304579647e+00 7.2093057263403058e+00 1.3251000139803688e+01 1 -1 1
6165 1 2.7108509329079631e+00 5.5572882233301408e+00 8.8234071675039552e+00 -2 -2 1
4908 1 1.9047759593770854e+00 1.5638088322482784e+00 8.8573632922402865e+00 0 -1 0
5037 1 2.0419833001101679e+00 1.8143440146929699e+00 1.7086042299277132e+01 2 0 0
1349 1 1.9111296648386153e+00 8.7907885951358864e+00 1.6024336253792161e+01 4 -1 1
1784 1 6.5091020153428527e+00 3.3559920672358454e+00 1.6946189480593610e+01 4 3 0
6084 1 9.8206609494231305e+00 6.0421630905443513e-01 1.9525696179146451e+01 2 0 1
5248 1 1.4569218780744191e+00 1.1216921381013224e+01 2.0732849475882517e+01 -1 -1 1
1526 1 2.8464724675656279e+00 6.0202500750807886e+00 1.7023240720664663e+01 1 3 1
2915 1 3.9513620512790992e+00 1.0297568533528210e+01 1.9783260543667883e+01 0 0 0
1274 1 7.6169613880735660e+00 7.6482357517893291e+00 1.9459767903536914e+01 -1 0 1
225 1 7.3616634360955953e+00 7.7013779456226796e+00 1.6519633457652020e+01 1 -3 1
182 1 3.7817541038355724e+00 1.0543632417279506e+01 1.6937703206255371e+01 0 2 1
441 1 8.3156072090472204e+00 1.1890398459685965e+01 1.6666334323538102e+01 -2 0 0
374 1 8.9045126889871025e+00 9.7069309189097606e+00 2.0297821280418013e+01 -1 2 0
3235 1 5.1105653487926785e+00 8.1234592865061312e+00 2.0867511058396868e+01 0 1 0
3710 1 2.3506479997015441e+00 1.6609450904631147e+00 1.9917764544036210e+01 2 1 1
2929 1 3.7649992544038544e+00 3.9514585988526010e+00 2.0841725336098953e+01 1 0 0
4888 1 6.6434278365704404e+00 3.4580932007480039e+00 1.9733152543082348e+01 1 -1 0
1989 1 7.4612074260092740e+00 1.0166014846409561e+00 2.0822655905539811e+01 1 1 0
4665 1 6.7318244350323686e-01 7.2978195080147596e+00 2.0991336192428097e+01 1 -2 1
1731 1 3.3308244764909425e+00 6.4994130216973858e+00 1.9783948429569534e+01 -2 -2 0
1625 1 8.3110546328296664e+00 5.2203082819471733e+00 2.0616014513144520e+01 -1 -2 0
2048 1 4.6661287690170621e+00 1.4281332180713677e+00 1.6056282505290348e+01 0 1 0
6213 1 9.8135881626472017e+00 6.6159596038064664e-02 1.6985303144519683e+01 2 4 0
3700 1 7.7902871608279556e+00 1.2174759186548428e+01 1.9412770064654609e+01 2 0 1
4977 1 1.0475701312351795e+00 4.3306936125517392e+00 1.6079361707097391e+01 1 2 0
6184 1 8.8381996370531546e+00 2.7293068503453415e+00 1.6113605023497669e+01 -4 1 1
117 1 2.1687162369713415e+00 2.0540328941646839e+00 2.4287486258212883e+01 -3 -1 1
3610 1 6.8812529125969526e+00 3.2393053492907056e+00 2.4420108598022924e+01 3 3 0
1551 1 7.3554040022483509e+00 8.6816905657297117e-01 2.3477817491753388e+01 0 2 1
642 2 6.1524999999999999e+00 9.2355835810918343e+00 2.6768212032887032e+01 0 0 0
1432 1 4.1388940467856941e+00 3.9067073900795228e+00 2.3614883421829315e+01 2 2 1
1665 1 9.1924965612808673e+00 9.9144479661473035e+00 2.3210049094060381e+01 2 2 0
4673 1 3.3639366307414247e+00 6.5325197476700687e+00 2.4312061968695982e+01 1 0 1
141 1 8.3739228553891749e+00 5.3926626833238975e+00 2.3656062885973832e+01 -2 1 0
1693 1 7.6877938305925477e+00 7.9339058872576471e+00 2.4372021854635495e+01 -1 0 0
5030 1 5.0601631019624200e+00 8.5657581678322909e+00 2.3613242723405406e+01 1 0 0
3549 1 4.0072960351881388e+00 1.1176572490572109e+01 2.4363297969110331e+01 1 -2 0
1351 1 1.2404727210981192e+00 1.1482214297499652e+01 2.3642524853991080e+01 1 -1 1
685 2 7.3830000000000009e+00 8.5251540748539991e+00 2.6768212032887032e+01 0 0 0
554 2 0.0000000000000000e+00 2.8417180249513345e+00 2.6768212032887032e+01 0 0 0
556 2 0.0000000000000000e+00 0.0000000000000000e+00 2.6768212032887032e+01 0 0 0
558 2 1.2305000000000001e+00 7.1042950623783474e-01 2.6768212032887032e+01 0 0 0
565 2 1.2305000000000001e+00 2.1312885187134998e+00 2.6768212032887032e+01 0 0 0
567 2 2.4610000000000003e+00 2.8417180249513345e+00 2.6768212032887032e+01 0 0 0
569 2 2.4610000000000003e+00 0.0000000000000000e+00 2.6768212032887032e+01 0 0 0
571 2 3.6915000000000004e+00 7.1042950623783474e-01 2.6768212032887032e+01 0 0 0
586 2 3.6914999999999996e+00 2.1312885187134998e+00 2.6768212032887032e+01 0 0 0
588 2 4.9220000000000006e+00 2.8417180249513332e+00 2.6768212032887032e+01 0 0 0
590 2 4.9220000000000006e+00 0.0000000000000000e+00 2.6768212032887032e+01 0 0 0
592 2 6.1524999999999999e+00 7.1042950623783407e-01 2.6768212032887032e+01 0 0 0
615 2 6.1524999999999999e+00 2.1312885187134989e+00 2.6768212032887032e+01 0 0 0
617 2 7.3829999999999991e+00 2.8417180249513345e+00 2.6768212032887032e+01 0 0 0
619 2 7.3829999999999991e+00 0.0000000000000000e+00 2.6768212032887032e+01 0 0 0
621 2 8.6134999999999984e+00 7.1042950623783407e-01 2.6768212032887032e+01 0 0 0
652 2 8.6134999999999984e+00 2.1312885187135002e+00 2.6768212032887032e+01 0 0 0
561 2 0.0000000000000000e+00 4.2625770374269996e+00 2.6768212032887032e+01 0 0 0
563 2 1.2305000000000001e+00 4.9730065436648339e+00 2.6768212032887032e+01 0 0 0
578 2 1.2305000000000001e+00 6.3938655561404980e+00 2.6768212032887032e+01 0 0 0
582 2 2.4610000000000003e+00 4.2625770374269996e+00 2.6768212032887032e+01 0 0 0
584 2 3.6914999999999996e+00 4.9730065436648339e+00 2.6768212032887032e+01 0 0 0
607 2 3.6914999999999996e+00 6.3938655561404980e+00 2.6768212032887032e+01 0 0 0
559 2 0.0000000000000000e+00 7.1042950623783341e+00 2.6768212032887032e+01 0 0 0
580 2 2.4610000000000003e+00 7.1042950623783341e+00 2.6768212032887032e+01 0 0 0
611 2 4.9220000000000006e+00 4.2625770374269978e+00 2.6768212032887032e+01 0 0 0
613 2 6.1524999999999999e+00 4.9730065436648339e+00 2.6768212032887032e+01 0 0 0
644 2 6.1524999999999999e+00 6.3938655561404980e+00 2.6768212032887032e+01 0 0 0
648 2 7.3829999999999991e+00 4.2625770374269996e+00 2.6768212032887032e+01 0 0 0
650 2 8.6135000000000002e+00 4.9730065436648339e+00 2.6768212032887032e+01 0 0 0
689 2 8.6135000000000002e+00 6.3938655561404980e+00 2.6768212032887032e+01 0 0 0
609 2 4.9220000000000006e+00 7.1042950623783341e+00 2.6768212032887032e+01 0 0 0
646 2 7.3830000000000009e+00 7.1042950623783341e+00 2.6768212032887032e+01 0 0 0
574 2 0.0000000000000000e+00 8.5251540748539991e+00 2.6768212032887032e+01 0 0 0
576 2 1.2305000000000001e+00 9.2355835810918343e+00 2.6768212032887032e+01 0 0 0
603 2 2.4610000000000003e+00 8.5251540748539991e+00 2.6768212032887032e+01 0 0 0
605 2 3.6915000000000004e+00 9.2355835810918343e+00 2.6768212032887032e+01 0 0 0
572 2 0.0000000000000000e+00 1.1366872099805333e+01 2.6768212032887032e+01 0 0 0
599 2 1.2305000000000001e+00 1.0656442593567498e+01 2.6768212032887032e+01 0 0 0
601 2 2.4610000000000003e+00 1.1366872099805333e+01 2.6768212032887032e+01 0 0 0
636 2 3.6914999999999996e+00 1.0656442593567499e+01 2.6768212032887032e+01 0 0 0
683 2 7.3829999999999991e+00 1.1366872099805333e+01 2.6768212032887032e+01 0 0 0
638 2 4.9220000000000006e+00 1.1366872099805333e+01 2.6768212032887032e+01 0 0 0
640 2 4.9220000000000006e+00 8.5251540748539991e+00 2.6768212032887032e+01 0 0 0
687 2 8.6134999999999984e+00 9.2355835810918343e+00 2.6768212032887032e+01 0 0 0
728 2 8.6134999999999984e+00 1.0656442593567498e+01 2.6768212032887032e+01 0 0 0
681 2 6.1524999999999999e+00 1.0656442593567499e+01 2.6768212032887032e+01 0 0 0
6271 1 6.4079565212702783e-01 7.0778707277612281e+00 2.3804226705339971e+01 2 -1 0
4446 1 8.3872827916322077e+00 1.2246697996085263e+01 2.4322448479689918e+01 0 0 1
555 2 0.0000000000000000e+00 1.4208590124756650e+00 3.0030999999997011e+01 0 0 0
557 2 0.0000000000000000e+00 0.0000000000000000e+00 3.0030999999997011e+01 0 0 0
566 2 1.2305000000000001e+00 2.1312885187134998e+00 3.0030999999997011e+01 0 0 0
568 2 2.4610000000000003e+00 1.4208590124756650e+00 3.0030999999997011e+01 0 0 0
570 2 2.4610000000000003e+00 0.0000000000000000e+00 3.0030999999997011e+01 0 0 0
587 2 3.6914999999999996e+00 2.1312885187134998e+00 3.0030999999997011e+01 0 0 0
564 2 1.2305000000000001e+00 3.5521475311891644e+00 3.0030999999997011e+01 0 0 0
585 2 3.6914999999999996e+00 3.5521475311891644e+00 3.0030999999997011e+01 0 0 0
883 2 0.0000000000000000e+00 2.8417180249513345e+00 3.3293787967115691e+01 0 0 0
884 2 0.0000000000000000e+00 0.0000000000000000e+00 3.3293787967115691e+01 0 0 0
885 2 1.2305000000000001e+00 7.1042950623783474e-01 3.3293787967115691e+01 0 0 0
889 2 1.2305000000000001e+00 2.1312885187134998e+00 3.3293787967115691e+01 0 0 0
890 2 2.4610000000000003e+00 2.8417180249513345e+00 3.3293787967115691e+01 0 0 0
891 2 2.4610000000000003e+00 0.0000000000000000e+00 3.3293787967115691e+01 0 0 0
892 2 3.6915000000000004e+00 7.1042950623783474e-01 3.3293787967115691e+01 0 0 0
900 2 3.6914999999999996e+00 2.1312885187134998e+00 3.3293787967115691e+01 0 0 0
589 2 4.9220000000000006e+00 1.4208590124756650e+00 3.0030999999997011e+01 0 0 0
591 2 4.9220000000000006e+00 0.0000000000000000e+00 3.0030999999997011e+01 0 0 0
616 2 6.1524999999999999e+00 2.1312885187134989e+00 3.0030999999997011e+01 0 0 0
618 2 7.3829999999999991e+00 1.4208590124756659e+00 3.0030999999997011e+01 0 0 0
620 2 7.3829999999999991e+00 0.0000000000000000e+00 3.0030999999997011e+01 0 0 0
653 2 8.6134999999999984e+00 2.1312885187135002e+00 3.0030999999997011e+01 0 0 0
614 2 6.1524999999999999e+00 3.5521475311891644e+00 3.0030999999997011e+01 0 0 0
651 2 8.6134999999999984e+00 3.5521475311891657e+00 3.0030999999997011e+01 0 0 0
901 2 4.9220000000000006e+00 2.8417180249513332e+00 3.3293787967115691e+01 0 0 0
902 2 4.9220000000000006e+00 0.0000000000000000e+00 3.3293787967115691e+01 0 0 0
903 2 6.1524999999999999e+00 7.1042950623783407e-01 3.3293787967115691e+01 0 0 0
915 2 6.1524999999999999e+00 2.1312885187134989e+00 3.3293787967115691e+01 0 0 0
916 2 7.3829999999999991e+00 2.8417180249513345e+00 3.3293787967115691e+01 0 0 0
917 2 7.3829999999999991e+00 0.0000000000000000e+00 3.3293787967115691e+01 0 0 0
918 2 8.6134999999999984e+00 7.1042950623783407e-01 3.3293787967115691e+01 0 0 0
934 2 8.6134999999999984e+00 2.1312885187135002e+00 3.3293787967115691e+01 0 0 0
560 2 0.0000000000000000e+00 5.6834360499026637e+00 3.0030999999997011e+01 0 0 0
562 2 0.0000000000000000e+00 4.2625770374269996e+00 3.0030999999997011e+01 0 0 0
579 2 1.2305000000000001e+00 6.3938655561404980e+00 3.0030999999997011e+01 0 0 0
581 2 2.4610000000000003e+00 5.6834360499026637e+00 3.0030999999997011e+01 0 0 0
583 2 2.4610000000000003e+00 4.2625770374269996e+00 3.0030999999997011e+01 0 0 0
608 2 3.6914999999999996e+00 6.3938655561404980e+00 3.0030999999997011e+01 0 0 0
577 2 1.2305000000000001e+00 7.8147245686161639e+00 3.0030999999997011e+01 0 0 0
606 2 3.6914999999999996e+00 7.8147245686161639e+00 3.0030999999997011e+01 0 0 0
887 2 0.0000000000000000e+00 4.2625770374269996e+00 3.3293787967115691e+01 0 0 0
888 2 1.2305000000000001e+00 4.9730065436648339e+00 3.3293787967115691e+01 0 0 0
896 2 1.2305000000000001e+00 6.3938655561404980e+00 3.3293787967115691e+01 0 0 0
898 2 2.4610000000000003e+00 4.2625770374269996e+00 3.3293787967115691e+01 0 0 0
899 2 3.6914999999999996e+00 4.9730065436648339e+00 3.3293787967115691e+01 0 0 0
911 2 3.6914999999999996e+00 6.3938655561404980e+00 3.3293787967115691e+01 0 0 0
886 2 0.0000000000000000e+00 7.1042950623783341e+00 3.3293787967115691e+01 0 0 0
897 2 2.4610000000000003e+00 7.1042950623783341e+00 3.3293787967115691e+01 0 0 0
610 2 4.9220000000000006e+00 5.6834360499026637e+00 3.0030999999997011e+01 0 0 0
612 2 4.9220000000000006e+00 4.2625770374269978e+00 3.0030999999997011e+01 0 0 0
645 2 6.1524999999999999e+00 6.3938655561404980e+00 3.0030999999997011e+01 0 0 0
647 2 7.3829999999999991e+00 5.6834360499026637e+00 3.0030999999997011e+01 0 0 0
649 2 7.3829999999999991e+00 4.2625770374269996e+00 3.0030999999997011e+01 0 0 0
690 2 8.6135000000000002e+00 6.3938655561404980e+00 3.0030999999997011e+01 0 0 0
643 2 6.1524999999999999e+00 7.8147245686161639e+00 3.0030999999997011e+01 0 0 0
688 2 8.6135000000000002e+00 7.8147245686161639e+00 3.0030999999997011e+01 0 0 0
913 2 4.9220000000000006e+00 4.2625770374269978e+00 3.3293787967115691e+01 0 0 0
914 2 6.1524999999999999e+00 4.9730065436648339e+00 3.3293787967115691e+01 0 0 0
930 2 6.1524999999999999e+00 6.3938655561404980e+00 3.3293787967115691e+01 0 0 0
932 2 7.3829999999999991e+00 4.2625770374269996e+00 3.3293787967115691e+01 0 0 0
933 2 8.6135000000000002e+00 4.9730065436648339e+00 3.3293787967115691e+01 0 0 0
953 2 8.6135000000000002e+00 6.3938655561404980e+00 3.3293787967115691e+01 0 0 0
912 2 4.9220000000000006e+00 7.1042950623783341e+00 3.3293787967115691e+01 0 0 0
931 2 7.3830000000000009e+00 7.1042950623783341e+00 3.3293787967115691e+01 0 0 0
573 2 0.0000000000000000e+00 9.9460130873296642e+00 3.0030999999997011e+01 0 0 0
575 2 0.0000000000000000e+00 8.5251540748539991e+00 3.0030999999997011e+01 0 0 0
602 2 2.4610000000000003e+00 9.9460130873296642e+00 3.0030999999997011e+01 0 0 0
604 2 2.4610000000000003e+00 8.5251540748539991e+00 3.0030999999997011e+01 0 0 0
598 2 1.2305000000000001e+00 1.2077301606043163e+01 3.0030999999997011e+01 0 0 0
600 2 1.2305000000000001e+00 1.0656442593567498e+01 3.0030999999997011e+01 0 0 0
635 2 3.6914999999999996e+00 1.2077301606043163e+01 3.0030999999997011e+01 0 0 0
637 2 3.6914999999999996e+00 1.0656442593567499e+01 3.0030999999997011e+01 0 0 0
894 2 0.0000000000000000e+00 8.5251540748539991e+00 3.3293787967115691e+01 0 0 0
895 2 1.2305000000000001e+00 9.2355835810918343e+00 3.3293787967115691e+01 0 0 0
909 2 2.4610000000000003e+00 8.5251540748539991e+00 3.3293787967115691e+01 0 0 0
910 2 3.6915000000000004e+00 9.2355835810918343e+00 3.3293787967115691e+01 0 0 0
893 2 0.0000000000000000e+00 1.1366872099805333e+01 3.3293787967115691e+01 0 0 0
907 2 1.2305000000000001e+00 1.0656442593567498e+01 3.3293787967115691e+01 0 0 0
908 2 2.4610000000000003e+00 1.1366872099805333e+01 3.3293787967115691e+01 0 0 0
926 2 3.6914999999999996e+00 1.0656442593567499e+01 3.3293787967115691e+01 0 0 0
639 2 4.9220000000000006e+00 9.9460130873296642e+00 3.0030999999997011e+01 0 0 0
641 2 4.9220000000000006e+00 8.5251540748539991e+00 3.0030999999997011e+01 0 0 0
684 2 7.3830000000000009e+00 9.9460130873296642e+00 3.0030999999997011e+01 0 0 0
686 2 7.3830000000000009e+00 8.5251540748539991e+00 3.0030999999997011e+01 0 0 0
680 2 6.1524999999999999e+00 1.2077301606043163e+01 3.0030999999997011e+01 0 0 0
682 2 6.1524999999999999e+00 1.0656442593567499e+01 3.0030999999997011e+01 0 0 0
727 2 8.6135000000000002e+00 1.2077301606043163e+01 3.0030999999997011e+01 0 0 0
729 2 8.6134999999999984e+00 1.0656442593567498e+01 3.0030999999997011e+01 0 0 0
928 2 4.9220000000000006e+00 8.5251540748539991e+00 3.3293787967115691e+01 0 0 0
929 2 6.1524999999999999e+00 9.2355835810918343e+00 3.3293787967115691e+01 0 0 0
951 2 7.3830000000000009e+00 8.5251540748539991e+00 3.3293787967115691e+01 0 0 0
952 2 8.6134999999999984e+00 9.2355835810918343e+00 3.3293787967115691e+01 0 0 0
927 2 4.9220000000000006e+00 1.1366872099805333e+01 3.3293787967115691e+01 0 0 0
949 2 6.1524999999999999e+00 1.0656442593567499e+01 3.3293787967115691e+01 0 0 0
950 2 7.3829999999999991e+00 1.1366872099805333e+01 3.3293787967115691e+01 0 0 0
973 2 8.6134999999999984e+00 1.0656442593567498e+01 3.3293787967115691e+01 0 0 0
1637 1 5.0215425680021708e+00 2.4679622298538821e+00 3.5823359801257212e+01 4 1 -1
4951 1 4.6437850829573418e-01 5.3001758206865279e-01 3.5797768144447410e+01 -3 2 -1
1606 1 9.3414500887163356e+00 4.1446368124711315e+00 3.5627114411239134e+01 -1 0 -1
5235 1 7.8500263358716973e+00 2.1344793448399257e+00 3.6306298481438787e+01 2 -2 0
1547 1 3.8590258375875739e+00 5.0161370831754706e+00 3.6088899506402541e+01 0 -1 -1
1672 1 8.8328523441666622e+00 1.1169907206254381e+01 3.6823956746203478e+01 0 -2 0
1627 1 3.2490339300563296e+00 5.0529799592129743e-01 3.6391153925161099e+01 -3 -1 0
6139 1 8.0579739429572506e+00 6.4731868923199460e+00 3.6310510651746732e+01 0 1 0
6144 1 5.4147744580699131e+00 7.2243711558700525e+00 3.5593531762516719e+01 -1 3 0
1539 1 1.7816601229843472e+00 9.9952144060829156e+00 3.6282421885006542e+01 0 1 -1
3241 1 4.5454525703514239e+00 9.8119766904199910e+00 3.6397782231115691e+01 0 -1 -1
201 1 6.3086145229122907e+00 1.1770044143436502e+01 3.5619846044654189e+01 -1 -2 -1
5970 1 6.5831279118713934e-02 7.6613858203699126e+00 3.6147672591980701e+01 -1 1 0
134 1 9.6517702669550349e+00 8.7791550262159497e+00 3.5795528223856543e+01 -3 1 -1
5206 1 1.0264248804436238e+00 5.0572705114526180e+00 3.6565167774175478e+01 0 0 -1
4796 1 5.6963934628286221e+00 3.2951288758584276e+00 3.8545598433221201e+01 0 2 0
3415 1 2.8558278762521434e+00 8.7287084881721562e+00 4.0385144436828568e+01 -6 -1 -1
1835 1 3.1367638322836477e-01 5.0979630867786430e+00 3.9429082012110051e+01 1 0 -1
1525 1 8.1042583005031030e+00 2.1634351889674450e+00 3.9098059183410804e+01 3 1 -1
1979 1 6.7801181117428166e+00 1.1722982037342790e+01 4.0549888410978610e+01 2 1 -1
1973 1 2.6970636488950990e+00 3.1723921803382765e-01 3.9207066468586461e+01 1 -1 -1
6187 1 4.0038531635722121e+00 5.8094368964206975e+00 3.8924880997968287e+01 0 0 0
3701 1 5.8829346021707885e-01 8.2319942988806716e+00 3.8856111063024656e+01 -1 1 -1
305 1 6.0671398099342504e+00 7.2008574819710560e+00 3.9945954753482610e+01 -1 -2 -1
5170 1 8.5036108411991407e+00 6.6577590922603749e+00 3.9101853957816068e+01 2 -2 0
1884 1 9.1330262988893907e+00 1.1250310645425579e+01 3.9563203543483603e+01 2 2 -1
4435 1 5.1483616193702328e+00 9.8389602098795521e+00 3.9192030466824278e+01 1 -1 0
3604 1 1.2594102799617528e+00 3.3479943982925273e+00 4.3419430084961128e+01 1 -4 -1
1591 1 4.2004059264062379e+00 2.2538702805021225e+00 4.0526805892062185e+01 -2 0 0
6159 1 5.1611267392140574e+00 2.1135448976186137e+00 4.3265258680388285e+01 3 -1 0
1841 1 9.3047799594970826e+00 7.9018818102744124e+00 4.2693546724198768e+01 -2 -2 -1
5282 1 2.3164642185272584e+00 4.2802026660378498e+00 4.1055063668749874e+01 1 1 0
4736 1 2.9865654321452775e+00 6.6971776532029317e+00 4.2263879169121381e+01 1 1 -1
2923 1 1.0966188381269529e-01 8.9550958414950710e-01 4.3052096966680459e+01 4 -1 0
1460 1 6.6633869518760207e+00 6.4755014401040052e+00 4.2825448704917555e+01 2 1 0
1402 1 9.6698316544168623e+00 3.3994735890789549e+00 4.2834349971989248e+01 -2 -1 0
2033 1 1.4788735561968342e+00 1.0842417716193788e+01 4.1670560426316115e+01 3 3 -1
1455 1 7.0571974533462605e+00 3.9610636255482152e+00 4.3841686345198688e+01 2 -1 0
4924 1 1.0916875521859699e-01 6.6227107491217696e-01 4.0289096799182303e+01 0 3 -1
3278 1 9.3784999346609155e+00 4.0994169283344446e+00 4.0095175940444300e+01 0 -2 0
6199 1 2.2157875830113820e+00 1.1283214068091230e+01 4.4168236590510944e+01 0 0 0
1566 1 3.2981485676498070e+00 3.1662787260091561e+00 4.5106639413978364e+01 1 3 0
1866 1 2.8492707427373127e+00 1.5033730536776844e+00 4.7558689187422196e+01 4 4 -1
1876 1 7.4482081976278005e+00 1.5513910489534783e+00 4.7501857025751505e+01 4 1 -1
2058 1 4.2906905610100790e+00 5.6093566422373300e+00 4.6038215951534120e+01 0 -1 -1
4771 1 7.6869375687751174e-01 9.2453391775508553e+00 4.8363605689528150e+01 2 0 -1
3430 1 6.8038156189286179e+00 4.4317374245314349e+00 4.6489387953819566e+01 -1 -1 -1
2161 1 8.5307611829331762e+00 6.1596407866607326e+00 4.7677084783995284e+01 0 2 0
3136 1 9.7288980245426622e+00 3.3666983387922991e+00 5.0975508755300645e+01 1 2 -1
4667 1 4.9259592267033652e+00 1.0589715086283514e+01 4.5071832667922465e+01 -1 2 0
1364 1 1.0509340052109752e+00 9.3785601866791950e+00 4.5666476999601556e+01 3 1 0
3249 1 4.8603331622272936e+00 1.1092524647485877e+01 4.7783243198469961e+01 -1 2 -1
322 1 3.3395712367681316e+00 9.0401479334091093e+00 4.9163441430362070e+01 2 -2 -1
1479 1 7.7559648014855433e+00 8.5765666882191063e+00 4.6661021723744668e+01 -1 0 0
4704 1 5.9049002218351099e+00 5.3318517827012890e+00 5.1042626988612348e+01 -1 2 0
1498 1 7.3872544795503421e+00 1.0641179422196275e+01 4.8652322126029460e+01 1 1 0
1431 1 8.4617313038215851e+00 5.9309976565475857e+00 5.0202850271173617e+01 2 1 0
5095 1 8.4964830650316614e-01 2.5441704685266355e+00 4.9102775687523490e+01 -3 -3 -1
3496 1 2.0530225127938495e+00 6.9859384065341610e+00 4.4839727904158664e+01 1 0 0
4622 1 7.8706699944233058e+00 1.6321994741452812e+00 5.0052959816356214e+01 2 2 -1
6112 1 4.1486110972347054e+00 6.1975804825880436e+00 4.8948959021039180e+01 -3 0 -1
1915 1 1.8782864140023565e+00 5.0901794595462517e+00 4.9865065151692043e+01 -3 2 -1
5232 1 8.9830980758154695e+00 1.2222496717026914e+01 4.4744743794330297e+01 2 0 0
3471 1 9.5030440292896081e+00 9.5486157336225705e+00 4.4751365748058902e+01 1 3 -1
3489 1 5.8349009583790163e+00 8.0166010784928261e+00 4.5008713847890839e+01 -2 -2 -1
214 1 5.4617531907775039e+00 2.5971538861605583e+00 5.0931067346213602e+01 0 -3 -1
3282 1 4.8671312110045556e-01 1.2119342173866427e+01 5.1167642620076712e+01 0 -1 -1
4945 1 3.1438722445465062e+00 2.2615687539891525e+00 5.3730871948035947e+01 -2 2 -1
2845 1 1.0917761465290712e+00 9.6985352441764654e+00 5.5419455596632055e+01 -1 -3 0
1386 1 5.6505632932140202e+00 2.6022611822564827e+00 5.3697425587238513e+01 -2 1 0
5222 1 8.6689599667159829e+00 9.1899014543410846e+00 5.7889287012906998e+01 2 1 -1
3502 1 4.1711677895617596e+00 7.0672706417310289e+00 5.3308303500379850e+01 3 0 0
325 1 2.9086128026086877e+00 4.6691467915530298e+00 5.2414318725889260e+01 1 -2 -1
3742 1 2.0925797839556583e-02 4.9491015184475868e+00 5.3055530262450326e+01 1 1 0
4893 1 6.7921700187869094e+00 6.7703530937650775e+00 5.4058409383529295e+01 2 1 0
5288 1 8.3310453208975765e+00 8.1400782661591062e+00 5.2043559695452487e+01 1 0 0
3726 1 7.6220862281785822e+00 4.3220793757262239e+00 5.5186907783148357e+01 -1 3 0
238 1 1.2716447364939798e+00 9.6401533018601047e+00 5.2561186018563703e+01 2 1 -1
1521 1 3.7917041720446316e+00 9.3032467244538388e+00 5.1762577177049508e+01 4 1 -1
3312 1 5.3935551732604292e+00 1.1189386332016726e+01 5.2609718272310559e+01 0 3 -1
2055 1 1.5864405671532151e+00 2.9300853665833304e+00 5.6081573785764704e+01 1 4 -1
5141 1 5.5596704787364155e+00 1.1079848391062505e+01 5.5662694377351251e+01 -1 1 0
373 1 2.8978762797717947e+00 1.1604354559870805e+01 5.6252068431295143e+01 3 1 -1
476 1 3.5504085457172346e-01 5.4384524272929466e+00 5.5605028823004439e+01 -2 0 -1
4588 1 2.7163103960026218e+00 7.2132565546945466e+00 5.5695310869663658e+01 -3 2 0
4627 1 4.2106804325639144e+00 7.3945596593218177e+00 5.7936158645575887e+01 3 2 0
2997 1 6.6957293441030297e+00 6.0580014117925596e-01 5.7907682231413162e+01 1 2 0
4625 1 6.2589939003927961e+00 8.4735372246300145e+00 5.6443696699644448e+01 2 1 0
2977 1 7.6581663542122902e+00 4.7616551605195916e+00 5.7991391655353553e+01 -1 3 0
3478 1 1.7952596416402540e+00 4.4889570357979768e-02 5.2389610589056872e+01 -3 0 -1
71 1 6.3701044942088529e+00 6.7466617090468917e-02 5.5033658105109886e+01 1 1 0
61 1 7.6560674454291799e+00 1.0686098814005931e+01 5.1356579038611173e+01 0 1 0
1816 1 4.4983678443040054e+00 1.3815435677810409e+01 3.1183278973973403e+00 1 -1 0
1544 1 6.9624653857631467e+00 1.3426363603649232e+01 2.1839426240037687e+00 0 2 1
2052 1 8.9092187419248337e+00 1.5145499412130194e+01 2.9849194979375984e+00 -1 -1 0
4848 1 7.9506923606148563e+00 1.7401870267299486e+01 1.8668264173189162e+00 -1 0 0
3003 1 1.1030173206609786e+00 1.7015402777782668e+01 3.2182718090629789e+00 -1 -1 1
4963 1 6.5219838487193993e+00 2.2557903391654285e+01 5.3909864051241572e+00 -2 -3 0
6252 1 5.4554473319286148e+00 1.7730480431104791e+01 2.9638795771139090e+00 2 0 1
5128 1 3.4734279413516269e+00 1.6148838710917637e+01 2.0583950904936597e+00 2 1 1
48 1 2.2401243623518989e+00 2.1085899037293888e+01 5.3172617717996520e+00 0 2 0
4823 1 2.1449113678360288e+00 2.0956599456137223e+01 2.7794326587411442e+00 2 0 1
526 1 6.3870035044609645e+00 2.2104485830265070e+01 2.7234286347927479e+00 2 -2 1
57 1 7.1125552471629971e+00 2.0183813236420011e+01 6.4843438980976797e+00 -4 0 0
4664 1 2.0142647894699679e+00 1.4463769929643615e+01 6.8578991372950258e+00 -1 0 0
1283 1 4.5145673628580045e+00 1.3866021847361083e+01 5.8633036344777958e+00 -3 0 1
1750 1 6.2363353888568351e+00 1.5933939849522154e+01 6.5886035403670613e+00 2 2 0
1968 1 8.8630200365973799e+00 1.5298153453090984e+01 5.7221414132221442e+00 1 -1 0
3263 1 3.8756494213579362e+00 2.2902455602352116e+01 6.2169475235363123e+00 4 0 0
1814 1 3.0286303082136388e+00 1.8764644494754570e+01 6.4944929402215337e+00 1 3 0
1702 1 1.1600837890407485e+00 1.6828948880421947e+01 5.8226162192784692e+00 -1 0 0
4768 1 5.6543630862836549e+00 1.8135236133684039e+01 5.4925820103072356e+00 0 -2 1
4843 1 2.3615995025859138e-01 1.2463746534369260e+01 5.8132683455440768e+00 1 3 0
4553 1 8.3311703263947781e+00 2.4444660770377375e+01 6.4402189668891756e+00 1 0 1
1519 1 9.6744670903209826e+00 1.9460305326777430e+01 2.6313604288447947e+00 0 1 0
2096 1 9.6436920864991009e+00 1.2775526897231828e+01 6.4773560528052352e+00 4 3 1
5281 1 9.5730865888791730e+00 1.9716687683908741e+01 5.5732574254875313e+00 2 0 1
1552 1 1.4391324289712548e+00 2.3309100072006771e+01 1.8951476003696772e+00 3 -2 1
1983 1 2.0919336577452747e+00 1.4371089331180476e+01 9.6179085307313379e+00 -1 0 0
1921 1 3.6816591954877427e+00 1.6333277364618269e+01 1.0357580207237605e+01 -3 2 0
147 1 9.4546460564043286e+00 1.4052704452444098e+01 1.1646493799348354e+01 1 2 0
381 1 4.2552921651480418e+00 2.3185280327836711e+01 9.1618014463636754e+00 3 0 1
3183 1 7.0703316988220593e+00 1.3641194226311546e+01 1.0286410612371668e+01 0 0 1
1802 1 6.1671914807980048e+00 1.5928754319295109e+01 9.3703121399414666e+00 1 -1 0
380 1 5.6613395287390933e-01 1.9189531892209171e+01 9.8781374984362014e+00 4 -1 0
5310 1 3.2818805577910544e+00 1.8592650410024902e+01 9.1648001972970938e+00 -1 -1 1
3520 1 7.9593938458254669e+00 1.7763353955127364e+01 1.0330103609915207e+01 2 -3 0
2835 1 4.9509595826916097e+00 2.0628010550926621e+01 1.0080313768878462e+01 -2 0 1
4914 1 5.3539256539784494e+00 1.2465740696317894e+01 1.1914912584498282e+01 0 1 0