
# Create simulation box and atoms

read_data data.ML_graphite_m1000atm_245K
  orthogonal box = (0 0 2.62195) to (49.22 49.0196 57.4401)
  5 by 4 by 8 MPI processor grid
  reading atoms ...
  6337 atoms
  reading velocities ...
  6337 velocities
group water type 1
3577 atoms in group water
group graphite type 2
2760 atoms in group graphite

# Define potential

pair_style sw
pair_coeff * * MLC_e.sw mW C


# Fix graphite atoms in place

fix 5 graphite setforce 0.0 0.0 0.0
velocity graphite set 0.0 0.0 0.0


# Equilibration of molecular water

# Add velocity/set timestep

velocity	    water create ${TEMP} ${SEED} rot yes dist gaussian
velocity	    water create 248 ${SEED} rot yes dist gaussian
velocity	    water create 248 26759 rot yes dist gaussian
timestep	    5.0

# Define output

compute			1 water msd
compute			3 water temp
thermo	    	50
thermo_style	custom step temp press vol etotal ke pe c_1[4] c_3

# Neighbor lists

neigh_modify    delay 0 every 1 check yes

# Set fixes

fix             1 water momentum 10 linear 1 1 1 rescale
fix             2 water nve
fix             3 water temp/csvr ${TEMP} ${TEMP} 500.0 ${SEED}
fix             3 water temp/csvr 248 ${TEMP} 500.0 ${SEED}
fix             3 water temp/csvr 248 248 500.0 ${SEED}
fix             3 water temp/csvr 248 248 500.0 26759
fix             4 water press/berendsen z ${PRES} ${PRES} 1000.0 modulus 20000
fix             4 water press/berendsen z -1000 ${PRES} 1000.0 modulus 20000
fix             4 water press/berendsen z -1000 -1000 1000.0 modulus 20000

# Run 0.5 ns equilibration

dump		    1 all atom 2000 ${DIR}/eq.${NAME}-${TEMP}.dump
dump		    1 all atom 2000 run_23/eq.${NAME}-${TEMP}.dump
dump		    1 all atom 2000 run_23/eq.het_freeze_23-${TEMP}.dump
dump		    1 all atom 2000 run_23/eq.het_freeze_23-248.dump

reset_timestep  0

run	            100000
Neighbor list info ...
  update every 1 steps, delay 0 steps, check yes
  max neighbors/atom: 2000, page size: 100000
  master list distance cutoff = 6.67472
  ghost atom cutoff = 6.67472
  binsize = 3.33736, bins = 15 15 17
  1 neighbor lists, perpetual/occasional/extra = 1 0 0
  (1) pair sw, perpetual
      attributes: full, newton on
      pair build: full/bin/atomonly
      stencil: full/bin/3d
      bin: standard
Per MPI rank memory allocation (min/avg/max) = 4.066 | 4.174 | 4.485 Mbytes
Step Temp Press Volume TotEng KinEng PotEng c_1[4] c_3 
       0     139.9697   -1056.0851     132262.2   -34085.323    2643.5254   -36728.848            0          248 
      50     141.6646   -1047.8949    132272.94   -34115.626    2675.5361   -36791.162   0.49873904    251.00305 
     100     140.8834   -1046.1446    132340.56    -34098.83     2660.782   -36759.612    0.8183266    249.61891 
     150    142.38731   -1101.6671    132389.89   -34091.138    2689.1854   -36780.324    1.0164617    252.28355 
     200    141.08733   -979.60819    132451.95   -34109.773    2664.6336   -36774.407    1.2262747    249.98024 
     250    139.59616   -1032.8881    132577.02   -34151.035    2636.4707   -36787.506    1.4249021    247.33817 
     300    142.70273   -724.04028    132720.61   -34093.157    2695.1426   -36788.299    1.6504068    252.84242 
     350    139.18057    -795.2981    132810.57   -34068.495    2628.6217   -36697.117    1.8291469    246.60182 
     400    139.76809   -1135.1323    132850.57   -34080.515    2639.7179   -36720.233     1.964779     247.6428 
     450    141.17422   -1083.8929    132899.03   -34099.846    2666.2745   -36766.121    2.0703713    250.13419 
     500    140.14055   -1231.5744    132825.48   -34081.449    2646.7522   -36728.201    2.1684594    248.30272 
     550    136.65369   -1101.8502    132820.09    -34082.07    2580.8979   -36662.968    2.3074053    242.12465 
     600    141.58379   -1103.7002    132771.23   -34030.855    2674.0099   -36704.865    2.4319132    250.85987 
     650    140.77447   -1420.2228    132759.61   -34052.031    2658.7247   -36710.755     2.569557     249.4259 
     700    140.24956   -1236.9634    132722.89   -34081.494     2648.811   -36730.305    2.7302476    248.49586 
     750    140.14013   -1211.1714    132839.23   -34048.566    2646.7443    -36695.31    2.9425455    248.30198 
     800    141.37691   -1149.2159    132859.95   -34014.105    2670.1027   -36684.207    3.1908207    250.49332 
     850    139.96473   -1387.3042    132837.39   -34080.036    2643.4316   -36723.468    3.4188223     247.9912 
     900    138.80999   -1182.1799    132822.47   -34088.269    2621.6228   -36709.892    3.5964937    245.94522 
     950    139.78024   -1517.8302    132751.75   -34120.852    2639.9474   -36760.799    3.8012485    247.66433 
    1000    137.08891   -1152.9597    132773.54   -34168.314    2589.1176   -36757.432    3.9429493    242.89578 
    1050    139.11951   -1391.8529    132758.44   -34110.088    2627.4684   -36737.556    4.0900329    246.49363 
    1100    135.41962   -1507.7123    132725.24   -34110.335    2557.5908   -36667.926     4.236319    239.93812 
    1150    139.63813   -1377.8236    132675.76   -34096.009    2637.2634   -36733.272    4.3441139    247.41253 
    1200    136.34093   -1526.8865    132762.04   -34128.321    2574.9911   -36703.312    4.5299842    241.57051 
    1250    138.26957   -1300.5864    132815.59   -34092.717    2611.4161   -36704.134     4.707338     244.9877 
    1300    137.58407    -1221.371    132801.57   -34125.774    2598.4696   -36724.243    4.8193152    243.77312 
    1350    138.13877   -1244.4897    132810.35    -34122.09    2608.9458   -36731.036    4.9457428    244.75594 
    1400    138.72955   -1215.9579    132891.14   -34132.376    2620.1036    -36752.48    5.1173788     245.8027 
    1450    137.52786    -1502.091    132838.48   -34103.579    2597.4078   -36700.987    5.2384528    243.67352 
    1500    138.74856   -1380.5042    132765.18   -34094.201    2620.4626   -36714.664    5.3725521    245.83638 
    1550    140.07589   -1077.6011    132791.42   -34110.546    2645.5311   -36756.077    5.5747883    248.18816 
    1600    140.19397   -1130.8696    132848.62   -34112.351    2647.7612   -36760.112    5.7382952    248.39737 
    1650    142.30753   -1132.7131    132855.07   -34123.904    2687.6787   -36811.583    5.8989563     252.1422 
    1700    137.79097   -974.97525    133009.74    -34130.92     2602.377   -36733.297    6.0192027     244.1397 
    1750    141.70677   -1227.5521    133044.85    -34061.37    2676.3324   -36737.702    6.1904382    251.07776 
    1800    141.10626   -1218.8775    133100.14   -34045.519     2664.991    -36710.51     6.306835    250.01377 
    1850    140.68427   -1079.9374    133083.83   -34041.454    2657.0212   -36698.475    6.4224411    249.26609 
    1900    138.45751   -1148.0149    133043.94   -34037.698    2614.9657   -36652.664    6.5042547    245.32069 
    1950    140.56825   -1034.6556    133032.18   -34002.009    2654.8299   -36656.839    6.7007343    249.06052 
    2000    139.43636   -1159.7229    133151.93   -34061.342    2633.4526   -36694.795    6.9159421    247.05503 
    2050    138.80884   -1101.1787       133182   -34080.977     2621.601   -36702.578    7.0878279    245.94318 
    2100    139.30038   -1041.5249    133215.37   -34093.413    2630.8845   -36724.297    7.1062959     246.8141 
    2150    140.81652   -1041.5321    133205.09   -34098.712     2659.519   -36758.231    7.1599379    249.50042 
    2200    138.49466   -1173.3468       133215   -34048.491    2615.6673   -36664.158     7.256012    245.38651 
    2250    138.09162   -1056.3924    133233.92   -34075.904    2608.0552   -36683.959    7.4391478    244.67239 
    2300     137.9514    -1089.688    133232.48   -34037.507     2605.407   -36642.914    7.6125618    244.42395 
    2350    139.73725   -1327.4314    133164.23    -34070.91    2639.1353   -36710.045    7.7387844    247.58814 
    2400    137.90458   -1217.0648    133114.22    -34087.13    2604.5228   -36691.653    7.8331663    244.34101 
    2450    138.46163   -1394.0816    133000.39   -34084.947    2615.0435    -36699.99    7.8862094      245.328 
    2500    137.64723   -1112.2596    132964.37   -34048.315    2599.6624   -36647.977    8.0245127    243.88503 
    2550     138.2046   -1245.8719    132935.05   -34014.768     2610.189   -36624.957    8.1632974    244.87258 
    2600    138.24676   -1301.9919    132853.12   -34038.582    2610.9854   -36649.567    8.3288975    244.94729 
    2650    139.09441   -973.49171    132832.62   -34039.995    2626.9944   -36666.989    8.4486014    246.44916 
    2700    139.27554   -936.89641    132934.08   -34059.234    2630.4154   -36689.649     8.666705    246.77009 
    2750    138.78936   -1065.9803    132969.98   -33999.512    2621.2331   -36620.745     8.879842    245.90867 
    2800    143.34432   -993.63551    133087.33   -33931.316    2707.2599   -36638.576    9.0177739    253.97919 
    2850    140.02133   -1161.3118    133019.54   -33952.761    2644.5006   -36597.261     9.149482    248.09148 
    2900    144.21141   -1145.2978    132911.06   -33905.723    2723.6361   -36629.359    9.2450783    255.51551 
    2950    141.88838   -1187.2997    132907.94   -33968.023    2679.7624   -36647.785     9.360195    251.39954 
    3000    141.14848   -1038.0592    133033.84   -33979.988    2665.7885   -36645.776    9.4842315    250.08859 
    3050    140.39447   -934.55362    133123.86   -34005.353    2651.5479   -36656.901    9.6886341    248.75262 
    3100     139.9704   -1057.9475    133149.85   -33987.287    2643.5386   -36630.825    9.9314916    248.00124 
    3150    140.14552   -1363.2048    133140.56   -34005.345    2646.8461   -36652.191    10.099425    248.31152 
    3200    138.59353   -1111.9387    133127.86    -34004.16    2617.5346   -36621.695    10.357547    245.56169 
    3250     141.9938    -1280.182    133217.66   -34013.352    2681.7535   -36695.106     10.53936    251.58633 
    3300    141.90843   -1143.1835    133257.26   -34020.256    2680.1411   -36700.397     10.69647    251.43507 
    3350     141.9779   -1465.4096    133162.91   -34067.153    2681.4533   -36748.606    10.845619    251.55817 
    3400    134.97469   -776.69526    133160.92   -34071.478    2549.1877   -36620.666    11.010482    239.14979 
    3450    139.42564   -1124.7833    133245.31   -34075.695    2633.2501   -36708.946    11.139709    247.03603 
    3500    138.19383   -930.30127    133300.56   -34061.172    2609.9858   -36671.157    11.177587    244.85351 
    3550    138.68455   -1284.9595    133304.02   -34085.631    2619.2536   -36704.885    11.484044    245.72296 
    3600    140.20816    -992.5085    133394.83       -34025    2648.0292   -36673.029    11.672837    248.42252 
    3650    142.12529   -1282.6947    133462.08    -33991.54    2684.2369   -36675.777     11.81209    251.81931 
    3700     140.5493   -1239.4798       133325   -33994.725    2654.4721   -36649.197    11.934576    249.02696 
    3750    142.61957   -1022.6197    133298.02    -34000.78    2693.5721   -36694.352    12.038844    252.69508 
    3800    142.74283    -1144.795    133313.65   -34004.442    2695.8999   -36700.342    12.209142    252.91346 
    3850     140.7205   -1214.7395    133360.08   -34034.101    2657.7054   -36691.806    12.352763    249.33029 
    3900    139.16938   -1254.5756     133388.5   -34112.468    2628.4104   -36740.878    12.617952    246.58199 
    3950    135.44096   -1120.6407     133333.4   -34143.493    2557.9938   -36701.487    12.838149    239.97593 
    4000    140.71516   -1243.1742    133321.88   -34120.105    2657.6046   -36777.709    13.035804    249.32083 
    4050     138.3319   -1005.3948    133401.89   -34071.646    2612.5934   -36684.239    13.233786    245.09814 
    4100    140.45877   -1270.3318    133343.81   -34061.601    2652.7623   -36714.363    13.453566    248.86655 
    4150    140.93391   -1149.7914    133418.55   -34059.323    2661.7359   -36721.059    13.703721     249.7084 
    4200    136.58495   -1267.4266    133330.12   -34056.477    2579.5997   -36636.077    13.687732    242.00287 
    4250    138.37943   -1198.8171    133297.67   -34107.352    2613.4911   -36720.843    13.824762    245.18235 
    4300    136.58675   -1257.7242    133266.78    -34056.12    2579.6338   -36635.754    13.979315    242.00606 
    4350    139.22334   -1240.5188    133213.71    -34075.41    2629.4294    -36704.84    14.163647    246.67759 
    4400    138.38056   -1252.4202    133282.02   -34021.028    2613.5124   -36634.541     14.32249    245.18435 
    4450     141.5715   -1205.1354    133260.13   -34053.071    2673.7777   -36726.849    14.526273    250.83809 
    4500    138.18086   -1093.1303    133199.39   -34032.138    2609.7408   -36641.879    14.741883    244.83052 
    4550    141.49803   -1402.5475    133070.55   -33978.422    2672.3901   -36650.812     14.97552    250.70791 
    4600    137.14177   -1062.2968    133033.23   -34018.858     2590.116   -36608.974    15.062506    242.98944 
    4650    139.71607    -1193.845    133001.42   -34002.192    2638.7353   -36640.928    15.406839    247.55062 
    4700    140.78341   -975.12509    132969.39   -34028.608    2658.8935   -36687.501    15.514792    249.44175 
    4750    142.64869   -1051.9715    132921.72   -34072.161    2694.1219   -36766.283    15.634388    252.74667 
    4800     137.9514   -976.31333    132932.02     -34072.7     2605.407   -36678.107    15.829051    244.42395 
    4850    142.28884   -1273.7193    132988.16   -34062.249    2687.3258   -36749.575    15.969278    252.10909 
    4900    139.74118   -1161.8296     133076.9   -34025.019    2639.2096   -36664.228    16.112733    247.59511 
    4950     138.5459   -1011.4326    133133.06   -34056.003     2616.635   -36672.638    16.263379     245.4773 
    5000    139.86698    -1191.456    133171.87   -34079.918    2641.5855   -36721.503    16.342461    247.81801 
    5050    137.27188   -1227.9351    133144.41   -34083.384    2592.5733   -36675.958     16.58008    243.21997 
    5100    136.99293   -1388.9719    133126.55    -34101.25    2587.3049   -36688.554    16.735564    242.72572 
    5150    140.17007   -1429.6297    133066.97   -34053.177    2647.3097   -36700.487    16.760662    248.35502 
    5200    139.58029   -1295.8858    133011.15    -34035.65    2636.1709   -36671.821    16.842755    247.31004 
    5250    139.56799   -1295.9092    133022.39   -34042.509    2635.9386   -36678.448    16.980438    247.28825 
    5300    142.88013   -1288.6417    133050.36    -34040.77     2698.493   -36739.264    17.149815    253.15674 
    5350     140.4409   -1342.8419    132987.02   -34032.746    2652.4248   -36685.171    17.447396    248.83488 
    5400    139.39224     -1216.42     132904.2   -34077.299    2632.6193   -36709.919    17.575128    246.97685 
    5450    140.43451   -1148.1844    132897.93    -34062.49    2652.3041   -36714.794    17.663709    248.82356 
    5500    139.72308   -1080.0082    132867.54   -34039.288    2638.8678   -36678.156    17.816231    247.56305 
    5550     143.8092   -1148.0209    132839.71   -34047.458    2716.0398   -36763.497     17.87741    254.80287 
    5600    139.88765   -1257.1505     132766.8   -34034.921    2641.9758   -36676.897    18.025766    247.85462 
    5650    139.94741   -1201.6704    132714.24   -34068.313    2643.1045   -36711.418    18.260018    247.96051 
    5700    137.53461   -1049.6094    132820.22   -34125.837    2597.5354   -36723.372    18.421885    243.68548 
    5750    139.92782   -1241.3074    132916.97   -34172.668    2642.7344   -36815.403    18.439702    247.92579 
    5800     140.5864   -1130.6684     132965.5   -34128.308    2655.1727    -36783.48    18.645948    249.09268 
    5850    138.44817   -1101.5511    132993.32   -34127.127    2614.7892   -36741.916    18.768589    245.30413 
    5900    140.01935   -1331.1735    133049.37   -34104.423    2644.4633   -36748.886    18.828164    248.08798 
    5950    136.33108   -1132.4464    133052.61   -34164.253    2574.8051   -36739.058    19.031636    241.55306 
    6000    139.70018   -1518.7357    133014.35    -34172.93    2638.4353   -36811.365    19.198661    247.52247 
    6050    138.50943   -1194.4435     133025.9   -34199.015    2615.9463   -36814.962    19.382839    245.41269 
    6100    135.11565   -1220.3044    132972.79   -34239.872    2551.8498   -36791.722    19.696978    239.39954 
    6150    137.17396   -985.61128    132990.92   -34215.754    2590.7241   -36806.478    19.794609    243.04649 
    6200    135.47456   -1259.0861    132988.59   -34217.784    2558.6284   -36776.413    19.970586    240.03546 
    6250    137.19577   -1142.9407    133009.18   -34191.392    2591.1359   -36782.528    20.292971    243.08512 
    6300    138.07172   -1164.4928    133032.91   -34164.472    2607.6795   -36772.152    20.334635    244.63715 
    6350     140.1355   -1243.0251    133019.26   -34150.285    2646.6568   -36796.942    20.480917    248.29377 
    6400    138.57169   -1074.3246    133107.07   -34143.594    2617.1221   -36760.717    20.600385      245.523 
    6450    139.40149   -991.31817    133194.34   -34161.514    2632.7941   -36794.309    20.603966    246.99325 
    6500    141.25005   -998.14457    133228.15   -34083.192    2667.7067   -36750.899    20.792454    250.26854 
    6550    141.42053   -970.02913     133278.2   -34117.895    2670.9264   -36788.822    20.925484     250.5706 
    6600    143.08759   -1087.6492    133333.29    -34097.67    2702.4112   -36800.081    20.965561    253.52431 
    6650    140.61934   -1191.0597     133431.2    -34095.06    2655.7949   -36750.855    21.162426    249.15105 
    6700    139.81223   -1207.6799    133449.93   -34081.812    2640.5514   -36722.363     21.43012      247.721 
    6750    140.37578   -994.05582    133442.94   -34082.022    2651.1949   -36733.217    21.614127     248.7195 
    6800    139.52398   -1079.9292    133468.21   -34088.075    2635.1075   -36723.182    21.881373    247.21027 
    6850    137.19009   -997.93658    133446.44   -34161.198    2591.0287   -36752.227    22.039236    243.07506 
    6900    136.70137   -1109.0306    133414.38   -34136.745    2581.7984   -36718.543    22.185588    242.20913 
    6950    138.72729   -1173.5295    133445.55   -34136.057    2620.0608   -36756.118      22.3745    245.79869 
    7000    140.53442   -1242.7431    133392.29   -34117.147     2654.191   -36771.338    22.363239    249.00058 
    7050    139.52492   -1120.9869    133403.39   -34140.176    2635.1253   -36775.302    22.413355    247.21194 
    7100    139.12853   -1366.5081    133427.64   -34117.589    2627.6389   -36745.228    22.654271    246.50962 
    7150    137.12147     -1184.23    133336.57    -34187.71    2589.7326   -36777.442    22.758448    242.95347 
    7200    136.60064   -1031.2693    133406.18   -34184.146     2579.896   -36764.042    22.887391    242.03066 
    7250    138.75603   -1217.1837    133436.58    -34139.63    2620.6036   -36760.234    22.904073    245.84961 
    7300     139.9606   -1315.8719    133413.65    -34121.91    2643.3537   -36765.264    23.038607    247.98389 
    7350    142.06247   -1272.9585     133373.6   -34100.678    2683.0504   -36783.729    23.257515      251.708 
    7400    139.75585   -1448.5901    133333.15   -34114.444    2639.4866   -36753.931    23.423407     247.6211 
    7450    138.58839   -1295.1788    133191.51   -34147.787    2617.4376   -36765.225    23.509144    245.55259 
    7500    136.35156   -996.50822    133085.28   -34117.568    2575.1918    -36692.76    23.729096    241.58934 
    7550    139.04295   -1077.1981    133178.42   -34078.452    2626.0225   -36704.475    23.818062    246.35798 
    7600    142.32954   -1160.6116    133106.81   -34062.962    2688.0943   -36751.057    23.864228    252.18119 
    7650    138.60819   -995.31202    133021.04   -34110.882    2617.8115   -36728.694    24.018121    245.58767 
    7700    138.41109   -1075.1591    132983.21   -34065.914    2614.0889   -36680.003    24.168396    245.23843 
    7750    137.62694   -996.19251    133008.52   -34130.167    2599.2792   -36729.446    24.274687    243.84908 
    7800    139.00506   -1126.5044    132963.51   -34094.202     2625.307   -36719.509    24.304204    246.29085 
    7850    137.88082   -1082.8823    133039.76   -34113.391    2604.0741   -36717.465    24.456299    244.29891 
    7900    136.24837   -936.20808    133093.27   -34137.434     2573.243   -36710.677    24.672519    241.40651 
    7950    139.62022   -1170.4239    133133.72    -34108.71    2636.9251   -36745.635    24.827578    247.38079 
    8000    139.55336   -1171.8134    133062.72   -34093.551    2635.6624   -36729.214    25.089208    247.26234 
    8050    139.34381   -1045.8206    132986.79   -34091.181    2631.7047   -36722.885    25.247867    246.89105 
    8100    141.66326   -1040.8471    133051.06   -34058.186    2675.5108   -36733.697    25.338682    251.00068 
    8150    138.95448   -1364.6737    133064.08   -34058.823    2624.3517   -36683.175    25.533474    246.20123 
    8200    140.93905   -1159.2475    133066.82   -34078.249    2661.8331   -36740.082    25.751619    249.71752 
    8250    138.66383   -1217.6032    132992.54   -34125.553    2618.8623   -36744.415    25.783178    245.68625 
    8300    138.09367   -1275.8689    132916.06   -34178.929     2608.094   -36787.023    25.801295    244.67603 
    8350      135.412   -1327.1501    132845.77   -34172.052    2557.4468   -36729.498    25.916638    239.92461 
    8400    139.61573   -1270.1505    132819.17   -34183.373    2636.8403   -36820.214    26.051449    247.37284 
    8450    139.41098   -1225.3471     132798.9   -34134.521    2632.9733   -36767.495    26.169465    247.01006 
    8500     140.3353   -1238.7027    132748.82   -34160.337    2650.4303   -36810.767     26.35252    248.64777 
    8550    142.04796    -1144.809    132749.48   -34120.751    2682.7764   -36803.528    26.613258     251.6823 
    8600    138.91725   -928.96341    132766.11   -34145.754    2623.6485   -36769.403    26.797652    246.13526 
    8650    140.78067   -1101.2158    132828.31   -34123.283    2658.8418   -36782.125    26.835814     249.4369 
    8700    140.16775   -1132.3884    132852.22   -34155.149     2647.266   -36802.415    26.916641    248.35092 
    8750    140.22476   -1099.9565     132858.5   -34072.307    2648.3426    -36720.65    27.205194    248.45192 
    8800    139.46409   -952.67775    132921.27   -34062.728    2633.9763   -36696.705    27.510108    247.10416 
    8850    139.93917   -1274.9459    132899.78   -34108.338    2642.9488   -36751.287    27.654624    247.94591 
    8900    141.91973    -965.4467    132968.08   -34102.067    2680.3545   -36782.421    27.642425    251.45508 
    8950    141.55315   -1134.1529    133042.34   -34094.432    2673.4312   -36767.863     27.76583    250.80558 
    9000    138.64473   -1120.0994    133043.19   -34112.761    2618.5016   -36731.262    27.819328    245.65241 
    9050     138.9632   -1004.8447    133086.12   -34064.188    2624.5162   -36688.705    27.930726    246.21667 
    9100     140.6447   -1099.9816    133139.64   -34036.398    2656.2739   -36692.672    28.137701    249.19598 
    9150    139.70409   -1138.5842     133173.2   -34050.136    2638.5092   -36688.645    28.127393     247.5294 
    9200    141.94615   -1290.2711    133215.08   -34012.675    2680.8536   -36693.529     28.16059     251.5019 
    9250    143.79857   -1174.0312    133270.85   -33988.818     2715.839   -36704.657    28.483112    254.78404 
    9300    141.93549   -1174.6539       133257   -34070.816    2680.6522   -36751.468    28.660514    251.48302 
    9350    140.12096   -1095.2673    133218.36   -34093.159    2646.3822   -36739.541    28.723059    248.26801 
    9400    139.74352   -1084.4105    133241.35   -34114.021    2639.2539   -36753.275    28.871932    247.59927 
    9450     137.1403   -1358.0928    133232.13   -34113.573    2590.0883   -36703.661    28.996419    242.98684 
    9500    138.00856   -1237.7905     133209.9   -34146.686    2606.4867   -36753.173    29.042391    244.52524 
    9550     135.6372     -1158.91    133139.95   -34191.326    2561.7001   -36753.026    29.234638    240.32363 
    9600    134.94554   -1011.4303    133204.72   -34211.637    2548.6372   -36760.274    29.370583    239.09814 
    9650    137.80586   -1318.3226    133135.83   -34175.737    2602.6584   -36778.395    29.401245    244.16609 
    9700    134.31061   -1394.3715    133012.27   -34206.901    2536.6455   -36743.546     29.50371    237.97316 
    9750    137.80008   -1391.4668     132974.6   -34170.747    2602.5492   -36773.296    29.512298    244.15585 
    9800    139.03634    -1049.134     133040.1   -34175.445    2625.8977   -36801.343    29.560827    246.34627 
    9850    137.47088   -1163.7472    133098.03   -34204.739    2596.3318   -36801.071    29.695505    243.57257 
    9900    138.93666   -1108.4056    133090.87   -34200.337     2624.015   -36824.352     29.88281    246.16965 
    9950    138.79112   -1123.9329     133072.6   -34182.221    2621.2663   -36803.487    29.968088    245.91178 
   10000    135.01558   -1418.9827    133015.84   -34194.427    2549.9599   -36744.387    30.102412    239.22224 
   10050    135.86673   -1321.9949    132930.95   -34179.425    2566.0351    -36745.46    30.409657    240.73032 
   10100     139.8633   -1275.2993    132841.04   -34202.363     2641.516   -36843.879     30.53676    247.81149 
   10150    140.16012   -1090.4473    132879.41   -34170.705    2647.1219   -36817.827     30.65087     248.3374 
   10200    136.17384   -1327.0528    132953.01   -34174.046    2571.8353   -36745.881    30.697217    241.27445 
   10250    136.15602   -1117.8203    132982.58   -34208.115    2571.4988   -36779.613    30.788483    241.24288 
   10300    137.98579   -1304.5277     133083.9    -34200.88    2606.0566   -36806.937    30.963679    244.48489 
   10350    135.58841   -986.38404     133183.4   -34171.036    2560.7785   -36731.815    30.996866    240.23717 
   10400    138.85354   -1152.4259     133222.5    -34188.63    2622.4452   -36811.075    31.101113    246.02238 
   10450    136.94836   -1149.4527     133183.2   -34136.906    2586.4633    -36723.37    31.140275    242.64677 
   10500    138.07324   -1275.6356     133101.9   -34144.894    2607.7082   -36752.602     31.28176    244.63984 
   10550    137.80813   -1191.3577    132971.22   -34109.285    2602.7012   -36711.986    31.529432    244.17011 
   10600     140.5926   -1068.2762    133049.89   -34106.872    2655.2897   -36762.162    31.634335    249.10366 
   10650    137.64991   -1115.5721    133189.67   -34158.286     2599.713   -36757.999    31.741044    243.88977 
   10700    141.14393   -1013.0559    133313.21   -34116.199    2665.7025   -36781.901    31.848633    250.08053 
   10750    142.20979   -919.67954    133395.69   -34100.314    2685.8328   -36786.147    31.927853    251.96902 
   10800    138.53257   -1108.2072    133372.58   -34137.533    2616.3832   -36753.916    31.971726    245.45368 
   10850    139.92351   -1406.3382    133414.69   -34122.177    2642.6532    -36764.83    32.259371    247.91817 
   10900    139.20039   -1170.5401    133481.44   -34103.271     2628.996   -36732.267    32.540057    246.63693 
   10950    142.44076   -1304.3346    133405.95    -34052.76     2690.195   -36742.955    32.539957    252.37826 
   11000    141.21963   -1039.3076    133478.82   -34024.683    2667.1322   -36691.815    32.826502    250.21465 
   11050    139.47235   -1319.7732    133576.16   -34038.735    2634.1323   -36672.867    33.287563    247.11879 
   11100    141.99672    -1222.225    133617.61   -34012.898    2681.8086   -36694.707    33.565412    251.59151 
   11150    141.22438   -1347.4496    133610.53   -33980.885    2667.2219   -36648.106    33.667344    250.22306 
   11200    136.70211   -1150.1476    133659.01   -33963.511    2581.8124   -36545.323    33.811687    242.21045 
   11250    140.98072   -1176.0056    133736.85   -33993.126      2662.62   -36655.746    33.781198    249.79134 
   11300    137.68067   -1648.0541    133676.34    -34088.28     2600.294   -36688.574    33.888139    243.94428 
   11350    135.11155   -1335.0786    133566.28   -34106.998    2551.7724   -36658.771    34.067509    239.39227 
   11400    141.69343   -1309.9739    133478.54   -34036.551    2676.0805   -36712.631     34.14065    251.05412 
   11450    142.76042   -1454.7464    133364.28   -34026.821    2696.2322   -36723.053    34.079555    252.94464 
   11500     143.0401    -1595.842    133242.88   -34048.824    2701.5144   -36750.338    33.994782    253.44018 
   11550    139.96455   -1576.2039    133179.08   -34016.012    2643.4281   -36659.441    34.011378    247.99087 
   11600     140.4075   -1455.3713    133086.42   -34007.453    2651.7939   -36659.247    34.183545     248.7757 
   11650    141.26828   -1317.9296    133039.59   -34021.008     2668.051   -36689.059    34.328671    250.30085 
   11700     141.1568   -1563.3864    133045.85   -34034.754    2665.9455   -36700.699    34.430436    250.10332 
   11750     141.5821   -1134.9905    133013.09   -34029.957     2673.978   -36703.935    34.696271    250.85688 
   11800    139.86456   -1364.1079    133062.22   -34032.589    2641.5398   -36674.129    34.942344    247.81372 
   11850    139.59311   -1259.2037    133115.72   -33988.008    2636.4131   -36624.421    35.124916    247.33276 
   11900    141.35671    -1295.431    133187.32   -34031.511    2669.7211   -36701.233    35.126846    250.45752 
   11950    140.31109   -1309.4652    133201.15   -34024.693    2649.9732   -36674.666    35.242785    248.60489 
   12000    140.78931   -1122.2484    133247.45   -34040.309     2659.005   -36699.314    35.615626     249.4522 
   12050    140.55884   -1156.7077    133245.32   -34039.815    2654.6523   -36694.468    35.695933    249.04386 
   12100    141.55634   -1101.2618    133278.43   -34019.475    2673.4915   -36692.967    35.795159    250.81124 
   12150    140.50348   -1342.3724    133306.03   -34006.675    2653.6067   -36660.282      35.9654    248.94577 
   12200    138.45807   -1490.5644    133282.01   -34094.729    2614.9763   -36709.705    36.286374    245.32169 
   12250    136.59668   -1064.3136    133194.46    -34144.01    2579.8213   -36723.831    36.400368    242.02365 
   12300    138.00186   -1390.4105    133108.51   -34169.375      2606.36   -36775.735    36.447921    244.51336 
   12350    140.10067   -1068.2084     133154.5   -34127.418     2645.999   -36773.417    36.540833    248.23206 
   12400    136.78595   -1555.4653    133111.09   -34139.319     2583.396   -36722.715    36.680445    242.35901 
   12450    136.94111   -1234.4942    133082.21   -34120.319    2586.3262   -36706.645    36.836574    242.63391 
   12500    138.41155   -1346.5706    133151.48   -34086.411    2614.0976   -36700.508    36.981753    245.23925 
   12550    139.73146   -1293.9346    133104.43   -34038.585     2639.026   -36677.611     37.11498    247.57789 
   12600    140.58312   -1272.5871    133102.03   -34006.876    2655.1108   -36661.987    37.193143    249.08687 
   12650    141.22417   -1421.2068    133050.13   -33945.197    2667.2179   -36612.415    37.306877    250.22268 
   12700    139.17318   -1223.9336    133025.61   -33918.822    2628.4821   -36547.304    37.486795    246.58873 
   12750    140.09636   -1064.7507     133108.2   -33906.227    2645.9176   -36552.145     37.65075    248.22442 
   12800    139.75403   -1419.6917    133123.31   -33943.132    2639.4522   -36582.585    37.837345    247.61788 
   12850    143.67109   -1449.8993    133011.46   -33899.591    2713.4315   -36613.022    38.090826    254.55818 
   12900    138.47229   -1316.4673    132926.71   -34001.488    2615.2448   -36616.732    38.258562    245.34688 
   12950    138.25341     -1160.21    132975.56   -34004.051    2611.1108   -36615.161       38.532    244.95905 
   13000    135.61415   -1355.7054     132974.2   -34036.449    2561.2648   -36597.714    38.678919    240.28279 
   13050    140.26647   -1249.5069    132970.15   -33991.248    2649.1304   -36640.378    38.692623    248.52583 
   13100     139.6321   -893.20749    132949.63   -33947.382    2637.1493   -36584.531    38.951317    247.40183 
   13150    139.55094   -1150.9996    133039.12   -33997.859    2635.6166   -36633.475    39.007111    247.25804 
   13200    140.04442   -1156.3482    133084.84   -33997.649    2644.9367   -36642.586     39.16448    248.13239 
   13250    139.30522   -1365.3592     133167.2   -33990.566    2630.9758   -36621.541    39.293465    246.82267 
   13300    138.31922   -1060.0348    133209.19   -34025.965    2612.3539   -36638.319    39.346446    245.07567 
   13350    138.97506   -1157.4324    133263.95   -33986.948    2624.7403   -36611.688     39.62652    246.23768 
   13400    141.05025   -1174.7254    133347.94   -33939.628    2663.9331   -36603.561    39.872497    249.91453 
   13450    138.69442   -1519.1034    133384.14   -33959.496      2619.44   -36578.936    39.959577    245.74045 
   13500    138.64992   -1015.6826    133368.42   -33978.731    2618.5996   -36597.331    39.918243     245.6616 
   13550    139.26251   -1281.2445    133309.33   -34028.692    2630.1692   -36658.861    39.858019      246.747 
   13600     139.3605   -1301.6892    133279.29   -34065.124    2632.0199   -36697.144    39.947302    246.92062 
   13650    142.40729   -1087.0598    133366.32   -33985.888    2689.5629   -36675.451    40.088828    252.31896 
   13700    137.67217   -1284.2706    133349.41   -33999.321    2600.1334   -36599.454    40.447609    243.92921 
   13750    140.54163   -1397.5008    133282.06   -33985.825    2654.3271   -36640.152    40.693963    249.01335 
   13800    140.00958   -1505.6661     133230.3   -34013.776    2644.2787   -36658.055     40.90036    248.07067 
   13850    141.44027   -1295.4159    133136.75   -33960.417    2671.2994   -36631.716    41.050627    250.60559 
   13900    141.00693   -1388.7576     133149.6   -33952.086     2663.115   -36615.201    41.145984    249.83778 
   13950     140.2311   -1239.7866    133050.59   -33965.262    2648.4623   -36613.724    41.281015    248.46315 
   14000    139.93156    -1386.682    132916.97     -34068.4    2642.8051   -36711.205    41.330641    247.93242 
   14050    139.43607   -1297.8352    132941.01   -34037.423    2633.4471    -36670.87    41.386563    247.05451 
   14100    141.26576   -1286.1335    133012.67   -34003.808    2668.0035   -36671.811    41.518345    250.29639 
   14150    143.01964   -1069.9048    133027.03   -33923.144    2701.1279   -36624.272    41.785021    253.40393 
   14200    144.01572   -1300.9694    133029.56   -33947.569    2719.9403   -36667.509    41.880249    255.16879 
   14250    142.76677    -1290.896    133069.93    -33963.55    2696.3521   -36659.903    42.153711    252.95589 
   14300    142.62271   -1293.9578    133084.93   -34031.015    2693.6314   -36724.646    42.259406    252.70064 
   14350    142.99543   -960.04629    133109.67    -34052.35    2700.6707   -36753.021    42.419644    253.36103 
   14400     138.6611   -1536.8803    133103.67   -34031.333    2618.8107   -36650.144    42.496491    245.68141 
   14450    141.26284    -1324.341    133029.22   -34059.706    2667.9483   -36727.655    42.572354    250.29121 
   14500    142.09142   -1216.7367    133008.53   -34037.915    2683.5972   -36721.512    42.713289     251.7593 
   14550    138.49426   -1303.9472     133067.8   -34057.801    2615.6597   -36673.461    42.761683     245.3858 
   14600    139.61162   -1235.5937    133006.64   -34064.586    2636.7627   -36701.349    42.911985    247.36556 
   14650    139.39309   -1341.7757     132948.4   -34102.247    2632.6354   -36734.883    42.969625    246.97836 
   14700    142.57805   -1445.8271    132883.61   -33999.519    2692.7879   -36692.307    43.184252    252.62151 
   14750    140.57352   -1381.7956    132907.06   -34014.139    2654.9295   -36669.069    43.175431    249.06986 
   14800    139.42305   -1303.7421    132940.76   -34028.179    2633.2013   -36661.381    43.582829    247.03145 
   14850    141.68073   -1117.3371    132998.22   -33952.594    2675.8408   -36628.434    43.960095    251.03163 
   14900    141.38075    -1309.327    132955.71   -33960.716    2670.1752   -36630.891    44.092995    250.50012 
   14950    138.15672   -1298.2217    132986.63   -33994.353    2609.2848   -36603.637    44.216728    244.78775 
   15000    138.53987   -1576.4138    132924.35   -34041.857    2616.5212   -36658.378    44.178879    245.46662 
   15050    140.94656    -1124.616    132914.78   -34016.599    2661.9748   -36678.574    44.042241    249.73081 
   15100    139.23568   -993.63082    133033.46    -34008.43    2629.6625   -36638.092    44.149998    246.69946 
   15150    141.01589   -940.75844    133071.67   -33998.767    2663.2842   -36662.051    44.463662    249.85365 
   15200    138.78228    -1064.554    133073.78   -34043.523    2621.0994   -36664.623    44.711985    245.89612 
   15250    141.63472   -1181.0581    133066.65   -34018.763    2674.9718   -36693.735    44.872653    250.95011 
   15300    142.74698   -1118.7228    133194.87   -34013.472    2695.9783   -36709.451    45.104672    252.92082 
   15350    137.77472    -964.9825     133220.8   -34007.645    2602.0702   -36609.715    45.393698    244.11091 
   15400    136.53886    -1335.635    133136.35   -34032.084    2578.7293   -36610.814    45.576725     241.9212 
   15450    139.51918   -1243.2758    133096.95   -33968.954    2635.0169   -36603.971    45.762917    247.20178 
   15500     142.9711   -974.26801    133100.85   -33923.725    2700.2112   -36623.936    45.782223    253.31792 
   15550    141.67456   -1157.6625    133109.23   -33929.421    2675.7242   -36605.145    46.175344     251.0207 
   15600    142.75441    -951.7149    133134.99    -33892.35    2696.1187   -36588.468     46.41422    252.93399 
   15650     143.0642   -994.85577    133190.35   -33871.909    2701.9695   -36573.878    46.645601    253.48288 
   15700    145.04326   -1095.0059    133253.54    -33889.83    2739.3469   -36629.177    47.009469    256.98941 
   15750    139.15586    -1324.454    133210.56   -33919.665    2628.1549    -36547.82    47.150077    246.55803 
   15800     141.6846    -1078.791    133272.62   -33931.485    2675.9138   -36607.399    47.185788    251.03849 
   15850    139.10834   -1346.3378    133358.38   -33934.037    2627.2575   -36561.295    47.218161    246.47384 
   15900     140.6015   -1106.9158    133440.43   -33950.943     2655.458   -36606.401    47.480537    249.11944 
   15950    141.93009   -1400.7442    133501.57   -33928.007    2680.5503   -36608.557     47.68658    251.47345 
   16000    143.10412   -1193.5284    133379.34   -33933.824    2702.7235   -36636.548    47.761866    253.55362 
   16050    141.73694    -1096.458    133374.02   -33895.347    2676.9024   -36572.249    47.995463    251.13123 
   16100    144.45732     -1280.12    133402.13   -33921.397    2728.2805   -36649.678    48.094252    255.95122 
   16150    140.97253   -1393.7628    133338.86   -33926.022    2662.4653   -36588.487    48.271346    249.77682 
   16200    141.43537   -1432.3549    133255.99   -33929.176    2671.2068   -36600.382    48.084642     250.5969 
   16250    141.63702   -1367.1645     133186.7   -33927.377    2675.0152   -36602.392      48.1029    250.95418 
   16300    139.67999   -1229.0298    133113.97    -33950.14    2638.0538   -36588.194    48.044436    247.48668 
   16350    140.74132   -1113.7347    133084.03   -33949.712    2658.0987   -36607.811    48.184341    249.36718 
   16400    139.66411   -1083.5575    133023.01   -33975.152     2637.754   -36612.906    48.310737    247.45856 
   16450    140.01377   -1103.4485    132959.18   -34006.202    2644.3578    -36650.56     48.36598    248.07809 
   16500    138.19345   -1205.8997    132957.07   -34005.154    2609.9785   -36615.132    48.487044    244.85282 
   16550    141.95982   -1342.9581    132877.44   -33973.688    2681.1117     -36654.8    48.615456    251.52612 
   16600    137.96747   -1363.2105    132856.34   -34032.339    2605.7106    -36638.05    48.838013    244.45244 
   16650    137.90531   -1176.1694    132805.42   -34072.002    2604.5366   -36676.539    48.892304     244.3423 
   16700    140.30342   -1183.4202    132883.15   -34074.168    2649.8283   -36723.996    49.184231     248.5913 
   16750    141.59624   -1198.9802    132906.47   -34051.289     2674.245   -36725.534      49.1888    250.88193 
   16800    139.98562   -1355.4781    132966.79   -34040.806    2643.8262   -36684.632    49.533883    248.02821 
   16850    139.57465   -1259.2937    132982.72   -34055.251    2636.0644   -36691.316    49.919936    247.30005 
   16900    140.77939   -994.92708    132999.94   -33981.313    2658.8176   -36640.131    50.047871    249.43462 
   16950    142.88707   -998.29654    133020.08   -33915.034    2698.6241   -36613.658    50.117121    253.16903 
   17000    142.89287   -1328.0998    132988.34   -33889.888    2698.7337   -36588.621    50.491674    253.17931 
   17050    142.60925   -1167.3399     132987.6   -33969.078    2693.3771   -36662.455    50.899274    252.67679 
   17100    142.04633    -1255.245    132900.12   -33933.227    2682.7456   -36615.972    51.188649    251.67941 
   17150    142.94412   -1194.0916    132869.55     -33932.2    2699.7017   -36631.902    51.249196    253.27013 
   17200    137.73442   -1637.9196    132792.01   -33949.903    2601.3091   -36551.212    51.497174    244.03951 
   17250    139.58198   -1111.2244    132696.78   -33939.627    2636.2028    -36575.83    51.598999    247.31303 
   17300    139.08068   -1439.9128    132593.73   -33905.466    2626.7351   -36532.201    51.762282    246.42483 
   17350    136.65346   -1194.9169    132420.33   -34003.918    2580.8936   -36584.812     51.90128    242.12425 
   17400    139.57677   -1211.7476    132450.37   -34007.632    2636.1044   -36643.737    52.261667    247.30381 
   17450    140.32037   -1285.8569    132401.97   -34001.412    2650.1483   -36651.561    52.429977    248.62132 
   17500    136.27109   -1058.8353     132453.2   -34036.004     2573.672   -36609.676    52.653392    241.44676 
   17550    136.42323   -1229.9728    132498.48   -34066.097    2576.5453   -36642.642    52.572594    241.71632 
   17600    136.91366   -1348.9512    132434.82   -34076.804    2585.8078   -36662.612    52.786518    242.58527 
   17650     137.4023   -1366.8888    132405.68   -34095.688    2595.0365   -36690.724    52.947624    243.45105 
   17700    136.96958   -1030.0401    132389.37   -34108.364    2586.8639   -36695.228    53.244859    242.68435 
   17750     137.8169   -1171.0084     132451.4   -34100.849    2602.8669   -36703.716    53.703474    244.18566 
   17800    137.39592   -1177.9915     132472.1   -34094.492    2594.9161   -36689.408    54.061176    243.43976 
   17850    137.72728   -1324.5122    132407.76   -34084.596    2601.1743    -36685.77    54.108927    244.02686 
   17900    139.36622   -1167.7291    132446.22     -34106.7     2632.128   -36738.828    54.156742    246.93076 
   17950    138.59572   -1026.0872    132464.95   -34093.204     2617.576    -36710.78    54.230294    245.56558 
   18000    140.21887   -1060.4519    132513.55   -34051.022    2648.2315   -36699.253    54.515798     248.4415 
   18050    138.78339   -1168.4402    132496.49   -34038.923    2621.1203   -36660.043    54.639956    245.89808 
   18100    141.88366   -1274.3681    132418.26   -34054.281    2679.6734   -36733.954    54.729182    251.39119 
   18150    140.46074   -1223.6024    132296.21   -34010.686    2652.7994   -36663.485    55.036958    248.87003 
   18200    138.44226   -1055.2738    132285.65   -34104.429    2614.6777   -36719.106    55.197248    245.29367 
   18250    137.10608   -1383.8105     132301.2   -34096.954    2589.4419   -36686.396    55.294151     242.9262 
   18300    137.28072   -1148.8353    132252.23   -34079.615    2592.7403   -36672.355    55.255101    243.23564 
   18350    136.90743    -1323.601    132258.25   -34078.069    2585.6902    -36663.76    55.287749    242.57424 
   18400    136.44068   -1273.2321    132136.27   -34043.739     2576.875   -36620.614    55.389067    241.74725 
   18450    138.25757   -1356.0255    132109.27   -34032.612    2611.1896   -36643.802    55.642002    244.96644 
   18500    138.86848    -1220.658    132087.25   -34003.423    2622.7273    -36626.15    55.859317    246.04884 
   18550     141.2316   -1153.7058    132119.19   -34019.999    2667.3583   -36687.357    55.994052    250.23586 
   18600    139.83825    -1425.599    132197.81   -34057.902    2641.0428   -36698.945    56.122091    247.76709 
   18650    135.50262   -1090.5046    132145.12   -34119.863    2559.1584   -36679.022    56.098115    240.08518 
   18700    140.96664   -1233.9111    132129.71   -34105.161    2662.3541   -36767.516    56.185222     249.7664 
   18750    141.79059   -1208.1577    132116.22   -34037.938    2677.9156   -36715.854    56.454799    251.22629 
   18800    142.25118   -1320.1784    132143.89   -34049.665    2686.6145    -36736.28    56.647116    252.04237 
   18850    139.42646   -1198.2064    132160.28   -34060.633    2633.2656   -36693.898    56.747545    247.03748 
   18900     140.4118   -1162.3613    132215.51   -34056.211    2651.8752   -36708.087    57.043506    248.78332 
   18950    141.13306   -1198.4811    132227.74    -34087.05    2665.4973   -36752.547    57.117945    250.06127 
   19000    136.39556   -1266.5785    132215.57   -34077.201    2576.0229   -36653.223     57.45105    241.66731 
   19050    137.68138   -1123.2961     132240.6   -34071.072    2600.3074    -36671.38    57.817022    243.94554 
   19100    138.33482   -1184.2696    132299.14   -34068.608    2612.6484   -36681.256    58.018684     245.1033 
   19150    141.57929   -989.90225    132302.82   -34048.311    2673.9248   -36722.236     58.04395    250.85189 
   19200    137.74584   -921.75388    132343.58    -34052.89    2601.5247   -36654.415    58.170628    244.05974 
   19250    140.92412    -1120.803    132331.23   -34043.015    2661.5511   -36704.566    58.190581    249.69106 
   19300    142.19031   -904.27778    132367.83    -34051.43    2685.4649   -36736.895    58.361289    251.93451 
   19350    140.17529    -1136.194     132309.6   -34061.029    2647.4084   -36708.437     58.60036    248.36428 
   19400    138.45337   -1209.9722    132190.92   -34055.684    2614.8874   -36670.572    58.677823    245.31335 
   19450    139.06393   -768.01822     132132.3   -34053.747    2626.4187   -36680.166     58.52922    246.39515 
   19500    137.26743    -1101.413    132131.49   -34088.393    2592.4893   -36680.882    58.795124    243.21209 
   19550    140.67099   -979.87539    132135.75   -34045.344    2656.7704   -36702.114    59.118416    249.24257 
   19600     140.1282   -966.93141    132097.57   -34033.812    2646.5189   -36680.331    59.286996    248.28083 
   19650    139.54897   -1203.4048     132035.3   -34030.955    2635.5794   -36666.534    59.491285    247.25455 
   19700     138.7501   -1215.0757    131974.54   -34031.254    2620.4915   -36651.746    59.601764    245.83909 
   19750    138.56297   -900.21841    132059.27   -34043.502    2616.9574   -36660.459    59.743784    245.50754 
   19800    139.42117   -1062.5062    132128.71   -34053.687    2633.1657   -36686.853     59.92269    247.02811 
   19850    140.54796    -1054.026    132140.58    -34037.06    2654.4467   -36691.506    60.078245    249.02457 
   19900     141.2026   -1134.2061     132223.8   -34029.008    2666.8105   -36695.818    60.295942    250.18447 
   19950    138.96195   -1279.9963    132186.51   -34055.179    2624.4926   -36679.672    60.290406    246.21445 
   20000    140.16794   -1226.5381    132170.83   -34047.743    2647.2696   -36695.012    60.465831    248.35126 
   20050    140.43995   -1024.3335    132267.82   -34017.454    2652.4068   -36669.861      60.5765    248.83319 
   20100    139.05246   -1274.2226    132272.74   -33995.534    2626.2021   -36621.736    60.808919    246.37483 
   20150    137.68727   -1397.1804    132190.56   -33985.173    2600.4186   -36585.592     60.90902    243.95597 
   20200    142.17119   -1062.5289    132180.33   -33937.145    2685.1038   -36622.249    61.137449    251.90063 
   20250    141.26756   -1153.5396     132152.2   -33950.723    2668.0375    -36618.76    61.198788    250.29958 
   20300    140.40294   -1112.9568     132145.8   -33929.326    2651.7078   -36581.034    61.326165    248.76762 
   20350    139.02529   -1126.0764    132143.03   -33983.847     2625.689   -36609.536    61.476089    246.32669 
   20400    139.36788   -1249.1666    132175.98   -34008.138    2632.1593   -36640.297    61.720611     246.9337 
   20450    140.58236   -1116.8301    132213.83   -34007.184    2655.0964    -36662.28    61.850276    249.08552 
   20500     140.9702   -1130.9597    132313.13   -33943.146    2662.4214   -36605.567    62.258972     249.7727 
   20550    140.65889   -1152.7476    132307.09    -33987.51    2656.5419   -36644.052     62.58624    249.22112 
   20600    139.35717   -1283.1908    132291.89   -34034.471    2631.9571   -36666.428    62.671551    246.91472 
   20650    143.40705   -1127.2932    132369.67   -33993.423    2708.4447   -36701.867    62.684765    254.09034 
   20700    140.53064   -1310.1682    132437.52   -34043.667    2654.1196   -36697.787     63.06517    248.99388 
   20750    139.64466   -1044.9284    132437.81   -34019.816    2637.3867   -36657.203    63.174253     247.4241 
   20800    138.77206   -1154.1082     132492.6   -34046.294    2620.9064     -36667.2    63.598318    245.87802 
   20850    140.35522   -1325.8183    132483.32   -34057.735    2650.8066   -36708.542    63.626402    248.68308 
   20900    141.25464   -1288.3808    132360.62   -33989.942    2667.7934   -36657.735    63.809545    250.27668 
   20950    142.09272    -938.4582    132369.44   -33990.466    2683.6217   -36674.088    64.025059    251.76159 
   21000     141.3346   -1149.1984     132350.7   -33997.554    2669.3036   -36666.857     63.95186    250.41836 
   21050    141.03954   -1120.4819    132343.56   -33997.186    2663.7309   -36660.917    64.077645    249.89556 
   21100    136.18586   -1138.4496    132321.76   -34001.369    2572.0622   -36573.432    64.260453    241.29574 
   21150    138.80903   -1224.9359     132283.9   -34003.281    2621.6046   -36624.886       64.379    245.94352 
   21200    139.53383   -1348.0512    132181.64   -34027.804    2635.2935   -36663.098    64.441441    247.22773 
   21250    138.92018   -1112.0821    132117.67   -34028.265    2623.7038   -36651.968    64.753095    246.14045 
   21300    138.22545   -1192.0084    132141.35   -34063.208    2610.5829   -36673.791    64.937125    244.90952 
   21350    135.98876    -1063.956    132162.42   -34042.816    2568.3399   -36611.156    65.089164    240.94653 
   21400    138.96609   -1347.5847    132286.94   -34060.117    2624.5709   -36684.688    65.263117    246.22179 
   21450     138.8395   -1213.4288    132343.49    -34069.41    2622.1801    -36691.59    65.589895     245.9975 
   21500     138.9243   -1129.8951    132370.82   -34041.039    2623.7816   -36664.821    65.864479    246.14775 
   21550    141.16971   -1091.6103    132417.39   -34018.728    2666.1894   -36684.917    66.245621     250.1262 
   21600    139.25014   -1210.8772     132424.8   -33979.636    2629.9357   -36609.572    66.265008    246.72509 
   21650    141.86104   -1378.2574    132321.15   -33934.807    2679.2461   -36614.053    66.697156     251.3511 
   21700    138.87563    -1335.272    132291.59   -33980.821    2622.8625   -36603.684    67.129942    246.06153 
   21750    138.25668   -1183.7222    132317.83    -33962.98    2611.1727   -36574.153    67.352841    244.96486 
   21800    143.13753   -913.75506    132312.38    -33915.68    2703.3544   -36619.035    67.730287     253.6128 
   21850    141.92375   -1054.2255    132329.74   -33899.375    2680.4305   -36579.806    67.795317    251.46222 
   21900    143.09241   -965.09482    132415.14   -33888.312    2702.5024   -36590.814    68.058786    253.53287 
   21950    142.53787   -1204.8984    132360.92   -33903.937    2692.0289   -36595.965     68.35668    252.55031 
   22000    140.50306   -1273.4216    132346.42    -33915.69    2653.5988   -36569.289    68.593599    248.94502 
   22050    141.04849   -1182.2932    132374.75   -33938.556    2663.8999   -36602.456    68.757748    249.91141 
   22100    139.22405   -1316.5368    132421.43   -33932.203    2629.4429   -36561.645    69.067409    246.67886 
   22150    140.97675   -1144.9664    132447.96    -33941.71     2662.545   -36604.255     69.49288    249.78431 
   22200    140.91283   -1205.4601     132507.6   -33930.316    2661.3379   -36591.654    69.652178    249.67106 
   22250    140.11081   -1589.3764     132470.7   -33930.678    2646.1906   -36576.869    69.757919    248.25003 
   22300    140.16401   -1246.4453    132510.68   -33942.399    2647.1953   -36589.594    70.064881    248.34428 
   22350     140.5385    -1090.855    132561.16   -33941.898    2654.2681   -36596.166    70.112568    249.00781 
   22400    139.71504   -1031.1785    132572.73    -33968.74    2638.7159   -36607.456    70.142723     247.5488 
   22450    140.79148   -1167.7164    132615.62   -33991.517    2659.0459   -36650.562    70.380359    249.45604 
   22500    138.58538   -1154.8354    132601.82   -33983.947    2617.3807   -36601.328    70.583084    245.54726 
   22550    141.38314   -1303.4781    132577.99   -33965.448    2670.2203   -36635.669    70.781087    250.50436 
   22600    139.88108   -1495.4364    132612.52   -33961.269    2641.8517   -36603.121    70.877556    247.84298 
   22650    141.51889   -1176.8889    132597.72   -33970.553    2672.7841   -36643.337    71.187893    250.74488 
   22700    138.34202   -1325.7875    132706.99   -33965.312    2612.7844   -36578.097    71.545226    245.11606 
   22750    139.72892   -1423.8808    132685.01   -33930.634    2638.9779   -36569.612    71.682346    247.57338 
   22800    142.33543   -1223.8537    132709.58    -33954.89    2688.2057   -36643.095    72.041837    252.19164 
   22850    137.19458   -1151.5831    132720.69   -33965.459    2591.1134   -36556.573    72.458029    243.08302 
   22900    141.06658   -1105.9212    132813.59   -34050.543    2664.2416   -36714.784    72.514809    249.94347 
   22950    140.03043   -1093.0494    132901.33   -34028.859    2644.6725   -36673.532    72.520526    248.10761 
   23000    140.69167   -1163.6403    133008.96   -33976.083    2657.1609   -36633.244    72.770577     249.2792 
   23050    140.32423   -1367.4075    132949.97   -34022.482    2650.2214   -36672.704    72.678118    248.62817 
   23100    139.38307    -1535.184    132867.08   -34060.737    2632.4462   -36693.183     72.86307    246.96062 
   23150    137.39192   -1315.7432    132869.89   -34024.444    2594.8405   -36619.284    72.767472    243.43267 
   23200     139.1441   -1338.0056    132852.58   -34063.348    2627.9329   -36691.281    72.870511     246.5372 
   23250    139.35241   -1281.7279    132890.92     -34061.6    2631.8672   -36693.467    73.045853    246.90629 
   23300    136.15363   -846.95033    132940.26   -34106.404    2571.4536   -36677.858    73.070181    241.23864 
   23350    140.59828   -1024.1057    133011.17   -34056.752    2655.3971   -36712.149    73.415717    249.11373 
   23400    138.20986   -1171.0887     132948.5   -34087.761    2610.2883   -36698.049    73.759324    244.88189 
   23450    137.42091   -1247.2833    132917.11   -34099.147     2595.388   -36694.535    73.885558    243.48403 
   23500    141.05033   -981.78484    132928.93   -34073.851    2663.9346   -36737.785    73.998598    249.91467 
   23550     139.7142    -1626.984    132941.68   -34028.816    2638.7001   -36667.516    74.101895    247.54732 
   23600    140.87916   -1193.0696    132954.47    -34008.97    2660.7019   -36669.672    74.259176     249.6114 
   23650    138.06232   -1193.3814     132932.6   -34013.999    2607.5019   -36621.501    74.691856    244.62048 
   23700    140.79535   -1308.7497    132914.16   -34015.651    2659.1191    -36674.77    74.958133     249.4629 
   23750    141.81464   -1207.8229     132914.2   -33998.098    2678.3697   -36676.467    74.983279    251.26888 
   23800      139.777   -1173.7801    132884.34   -34027.865     2639.886   -36667.751    74.886084    247.65857 
   23850    142.17636   -1122.9023    132925.13   -33955.315    2685.2013   -36640.516    75.092227    251.90979 
   23900    141.11076    -1075.395     132995.9    -34009.47    2665.0761   -36674.546    75.072554    250.02176 
   23950    140.89483    -1457.325    133062.96   -33941.841    2660.9979   -36602.839    75.287007    249.63916 
   24000    139.63467   -1235.7431    133005.85   -33975.408     2637.198   -36612.606    75.432438     247.4064 
   24050    140.14912    -1273.757    133050.25   -33974.056    2646.9141    -36620.97    75.635056    248.31791 
   24100    140.28718   -1166.8764    133031.89   -34068.829    2649.5216   -36718.351    75.840026    248.56253 
   24150    137.16498   -1228.2516    133002.06   -34072.278    2590.5543   -36662.832    75.812439    243.03056 
   24200    136.46848   -1578.7818    132936.35   -34022.927       2577.4   -36600.327     75.81895    241.79651 
   24250    139.41949   -1508.1189    132809.66   -34014.108    2633.1339   -36647.242    75.825871    247.02513 
   24300    140.19758   -1414.8562    132625.74   -33975.898    2647.8292   -36623.728    76.089213    248.40376 
   24350     141.6555   -1384.2281    132505.63   -33973.364    2675.3642   -36648.728    76.259114    250.98692 
   24400    141.32032   -1414.1029    132346.55   -33991.117    2669.0339   -36660.151     76.35198    250.39306 
   24450    137.42162    -1538.401    132240.12   -34007.333    2595.4014   -36602.734     76.54269    243.48528 
   24500    140.29882   -1161.7263    132190.41   -33940.124    2649.7413   -36589.865    76.600052    248.58314 
   24550     142.4119   -1127.8933    132164.44   -33922.462    2689.6498   -36612.112    76.983514    252.32712 
   24600    139.97196     -1233.92    132142.05   -34010.981    2643.5682   -36654.549    77.222978    248.00401 
   24650    139.92492   -1257.7011    132107.03   -34029.255    2642.6798   -36671.934    77.376303    247.92067 
   24700    138.61637   -1251.5778    132063.23   -34058.313    2617.9659   -36676.279    77.781955    245.60216 
   24750    140.16171   -1191.4017    132095.03   -34039.126    2647.1518   -36686.278     78.06845     248.3402 
   24800    141.22744   -1415.3188    132089.01   -34010.513    2667.2798   -36677.793    78.191368    250.22849 
   24850    141.45063   -1135.1995    132046.12   -34046.996    2671.4949   -36718.491    78.363328    250.62393 
   24900    139.40276   -1156.6236    132093.75   -34075.919    2632.8181   -36708.737    78.447624     246.9955 
   24950    140.99712   -1093.1514    132089.68   -34068.285    2662.9298   -36731.215    78.528501     249.8204 
   25000    138.90493   -764.15075    132150.69    -34117.23    2623.4158   -36740.646    78.607519    246.11343 
   25050    140.93785   -1126.6797    132191.72   -34092.044    2661.8103   -36753.854    78.649042    249.71538 
   25100    140.77508   -1179.9865    132227.77   -34062.931    2658.7363   -36721.667     78.76966    249.42699 
   25150    140.10029   -918.63595    132302.79   -34051.255    2645.9919   -36697.247     78.68972    248.23138 
   25200     138.1057   -1219.4106    132326.13   -34102.721    2608.3212   -36711.042    78.728302    244.69735 
   25250     139.1472   -1111.9088    132435.51    -34007.47    2627.9915   -36635.461    78.952181     246.5427 
   25300    141.02393   -1321.3567    132439.96   -34010.358    2663.4361   -36673.794    79.086885     249.8679 
   25350    138.17058   -1100.1897    132397.89   -33982.265    2609.5465   -36591.811    79.077727     244.8123 
   25400    139.51973   -1397.9567    132470.21   -33986.153    2635.0272    -36621.18    79.331765    247.20274 
   25450    140.69661   -1342.5114    132455.62   -34027.501    2657.2542   -36684.755    79.281723    249.28795 
   25500    139.95726   -1016.8656    132473.34   -34049.715    2643.2906   -36693.005    79.430942    247.97797 
   25550    139.85057   -1049.0174    132554.56   -34037.613    2641.2755   -36678.889    79.628417    247.78893 
   25600    139.72063   -976.02433    132633.56   -34033.778    2638.8214   -36672.599    79.983318     247.5587 
   25650    138.19031   -863.09498    132749.91   -34089.099    2609.9193   -36699.018    80.188685    244.84727 
   25700    138.59711   -883.60147    132895.99    -34102.59    2617.6022   -36720.192    80.338477    245.56804 
   25750     139.8821   -1037.6035    133002.06   -34081.581     2641.871   -36723.452    80.524916     247.8448 
   25800    139.68844   -1087.4729    133098.59   -34049.051    2638.2135   -36687.264    80.544641    247.50167 
   25850    137.43358   -1163.8989    133157.59   -34061.663    2595.6273    -36657.29    80.873545    243.50648 
   25900    137.15668    -1146.169    133218.98   -34083.906    2590.3976   -36674.304    81.026498    243.01586 
   25950     137.8237     -1124.61    133280.98    -34089.79    2602.9953   -36692.786    81.133812     244.1977 
   26000    136.40784   -1106.0848    133316.33   -34101.229    2576.2547   -36677.483    81.120625    241.68906 
   26050    140.83883   -1127.8548     133302.1   -34058.538    2659.9403   -36718.478    81.057594    249.53995 
   26100    141.08497   -1021.6098    133331.38   -34032.957    2664.5889   -36697.546    81.111231    249.97605 
   26150     138.1634   -929.27956    133416.87   -34060.867    2609.4109   -36670.278    81.244644    244.79958 
   26200    140.09168   -1081.8959    133517.95   -34049.341    2645.8292    -36695.17    81.525452    248.21613 
   26250    141.29644   -1097.1936    133605.35   -34047.319    2668.5829   -36715.902    81.957548    250.35075 
   26300    138.62026   -1110.0097    133679.31   -34107.097    2618.0395   -36725.136    82.335606    245.60906 
   26350    141.95929   -1052.1881    133699.12   -34089.126    2681.1016   -36770.227    82.285369    251.52518 
   26400    139.77324   -1027.2389    133803.88   -34111.065     2639.815    -36750.88    82.314724    247.65191 
   26450    138.81137   -1147.0317    133911.69   -34122.636    2621.6488   -36744.284    82.562611    245.94766 
   26500    139.67547   -1208.4046    133939.49   -34093.441    2637.9685    -36731.41    82.836704    247.47868 
   26550    144.36615   -1148.3857    133928.77   -34059.669    2726.5586   -36786.227    82.886461    255.78969 
   26600    141.38943   -1314.5017    133937.95   -34056.902    2670.3391   -36727.241    83.192232     250.5155 
   26650    137.15759   -1271.6921    133841.64   -34080.976    2590.4147   -36671.391    83.261684    243.01747 
   26700    140.98724   -1270.4629    133743.17   -34083.492    2662.7431   -36746.235    83.451031    249.80289 
   26750    138.93057   -1387.6599    133725.61    -34030.34       2623.9    -36654.24     83.54655    246.15886 
   26800    139.79681    -1447.503    133725.95   -34046.582    2640.2601   -36686.842    83.513939    247.69367 
   26850    136.25817   -1455.2125    133694.18    -34064.31     2573.428   -36637.738    83.823595    241.42387 
   26900    141.61833   -1128.7569    133676.62   -34047.287    2674.6622   -36721.949    84.251296    250.92107 
   26950    140.84719   -1336.6369    133791.35   -34080.909    2660.0981   -36741.007    84.534241    249.55475 
   27000    138.76881   -1286.7883    133732.41   -34081.429    2620.8449   -36702.274    84.715423    245.87225 
   27050    138.59129   -1365.4544    133726.75   -34098.844    2617.4922   -36716.336     84.73708    245.55772 
   27100     140.8188   -1517.5684    133661.79   -34045.402    2659.5619   -36704.964    84.617272    249.50445 
   27150    140.47291   -1506.8045    133563.92   -34065.113    2653.0294   -36718.142    84.628094    248.89161 
   27200    142.00296   -1452.8182    133502.84   -34030.596    2681.9265   -36712.523    84.811282    251.60256 
   27250     138.9552   -1242.5484    133464.15   -34029.996    2624.3652   -36654.361    84.994554     246.2025 
   27300    140.58449     -1317.57    133436.36   -34043.234    2655.1367   -36698.371    84.874249     249.0893 
   27350    139.37176   -1416.8199    133382.56   -34058.161    2632.2326   -36690.393    84.973654    246.94057 
   27400     137.8211   -1312.1311    133321.13   -34082.854    2602.9461     -36685.8     85.02807    244.19309 
   27450    138.85501   -1015.5182     133291.8   -34068.675     2622.473   -36691.148     84.91514    246.02498 
   27500    138.70233   -1239.1209    133312.18   -34038.617    2619.5894   -36658.207    85.224811    245.75446 
   27550    136.53447   -1343.7467    133321.48   -34062.339    2578.6463   -36640.986    85.408191    241.91342 
   27600    138.15795   -1357.4889    133306.15   -34072.885    2609.3081   -36682.193    85.608586    244.78993 
   27650    141.36172   -1408.8964    133253.12   -34038.368    2669.8157   -36708.184    85.731281    250.46639 
   27700    142.73258   -1327.4161    133214.48   -33993.233    2695.7064    -36688.94    85.851923    252.89531 
   27750    141.49213   -1402.0488    133170.36    -33972.64    2672.2787   -36644.918     85.82802    250.69746 
   27800    142.00251    -1240.724    133125.81   -34000.609    2681.9179   -36682.527    86.117768    251.60176 
   27850    140.67643   -1089.6291    133174.43   -34002.532    2656.8731   -36659.405    86.402292     249.2522 
   27900     140.7928   -1026.2819    133299.19    -34008.99     2659.071   -36668.061    86.530788    249.45839 
   27950    141.80379   -1156.7547    133349.86   -34012.419    2678.1649   -36690.584    86.606789    251.24967 
   28000    142.32694   -1445.4627    133349.92   -34001.338    2688.0453   -36689.384    86.800788    252.17659 
   28050    141.37378   -1333.2991     133244.3   -33984.705    2670.0435   -36654.749    87.160451    250.48777 
   28100    141.91992   -1290.5365    133213.87   -34006.088    2680.3582   -36686.446    87.274796    251.45544 
   28150    140.88595   -1090.0718    133233.11   -33962.149    2660.8302   -36622.979    87.403456    249.62343 
   28200    142.37052   -1265.9597    133232.71   -33976.202    2688.8684    -36665.07    87.609501    252.25381 
   28250    141.42382   -1286.2811    133207.74   -33991.976    2670.9885   -36662.964    87.984637    250.57643 
   28300    140.03545   -945.32428    133148.68   -34009.919    2644.7673   -36654.686    88.337052    248.11651 
   28350     139.2004   -1159.6057    133167.56   -34067.825    2628.9962   -36696.821    88.714083    246.63695 
   28400    144.32862   -1074.9422    133119.31   -33978.785    2725.8498   -36704.635    89.201905    255.72319 
   28450    142.56279   -1294.2393    133045.32   -33998.529    2692.4997   -36691.029    89.535972    252.59448 
   28500    143.30229   -1291.4777     133007.8   -34033.313    2706.4661   -36739.779    89.794941    253.90472 
   28550    141.37573   -1074.9787    133049.37   -34017.336    2670.0804   -36687.417    89.974267    250.49123 
   28600    141.99303   -1217.0707    133050.07    -34040.49    2681.7389   -36722.228    90.107918    251.58496 
   28650    141.78012   -1353.4037     133029.3    -34041.13    2677.7178   -36718.847    90.289969    251.20772 
   28700    142.46964   -1189.1494    133013.61   -34064.467    2690.7404   -36755.208    90.300488    252.42943 
   28750     139.7568   -1267.8004    132948.69   -34097.447    2639.5046   -36736.951    90.707971    247.62279 
   28800    138.77495   -1222.0203    132856.34   -34097.255    2620.9609   -36718.216    90.866018    245.88313 
   28850    138.11249   -1171.9714    132751.99   -34149.035    2608.4495   -36757.484    91.003697    244.70938 
   28900    140.01204   -932.28193    132685.34   -34127.023    2644.3251   -36771.348    91.182379    248.07502 
   28950    140.80654   -1088.7248    132705.64   -34106.158    2659.3303   -36765.488    91.311667    249.48272 
   29000    139.29649     -1469.44    132622.57   -34116.463     2630.811   -36747.274    91.159957    246.80721 
   29050    138.47176   -1197.8615    132570.57   -34099.386    2615.2348   -36714.621    91.481099    245.34594 
   29100     141.8594   -1077.1844    132521.96   -34048.987    2679.2152   -36728.202    91.518986     251.3482 
   29150    140.81366    -1204.084    132564.12   -34025.044     2659.465   -36684.509    91.985371    249.49535 
   29200    139.51232   -1275.9956    132484.32   -34086.737    2634.8872   -36721.624    91.851378    247.18962 
   29250    139.78708   -1388.1406    132484.49    -34134.56    2640.0764   -36774.637    92.036808    247.67643 
   29300    137.69252    -1301.915    132497.36   -34135.974    2600.5177   -36736.491    92.144925    243.96527 
   29350     137.1767   -1528.0694    132475.01    -34093.58    2590.7757   -36684.355    92.197993    243.05133 
   29400    142.29188   -1288.6541    132415.84    -34098.55    2687.3832   -36785.933    92.712528    252.11448 
   29450    137.96625   -1473.6682    132269.18   -34101.277    2605.6875   -36706.964    92.749559    244.45027 
   29500     137.1184    -1412.816     132215.6   -34121.198    2589.6746   -36710.873    92.908261    242.94804 
   29550    138.24091    -1100.006    132275.59   -34102.185    2610.8748   -36713.059    93.053369    244.93691 
   29600    140.49053   -1133.5161    132383.03   -34045.818     2653.362    -36699.18    93.302741    248.92281 
   29650    141.86589   -1272.4538    132474.74   -34029.028    2679.3377   -36708.366     93.39599     251.3597 
   29700    139.31528    -1292.313    132492.89   -33995.587    2631.1659   -36626.753    93.408212     246.8405 
   29750     140.6757   -1208.1099    132474.71   -33983.924    2656.8593   -36640.783    93.337367     249.2509 
   29800    141.28384   -1080.1302    132425.88   -33966.409    2668.3449   -36634.754    93.303518    250.32842 
   29850    137.93659    -1233.778    132382.73   -34033.022    2605.1273   -36638.149    93.418183    244.39772 
   29900    139.71947   -1245.7387    132306.04   -34057.052    2638.7996   -36695.851    93.513184    247.55665 
   29950    139.06706   -1183.8341    132297.08   -34010.463    2626.4779   -36636.941     93.56896     246.4007 
   30000    138.25851   -1185.5017    132271.77   -33974.934    2611.2072   -36586.141    93.725072     244.9681 
   30050     141.3229    -1116.921    132320.36   -34028.404    2669.0827   -36697.487    93.734417    250.39763 
   30100    139.07204   -923.15395    132351.55   -34038.139    2626.5719   -36664.711    93.919926    246.40952 
   30150    142.82899   -1102.3624    132413.13   -33969.123    2697.5273    -36666.65    94.301848    253.06614 
   30200    140.47109    -1003.727    132478.87   -34014.301    2652.9949   -36667.296     94.55488    248.88837 
   30250     140.6529   -905.24923    132500.68   -34039.825    2656.4287   -36696.254    94.718902    249.21051 
   30300    137.39819   -958.55048    132554.78   -34050.113    2594.9588   -36645.072    95.032421    243.44377 
   30350    139.67915   -1328.2642    132501.87   -33983.887     2638.038   -36621.925    95.250601     247.4852 
   30400    141.91949   -1010.8166    132482.34   -33958.756      2680.35   -36639.106      95.6902    251.45466 
   30450    140.34426   -1133.4594    132442.23   -33980.336    2650.5996   -36630.935    95.920502    248.66365 
   30500    137.86448   -1299.9536     132245.9   -34044.064    2603.7655    -36647.83    96.352504    244.26995 
   30550    139.92507   -1172.7155    132262.73   -34033.904    2642.6827   -36676.587    96.568585    247.92094 
   30600    139.15062   -1252.2319     132229.9   -34044.173     2628.056   -36672.229    96.771112    246.54875 
   30650    141.30977    -1012.485    132279.96   -34022.624    2668.8346   -36691.459    96.936555    250.37436 
   30700    138.05177   -1127.2182    132306.69   -34040.195    2607.3027   -36647.498    97.199002    244.60179 
   30750    138.17205   -1239.2304    132368.03   -34034.208    2609.5743   -36643.782    97.465194     244.8149 
   30800     138.6241   -1480.5965    132422.73   -34066.384    2618.1119   -36684.496    97.606411    245.61585 
   30850    137.19768   -1138.8491    132375.18   -34038.139     2591.172   -36629.311    97.679875    243.08851 
   30900    139.45379   -1261.2828    132372.39   -33985.973    2633.7817   -36619.755    97.904336     247.0859 
   30950    141.03034   -1180.0369    132349.17   -33925.427    2663.5571   -36588.984    97.922779    249.87926 
   31000    142.02644   -1244.9865    132316.27   -33919.624    2682.3699   -36601.994    98.029771    251.64416 
   31050    140.93554   -1255.5601    132299.69   -33937.863    2661.7667    -36599.63    98.303163    249.71129 
   31100     140.1924   -1216.9396    132304.19   -33946.383    2647.7314   -36594.114    98.588681    248.39458 
   31150    140.48647   -1360.9234    132215.01   -33904.353    2653.2853   -36557.639    98.696265    248.91562 
   31200    140.95045   -963.00018    132322.52   -33859.633    2662.0483   -36521.681    99.228182    249.73771 
   31250    140.50907   -1232.0453    132355.79   -33860.242    2653.7123   -36513.955    99.524342    248.95567 
   31300    142.42043   -1052.9642    132319.57   -33863.027    2689.8111   -36552.838    99.530865    252.34225 
   31350     138.6066   -1238.3229    132373.43    -33899.17    2617.7814   -36516.951    99.739784    245.58484 
   31400    138.37387   -1060.2822    132322.86   -33909.392    2613.3859   -36522.778    99.633447    245.17249 
   31450    142.54528   -788.30134    132369.13    -33881.36    2692.1689   -36573.528    99.669953    252.56344 
   31500     141.8506   -1160.1912    132454.49   -33912.956    2679.0489   -36592.005    99.761602     251.3326 
   31550    139.83384   -1075.1712    132440.84   -33924.492    2640.9595   -36565.452    99.961639    247.75928 
   31600    141.40476    -1111.854    132473.05   -33955.733    2670.6286   -36626.361     100.1827    250.54266 
   31650     139.5603   -1144.1656     132423.3   -33939.448    2635.7934   -36575.242    100.12922    247.27462 
   31700    139.21138   -1197.1253    132362.88   -33965.839    2629.2035   -36595.043    100.16064     246.6564 
   31750    141.23917    -876.4293    132411.52   -33968.859    2667.5011    -36636.36    100.33421    250.24926 
   31800    141.63381   -1021.8723    132338.99   -33959.761    2674.9545   -36634.716     100.6282    250.94849 
   31850    140.70395   -1150.9058    132437.01   -33964.354    2657.3928   -36621.747    100.87582    249.30095 
   31900    142.40374   -1074.6197    132524.14   -33906.927    2689.4958   -36596.423    101.15335    252.31267 
   31950    139.99551   -1259.6651    132625.48   -33904.286     2644.013   -36548.299    101.42211    248.04574 
   32000    140.94209    -1240.824    132700.47   -33909.989    2661.8905    -36571.88    101.87127     249.7229 
   32050    139.60774    -1123.237    132779.43   -33915.117    2636.6893   -36551.806    102.55162    247.35868 
   32100     136.6171   -1366.6168    132761.63   -33939.471    2580.2069   -36519.678    102.58047    242.05983 
   32150     142.8646   -1223.6566    132770.82   -33908.424    2698.1998   -36606.624    102.91796    253.12922 
   32200    143.44596   -1049.8315    132783.19   -33872.421    2709.1796   -36581.601    103.09425    254.15929 
   32250    140.98959   -1157.0835    132764.06    -33884.95    2662.7875   -36547.738    103.40268    249.80705 
   32300    138.56431   -1153.7993    132792.73    -33988.04    2616.9826   -36605.023    103.44737    245.50991 
   32350    141.12754   -1327.4674    132850.92   -34039.144    2665.3928   -36704.537    103.38442    250.05147 
   32400    143.17049    -1147.902    132790.54   -33925.886    2703.9769   -36629.863    103.65855     253.6712 
   32450    142.52959   -1301.0253    132738.66   -33858.393    2691.8726   -36550.266    103.93145    252.53565 
   32500    143.73372   -1152.3989    132742.73   -33886.454    2714.6144   -36601.069    104.10726    254.66915 
   32550    142.25143   -1116.8957    132738.17   -33881.066    2686.6191   -36567.685    104.04541    252.04279 
   32600    142.31017   -1130.4678    132663.96   -33908.509    2687.7287   -36596.238    104.08938    252.14689 
   32650    139.35003   -1212.2012    132650.35   -33905.701    2631.8222   -36537.524    103.90557    246.90207 
   32700    138.76278   -1344.7714     132663.7   -33950.754    2620.7311   -36571.486    103.96374    245.86157 
   32750    140.06987   -1207.8345    132624.72   -33978.904    2645.4173   -36624.321    104.09763    248.17749 
   32800    139.32903   -1397.7452    132584.55   -33999.396    2631.4256   -36630.821    104.17831    246.86486 
   32850    139.30156   -1563.5564    132532.03   -33974.913    2630.9067    -36605.82    104.44734    246.81619 
   32900    140.13255   -1107.6443    132530.65   -33921.198    2646.6011   -36567.799    104.62619    248.28854 
   32950    139.68264    -1128.739    132569.39   -33911.558    2638.1039   -36549.662    104.65343    247.49139 
   33000    143.51723   -1045.0262    132669.59   -33910.193    2710.5257   -36620.719     104.7384    254.28557 
   33050    142.65331    -1263.381    132719.99   -33887.596    2694.2093   -36581.805    104.89205    252.75486 
   33100    143.39917   -1245.2467    132721.73   -33889.798     2708.296   -36598.094    104.92789    254.07639 
   33150    141.66043   -1292.2259    132668.54    -33883.01    2675.4573   -36558.467    105.09635    250.99566 
   33200    140.82891   -1257.2076    132589.69   -33858.048    2659.7529   -36517.801    105.43655    249.52236 
   33250     143.7807   -1305.6727    132442.97   -33906.781    2715.5017   -36622.283    105.44914    254.75239 
   33300    141.06907   -1202.1852     132479.6   -33935.183    2664.2887   -36599.472    105.73351    249.94789 
   33350    142.55247   -1178.4042     132459.1   -33950.212    2692.3048   -36642.517     105.8429     252.5762 
   33400    141.94843   -1114.7028    132474.02    -33968.14    2680.8967   -36649.037     105.8657    251.50595 
   33450     143.7602    -1190.058    132545.92   -33932.259    2715.1144   -36647.374    106.28606    254.71606 
   33500    142.27178   -1150.5252    132567.48   -33955.193    2687.0035   -36642.196    106.62099    252.07886 
   33550    137.69272   -1168.6087    132668.17   -34004.855    2600.5216   -36605.376    106.92186    243.96563 
   33600    140.89401   -1043.8043    132679.66    -34039.83    2660.9825   -36700.813    107.13231    249.63772 
   33650    140.27863   -1346.1697    132733.13   -34050.283    2649.3601   -36699.643    106.88657    248.54737 
   33700     140.7175   -1412.3974    132798.44   -34022.167    2657.6487   -36679.815    107.08773    249.32496 
   33750    137.80319   -1239.9395    132893.87   -34050.819    2602.6079   -36653.427    107.16683    244.16136 
   33800    138.49158   -1131.7933    132825.93   -34065.084    2615.6092   -36680.693    107.54987    245.38106 
   33850    137.97656   -1293.1614    132821.06   -34049.097    2605.8822   -36654.979    108.09727    244.46854 
   33900    139.80664   -1290.7031    132840.99   -34052.644    2640.4459    -36693.09    108.43145     247.7111 
   33950    141.36446   -1307.6094    132889.45    -33987.18    2669.8676   -36657.048    108.66911    250.47127 
[...]
   92000    141.12109   -1020.7668    132523.99   -33931.584    2665.2711   -36596.855    289.04341    250.04005 
   92050     143.1807   -1099.7928     132482.8   -33858.417    2704.1697   -36562.587    289.57334    253.68929 
   92100     139.6144   -1289.9008    132408.07   -33867.829    2636.8152   -36504.644     289.9677    247.37048 
   92150    142.43502   -1449.4484    132309.87   -33811.036    2690.0865   -36501.123    289.98126    252.36808 
   92200    143.97963   -1425.6675       132290   -33820.066    2719.2588   -36539.324    290.11182    255.10486 
   92250    142.02021   -1104.7069    132226.45    -33888.86    2682.2522   -36571.112    290.52708    251.63312 
   92300    139.82396   -1155.2201    132327.72   -33923.622     2640.773   -36564.395    290.71689    247.74178 
   92350    140.88634   -1485.4841    132293.04   -33976.522    2660.8376    -36637.36    290.91878    249.62412 
   92400    141.34914   -1167.3311    132243.04   -33951.085    2669.5782   -36620.663    290.85202    250.44411 
   92450    140.40904   -1327.2719    132242.21   -33968.057     2651.823    -36619.88    291.14608    248.77843 
   92500    142.78078   -1133.7329    132221.06   -33921.788    2696.6167   -36618.405    291.62673    252.98071 
   92550    139.22148   -1259.1729    132216.44   -33948.115    2629.3944   -36577.509     291.4206    246.67431 
   92600    142.28816   -1033.5076    132244.92   -33963.986    2687.3129   -36651.298    291.15131    252.10788 
   92650    139.41645   -1182.1085    132276.93   -33960.071    2633.0767   -36593.148    291.19277    247.01976 
   92700    141.45968    -1203.947    132324.28   -33950.873    2671.6659   -36622.539     291.4726    250.63997 
   92750    141.98028   -1264.3258     132388.6   -33941.727    2681.4981   -36623.225    291.36091    251.56238 
   92800    140.44136   -1126.8821     132309.2   -33920.406    2652.4334   -36572.839    291.29665    248.83569 
   92850    141.87944   -1152.2135    132264.51   -33956.358    2679.5936   -36635.951    291.20537     251.3837 
   92900    139.76094   -1120.9316    132242.65   -33972.871    2639.5828   -36612.454     291.6031    247.63012 
   92950     139.0127   -1139.3165    132257.28   -33988.853    2625.4511   -36614.304    291.76385    246.30437 
   93000    139.71101   -1216.1067    132241.71   -33993.416    2638.6397   -36632.055    292.13217    247.54165 
   93050    143.02539    -879.5327    132289.79   -33912.999    2701.2365   -36614.235    292.33415    253.41411 
   93100    141.79569   -1096.2707    132305.97   -33882.323    2678.0119   -36560.335    292.73371    251.23531 
   93150    142.13608    -1211.793    132306.31    -33875.53    2684.4407   -36559.971    292.74181    251.83843 
   93200    142.71233   -1403.5179    132367.37   -33842.675     2695.324   -36537.999    292.88989    252.85944 
   93250    141.59427   -1078.0795    132388.15   -33937.412    2674.2077    -36611.62    293.56387    250.87843 
   93300    140.90665   -1175.1267    132405.59   -33939.814    2661.2212   -36601.035      293.685    249.66011 
   93350     135.8862   -932.53222    132341.89   -34006.627    2566.4028    -36573.03    293.47143    240.76481 
   93400    139.45318   -1056.6736    132334.54   -33995.165    2633.7704   -36628.935    293.49037    247.08484 
   93450    139.77049   -1050.5531    132319.51   -33913.332    2639.7631   -36553.095    293.14217    247.64704 
   93500     141.6034   -1340.2283     132301.1   -33851.688    2674.3802   -36526.068    293.33614    250.89462 
   93550     141.7737   -917.53401    132167.23   -33880.989    2677.5965   -36558.586    293.13861    251.19635 
   93600    140.80259   -1181.6271    132171.69   -33920.301    2659.2557   -36579.557    292.98337    249.47572 
   93650    142.75011   -998.59851    132107.43   -33882.141    2696.0374   -36578.178    293.67762    252.92637 
   93700    142.73177   -926.20831    132149.12   -33877.929     2695.691    -36573.62    293.85258    252.89387 
   93750    142.37548   -1092.2146    132198.99   -33884.697     2688.962   -36573.659    293.69416    252.26259 
   93800    142.46077   -909.66338    132121.31    -33943.86    2690.5728   -36634.433    293.58985    252.41371 
   93850    141.69533   -1075.7197       132146   -33935.722    2676.1165   -36611.838    293.97721    251.05751 
   93900    139.03544    -1161.774    132183.47   -33944.687    2625.8807   -36570.568     294.1079    246.34468 
   93950    141.43762   -1154.9312    132118.55   -34015.697    2671.2492   -36686.947      294.327    250.60088 
   94000    140.95396   -1322.0714    132174.55   -33999.367    2662.1147   -36661.482    294.96598    249.74393 
   94050    139.68153   -1351.7152    132130.02   -34011.958    2638.0829   -36650.041    294.81234    247.48941 
   94100     143.5027   -1039.3152    132145.42   -34012.064    2710.2511   -36722.315    294.89821    254.25981 
   94150    142.27935    -1131.063    132201.78   -34009.221    2687.1466   -36696.368    295.16665    252.09228 
   94200    142.22873   -983.61619    132256.51   -33990.551    2686.1905   -36676.742     295.5696    252.00258 
   94250    138.59927   -1132.0026     132304.2    -34075.31     2617.643   -36692.953    295.95771    245.57186 
   94300    139.62165    -1255.196    132265.33   -34046.281    2636.9521   -36683.233    295.97692    247.38333 
   94350    140.85442    -1170.769    132229.82   -34080.194    2660.2348   -36740.429    296.58759    249.56757 
   94400    139.65378   -1116.9928    132212.28    -34077.07    2637.5588   -36714.628    297.04308    247.44025 
   94450    141.84681   -1095.9416     132238.2    -34085.95    2678.9774   -36764.927    296.78887    251.32589 
   94500    139.20915   -1348.7914    132242.97   -34064.347    2629.1615   -36693.509    296.75896    246.65246 
   94550    138.87312   -1230.7368    132156.83   -34074.156    2622.8149   -36696.971    296.83588    246.05706 
   94600    139.60896   -1257.1796    132051.35   -34061.041    2636.7124   -36697.753    296.40492    247.36084 
   94650    138.97866   -1371.0924    132092.53     -34067.6    2624.8083   -36692.408    296.30802    246.24407 
   94700    139.32486   -1332.8271    132110.27   -34051.048    2631.3468   -36682.395    296.40528    246.85747 
   94750     141.0251   -1156.2396    132091.89   -33982.356    2663.4582   -36645.814    296.37892    249.86998 
   94800    139.53538    -1225.021    132122.55   -34052.017    2635.3228    -36687.34    296.72667    247.23047 
   94850    137.74412   -1113.1267    132156.91   -34052.508    2601.4922       -36654    296.59313    244.05669 
   94900    140.35418   -1258.6804    132165.07   -34062.384    2650.7869   -36713.171    296.69763    248.68123 
   94950     140.4097   -1256.1633     132188.7    -34056.24    2651.8355   -36708.075    296.83197     248.7796 
   95000    140.97854   -1145.4148    132187.79   -34037.106    2662.5788   -36699.685     296.9922    249.78748 
   95050    137.11571   -1462.7277    132287.97   -34037.393    2589.6238   -36627.017    297.58037    242.94327 
   95100    139.31459   -1231.8471    132268.06   -34065.268    2631.1527   -36696.421    297.63441    246.83927 
   95150    139.47541   -1356.6314    132261.22   -34059.928      2634.19   -36694.118    298.30158    247.12421 
   95200    138.03458   -975.46211    132202.61   -34073.849     2606.978   -36680.827    298.41637    244.57134 
   95250    140.03406   -1367.0082     132324.5   -34054.915    2644.7411   -36699.657     298.5392    248.11404 
   95300    135.96283   -990.48973    132388.56   -34097.967    2567.8501   -36665.817    298.83322    240.90059 
   95350    135.91689   -1406.7859    132423.83   -34068.051    2566.9824   -36635.034    299.04825    240.81919 
   95400    137.32652   -1458.0524    132419.48   -34057.696    2593.6054   -36651.302    298.52792    243.31679 
   95450    139.17582   -1161.9869    132349.65   -34062.736     2628.532   -36691.268    298.27524     246.5934 
   95500    134.60712   -1099.4686    132329.53   -34050.488    2542.2455   -36592.733    298.15948    238.49851 
   95550     137.1543   -1023.4944    132277.05   -33983.886    2590.3526   -36574.238    298.32279    243.01164 
   95600    139.29878   -762.89838    132294.06   -34002.498    2630.8542   -36633.353    298.83823    246.81126 
   95650    139.57192   -1172.3401    132280.26   -33970.811    2636.0128   -36606.824    299.54969    247.29521 
   95700    139.22049   -1012.7144    132334.72   -33986.567    2629.3757   -36615.943    300.01638    246.67255 
   95750    139.40394   -922.99189    132544.43   -33971.882    2632.8402   -36604.723    300.73351    246.99758 
   95800    140.75522   -908.35212    132607.47   -33937.664    2658.3611   -36596.025    301.10234    249.39179 
   95850    141.01818   -1379.8729    132622.82   -33971.048    2663.3275   -36634.375    301.36026    249.85771 
   95900      140.319   -1271.0478    132601.96    -33984.13    2650.1224   -36634.253    301.52083    248.61889 
   95950    141.42552   -1160.5007    132680.92   -33967.489    2671.0208    -36638.51    301.92466    250.57945 
   96000     140.8742    -1184.633    132741.95    -33962.73    2660.6082   -36623.338    302.31309     249.6026 
   96050     138.8783   -1247.4732    132763.26   -33981.132    2622.9128   -36604.044    302.68757    246.06624 
   96100    138.29921   -1352.5163    132707.62   -34037.893    2611.9759   -36649.869    302.77362    245.04021 
   96150    138.82834   -1313.3482    132635.06   -34022.896    2621.9693   -36644.866    302.88782    245.97773 
   96200    138.99197   -1338.9104    132520.08   -34048.844    2625.0596   -36673.904    302.71317    246.26764 
   96250    138.16149   -1269.6178    132440.06   -34036.417    2609.3749   -36645.792    303.13682     244.7962 
   96300    138.84208   -1058.1516    132443.55   -34012.752    2622.2287    -36634.98    303.03179    246.00207 
   96350    139.96224   -1239.9917    132512.05   -33974.208    2643.3847   -36617.592    303.34004    247.98679 
   96400    140.21009   -1063.8193    132468.55    -33989.38    2648.0656   -36637.445    303.76611    248.42593 
   96450    140.04118   -1222.9872    132491.84   -34011.681    2644.8755   -36656.556    304.08218    248.12666 
   96500    143.06758   -1107.7035    132455.83   -33979.016    2702.0334    -36681.05    304.16315    253.48887 
   96550    143.01339   -1178.7245    132475.98   -33975.069      2701.01   -36676.078    304.10573    253.39286 
   96600    142.44546   -1216.0017    132535.95   -33951.856    2690.2838    -36642.14    303.79047     252.3866 
   96650    137.36915   -1002.3159    132514.88   -34016.613    2594.4104   -36611.023    304.05062    243.39231 
   96700    141.40778   -1284.5332    132412.29   -33968.533    2670.6857   -36639.219    303.92463    250.54801 
   96750    143.44912   -1052.4238    132376.24   -33998.844    2709.2392   -36708.083    303.80294    254.16488 
   96800     137.1916   -1248.8483    132362.26   -34008.208    2591.0572   -36599.265    303.99314    243.07774 
   96850    138.84052   -988.24421     132331.3    -33945.86    2622.1993    -36568.06    303.96387     245.9993 
   96900      139.651   -1274.2105    132334.27   -33956.295    2637.5063   -36593.801    304.33726    247.43532 
   96950    140.44062   -1309.6638    132198.11   -33999.535    2652.4195   -36651.954    304.22462    248.83439 
   97000    139.24494   -1267.1203    132091.72    -33998.44    2629.8373   -36628.277    304.68654    246.71586 
   97050    140.71385   -1396.4747    132015.09   -33977.138    2657.5798   -36634.718    305.06196     249.3185 
   97100    136.30211    -1131.533    131991.13   -34045.806    2574.2579   -36620.064    305.68728    241.50172 
   97150    135.68828   -1083.9965     131978.2   -34068.402    2562.6648   -36631.067    305.71724    240.41413 
   97200    137.69755   -1351.9879    131995.26   -34014.785    2600.6128   -36615.398    306.09634    243.97419 
   97250    140.62315   -1022.8123    132034.28   -34027.434    2655.8668   -36683.301    306.81672     249.1578 
   97300    140.22586   -1195.3434     132060.3   -34053.305    2648.3634   -36701.669    307.41191    248.45387 
   97350    137.69509   -1163.9704    132101.51   -34055.094    2600.5662    -36655.66     307.6643    243.96982 
   97400    138.29608    -980.8719    132170.99   -33995.362    2611.9168   -36607.279    308.13676    245.03467 
   97450    139.53697   -1092.9199    132240.29   -33962.822    2635.3528   -36598.175    308.68128     247.2333 
   97500    139.32516   -1085.3454    132334.39   -33923.377    2631.3525   -36554.729    308.82263    246.85801 
   97550     140.6771   -1109.1145    132478.34   -33875.136    2656.8857   -36532.022     309.2947    249.25338 
   97600    139.39606   -1137.3556    132537.38   -33850.166    2632.6916   -36482.858    309.58199    246.98363 
   97650    139.02845   -1054.6462    132572.79   -33900.452    2625.7487   -36526.201    309.30988    246.33229 
   97700    140.25794   -1143.9928    132536.18   -33930.705    2648.9693   -36579.674    308.70982    248.51071 
   97750    138.77822   -1387.3228    132449.04   -33886.369    2621.0228   -36507.392    308.51096    245.88893 
   97800    140.49016   -1378.7746    132404.99   -33907.606    2653.3552   -36560.962    308.65915    248.92217 
   97850    142.91767   -1268.7629    132448.95   -33852.374     2699.202   -36551.576    308.94427    253.22325 
   97900     141.2013   -1151.2009    132462.03   -33869.233     2666.786   -36536.019    309.24965    250.18217 
   97950    142.58488   -1236.8036    132394.09   -33870.133    2692.9169    -36563.05    309.46591    252.63361 
   98000    140.36807   -1190.3555    132388.01   -33903.686    2651.0493   -36554.736    309.56766    248.70584 
   98050    143.83824   -1138.5275    132489.67   -33891.926    2716.5883   -36608.514     309.5959    254.85433 
   98100    139.34016   -1176.4843    132529.92   -33904.055    2631.6357   -36535.691    309.50799    246.88458 
   98150    138.36662   -1280.9411    132581.78   -33974.984    2613.2491   -36588.233    309.55983    245.15965 
   98200    137.23785   -1337.3144    132561.84   -34027.295    2591.9306   -36619.226    309.65645    243.15967 
   98250    137.41486   -932.53742     132613.7   -33967.758    2595.2737   -36563.032    310.06722    243.47331 
   98300    139.26104   -1162.0995    132721.68    -33967.66    2630.1414   -36597.801    310.31533    246.74438 
   98350    140.53212   -1211.7141    132800.43   -33928.285    2654.1477   -36582.432    310.80894    248.99652 
   98400    142.57565   -1039.7021    132869.94   -33847.096    2692.7425   -36539.838    311.20448    252.61726 
   98450     141.6317   -1092.3631    132950.56    -33824.18    2674.9147   -36499.095    311.17947    250.94476 
   98500    139.71403    -1219.526     132968.1   -33832.817    2638.6968   -36471.514    311.57312    247.54701 
   98550    141.62969   -1125.5776    133026.88   -33834.267    2674.8768   -36509.143    312.09569     250.9412 
   98600    140.72772   -1383.3813    132994.81   -33817.835    2657.8417   -36475.677    312.24581    249.34307 
   98650    142.50418   -1225.5657    132901.35   -33808.191    2691.3927   -36499.584    311.95232    252.49062 
   98700    143.29696   -1185.8276    132841.97   -33791.236    2706.3654   -36497.601    311.80378    253.89528 
   98750    141.00766   -1151.1479    132890.52   -33851.679    2663.1288   -36514.808    312.11624    249.83907 
   98800    141.04913    -982.4333    132890.13   -33851.869     2663.912    -36515.78    312.29842    249.91254 
   98850    138.41026   -937.31293    132966.63   -33901.601    2614.0733   -36515.675    312.42892    245.23698 
   98900    139.91033   -1035.4793    133003.99   -33925.286    2642.4043   -36567.691    313.14389    247.89482 
   98950     137.1087   -1239.0822    133045.26   -33951.739    2589.4915   -36541.231    313.36107    242.93086 
   99000    141.55068   -843.75612    133005.07   -33956.028    2673.3844   -36629.412    313.01524     250.8012 
   99050    142.32833   -985.57009    133106.14     -33949.1    2688.0715   -36637.172    313.68019    252.17905 
   99100    141.73419   -1196.4482    133184.98   -33915.495    2676.8503   -36592.346    313.26602    251.12634 
   99150    140.47773   -1309.7259    133267.39   -33885.955    2653.1203   -36539.075     313.2642    248.90014 
   99200    145.42822    -1430.836    133125.79   -33937.097    2746.6174   -36683.715    312.76763    257.67148 
   99250     142.1602   -1396.1319    133080.88   -33971.613    2684.8962    -36656.51    312.63191    251.88116 
   99300    139.03385   -1218.6916    133056.77   -33967.329    2625.8506   -36593.179    312.52653    246.34185 
   99350    136.21721   -1297.1769    133083.55   -33945.235    2572.6545   -36517.889    312.46973     241.3513 
   99400    137.16889   -1455.6186    133007.58   -33973.136    2590.6283   -36563.764    312.70525     243.0375 
   99450    139.30195   -1209.7592    132955.65   -33994.514    2630.9142   -36625.428    313.02412    246.81689 
   99500    138.59082   -928.86104    133037.14   -33961.029    2617.4834   -36578.513    312.91741    245.55689 
   99550    140.35905   -1228.7204    133084.04   -33925.857    2650.8789   -36576.736    313.18072    248.68986 
   99600    135.75263   -1296.1219     133125.4   -34012.812    2563.8803   -36576.693    313.42312    240.52816 
   99650    138.51533   -1169.3863    133129.79   -34001.103    2616.0577   -36617.161    313.13944    245.42314 
   99700    139.45944   -1201.2904    133163.35   -34064.447    2633.8886   -36698.335    313.06965    247.09593 
   99750    138.37492   -1173.0234    133127.67   -34010.918    2613.4058   -36624.324    313.49085    245.17436 
   99800    138.22672   -1350.8043    133166.19   -33916.162    2610.6068   -36526.769    313.40577    244.91177 
   99850     139.3213   -1407.8332    133183.94   -33896.501    2631.2796    -36527.78    313.78387    246.85117 
   99900    141.54941    -1215.902    133145.82   -33870.676    2673.3605   -36544.037    314.30407    250.79895 
   99950    140.20935   -1398.3325    133129.61   -33902.006    2648.0516   -36550.058    313.98719    248.42462 
  100000    141.15983   -1318.9592    133097.95   -33924.428    2666.0028   -36590.431    314.26634    250.10869 
Loop time of 119.961 on 160 procs for 100000 steps with 6337 atoms

Performance: 360.118 ns/day, 0.067 hours/ns, 833.607 timesteps/s
98.0% CPU use with 160 MPI tasks x no OpenMP threads

MPI task timing breakdown:
Section |  min time  |  avg time  |  max time  |%varavg| %total
---------------------------------------------------------------
Pair    | 13.412     | 32.355     | 86.924     | 521.3 | 26.97
Neigh   | 0.36368    | 0.77708    | 2.6009     |  80.2 |  0.65
Comm    | 8.9033     | 33.339     | 91.667     | 557.7 | 27.79
Output  | 0.18946    | 0.19202    | 0.34018    |   2.7 |  0.16
Modify  | 8.0766     | 52.182     | 94.356     | 568.3 | 43.50
Other   |            | 1.114      |            |       |  0.93

Nlocal:    39.6063 ave 110 max 19 min
Histogram: 109 11 0 5 15 0 0 0 3 17
Nghost:    512.556 ave 874 max 339 min
Histogram: 80 0 2 38 0 0 0 0 14 26
Neighs:    0 ave 0 max 0 min
Histogram: 160 0 0 0 0 0 0 0 0 0
FullNghs:  3194.82 ave 13595 max 650 min
Histogram: 120 0 0 0 20 0 0 0 1 19

Total # of neighbors = 511172
Ave neighs/atom = 80.6647
Neighbor list builds = 6131
Dangerous builds = 0

write_data		${DIR}/data.eq-${NAME}-${TEMP}
write_data		run_23/data.eq-${NAME}-${TEMP}
write_data		run_23/data.eq-het_freeze_23-${TEMP}
write_data		run_23/data.eq-het_freeze_23-248
undump          1

reset_timestep  0

unfix           2
unfix           3
unfix           4


################################################
#######         Run Simulation         #########
################################################

log				${DIR}/log.run_${NAME}
log				run_23/log.run_${NAME}
log				run_23/log.run_het_freeze_23
