LAMMPS data file via write_data, version 29 Oct 2020, timestep = 6000000

6736 atoms
2 atom types

0.1882635586882806 49.0317364413023 xlo xhi
0.18749717809177113 48.83213875231337 ylo yhi
0.19017179900118464 59.87182820098755 zlo zhi

Masses

1 18.015
2 12.01

Atoms # atomic

1082 1 2.6844017204702153 3.761265161054145 1.5781151613711697 -1 6 0
2752 1 0.4468377780689337 2.6139745665201626 2.570314401392106 2 0 0
2821 1 4.91051125238059 2.737980756745139 2.6936895106660135 4 -2 0
3699 1 10.950171218709338 24.090900918018423 13.666134929640885 -2 3 0
2444 1 9.938756763030845 1.3549963836766497 1.6260462783595782 2 -1 1
5458 1 9.560988572734272 3.783889688516555 2.6035994477794837 -2 0 0
360 1 14.255515527782894 1.6602286253304677 1.5109905642560046 3 -4 0
51 1 22.13890960987197 24.455399036910077 2.805565286562516 -1 2 0
1814 1 16.379905805736307 0.8246779351827138 2.7255123221626256 0 0 1
2829 1 18.26471294804603 2.5210623577352993 1.608701914617756 1 -3 0
1951 1 20.344345013627954 1.6770598421386516 2.4019112924567323 -5 2 0
33 1 22.585992441023656 3.020243899533168 1.6771815732056667 -1 1 0
6270 1 2.222044152616291 6.4108835925820085 2.856159336174365 2 -1 0
31 1 6.992913074987154 4.549302189279206 1.8231533388721903 2 3 0
1863 1 4.427470157311626 7.669351972444649 1.6439615537430738 3 -1 0
2002 1 6.870321108102788 6.952627482352476 2.8581021024719893 -6 0 1
2767 1 11.620633219276291 5.14144672504739 1.7868236167709046 1 -3 1
849 1 11.031819245357843 7.920385501697843 2.2817412108603357 -1 -1 1
3398 1 14.120156829747827 3.990543108429021 2.93306943470187 0 -5 1
4273 1 15.637851315263832 5.991226534907196 2.2250004371359227 1 -3 1
4559 1 18.30369368359902 4.942812945500329 2.659548705415039 3 1 1
2839 1 20.40792824891062 6.40152334960025 2.0083202783324587 -1 3 1
3419 1 22.74157041340016 5.5563308679852526 2.5995422078568136 -1 -1 1
1247 1 24.3563326539839 23.456142673387536 9.407261125116404 -4 2 1
3810 1 1.4541329056624888 10.878702190827127 1.6298262718175023 -1 -1 0
4173 1 3.865331634976133 10.205757624810317 2.3575960597013847 4 -4 0
6122 1 6.097599599086914 11.808644569973357 1.6927230203284322 9 2 0
4266 1 8.41159473887019 10.901725498155551 2.67393639387781 2 -2 1
2003 1 8.799160055480026 8.569750168353924 1.6327585986100273 4 5 0
4480 1 15.435766856482118 8.315191407546065 3.1705833501416625 -1 2 1
1017 1 12.689743536616092 11.73207866151622 2.8062361518169645 -2 -2 1
3592 1 13.217470626739138 9.13918133211561 1.6997494140559095 -2 -2 0
6031 1 19.935113105242323 8.933845055042044 2.6678656512875545 1 1 1
5118 1 17.53217127713836 9.51325145674655 1.8461054979589115 4 1 1
3630 1 16.62610683256344 11.843700542172616 2.815259505913716 -1 3 0
2601 1 21.88272144583375 10.4994404592853 1.6532192550339193 -2 -1 1
1033 1 24.179438572307195 9.326303570254398 2.780353001436322 1 -3 1
2922 1 1.2922048910727322 13.568108657659302 2.519880255029461 3 -1 1
258 1 3.685637778753993 15.102986434394243 2.2161240282973687 5 0 0
5941 1 6.086121327174666 14.2481666016402 2.6037100293454682 -1 7 1
5325 1 7.8882493441637 16.082057083804674 1.431396818027021 -1 5 0
5367 1 10.417185714436359 12.379420064083869 1.7494218160679225 4 4 0
222 1 10.060908424529696 15.13647345807458 2.731120615262708 0 -4 0
2046 1 14.749093765346762 13.241534826424843 1.9243155343835667 -1 1 0
2020 1 14.2562693936666 15.577323223713066 2.8334779708972113 2 1 0
5402 1 18.701443564980035 13.23238811217834 1.7809073605620651 2 3 0
3844 1 18.49596245346453 15.860160762312304 2.675514794537427 -5 3 0
3861 1 21.17817260082205 12.704523929565633 2.358360141403313 2 0 0
3584 1 23.30486695608221 14.412058013203891 1.8802269974579326 0 1 0
1198 1 3.1689525475253935 17.730809425804587 2.7678016487047605 -2 2 1
5222 1 6.288642751337766 8.8059425089967 19.976006870356088 3 -1 0
1113 1 5.154537937491515 19.185275596770683 1.5613938946879786 -1 0 1
3548 1 7.7316505426108 18.515016596268207 2.5833629181177726 1 2 1
5514 1 12.101617266212296 16.684437195092617 1.6434099288935302 3 0 0
961 1 9.480868810105356 20.15887709226412 1.6195312607993857 5 0 1
1710 1 11.634558056147952 19.126318399247822 2.8285496469919553 2 5 0
3704 1 16.119745077562634 19.56808762225838 3.216579463538962 -3 -2 0
5571 1 16.4635740748858 17.26675244350404 2.1001280020766946 0 2 0
2175 1 13.951386245790074 20.546832582247003 1.827050119500643 -1 -4 0
5542 1 20.33454912914685 20.096131850166408 3.21002861295566 -2 0 0
4291 1 20.328608582606787 17.73027445931494 2.0382584127594896 -2 1 1
347 1 22.88484443623523 17.094497059559682 2.904475542458274 -2 1 0
1021 1 2.316731406965256 22.419953804727818 1.52448392358235 -2 0 1
6056 1 3.876031870558 24.199178285107497 8.86928033054674 0 1 1
2659 1 4.711994297520813 21.735625401220485 2.546166451170652 3 0 1
2153 1 6.93437589904354 23.11778825499045 1.6382274279236508 -2 -1 0
4419 1 9.442816398528104 22.533187782331282 2.680753611654796 -2 4 1
50 1 11.168095216360596 23.799101846185046 1.6893177176216925 4 -2 0
1073 1 13.742885837752517 23.10818237733626 2.8018868680056994 0 3 1
2761 1 3.8236445955217024 24.34746623421414 17.1720162005207 -4 0 1
1712 1 17.899095169012554 21.304968959277048 2.006990257995821 -2 -2 1
5143 1 17.829589498240978 23.92002680691866 2.8044557093286375 4 3 0
5849 1 22.01689816321049 21.759288683970418 1.800745476712514 -2 -1 1
5428 1 16.426438411589974 0.7386153781117856 5.4099146911084475 0 3 0
3466 1 13.919683260864415 5.607390467666632 19.77078934926571 5 0 1
4306 1 2.9749063042444925 1.3982522705412403 6.202929783272134 -3 -3 1
6096 1 0.8472263163490259 2.317291221769146 5.22084569699632 -3 1 1
4461 1 4.947484515455032 2.9071393668979084 5.281379204919194 0 0 1
3493 1 7.326593004350363 2.0904433163590594 6.416319942233769 2 1 0
5198 1 9.480755751918243 3.5344644315711515 5.299555374166446 -2 -3 1
4134 1 11.794263900857501 2.5950246118590434 6.332663062993574 2 1 1
2885 1 16.103604142573623 3.142790304199763 6.375672241469363 -1 0 1
2667 1 21.904489536365322 24.31359823864641 13.00093817110731 -4 1 1
4102 1 20.358383017304277 3.8376690553996435 6.152306634140645 -2 1 0
96 1 20.791646902271932 1.5387148841463572 5.170380050531163 -1 -2 1
1019 1 8.614243626977165 13.014121320549894 19.850097408812534 2 3 1
2036 1 2.4432031943956813 6.2085254998976005 5.562197936383199 0 -3 1
1758 1 9.59305308260193 0.30840156000222674 13.363549879127268 -1 0 1
812 1 4.712094694694812 5.350780990316156 6.285072441945258 6 -2 1
2000 1 6.698811366158501 6.895809249953359 5.514301399943223 -3 1 1
5463 1 11.231290842737156 7.407173207528116 5.21457258493991 -2 2 0
2439 1 9.316134327440636 6.061495938184384 6.08323972585199 -4 1 1
2556 1 13.675073800045526 4.100035297071325 5.39527842865108 3 -1 1
2759 1 13.178840118992591 6.596013859800497 6.550744413916723 2 -1 1
2877 1 15.28369681972147 7.971779347693856 5.871365561867168 -1 0 1
2455 1 17.977341903271853 4.661937313432638 5.351871129644877 1 -1 0
2817 1 17.816640569403884 7.084970830612892 6.6987239723772545 5 2 1
2073 1 22.682725840838962 5.193467783612817 5.600931335399095 3 0 0
114 1 22.219269979029875 7.9215021350320765 6.465182179673928 3 -3 0
3688 1 2.0766978763513873 8.779879129478426 6.087044942158959 0 -1 1
806 1 4.125523132461858 10.204079617978772 4.853480784247063 1 -1 0
928 1 6.215603990927537 9.376247544428857 6.243802008897648 3 3 1
2718 1 8.174986559747985 10.772711503582387 5.522686607086057 -3 2 1
6106 1 10.601538715605596 9.684400242572647 6.450436476798903 4 5 1
2859 1 12.428897023208151 11.470185027656756 5.507857207664374 -2 1 1
4342 1 14.57819511364931 10.43345522461515 6.636792372483854 2 0 1
2529 1 19.76609014138101 8.641198089757614 5.2318364010440845 -3 -2 1
5179 1 19.14011367932149 11.082752969772272 6.5088787323243 5 -2 0
414 1 16.619583168480133 11.950332929930804 5.502748207114675 3 -5 0
962 1 0.8746683985899919 15.870303850497887 19.56567557003589 0 1 0
4587 1 23.616999579995802 11.8665755891404 6.024563221620003 -2 2 1
485 1 3.3963732511514166 12.660989145114499 6.2658831200302325 4 -2 0
6127 1 0.8092313198749089 16.038927935195293 6.27133666805625 -2 -4 1
1125 1 0.9650723292980765 13.446931350063233 5.127358352460505 -2 0 0
5899 1 5.809084785831352 14.455772071061576 5.609471503781365 1 2 1
971 1 7.9412965017361 13.356925056231189 6.731269646119584 1 1 1
366 1 9.881888185484263 14.897709873736575 5.434690334378712 1 -4 0
1140 1 12.010406783839615 13.875544007884415 6.7754922376995514 4 -1 0
4490 1 13.828923113312499 15.122782858376643 5.615396115332694 -1 5 1
165 1 16.39106737701742 14.461109637787366 6.7877339763648745 -2 0 0
2847 1 18.312947148974636 15.987554339322942 5.544993059928163 -2 3 1
1838 1 20.99984565376236 14.995645942844478 6.227199090693766 -1 2 1
4106 1 21.23324470657958 12.36619485259541 5.268425993535367 2 1 1
1989 1 2.904407739870307 17.471275454030597 5.291613379899616 -1 2 1
1801 1 2.6395636893294845 20.122445443531536 6.127817235236048 -2 2 0
3522 1 5.312583489584158 16.931078300533436 6.277428550245942 2 5 0
4598 1 7.645529553550884 18.346093045271136 5.382940130796851 0 0 1
5902 1 11.922178002639875 18.927031764786193 5.628932105489554 0 5 1
2668 1 9.824135834929848 17.332908160263898 6.8958895966826725 3 0 0
3371 1 13.979354118941512 17.88723522436479 6.670544044577063 3 0 0
5468 1 16.09304218985571 19.50502038397831 5.917108904491235 0 -4 0
4395 1 18.41574163272631 18.567887338930575 6.740351014304466 1 3 0
5496 1 23.044874358013935 16.472411953504224 5.339798321476711 0 0 0
5907 1 22.848255741201335 18.932826051167833 6.7571339912599795 3 0 1
5411 1 24.42322986873025 20.929016530597465 5.6925548710445755 -3 4 0
2211 1 18.079306657206033 6.735733652724688 19.886976402360133 -2 -4 0
41 1 7.031401715617538 20.654662907584346 6.52912317010826 -1 2 0
202 1 4.825833320852975 21.637488172689803 5.167527159502939 3 4 0
226 1 9.324097506160031 22.16798692288415 5.614426318577041 -4 -2 1
2677 1 11.454821640274703 21.304479299866014 6.785442649134924 -1 3 1
1999 1 13.192172887116312 22.858674916760396 5.474889477617085 0 2 0
1713 1 15.538462946335121 21.96572615364181 6.443455120992557 1 -1 0
4454 1 20.58051822692635 20.22908979998255 5.908685011984617 3 4 1
5318 1 17.415015898054385 23.862986261876436 5.530361998392719 0 -3 0
2810 1 19.569774191424877 23.078089765959163 6.826732568842549 4 -2 1
3777 1 0.531459429078109 4.581530240796983 6.096809238492452 2 2 0
5839 1 23.847995538634155 23.53851644953652 17.110228845162897 -1 2 0
5170 1 20.924711800416922 3.0199446221722677 20.077559671844156 1 2 0
1734 1 0.895910005092666 2.071179370130788 9.60671854323301 2 -1 0
1086 1 0.7757823013565875 18.55727784449511 13.618205743804172 -1 5 1
6242 1 5.44846255529202 2.7878077045198686 9.89529980945736 -1 -2 0
3447 1 7.729276049052673 1.58691718657893 8.831933464908888 4 2 1
1025 1 9.645598317579896 3.034024917310299 10.073254546993386 1 1 1
6197 1 12.186386345303774 2.3077359207402957 8.893801367104071 -5 0 1
432 1 24.450220803869936 6.404239548860563 16.33835430056105 -1 -1 0
879 1 13.981478236681992 3.8628175827981948 9.875949182130114 1 -5 1
409 1 16.41332978943802 2.905308179585016 9.127811923075898 1 -4 1
2803 1 20.591395072413754 3.600759471650534 9.105679013806835 3 1 1
6164 1 21.286170700138083 1.3221621558767216 10.11797966561508 -3 0 1
5488 1 24.302914746885865 9.246406288627254 10.044818551380546 -1 4 0
2483 1 2.158419864530624 6.167053429512412 9.82116886555309 4 1 1
1244 1 1.941597199492258 8.244790329580669 19.45173221639372 -5 1 1
3433 1 4.519594169109752 5.169100085878186 8.818723475416274 -2 3 0
194 1 6.581903643896165 6.777838280801501 9.718914580691077 2 1 1
974 1 9.08262472024161 5.382723994710064 9.07881817114607 -1 2 1
1760 1 10.919455415500197 6.916276951457752 10.312625217842147 0 0 0
289 1 13.196571498638036 6.225290254948406 9.245847203020256 0 -2 0
4250 1 15.140237664399864 7.977319333437631 10.182356486960451 2 -1 1
2600 1 18.244907624791363 4.223767554130373 10.099548132515329 5 1 1
1028 1 17.89923543978514 6.9389290911723105 9.607869873285823 3 2 1
870 1 22.22994178295756 5.384766183668787 10.237657723247501 -1 0 1
2026 1 22.151649883707098 7.75533202501694 9.11343294033605 2 0 0
6195 1 1.971574180464565 8.635139703827232 9.009419389744739 1 5 1
1771 1 3.967360896404793 10.1848241829369 10.079033012389083 -2 -1 0
2655 1 6.095424789197928 9.29274249561581 8.863903255956725 -3 -3 1
5350 1 8.110010070481799 10.732236370364799 9.997926616411949 0 2 0
190 1 10.419018656655227 9.444296005572694 9.186876334976985 -1 -1 1
5515 1 12.300591667076123 11.084563618416265 10.362843831241662 0 -5 0
4591 1 14.778119588812501 10.340940217034941 9.17937309772997 2 0 1
2640 1 19.962352154528585 8.787494304555112 10.146934055814405 1 2 1
86 1 19.367645343017564 11.165596673665465 9.185762742549032 0 3 0
3534 1 16.953045243909976 12.079862397602447 10.008190719143235 1 4 1
169 1 23.73151187675244 11.729921611690479 9.249455328591608 0 3 1
5137 1 24.598523099631706 20.85735297898515 10.160629930430867 -7 0 1
5476 1 3.650603419252992 12.634094156065487 8.907480999359318 1 1 0
2064 1 1.3797339231658743 13.597257756120472 9.899718427024775 -2 0 0
4146 1 0.9043189917223412 16.240723779948407 9.101999850900505 -3 -2 1
1099 1 5.627497830763097 14.402369689259189 9.974832768667543 2 2 1
277 1 8.046567197988107 13.424510825215526 9.320111869555278 -1 -2 0
897 1 10.051387733547848 14.708873995315576 10.277358280397149 -2 0 1
2764 1 12.372711376139863 13.756809834220434 9.421115697062344 -1 2 1
2650 1 14.179966466930438 15.457296994582464 10.292202707234352 0 0 1
467 1 16.44707923098416 14.670660660661827 9.378324903713526 0 0 0
4364 1 18.551092673105902 16.03890277822544 10.281111849524935 1 -3 1
2653 1 20.86364253082627 15.082296464860335 9.080589683312375 -2 2 1
6041 1 21.43808494140182 12.670753902374994 10.026276592838567 -1 3 1
1770 1 2.850180052276691 17.982533373847065 9.708750554513921 0 1 0
5180 1 2.5138186038457424 20.39399960618629 8.848643821341275 5 4 0
6281 1 5.400911955168031 17.057984186256387 8.967307305822102 1 1 1
426 1 7.363200944401608 18.093694554969403 10.158598346227992 0 -2 0
470 1 9.586387915934296 17.302496491506815 9.650260079530108 5 1 0
2690 1 11.565438291816553 18.908417103045647 10.555371768890843 4 2 1
2205 1 13.772443480373672 17.98037052380761 9.4011536139336 4 -2 0
268 1 15.808294142524671 19.489930578324905 10.031302401346474 -1 5 0
1915 1 18.132550497166402 18.8562713218511 9.378088172263745 0 2 0
106 1 22.95316864266691 16.71675357468815 10.152880109525146 -1 -4 0
4403 1 22.751052670020545 19.26567295034314 9.506030965876302 1 -3 1
407 1 23.42812096820804 0.46139822495490795 8.707445769394724 4 5 0
1885 1 6.674287102726893 20.72492824724837 9.338368606952546 5 4 0
2445 1 4.299225901202007 21.757974142874538 10.2101403896373 -2 -1 0
4200 1 8.779628250601133 22.15098517736823 10.039004878728495 -3 -2 1
3473 1 11.187429492212297 21.244838184550254 9.76133831894065 0 2 1
6052 1 15.717967258362648 22.3261035531403 9.182960790854692 -5 0 1
4382 1 13.377568020585006 22.99767020833038 10.277028510948359 4 3 1
1229 1 20.23114674656865 20.264821383321156 10.385625633298886 -3 -2 0
3451 1 17.78030634448697 23.863848428243102 10.379765009395696 -2 6 0
6001 1 19.885571246069333 22.657261047244052 9.69270547789358 2 6 1
2754 1 0.7161631547317829 3.466114289418476 19.82381276389885 6 0 1
4114 1 12.263819408148738 0.29838882730906185 2.717963672142218 -2 -2 1
6086 1 1.1427376532297597 1.4310350589433536 12.300766939765444 -3 1 1
5106 1 2.9013671866243924 3.05277094581362 13.543037729137703 2 2 0
3412 1 5.529943949889004 2.5496486396151568 12.470582922827692 -1 -1 0
2452 1 7.188051684349751 4.176512742355876 13.727620795497808 5 0 0
2541 1 9.48781787466788 3.0713352255641317 12.859676294069189 1 0 1
1242 1 1.9935839392003154 22.798254495654948 16.292173467152274 1 3 1
1967 1 5.278919872435966 16.667709318655323 20.03385526936731 3 -3 0
3413 1 13.714226785016471 3.6712732976165685 12.800347713531584 -1 -1 0
5886 1 14.106038099670116 1.149071283793421 13.54718096389612 0 2 1
4415 1 19.113992435434703 1.8919063347767124 13.902819812893878 0 -2 1
229 1 21.325671574052937 1.1268900243858255 12.774730652979125 0 -2 0
3421 1 23.342455980042537 2.738669488606168 13.962550009011112 -2 6 0
4348 1 2.5055209882528624 5.677742658605539 12.38664071932658 -3 -3 1
1837 1 4.402610248482885 7.3769392851234175 13.175168783062011 0 -2 0
1227 1 6.744154856220074 6.610016174759165 12.536313791992093 0 0 0
24 1 11.367879001551564 4.581077732027179 14.106029868991406 2 -2 0
5151 1 11.006769007892737 7.130568107434655 13.160954406735197 2 -3 0
71 1 8.576945389356423 7.922060109177348 13.651901313384315 5 2 0
5530 1 15.793104315832732 5.054356780306076 13.784303504760748 1 2 0
1891 1 15.23764050195472 7.494416753365931 12.905405962414415 5 0 1
1715 1 18.306648469801715 4.154157097609259 12.934000248545594 -4 -5 1
1716 1 20.140042231835587 5.961222371984061 13.974760486941705 1 -1 1
4574 1 22.277765830703974 5.1149184196312625 13.051165548485288 -5 -2 0
2890 1 21.98213095069165 21.854094835198314 16.838742936568124 5 -5 1
6089 1 1.2719226838107562 11.050363740542252 13.73365014743653 2 -3 1
2618 1 3.648538762191662 9.873864898434642 12.6138743182933 -2 2 1
2023 1 1.5468030728697415 10.924661493063581 16.369031767683904 0 0 0
992 1 5.7435287295487605 11.328329394465502 13.674275941852642 -1 0 1
454 1 8.283337272229438 10.500826144920566 12.646454313288713 3 7 0
2472 1 10.277949479595343 12.29746302721923 13.851469494149613 -3 1 0
4294 1 12.394224075233781 11.014794529612589 12.980793946053135 -2 1 1
1914 1 12.914168513508281 8.520471955052633 13.665568453235148 5 -6 0
2058 1 19.995389297592798 8.515732439213368 12.922064480295575 -3 -1 0
1161 1 17.56584781345838 9.437737487096593 13.389894484319285 2 1 0
5160 1 17.044561041486304 12.364884313516498 12.829527296386779 0 -2 1
5282 1 11.166764431132858 21.87346745806826 17.091847513039323 -2 1 0
5240 1 21.89804153996569 10.29124012476724 13.505249219339099 -1 1 1
5953 1 21.991175637197895 9.89077922702225 16.121387654441804 2 2 1
5087 1 1.1867508567545588 13.591408068648938 12.630551364058778 4 -3 1
6150 1 3.0272843439427692 15.176828378315623 13.615905508068183 4 4 1
412 1 3.2825773644610194 14.997294001814053 16.31610239195303 0 2 0
2489 1 5.162098843003087 14.013826578233237 12.87728318029496 -2 0 0
2699 1 7.424113796796483 15.766681827895665 13.404933614837017 1 1 1
1076 1 9.764201772275841 14.81037573628679 13.120695206785046 -1 -2 1
158 1 14.608411477496036 12.997867232355121 13.80654774169109 -1 0 0
1835 1 14.17120759796211 15.561902300051953 12.893717768564947 3 1 0
5570 1 19.23524348098863 13.574576441698506 13.38278121975159 3 -2 0
5965 1 18.75171879977379 16.161029517784804 12.901699973532057 1 3 1
5238 1 21.644731174131515 12.85769975830645 12.598423403358858 4 5 0
2701 1 23.44847956414119 14.33835500231279 13.731170835624736 1 -5 1
3795 1 3.012009528817966 17.87722267769579 12.426048744040918 1 0 0
62 1 4.922562377308093 19.24317699449819 13.514835880431392 3 2 0
2827 1 7.132782869331067 18.12350216116965 12.773122877065688 0 5 1
4197 1 11.957734729173582 16.135900386756347 13.795467606684708 0 -4 1
1180 1 11.663432592976216 18.811479502126105 13.21250805139658 2 4 1
830 1 9.141848505432966 19.778830892210536 13.597584865446219 5 2 1
4308 1 15.902778551492514 19.59454657674832 12.799734919279626 0 -1 0
2189 1 16.389005615984907 17.188524525056938 13.82626993077947 1 4 0
3769 1 20.211033812895906 20.39861193531296 13.114460252784303 2 0 0
449 1 20.51651167936989 17.76631338502742 13.874955289059187 5 1 0
2837 1 23.087324719382416 16.845172684110064 12.923511734940536 -2 5 0
5798 1 1.805127967522775 23.17624848065969 13.723547953604932 1 3 1
4527 1 4.124019983470579 21.909936921470184 12.685809734292016 -2 -1 1
2665 1 6.417909873236747 23.520112604510793 13.49011632449706 2 1 1
3682 1 22.724565488091386 19.10034335726832 17.7224840596193 -2 -1 0
816 1 8.89145634737059 22.387064838822837 12.778630697972732 3 0 0
2562 1 13.696385419293698 20.635254495927526 13.863599286170302 -2 5 1
4293 1 13.352621891117817 23.304784506944436 12.98969369306295 3 -2 1
1823 1 17.41711850708337 24.014443266556007 13.202323254209212 3 -1 0
1039 1 17.902081795966662 21.332622580196627 13.852867975322985 4 -4 1
1037 1 3.5991166358493922 24.374098267969824 19.854451685382468 0 3 1
6202 1 22.330996554114122 21.68382330814251 13.990682773415243 1 2 1
768 1 22.363554002625932 7.500075807546444 19.856120338690488 1 -3 1
6111 1 2.8103996352761187 2.6833759211928023 16.245460723209487 -1 1 1
5898 1 24.412697517430438 6.543097082695942 13.699856752011634 -3 1 0
5995 1 19.816583856397394 22.881757134600356 17.506458292323263 0 1 1
422 1 23.88307525116842 23.5846050660749 6.649564416776124 -4 1 0
4265 1 6.926463120556436 3.59849618520265 16.605533293187634 -1 4 1
2491 1 7.3049180918206496 0.8047487293063172 17.2941886064645 1 -1 1
4300 1 24.171414450382702 9.566575324590762 5.3309332364167785 4 -1 1
6243 1 11.773931123193199 1.4278179250883136 17.232591883942263 0 2 1
2015 1 0.4083056155981163 4.636073889128809 8.777497537780576 3 2 0
3468 1 24.551068735866377 20.756215618575883 12.669416026008403 1 -5 0
2494 1 14.357318936489884 0.7692848217574862 16.229244469205597 3 2 1
3550 1 18.854098673028226 1.7339237228058197 16.549676934148586 2 2 0
2082 1 16.382506968353383 2.3331347852967506 17.57613601710028 0 5 0
2203 1 0.2375490447839752 7.307644137695902 1.7889860603143226 2 -4 0
1108 1 20.89133653284383 3.137404140467114 17.33393946065879 4 0 1
803 1 23.08373579319669 2.1579373895141143 16.482481839776316 5 1 1
3741 1 17.035407590857634 0.5116037963834713 10.013361509456585 -2 5 0
6289 1 4.217966885414591 7.119243929218484 16.075727251027352 7 4 1
507 1 4.541182119047926 4.541891643938422 17.387945345498455 1 1 0
5302 1 0.5283265595322273 3.8422876203673644 17.04690905870165 5 1 1
192 1 8.648690610132656 7.401301414810634 16.411949490402602 2 1 0
791 1 11.616266162459269 4.009317545527342 16.641462462309224 1 1 1
2804 1 9.239914699242888 4.896409404920462 17.78382136168092 2 1 1
4224 1 3.955639734598135 12.504141523613047 19.713689443247386 -1 -4 1
3744 1 15.731805498062403 4.749863845706183 16.245369069768312 2 -4 0
3519 1 13.613245636972962 5.695119394681556 17.37689549686831 -4 1 0
1775 1 3.2912454187878892 0.9378958617720833 8.856615539370946 -1 2 0
2551 1 17.742455571854727 6.5643351790366395 17.21786912730804 4 0 0
1874 1 20.34433797417561 5.815296437871504 16.434602073502226 2 1 0
4459 1 24.29445996467309 21.082740405166902 2.92813770120243 0 2 1
4181 1 23.34627876282441 0.8977452211200939 6.051993443435258 3 4 1
2499 1 22.32987431462165 7.533660074581275 17.15592854311361 4 -1 1
2179 1 1.8846474897998344 8.298003389468327 16.64473053773033 1 4 0
5888 1 6.004645401219749 11.183465043837542 16.07835560191289 -3 1 1
5409 1 6.513328487869308 8.537520405577997 17.10698456130927 2 6 0
4157 1 0.2222365085451088 21.203606609869233 2.6651500762629166 -1 -1 1
5147 1 10.733630325734556 9.036951985508539 17.33766849246067 0 0 0
1988 1 10.33668470023787 11.713283836413177 16.390150599809154 5 0 1
777 1 7.719742563456201 0.9424695172920186 19.938665020538316 4 0 1
6016 1 13.125710708753322 8.436894169812195 16.701470961598407 -1 0 1
264 1 15.293222957141822 9.961497510972983 17.366228057513414 -3 3 0
5343 1 17.603856911115187 9.147909643696629 15.946509864754558 -3 -4 0
6250 1 19.337093669965814 11.041681355402895 16.857670176493908 -1 0 1
1168 1 9.472113748009122 17.856982012593246 19.62492143025847 1 0 1
1751 1 13.797902648270458 20.966637625306387 16.431157580847437 -2 2 0
1955 1 23.964740803056724 11.771514237397849 17.587797968117055 1 1 0
4533 1 0.44131110499889825 18.536493736668664 1.986665736004453 1 3 1
420 1 3.621386241562918 12.390936400159584 16.995511711528206 0 1 0
5177 1 0.9071062768962692 16.09443609878133 16.786992302400723 4 4 0
6042 1 20.94778588205777 14.945158188411257 19.708751662444865 0 4 1
399 1 7.653421032331951 15.590372426325523 16.211780181812486 -3 -2 0
2164 1 8.169560466008452 12.957948220002821 17.258043576595238 -2 2 1
2889 1 12.345104337543168 13.539708390839897 17.379767988154285 3 -1 1
5380 1 12.251125030840909 16.422604515495443 16.690904278772503 -3 4 1
1995 1 14.845065060981913 12.777347695824268 16.57820698493836 -1 2 0
5896 1 6.302537052837068 23.46157701250031 16.054729594121476 -1 0 1
2657 1 16.62579848604214 14.69866137611306 17.440466321915586 0 2 1
3761 1 19.073336204285074 13.829286828185607 16.21288662849468 -2 0 0
2427 1 23.57807824491282 14.12638722631463 16.445197094441898 2 2 1
5430 1 21.18743464073676 14.838994586123063 17.100680868942817 2 3 0
228 1 15.618609219913573 22.487455070257454 17.47475666179906 1 -2 0
2213 1 5.2924686694149905 0.5272143603646311 1.4989611209265403 -2 -8 0
2881 1 2.4635670557990514 20.257272435053203 17.28115291106701 3 2 1
328 1 4.859993104614599 19.04753347721674 16.194227481275885 3 0 0
473 1 5.472918539828069 16.33164103617967 17.48577073882691 -1 1 0
750 1 6.779595192651587 20.852938823989174 16.927047870508055 2 1 0
4151 1 9.43357320638045 19.903766103756492 16.258753105812893 3 3 1
1882 1 9.630698181273356 17.473737753083267 17.231904223948316 4 4 0
5093 1 14.09401980936303 18.394415925276494 17.497706161703995 -2 -4 0
5545 1 16.36652230969862 17.371291587545887 16.443618359054778 1 2 0
2750 1 17.73775244001258 21.147711577380072 16.581634701675675 0 3 1
2629 1 20.820921080461623 17.382241409938437 16.548301914509334 0 -2 1
4125 1 18.33475706679294 18.456492174884524 17.173805611191778 -3 1 1
2649 1 21.95209462664028 24.221371806498723 10.375437726116502 3 -1 0
1 1 24.280935821698336 9.36253015000351 13.020989647776673 -2 -2 0
6267 1 16.69331771331606 0.7849514246595268 12.90080865519994 0 0 1
5200 1 4.293055881232161 24.15369700534759 6.27641037131991 0 1 0
482 1 12.018495654948456 1.6036776417197074 19.712206722923167 1 2 0
5277 1 0.5853046188866642 18.73840780932901 16.399739495390836 -1 -3 1
406 1 19.247457423621253 11.03864038257045 19.655785287833766 -5 2 0
4115 1 12.668352067792409 13.778406669334178 19.930779143303013 3 -2 1
3637 1 24.043019358457364 23.602291202413376 20.043944141205458 -3 -1 0
799 1 10.892685048387316 21.902616852641067 19.863448787913015 -1 5 0
5420 1 3.2617680288934174 0.19663938306437653 17.04978401237483 -1 1 0
2738 1 10.889166167692409 9.381453219105552 19.904813119344485 -2 6 0
3703 1 6.583056072964834 21.04510365437503 19.839511432762485 -5 0 0
2692 1 0.29910552834996906 21.308148635063397 10.109086099119091 5 1 1
1929 1 18.45299555438062 18.573352681585703 19.927605930881423 1 4 0
373 1 16.72891236441467 14.552180259570775 20.03952127526821 1 6 0
2793 1 4.811765358632702 4.54138101282809 19.84308653358674 5 -1 1
1060 1 15.11416002487095 10.16451001103109 20.054668858863746 -2 2 1
2861 1 1.3586981797450863 0.8321099205679594 23.583835194376373 -5 0 1
5333 1 1.3713713408199342 0.9510351306176634 20.816034263745156 2 2 0
460 1 15.305281697337898 23.949014567898917 36.219801853632596 -5 4 -1
3679 1 5.568480320318203 1.673444951023233 23.19720532322921 3 3 0
5831 1 15.688802251898224 22.324788247639578 20.150388486593073 0 1 1
3406 1 9.473457647854888 2.8001199095543896 23.317746172733482 -1 3 0
871 1 9.757599172271933 2.4069560633900644 20.577780982031637 1 2 1
2912 1 12.067088184164268 1.6093237359770212 24.287496110213063 -2 0 1
434 1 14.08643847133213 3.5431375434477412 23.58732891169977 -5 0 0
385 1 16.748385959388784 2.356587156143507 24.14893691753527 -2 1 0
4444 1 4.11908968551194 24.48104394118915 24.127079694655347 3 -4 1
57 1 18.68177219893516 3.7317335270536094 23.312656374957506 -2 1 1
2778 1 12.767876625110084 9.447377801143178 39.06692352182841 0 3 -1
2926 1 21.554573380476345 12.328850652413854 20.52776592359725 -4 2 1
4183 1 22.160298842623114 23.78118916027077 35.63444570794436 3 2 0
2772 1 2.7923789545293296 5.490715915305316 23.301097932762527 0 0 1
6182 1 2.4847946889611894 5.491310216967919 20.577787567973534 -2 0 1
2513 1 6.587962864147349 6.046423753173693 23.461587819980483 0 0 1
3521 1 19.548519633961327 22.71718963755077 20.202555913106707 5 0 0
2598 1 4.908208719531115 4.1145438607237335 24.101443178650136 0 -2 1
177 1 11.209821564895378 7.136843606482969 23.364962343245992 2 3 0
4246 1 24.37201051502636 9.444361658021194 23.639037110667054 3 2 1
1032 1 9.017592157614574 5.469872286962294 23.951394040086647 -3 2 1
5272 1 15.870470115206842 7.483782915290302 23.731652027264786 2 1 0
4501 1 17.133900814534446 10.109865817646783 39.28463564300032 -3 3 -1
5246 1 20.007445116099188 8.431242648703776 20.461970607607263 1 0 0
767 1 18.378485381239393 6.369945092121538 23.797451978343993 2 -2 0
3726 1 22.97168038454333 5.129247440742606 23.472517307089973 1 0 0
2900 1 22.74960368905755 5.016615998400044 20.62850036157796 -2 2 1
3865 1 22.44798928773961 7.552522050450832 24.438222171409286 3 8 1
312 1 4.0222762881712075 10.022319403353924 20.590276008001553 4 2 0
3793 1 3.8757671898899537 9.978837441833685 23.249489337543235 1 0 0
5243 1 3.5437336070603944 12.450142481360118 23.547470299226486 3 1 1
5493 1 8.282707905004804 10.664156588969297 23.665090265375323 -2 3 0
854 1 8.449031460563836 10.348197396519073 20.80828274184444 -1 2 0
3856 1 10.986733741100906 9.934953604226587 24.282369887592733 3 -2 0
2095 1 12.450113333811718 11.3186259326724 20.88493815685361 -3 0 0
1756 1 13.005692807466641 11.323591359330758 23.418051583015544 0 5 0
318 1 24.379650618522046 20.937140329190903 20.641272467625257 -1 -2 0
2770 1 20.480963262719346 8.183959910176185 23.222527539954015 2 1 1
5485 1 16.855268412184483 11.875509063342504 21.077376232535197 -2 2 0
5590 1 17.375603048907337 11.685503194964408 23.48623280496229 -1 -3 0
2795 1 24.37311605808118 7.854448270292438 36.69244369806132 2 6 0
3385 1 5.268938823885901 1.5628359295696417 20.66736659929747 5 -3 1
5507 1 23.56171186315789 11.73899059047298 24.503406618495283 1 1 0
1105 1 5.435822881395367 0.7013591186424181 39.25758397070601 7 0 -1
4508 1 1.2582118778489515 13.296879820646078 20.333807060472637 -2 1 1