LAMMPS data file via write_data, version 16 Mar 2018, timestep = 100000

4990 atoms
2 atom types

0.0000000000000000e+00 4.9219999999999999e+01 xlo xhi
0.0000000000000000e+00 4.9019635930410494e+01 ylo yhi
2.0200903541725808e+00 3.7979909645828812e+01 zlo zhi

Masses

1 18.015
2 12.01

Atoms # atomic

4588 1 3.8703359634078369e+00 2.1730393159769088e+00 6.3880903505239255e+00 1 0 1
2675 1 1.2289737500165110e+01 8.9872879199595790e+00 3.5660575307013000e+00 -1 1 1
3877 1 3.6073527273853330e+00 5.5180004954450634e-01 9.9228100246681930e+00 2 1 0
4663 1 6.3945963896625111e+00 3.1364721853941537e+00 3.4708653507024541e+00 0 1 1
4218 1 8.6606248707135673e+00 1.9229473486585422e-01 3.6769758762046205e+00 1 -1 0
4551 1 1.0725521678195998e+01 1.7918229176065008e+00 5.0139371941347504e+00 2 0 1
2113 1 1.0187411319801248e+01 9.3301572064942189e+00 6.0595045298385113e+00 0 -1 0
4365 1 1.6360080726489701e+00 4.0041411055358838e+00 5.4671988447382915e+00 1 0 1
1735 1 1.3672916522583041e+00 5.3290252252906178e+00 2.9711394879365081e+00 0 0 1
1217 1 6.7438001792912301e+00 7.2061197105148276e+00 2.3100734061624548e+00 1 1 1
3798 1 4.5225048375278121e+00 4.9541881383542936e+00 5.0003797985528946e+00 1 0 1
1333 1 4.5393265136928351e-01 8.2132559704782526e+00 7.7819759555525199e+00 1 0 0
2197 1 7.7089875077771797e-01 9.4610535557810351e+00 1.0668303697946515e+01 1 0 1
2237 1 7.8479745535591761e+00 6.5766872438091140e+00 8.6294401306097690e+00 -1 0 1
1821 1 8.7256125497049304e+00 5.2795973251602710e+00 2.6027968613493120e+00 0 0 0
3058 1 5.8541701818561664e+00 6.0107685499753383e-01 4.5873655146613110e+00 0 0 1
4527 1 3.6733803761382062e+00 8.4035719052540454e+00 5.8194460346843968e+00 1 0 0
3405 1 9.7148379064181203e+00 1.0327376344713816e+01 2.6793264212355403e+00 0 0 1
1824 1 7.8986219988559467e+00 8.4060884518070402e+00 4.4865088971661855e+00 1 1 0
483 1 6.2549597726826862e+00 7.2348398681812505e+00 6.2620107117052504e+00 1 -1 1
438 1 1.2721008418918871e+00 8.1874572528439629e+00 4.2803535441427556e+00 0 0 2
1371 1 1.1166726529519932e+01 6.3523783785216885e+00 3.3708645191625548e+00 0 1 1
4269 1 3.7478282602468322e+00 1.1215482298508212e+01 4.8327960609907512e+00 0 0 1
945 1 7.8015009396955275e+00 1.2246811383908801e+01 2.2816484283557767e+00 -1 0 1
4273 1 5.6961593558890291e+00 2.5881731352946153e+00 8.5493408970186877e+00 1 0 1
4695 1 8.2780935946835879e+00 2.8070505515075594e+00 6.5054864685482379e+00 0 0 1
1299 1 7.8072455301654680e+00 5.9361137146262100e-01 9.4244365943776476e+00 0 0 1
1879 1 4.1770028918017381e+00 6.3591095112682314e+00 2.4262503971911720e+00 1 0 1
1369 1 2.5578605115264508e+00 6.6152512219086823e+00 8.1245302729798539e+00 0 1 1
4250 1 2.2489337710221853e+00 3.3754453890603825e-01 7.4249350522419109e+00 0 -1 1
2628 1 1.1548704819630156e+01 1.0838532127529266e+01 9.0913335008487124e+00 0 1 0
2552 1 1.3135635097797507e-01 1.1480983716149135e+01 7.8882207894833902e+00 0 1 1
3869 1 5.1567983979815537e+00 5.2766589344751109e+00 9.0233597354412787e+00 0 1 1
2173 1 1.1730845418965977e+01 1.3304040737535685e+00 2.2502489551024953e+00 0 2 0
3013 1 9.6422180427693647e+00 4.4052617565493488e+00 8.3517761747037547e+00 0 0 1
3417 1 3.4845087130932302e+00 9.3455998246893976e+00 2.5322600504868515e+00 0 0 1
4321 1 4.2568884970681680e+00 8.9417495177135127e+00 8.9219236949813858e+00 0 0 1
461 1 6.5030680903603582e+00 1.1004006067222907e+01 5.1392671747529040e+00 1 -1 1
4330 1 6.6729049535914466e+00 1.0094078269513323e+01 7.7438994815622282e+00 2 1 1
2228 1 9.0970432280034821e+00 9.2524890735381149e+00 8.7671591266269679e+00 0 0 0
4265 1 2.7181552641991074e+00 1.1057405682142274e+01 9.3860908135121406e+00 1 0 1
4277 1 1.2060279539841705e+01 7.2493981599205179e+00 6.4909327351636428e+00 0 0 1
4620 1 1.0799068063452302e+00 1.1454563747848265e+01 3.2992807022654498e+00 -1 0 1
2156 1 1.1036263074010428e+01 1.1933009998366622e+01 5.6077563819128731e+00 1 -1 1
496 1 1.1670144105272813e+01 7.3218667319503599e+00 9.3342641798167527e+00 0 0 1
3851 1 1.1139332166226065e+01 1.7071091121193445e+00 1.0666304964993655e+01 1 1 1
4276 1 8.5545464177664297e+00 3.0200109922874581e+00 1.0735454671802712e+01 0 0 0
493 1 1.9088517680841284e+00 1.4057364584845951e+00 1.4303319564066211e+01 1 0 1
3878 1 7.6827798787767119e+00 7.4022954241744063e+00 1.1638975744283620e+01 1 0 1
415 1 6.2269543308432320e+00 4.8139053589848730e+00 1.1790816031730618e+01 -1 1 1
951 1 4.7627066105396887e+00 1.1168891870659030e+00 1.4197527319451778e+01 -1 1 0
283 2 8.6134999999999984e+00 1.0656442593567498e+01 1.6987281893859162e+01 0 0 0
2723 1 9.1129025350151576e+00 1.9874822193415702e+00 1.3416885422572429e+01 1 0 0
488 1 1.1359676993946119e+01 3.1896065719556019e+00 1.4565677503170141e+01 1 0 1
40 1 1.1670392206152709e+01 8.9001067705590255e+00 1.4485626771036371e+01 0 0 0
128 1 1.6071920074261221e+00 4.4233430782558605e+00 1.4250814593066748e+01 2 -1 0
307 2 1.1074500000000002e+01 1.0656442593567498e+01 1.6987281893859162e+01 0 0 0
2145 1 2.2817147510778519e+00 4.1551989394664490e+00 1.1577652513670934e+01 -1 0 1
3843 1 6.9577217290197373e+00 3.6799045522116178e+00 1.4458081673837505e+01 -1 0 1
4209 1 4.5447549267835843e+00 2.3726071686854686e+00 1.1748125245609199e+01 0 0 0
365 1 4.2629937741088115e+00 4.6700526311232844e+00 1.4723208147077825e+01 -1 0 0
3408 1 1.1880571382060001e+01 9.6385005063761628e+00 1.1708091547512236e+01 1 0 0
3001 1 8.3430809585201562e+00 6.3060964468806722e+00 1.4515015892028828e+01 0 0 1
130 1 1.1182353165014138e+01 5.8193555067189990e+00 1.4364833958720999e+01 0 0 1
3430 1 1.0388735863202967e+01 5.4528569887510034e+00 1.1595749447354006e+01 0 1 0
262 2 8.6134999999999984e+00 9.2355835810918343e+00 1.6987281893859162e+01 0 0 0
4602 1 4.9934366349925368e+00 1.1556764993394758e+01 1.4364420484637096e+01 1 0 1
4555 1 2.1497858073007365e+00 8.5550795284752414e+00 1.3854927860781308e+01 0 0 1
3793 1 4.6560439950419292e+00 7.6465620203037314e+00 1.4686634873951782e+01 1 0 1
4666 1 5.6113433475655308e+00 1.1019154095820177e+01 1.1409327956822448e+01 1 1 1
2931 1 6.9201225627149370e+00 9.2758467858821998e+00 1.4417063727333234e+01 1 0 0
284 2 9.8440000000000012e+00 1.1366872099805333e+01 1.6987281893859162e+01 0 0 0
29 1 9.4582155054369519e+00 1.0866558304037408e+01 1.4473594294566624e+01 -1 2 0
1287 1 8.6463455829782792e+00 1.0605431651110038e+01 1.1635589326654582e+01 0 0 1
3 1 4.8874571354461107e+00 8.1987422104242746e+00 1.1745102994091583e+01 0 -1 0
308 2 1.2304999999999998e+01 1.1366872099805333e+01 1.6987281893859162e+01 0 0 0
193 2 0.0000000000000000e+00 2.8417180249513345e+00 1.6987281893859162e+01 0 0 0
194 2 0.0000000000000000e+00 0.0000000000000000e+00 1.6987281893859162e+01 0 0 0
195 2 1.2305000000000001e+00 7.1042950623783474e-01 1.6987281893859162e+01 0 0 0
199 2 1.2305000000000001e+00 2.1312885187134998e+00 1.6987281893859162e+01 0 0 0
200 2 2.4610000000000003e+00 2.8417180249513345e+00 1.6987281893859162e+01 0 0 0
201 2 2.4610000000000003e+00 0.0000000000000000e+00 1.6987281893859162e+01 0 0 0
202 2 3.6915000000000004e+00 7.1042950623783474e-01 1.6987281893859162e+01 0 0 0
210 2 3.6914999999999996e+00 2.1312885187134998e+00 1.6987281893859162e+01 0 0 0
211 2 4.9220000000000006e+00 2.8417180249513332e+00 1.6987281893859162e+01 0 0 0
212 2 4.9220000000000006e+00 0.0000000000000000e+00 1.6987281893859162e+01 0 0 0
213 2 6.1524999999999999e+00 7.1042950623783407e-01 1.6987281893859162e+01 0 0 0
225 2 6.1524999999999999e+00 2.1312885187134989e+00 1.6987281893859162e+01 0 0 0
226 2 7.3829999999999991e+00 2.8417180249513345e+00 1.6987281893859162e+01 0 0 0
227 2 7.3829999999999991e+00 0.0000000000000000e+00 1.6987281893859162e+01 0 0 0
228 2 8.6134999999999984e+00 7.1042950623783407e-01 1.6987281893859162e+01 0 0 0
244 2 8.6134999999999984e+00 2.1312885187135002e+00 1.6987281893859162e+01 0 0 0
245 2 9.8440000000000012e+00 2.8417180249513332e+00 1.6987281893859162e+01 0 0 0
246 2 9.8440000000000012e+00 0.0000000000000000e+00 1.6987281893859162e+01 0 0 0
247 2 1.1074500000000002e+01 7.1042950623783330e-01 1.6987281893859162e+01 0 0 0
267 2 1.1074500000000002e+01 2.1312885187135002e+00 1.6987281893859162e+01 0 0 0
197 2 0.0000000000000000e+00 4.2625770374269996e+00 1.6987281893859162e+01 0 0 0
198 2 1.2305000000000001e+00 4.9730065436648339e+00 1.6987281893859162e+01 0 0 0
206 2 1.2305000000000001e+00 6.3938655561404980e+00 1.6987281893859162e+01 0 0 0
208 2 2.4610000000000003e+00 4.2625770374269996e+00 1.6987281893859162e+01 0 0 0
209 2 3.6914999999999996e+00 4.9730065436648339e+00 1.6987281893859162e+01 0 0 0
221 2 3.6914999999999996e+00 6.3938655561404980e+00 1.6987281893859162e+01 0 0 0
196 2 0.0000000000000000e+00 7.1042950623783341e+00 1.6987281893859162e+01 0 0 0
207 2 2.4610000000000003e+00 7.1042950623783341e+00 1.6987281893859162e+01 0 0 0
223 2 4.9220000000000006e+00 4.2625770374269978e+00 1.6987281893859162e+01 0 0 0
224 2 6.1524999999999999e+00 4.9730065436648339e+00 1.6987281893859162e+01 0 0 0
240 2 6.1524999999999999e+00 6.3938655561404980e+00 1.6987281893859162e+01 0 0 0
242 2 7.3829999999999991e+00 4.2625770374269996e+00 1.6987281893859162e+01 0 0 0
222 2 4.9220000000000006e+00 7.1042950623783341e+00 1.6987281893859162e+01 0 0 0
241 2 7.3830000000000009e+00 7.1042950623783341e+00 1.6987281893859162e+01 0 0 0
243 2 8.6135000000000002e+00 4.9730065436648339e+00 1.6987281893859162e+01 0 0 0
263 2 8.6135000000000002e+00 6.3938655561404980e+00 1.6987281893859162e+01 0 0 0
265 2 9.8440000000000012e+00 4.2625770374270004e+00 1.6987281893859162e+01 0 0 0
266 2 1.1074500000000002e+01 4.9730065436648339e+00 1.6987281893859162e+01 0 0 0
287 2 1.1074500000000002e+01 6.3938655561404980e+00 1.6987281893859162e+01 0 0 0
264 2 9.8440000000000012e+00 7.1042950623783341e+00 1.6987281893859162e+01 0 0 0
204 2 0.0000000000000000e+00 8.5251540748539991e+00 1.6987281893859162e+01 0 0 0
205 2 1.2305000000000001e+00 9.2355835810918343e+00 1.6987281893859162e+01 0 0 0
219 2 2.4610000000000003e+00 8.5251540748539991e+00 1.6987281893859162e+01 0 0 0
220 2 3.6915000000000004e+00 9.2355835810918343e+00 1.6987281893859162e+01 0 0 0
203 2 0.0000000000000000e+00 1.1366872099805333e+01 1.6987281893859162e+01 0 0 0
217 2 1.2305000000000001e+00 1.0656442593567498e+01 1.6987281893859162e+01 0 0 0
218 2 2.4610000000000003e+00 1.1366872099805333e+01 1.6987281893859162e+01 0 0 0
236 2 3.6914999999999996e+00 1.0656442593567499e+01 1.6987281893859162e+01 0 0 0
261 2 7.3830000000000009e+00 8.5251540748539991e+00 1.6987281893859162e+01 0 0 0
259 2 6.1524999999999999e+00 1.0656442593567499e+01 1.6987281893859162e+01 0 0 0
260 2 7.3829999999999991e+00 1.1366872099805333e+01 1.6987281893859162e+01 0 0 0
238 2 4.9220000000000006e+00 8.5251540748539991e+00 1.6987281893859162e+01 0 0 0
239 2 6.1524999999999999e+00 9.2355835810918343e+00 1.6987281893859162e+01 0 0 0
237 2 4.9220000000000006e+00 1.1366872099805333e+01 1.6987281893859162e+01 0 0 0
285 2 9.8440000000000012e+00 8.5251540748539956e+00 1.6987281893859162e+01 0 0 0
286 2 1.1074500000000002e+01 9.2355835810918343e+00 1.6987281893859162e+01 0 0 0
4243 1 2.1103166148124934e+00 1.1440278265551242e+01 1.4209178218559661e+01 0 0 0
115 1 8.9841050342947570e-01 1.0892530416980069e+00 1.1579701845531204e+01 0 -1 1
939 1 2.0320458032334443e-01 6.8133847976786646e+00 1.4554669975134310e+01 1 0 1
132 1 7.4230112757314171e+00 4.0987414387103627e-02 1.4182889994322514e+01 1 0 0
1010 1 2.2566224534140837e+00 7.0543150425286383e+00 1.1058177766667157e+01 -1 1 1
549 2 0.0000000000000000e+00 1.4208590124756650e+00 2.0028105405142792e+01 0 0 0
550 2 0.0000000000000000e+00 0.0000000000000000e+00 2.0028105405142792e+01 0 0 0
554 2 1.2305000000000001e+00 2.1312885187134998e+00 2.0028105405142792e+01 0 0 0
555 2 2.4610000000000003e+00 1.4208590124756650e+00 2.0028105405142792e+01 0 0 0
556 2 2.4610000000000003e+00 0.0000000000000000e+00 2.0028105405142792e+01 0 0 0
564 2 3.6914999999999996e+00 2.1312885187134998e+00 2.0028105405142792e+01 0 0 0
710 2 0.0000000000000000e+00 2.8417180249513345e+00 2.3068928916427119e+01 0 0 0
711 2 0.0000000000000000e+00 0.0000000000000000e+00 2.3068928916427119e+01 0 0 0
712 2 1.2305000000000001e+00 7.1042950623783474e-01 2.3068928916427119e+01 0 0 0
716 2 1.2305000000000001e+00 2.1312885187134998e+00 2.3068928916427119e+01 0 0 0
717 2 2.4610000000000003e+00 2.8417180249513345e+00 2.3068928916427119e+01 0 0 0
718 2 2.4610000000000003e+00 0.0000000000000000e+00 2.3068928916427119e+01 0 0 0
719 2 3.6915000000000004e+00 7.1042950623783474e-01 2.3068928916427119e+01 0 0 0
727 2 3.6914999999999996e+00 2.1312885187134998e+00 2.3068928916427119e+01 0 0 0
553 2 1.2305000000000001e+00 3.5521475311891644e+00 2.0028105405142792e+01 0 0 0
563 2 3.6914999999999996e+00 3.5521475311891644e+00 2.0028105405142792e+01 0 0 0
565 2 4.9220000000000006e+00 1.4208590124756650e+00 2.0028105405142792e+01 0 0 0
566 2 4.9220000000000006e+00 0.0000000000000000e+00 2.0028105405142792e+01 0 0 0
578 2 6.1524999999999999e+00 2.1312885187134989e+00 2.0028105405142792e+01 0 0 0
579 2 7.3829999999999991e+00 1.4208590124756659e+00 2.0028105405142792e+01 0 0 0
580 2 7.3829999999999991e+00 0.0000000000000000e+00 2.0028105405142792e+01 0 0 0
728 2 4.9220000000000006e+00 2.8417180249513332e+00 2.3068928916427119e+01 0 0 0
729 2 4.9220000000000006e+00 0.0000000000000000e+00 2.3068928916427119e+01 0 0 0
730 2 6.1524999999999999e+00 7.1042950623783407e-01 2.3068928916427119e+01 0 0 0
742 2 6.1524999999999999e+00 2.1312885187134989e+00 2.3068928916427119e+01 0 0 0
743 2 7.3829999999999991e+00 2.8417180249513345e+00 2.3068928916427119e+01 0 0 0
744 2 7.3829999999999991e+00 0.0000000000000000e+00 2.3068928916427119e+01 0 0 0
577 2 6.1524999999999999e+00 3.5521475311891644e+00 2.0028105405142792e+01 0 0 0
596 2 8.6134999999999984e+00 2.1312885187135002e+00 2.0028105405142792e+01 0 0 0
597 2 9.8440000000000012e+00 1.4208590124756659e+00 2.0028105405142792e+01 0 0 0
598 2 9.8440000000000012e+00 0.0000000000000000e+00 2.0028105405142792e+01 0 0 0
618 2 1.1074500000000002e+01 2.1312885187135002e+00 2.0028105405142792e+01 0 0 0
745 2 8.6134999999999984e+00 7.1042950623783407e-01 2.3068928916427119e+01 0 0 0
761 2 8.6134999999999984e+00 2.1312885187135002e+00 2.3068928916427119e+01 0 0 0
762 2 9.8440000000000012e+00 2.8417180249513332e+00 2.3068928916427119e+01 0 0 0
763 2 9.8440000000000012e+00 0.0000000000000000e+00 2.3068928916427119e+01 0 0 0
764 2 1.1074500000000002e+01 7.1042950623783330e-01 2.3068928916427119e+01 0 0 0
784 2 1.1074500000000002e+01 2.1312885187135002e+00 2.3068928916427119e+01 0 0 0
595 2 8.6134999999999984e+00 3.5521475311891657e+00 2.0028105405142792e+01 0 0 0
617 2 1.1074500000000002e+01 3.5521475311891644e+00 2.0028105405142792e+01 0 0 0
551 2 0.0000000000000000e+00 5.6834360499026637e+00 2.0028105405142792e+01 0 0 0
552 2 0.0000000000000000e+00 4.2625770374269996e+00 2.0028105405142792e+01 0 0 0
560 2 1.2305000000000001e+00 6.3938655561404980e+00 2.0028105405142792e+01 0 0 0
561 2 2.4610000000000003e+00 5.6834360499026637e+00 2.0028105405142792e+01 0 0 0
562 2 2.4610000000000003e+00 4.2625770374269996e+00 2.0028105405142792e+01 0 0 0
574 2 3.6914999999999996e+00 6.3938655561404980e+00 2.0028105405142792e+01 0 0 0
714 2 0.0000000000000000e+00 4.2625770374269996e+00 2.3068928916427119e+01 0 0 0
715 2 1.2305000000000001e+00 4.9730065436648339e+00 2.3068928916427119e+01 0 0 0
723 2 1.2305000000000001e+00 6.3938655561404980e+00 2.3068928916427119e+01 0 0 0
725 2 2.4610000000000003e+00 4.2625770374269996e+00 2.3068928916427119e+01 0 0 0
726 2 3.6914999999999996e+00 4.9730065436648339e+00 2.3068928916427119e+01 0 0 0
738 2 3.6914999999999996e+00 6.3938655561404980e+00 2.3068928916427119e+01 0 0 0
559 2 1.2305000000000001e+00 7.8147245686161639e+00 2.0028105405142792e+01 0 0 0
573 2 3.6914999999999996e+00 7.8147245686161639e+00 2.0028105405142792e+01 0 0 0
713 2 0.0000000000000000e+00 7.1042950623783341e+00 2.3068928916427119e+01 0 0 0
724 2 2.4610000000000003e+00 7.1042950623783341e+00 2.3068928916427119e+01 0 0 0
575 2 4.9220000000000006e+00 5.6834360499026637e+00 2.0028105405142792e+01 0 0 0
576 2 4.9220000000000006e+00 4.2625770374269978e+00 2.0028105405142792e+01 0 0 0
592 2 6.1524999999999999e+00 6.3938655561404980e+00 2.0028105405142792e+01 0 0 0
593 2 7.3829999999999991e+00 5.6834360499026637e+00 2.0028105405142792e+01 0 0 0
594 2 7.3829999999999991e+00 4.2625770374269996e+00 2.0028105405142792e+01 0 0 0
740 2 4.9220000000000006e+00 4.2625770374269978e+00 2.3068928916427119e+01 0 0 0
741 2 6.1524999999999999e+00 4.9730065436648339e+00 2.3068928916427119e+01 0 0 0
757 2 6.1524999999999999e+00 6.3938655561404980e+00 2.3068928916427119e+01 0 0 0
759 2 7.3829999999999991e+00 4.2625770374269996e+00 2.3068928916427119e+01 0 0 0
591 2 6.1524999999999999e+00 7.8147245686161639e+00 2.0028105405142792e+01 0 0 0
739 2 4.9220000000000006e+00 7.1042950623783341e+00 2.3068928916427119e+01 0 0 0
758 2 7.3830000000000009e+00 7.1042950623783341e+00 2.3068928916427119e+01 0 0 0
614 2 8.6135000000000002e+00 6.3938655561404980e+00 2.0028105405142792e+01 0 0 0
615 2 9.8440000000000012e+00 5.6834360499026637e+00 2.0028105405142792e+01 0 0 0
616 2 9.8440000000000012e+00 4.2625770374270004e+00 2.0028105405142792e+01 0 0 0
637 2 1.1074500000000002e+01 6.3938655561404980e+00 2.0028105405142792e+01 0 0 0
760 2 8.6135000000000002e+00 4.9730065436648339e+00 2.3068928916427119e+01 0 0 0
780 2 8.6135000000000002e+00 6.3938655561404980e+00 2.3068928916427119e+01 0 0 0
782 2 9.8440000000000012e+00 4.2625770374270004e+00 2.3068928916427119e+01 0 0 0
783 2 1.1074500000000002e+01 4.9730065436648339e+00 2.3068928916427119e+01 0 0 0
804 2 1.1074500000000002e+01 6.3938655561404980e+00 2.3068928916427119e+01 0 0 0
613 2 8.6135000000000002e+00 7.8147245686161639e+00 2.0028105405142792e+01 0 0 0
636 2 1.1074500000000002e+01 7.8147245686161639e+00 2.0028105405142792e+01 0 0 0
781 2 9.8440000000000012e+00 7.1042950623783341e+00 2.3068928916427119e+01 0 0 0
557 2 0.0000000000000000e+00 9.9460130873296642e+00 2.0028105405142792e+01 0 0 0
558 2 0.0000000000000000e+00 8.5251540748539991e+00 2.0028105405142792e+01 0 0 0
571 2 2.4610000000000003e+00 9.9460130873296642e+00 2.0028105405142792e+01 0 0 0
572 2 2.4610000000000003e+00 8.5251540748539991e+00 2.0028105405142792e+01 0 0 0
721 2 0.0000000000000000e+00 8.5251540748539991e+00 2.3068928916427119e+01 0 0 0
722 2 1.2305000000000001e+00 9.2355835810918343e+00 2.3068928916427119e+01 0 0 0
736 2 2.4610000000000003e+00 8.5251540748539991e+00 2.3068928916427119e+01 0 0 0
737 2 3.6915000000000004e+00 9.2355835810918343e+00 2.3068928916427119e+01 0 0 0
569 2 1.2305000000000001e+00 1.2077301606043163e+01 2.0028105405142792e+01 0 0 0
570 2 1.2305000000000001e+00 1.0656442593567498e+01 2.0028105405142792e+01 0 0 0
587 2 3.6914999999999996e+00 1.2077301606043163e+01 2.0028105405142792e+01 0 0 0
588 2 3.6914999999999996e+00 1.0656442593567499e+01 2.0028105405142792e+01 0 0 0
720 2 0.0000000000000000e+00 1.1366872099805333e+01 2.3068928916427119e+01 0 0 0
734 2 1.2305000000000001e+00 1.0656442593567498e+01 2.3068928916427119e+01 0 0 0
735 2 2.4610000000000003e+00 1.1366872099805333e+01 2.3068928916427119e+01 0 0 0
753 2 3.6914999999999996e+00 1.0656442593567499e+01 2.3068928916427119e+01 0 0 0
589 2 4.9220000000000006e+00 9.9460130873296642e+00 2.0028105405142792e+01 0 0 0
590 2 4.9220000000000006e+00 8.5251540748539991e+00 2.0028105405142792e+01 0 0 0
611 2 7.3830000000000009e+00 9.9460130873296642e+00 2.0028105405142792e+01 0 0 0
612 2 7.3830000000000009e+00 8.5251540748539991e+00 2.0028105405142792e+01 0 0 0
755 2 4.9220000000000006e+00 8.5251540748539991e+00 2.3068928916427119e+01 0 0 0
756 2 6.1524999999999999e+00 9.2355835810918343e+00 2.3068928916427119e+01 0 0 0
778 2 7.3830000000000009e+00 8.5251540748539991e+00 2.3068928916427119e+01 0 0 0
609 2 6.1524999999999999e+00 1.2077301606043163e+01 2.0028105405142792e+01 0 0 0
610 2 6.1524999999999999e+00 1.0656442593567499e+01 2.0028105405142792e+01 0 0 0
754 2 4.9220000000000006e+00 1.1366872099805333e+01 2.3068928916427119e+01 0 0 0
776 2 6.1524999999999999e+00 1.0656442593567499e+01 2.3068928916427119e+01 0 0 0
777 2 7.3829999999999991e+00 1.1366872099805333e+01 2.3068928916427119e+01 0 0 0
634 2 9.8440000000000012e+00 9.9460130873296642e+00 2.0028105405142792e+01 0 0 0
635 2 9.8440000000000012e+00 8.5251540748539956e+00 2.0028105405142792e+01 0 0 0
779 2 8.6134999999999984e+00 9.2355835810918343e+00 2.3068928916427119e+01 0 0 0
802 2 9.8440000000000012e+00 8.5251540748539956e+00 2.3068928916427119e+01 0 0 0
803 2 1.1074500000000002e+01 9.2355835810918343e+00 2.3068928916427119e+01 0 0 0
632 2 8.6135000000000002e+00 1.2077301606043163e+01 2.0028105405142792e+01 0 0 0
633 2 8.6134999999999984e+00 1.0656442593567498e+01 2.0028105405142792e+01 0 0 0
655 2 1.1074500000000002e+01 1.2077301606043163e+01 2.0028105405142792e+01 0 0 0
656 2 1.1074500000000002e+01 1.0656442593567498e+01 2.0028105405142792e+01 0 0 0
800 2 8.6134999999999984e+00 1.0656442593567498e+01 2.3068928916427119e+01 0 0 0
801 2 9.8440000000000012e+00 1.1366872099805333e+01 2.3068928916427119e+01 0 0 0
824 2 1.1074500000000002e+01 1.0656442593567498e+01 2.3068928916427119e+01 0 0 0
825 2 1.2304999999999998e+01 1.1366872099805333e+01 2.3068928916427119e+01 0 0 0
1314 1 1.1726320608240974e+00 6.9560490838180378e-01 2.6077006955643739e+01 -1 0 1
3050 1 8.0398619615864035e+00 8.9117847489160997e+00 2.6345336639222086e+01 0 0 0
2050 1 7.2652727481944872e+00 3.8733147056834776e+00 2.8695043580804423e+01 1 0 -1
80 1 5.8649378676760948e+00 1.0586044635572163e+01 2.5288850872668764e+01 1 0 -1
1014 1 6.2434911718934050e+00 5.8333079729748372e-01 2.5775670041507528e+01 1 0 0
33 1 8.4177396325995897e+00 2.6181798248009240e+00 2.5689480324296294e+01 0 0 0
889 1 4.1424478534597640e+00 1.0605483573278807e+01 2.7701026176751480e+01 0 0 -1
3703 1 6.4907206998620770e-01 3.6553877093777705e+00 2.5727779721018077e+01 1 0 0
4207 1 2.3675827488422079e+00 4.7096683662947614e+00 2.8417458125723137e+01 1 1 0
2730 1 1.2111445766763056e+01 7.8469280079078085e-01 2.8678317286619517e+01 0 1 0
3807 1 2.7029405323699951e+00 5.8566417197185157e+00 2.5638663777173853e+01 1 0 -1
883 1 1.1276837637571630e+01 3.2325912493436859e+00 2.5869269056650964e+01 -1 1 -1
4571 1 5.1052246432789197e+00 7.3770568454650736e+00 2.6027428452163711e+01 -1 0 0
3361 1 6.3452706724669374e+00 1.2633067871438077e+00 2.8381265117643814e+01 0 0 -1
1779 1 7.2723646905382271e+00 5.3892579230630187e+00 2.5809733714289969e+01 1 1 0
1307 1 9.5277577103673163e+00 6.8633197880740902e+00 2.5443921326163412e+01 0 0 -1
1001 1 1.3612617018362521e+00 1.8801609293292190e+00 2.8584776521096501e+01 0 1 -1
4314 1 7.6818706719080088e-01 7.8791601746449560e+00 2.5669408090484115e+01 1 -1 -1
61 1 2.0572710998404302e+00 1.0261099706793026e+01 2.5918774962837521e+01 0 1 -1
1296 1 1.0594292757497177e+01 9.8836326146947098e+00 2.7404919986178946e+01 0 0 0
4665 1 1.1370001092122894e+01 1.1814460568497484e+01 2.5534999937936700e+01 1 0 0
3479 1 1.8306457915012958e-01 7.5084459362599807e+00 2.8338147863468460e+01 1 0 0
3452 1 1.2003553579632683e+01 5.9804097314205595e+00 2.6219476830036747e+01 0 0 -1
67 1 1.0388159205493201e+01 3.3757253748089031e+00 2.8585556200827650e+01 -1 1 0
955 1 4.6680990942851448e+00 8.3541389791142340e+00 2.8759064588424259e+01 1 0 -1
3506 1 7.4256846419391733e+00 8.5898241431546190e+00 2.8930149162639495e+01 1 0 -1
4694 1 7.1809952811557676e-01 8.3563093283676260e+00 3.2646368889926592e+01 0 1 1
4316 1 8.6604766792343058e-01 2.4103304966754275e+00 3.5107461938653437e+01 1 1 -1
491 1 5.8921216509001146e+00 2.2427968809040166e+00 3.2236783464035753e+01 0 0 0
3514 1 4.1132813581862786e+00 1.6956681509926936e+00 2.9878532396992970e+01 0 0 -1
507 1 9.0542251529581570e+00 1.0515712318668586e+00 2.9992732279763683e+01 0 1 -1
990 1 1.0062216646924551e+01 6.9410480770498024e+00 3.2521171367110853e+01 0 1 -1
1812 1 5.4059109587441876e+00 1.1271430680659318e+01 3.7545510656898109e+01 1 -1 -1
174 1 1.7273431309451479e+00 4.5005790362241402e+00 3.3494234735536836e+01 0 0 0
16 1 2.3187942337960683e+00 7.4403257895566570e+00 3.0309762275044381e+01 0 1 0
913 1 1.4287842929102943e+00 9.6190757384205412e+00 3.6552269759333925e+01 0 1 -1
49 1 1.9947579812321141e+00 1.1439322222752576e+01 3.0120787675998912e+01 0 -1 -2
2993 1 3.6116448209007164e+00 9.5819648478211352e+00 3.1643828632816742e+01 0 -1 0
3765 1 4.2119853182435225e+00 4.3096050002150887e+00 3.2173523899961999e+01 1 0 0
374 1 1.0188065193171946e+01 9.4993543606631174e+00 3.3469801735323671e+01 0 0 0
119 1 2.1089916754258016e+00 1.0664309399487401e+01 3.4032737444066044e+01 2 -1 0
2641 1 1.1639419376409115e+00 2.1503741655532738e-01 3.2450582909850063e+01 1 1 -1
3779 1 3.5868117612899197e-01 4.9589727298674564e+00 3.0731256407736151e+01 1 0 0
525 1 8.4022437333773734e+00 2.4935300173037196e+00 3.5009616451164995e+01 2 1 0
1874 1 9.1582472756273390e+00 6.2337689813154471e+00 2.9704647132324911e+01 0 0 0
82 1 8.1754243640759441e+00 1.0878023114002845e+01 3.2488022718114912e+01 0 1 -2
1226 1 4.5427404155645634e+00 3.6308181164137761e+00 3.7396780044876969e+01 1 0 -1
2892 1 1.9023120980588446e+00 2.8573460808522690e+00 3.7486820360770359e+01 1 1 -1
1760 1 9.6593251254058270e+00 8.8182192005106472e+00 3.6288978167454189e+01 0 1 -1
1733 1 5.7203707734913749e+00 2.5272784057528539e+00 3.5045533625317681e+01 1 0 0
2637 1 1.0491506645481122e+01 2.1653503872947883e+00 3.2935989516169684e+01 1 1 0
86 1 8.2969155213896322e+00 3.5304018048098396e+00 3.1544380099637976e+01 0 1 0
2693 1 8.4953562335375177e-01 6.8869610776650454e+00 3.4922740660046159e+01 1 0 0
944 1 4.6585444947926504e+00 5.1751709605091927e+00 2.9601277073470968e+01 0 1 -1
1214 1 1.1668392042398342e+01 1.0992680976815949e+01 2.9684679503279650e+01 1 0 0
4360 1 3.5167753070045475e+00 5.7681435886985319e+00 3.5674929254277451e+01 0 2 0
1841 1 5.5364465877635043e+00 6.2988617812256571e+00 3.3774629039733114e+01 0 0 0
381 1 1.0172686052758042e+01 6.0942132073356268e+00 3.6178919287736321e+01 0 1 -1
478 1 8.1785998464797061e+00 5.5075730565210366e+00 3.3821947399890178e+01 0 0 0
3707 1 5.8719894241852932e+00 9.2843246464532996e+00 3.3304933034739094e+01 2 0 0
2558 1 8.6834005162760715e+00 1.1266950404339045e+01 2.9854188797902211e+01 2 -1 -1
102 1 4.8008842365587654e+00 1.1439291381483605e+01 3.4785672514872061e+01 0 0 -1
191 1 1.1562680960113157e+01 2.8957850289530045e+00 3.5806976178633292e+01 -1 0 -1
3827 1 6.9117708295134896e+00 9.2381040785358568e+00 3.6107483499043461e+01 0 0 -1
2963 1 1.2194290843215624e+01 3.3723244516383266e+00 3.1159473473710964e+01 0 1 1
4567 1 8.8939987847914352e+00 2.4025398298027580e+00 3.7782661586181902e+01 1 0 -1
1024 1 1.1988719254385924e+01 5.9715378573925557e+00 2.9301120575917292e+01 0 1 -1
1272 1 1.0527310885393488e+01 1.5865321298557175e+01 3.7996676683036537e+00 1 -1 0
3806 1 7.3081177922562732e+00 2.3701782808335732e+01 1.0226589119658415e+01 0 0 0
2087 1 4.9591296924598396e+00 1.4466486802445045e+01 4.8037025912017191e+00 0 -1 1
2701 1 2.1628881030786982e+00 1.5373513174521984e+01 7.6327111069180154e+00 0 0 -1
1771 1 4.9454862767418382e+00 2.1417125732576025e+01 7.3554056647763710e+00 1 0 0
2657 1 5.4241327324021889e+00 2.4401012297258610e+01 6.3269128691600613e+00 1 0 -1
2612 1 7.6560588506370895e+00 1.4301074179297782e+01 4.1304264315684751e+00 -1 0 0
3792 1 8.1632548763530881e+00 2.4186837381673534e+01 2.8758397215692852e+00 0 0 1
2978 1 7.4348180841921350e+00 1.6857376583260660e+01 2.8275939172448670e+00 1 -1 1
1822 1 5.0648519978805115e+00 1.8207231854140527e+01 3.0706376060004539e+00 0 0 1
3723 1 1.0739394980898846e+01 2.1359274323486549e+01 7.7904687387500404e+00 1 0 0
432 1 6.8699998764747612e+00 1.6222176210945509e+01 9.5796248279029008e+00 0 0 1
3724 1 6.3953424820126328e+00 1.6968940850986403e+01 6.4188456247715813e+00 0 1 0
24 1 8.8016966948026081e+00 1.7885157490377210e+01 5.3474209151093994e+00 1 0 -1
459 1 1.1180256439427959e+01 1.5805575197934722e+01 6.7497045272329963e+00 1 0 1
2908 1 9.5894633593496259e+00 1.5922034497924111e+01 1.0889053909574740e+01 1 0 1
470 1 1.6043236617669123e+00 2.1096797413029812e+01 5.4999702041731027e+00 0 0 1
2996 1 8.2102500498548299e+00 2.0515871909902732e+01 5.0249710151852067e+00 0 0 1
4621 1 5.7111081871933198e+00 2.0593631529116493e+01 3.8335783844397948e+00 1 1 0
4630 1 9.7597103051164744e+00 2.2673226250641747e+01 4.4169382929151624e+00 1 0 1
931 1 7.8694042791049652e+00 2.1038508969513803e+01 7.6992003492036716e+00 0 1 0
4604 1 3.6814803885338190e+00 1.3077901828808983e+01 7.1019715945481261e+00 1 1 1
4552 1 1.1011241520206816e+01 2.3947388823770687e+01 6.6827711572625645e+00 1 0 1
2160 1 1.1899255901636517e+01 1.8940613633413324e+01 6.4665718624845976e+00 0 0 0
79 1 1.1152525786027050e+01 1.3065526141447076e+01 2.8152627776192682e+00 0 1 1
3504 1 7.3105276580809635e+00 1.4484324439531120e+01 7.1056424619668848e+00 2 1 0
4683 1 1.1544894485172479e+01 2.1534845820409885e+01 2.7532387118243555e+00 1 0 0
3715 1 9.8528772487537317e+00 1.3414523378218274e+01 7.6276667030142518e+00 -1 0 0
1206 1 1.0227992963497217e+01 1.2800266558906618e+01 1.0421011339793848e+01 0 0 0
4215 1 3.4712937702757394e+00 1.6980245074870819e+01 5.1574196604851981e+00 1 1 0
1860 1 1.6606443349201396e+00 1.8721898751196935e+01 6.9193673646703688e+00 0 0 0
73 1 4.5510295754421026e+00 1.8341601423305722e+01 8.0792925023765463e+00 1 0 0
1881 1 7.6788542454600996e+00 2.3913232907341317e+01 7.6876063501318530e+00 1 0 0
20 1 7.3157474411995240e+00 1.8920847201401276e+01 9.2214884260140160e+00 2 -1 1
352 1 3.6037177631776141e+00 2.2221199890115994e+01 9.6206427311469582e+00 1 -1 1
2063 1 9.9699863940649429e+00 1.8340361902020213e+01 9.3180422170541526e+00 1 0 1
192 1 1.2683827233885834e+00 1.7198344941942114e+01 9.5959978570329767e+00 1 1 0
917 1 4.2378347218087385e-02 1.9930224441175557e+01 3.3351388127451473e+00 0 0 0
4361 1 3.8940026024703118e+00 2.2420835207598813e+01 4.6306776174516493e+00 -1 1 0