LAMMPS data file via write_data, version 16 Mar 2018, timestep = 8000000

4990 atoms
2 atom types

0.0000000000000000e+00 4.9219999999999999e+01 xlo xhi
0.0000000000000000e+00 4.9019635930410494e+01 ylo yhi
1.1369000210788762e+00 3.8863099978916097e+01 zlo zhi

Masses

1 18.015
2 12.01

Atoms # atomic

163 1 3.5553913275543745e+00 2.0250391627067748e+00 3.5215932839442625e+00 3 -3 0
1227 1 1.1987089517753959e+00 2.5265015545752467e+00 2.2755250954376205e+00 1 1 1
1844 1 7.4708723183815815e+00 3.7422179964399120e+00 3.3830260098978049e+00 -3 1 0
4584 1 8.5040262205182540e+00 1.4882618435331678e+00 2.4339896682681421e+00 1 2 1
2711 1 1.1034871579922060e+01 3.0709930861777370e+00 2.8747475240332498e+00 -1 1 0
399 1 1.7424791610265784e+00 6.9685627050857955e+00 2.5371103946920401e+00 1 -5 1
2966 1 3.4193856441446069e-01 4.8702615213211891e+00 3.1748570854192182e+00 -1 2 0
35 1 4.2654021552820343e+00 6.7584817331614975e+00 3.5760367066607426e+00 0 0 1
2641 1 4.9305951215987678e+00 4.0935354691590771e+00 2.6972769464738215e+00 4 4 0
110 1 1.1247056072696726e+01 5.7574860093197717e+00 3.6069559131025266e+00 1 -1 1
370 1 8.6698495104891204e+00 6.0279913300958983e+00 2.4040431539558789e+00 4 -4 1
3775 1 1.9971240840405575e+00 1.1265454328391479e+01 2.4518034723772200e+00 4 1 0
2118 1 7.0547060098527736e-01 9.1594054084161236e+00 3.4912514023282903e+00 5 0 1
2181 1 4.6702555449995717e+00 1.0952405890523609e+01 3.4279883363484243e+00 -4 4 0
945 1 5.7191326310532764e+00 8.8099054337797060e+00 2.2807605089617726e+00 -1 0 1
2990 1 7.9586564896267600e+00 8.4450916796216955e+00 3.3957066957425837e+00 4 2 1
169 1 9.5478712005884585e+00 1.0369524907479111e+01 2.5778654970272221e+00 -1 -1 1
1347 1 1.2734604583612972e+00 2.5497307399556264e+00 7.0747551042809960e+00 5 0 0
443 1 1.1651433759340453e+00 2.5359662324555794e+00 9.9317390771399285e+00 0 1 1
4607 1 3.7253227502505304e+00 2.1934301136122798e+00 6.3413497567319945e+00 0 1 1
3465 1 7.6715093912002024e+00 3.7654167925274118e+00 6.2955188307995540e+00 2 2 0
2614 1 4.5052454966965110e+00 3.1847718499811606e-02 9.8079892352075539e+00 3 -5 1
1354 1 5.3654971799399087e+00 3.9530424852487109e+00 9.7695632358315994e+00 1 5 1
1783 1 1.1564956452022646e+01 3.0860905131636476e+00 7.5693734509010406e+00 3 2 0
4624 1 8.9658405116337363e+00 1.2348035164389359e+00 1.0168058254521197e+01 -1 -3 1
1045 1 9.2896060286766229e+00 1.5850892661097016e+00 7.4129962949892754e+00 0 1 -1
2172 1 1.8106188826312426e+00 6.8745543907608235e+00 6.9939342010518653e+00 1 -2 1
2174 1 1.7361729317858634e+00 6.8992282205659192e+00 9.8545423410703137e+00 -1 3 0
3054 1 4.7954667273739349e-01 4.7343432766692981e+00 6.0245314888025963e+00 0 2 0
1824 1 4.3200522501368868e+00 6.6727115795827947e+00 6.1934207909935539e+00 2 1 0
2190 1 5.3727136464336516e+00 4.1410994437664845e+00 7.0414261202840329e+00 -3 -1 0
4334 1 1.1369011585229783e+01 5.4345710237023628e+00 6.2958217473235525e+00 -1 4 0
3850 1 9.1104694986836332e+00 6.0026974336899235e+00 9.6266989694105334e+00 -4 -2 1
971 1 8.8553265572600814e+00 6.0077647718218747e+00 6.7820942919989573e+00 3 0 1
3717 1 2.3472595970287267e+00 1.1416653819283750e+01 9.9000345133295582e+00 0 -3 0
28 1 2.2221056632560403e+00 1.1407760329501803e+01 7.1447086659557115e+00 -3 0 0
26 1 6.3155418742535763e-01 9.2015969849142891e+00 6.0918449198849629e+00 -1 0 1
3041 1 8.3798692097434768e-01 9.3129644952497248e+00 1.0517745110833427e+01 0 0 1
3020 1 4.6898338474040795e+00 1.1062525974826018e+01 6.3544721433209279e+00 0 -3 1
1889 1 5.3889344839494600e+00 8.7312349119513755e+00 7.5616208638455928e+00 2 1 1
2170 1 7.9346467619384047e+00 8.6393758769046300e+00 6.1895497199439635e+00 1 1 1
2886 1 5.7593225563147152e+00 8.5906802609123272e+00 1.0105552231025268e+01 7 1 1
2551 1 9.8472249284469608e+00 1.0440595479743017e+01 9.9471916624928340e+00 0 -2 1
2880 1 9.8113446874074750e+00 1.0164037251921878e+01 7.2088280187222393e+00 3 3 0
377 1 1.2131764329597486e+01 9.6708109206872788e+00 5.9903634695375887e+00 1 4 1
70 1 1.5175385239180479e+00 2.8869216110934337e+00 1.4706431436880711e+01 3 -3 1
1882 1 3.9276389058741361e+00 2.1842468475104173e+00 1.3735685610933553e+01 0 -1 0
958 1 3.6605930084444811e+00 2.4627307298198993e+00 1.1089730908001167e+01 -4 0 0
1845 1 7.8639664562492708e+00 3.7938049901188085e+00 1.0923181309703367e+01 2 4 0
4520 1 5.7749023992422863e+00 4.0808883746154621e+00 1.4229628178240006e+01 1 0 1
1812 1 1.1920811597845507e+01 1.2938121036164696e+00 1.3998859706178054e+01 1 -1 0
2895 1 9.1577510064643768e+00 1.5691711769747858e+00 1.4349512284714315e+01 2 -1 0
4669 1 8.4548386411067344e+00 3.9520501314964762e+00 1.3417038580377971e+01 2 0 1
3417 1 1.1404201826600275e+01 1.0124468337837951e+00 1.1194120586945125e+01 0 1 1
1809 1 2.3301955698610892e+00 6.9845336636684898e+00 1.4408128976129046e+01 -3 -1 0
2984 1 1.8110529912066237e-01 4.9607043687107968e+00 1.0847399800051138e+01 0 -1 1
2898 1 4.3941391578844818e-01 5.1454047652477444e+00 1.3631879914088824e+01 -6 1 1
2929 1 4.8763632443824605e+00 6.4788407121221674e+00 1.3252387923260581e+01 2 -4 0
4606 1 4.3396164194729190e+00 6.3994086207182530e+00 1.0702918306959223e+01 0 1 0
4317 1 1.0254654921445749e+01 5.9685598549838543e+00 1.3866754411794368e+01 3 -2 1
4281 1 1.1129444860949485e+01 5.5134236369022647e+00 1.1245155209438156e+01 2 3 0
355 1 1.0184057831504361e+00 8.9443982783008522e+00 1.3298816862021784e+01 2 1 1
2080 1 2.6123622965726359e+00 1.1087268704076296e+01 1.4470097554603313e+01 2 -2 0
2169 1 4.6738681830742825e+00 1.0738496538976982e+01 1.1055720996335689e+01 1 -3 1
4597 1 4.9325899703885376e+00 1.1109123888440500e+01 1.3796495805882868e+01 0 -2 1
2650 1 6.2794912240077760e+00 8.6782450630186769e+00 1.3409726549958824e+01 -2 0 1
3521 1 9.0094152287838476e+00 8.2258825588178404e+00 1.3730748352705794e+01 -1 -2 0
2109 1 1.0189699558328480e+01 1.0427602231766491e+01 1.4432937250404496e+01 -1 0 0
1831 1 8.2890064786528708e+00 8.4310065112151769e+00 1.0757465226174318e+01 2 -1 0
164 1 1.2266177441380853e+01 9.9585701838658434e+00 1.1230503984701565e+01 0 -3 -1
193 2 0.0000000000000000e+00 2.8417180249513345e+00 1.6839294303256803e+01 0 0 0
194 2 0.0000000000000000e+00 0.0000000000000000e+00 1.6839294303256803e+01 0 0 0
195 2 1.2305000000000001e+00 7.1042950623783474e-01 1.6839294303256803e+01 0 0 0
199 2 1.2305000000000001e+00 2.1312885187134998e+00 1.6839294303256803e+01 0 0 0
200 2 2.4610000000000003e+00 2.8417180249513345e+00 1.6839294303256803e+01 0 0 0
201 2 2.4610000000000003e+00 0.0000000000000000e+00 1.6839294303256803e+01 0 0 0
202 2 3.6915000000000004e+00 7.1042950623783474e-01 1.6839294303256803e+01 0 0 0
210 2 3.6914999999999996e+00 2.1312885187134998e+00 1.6839294303256803e+01 0 0 0
211 2 4.9220000000000006e+00 2.8417180249513332e+00 1.6839294303256803e+01 0 0 0
212 2 4.9220000000000006e+00 0.0000000000000000e+00 1.6839294303256803e+01 0 0 0
213 2 6.1524999999999999e+00 7.1042950623783407e-01 1.6839294303256803e+01 0 0 0
225 2 6.1524999999999999e+00 2.1312885187134989e+00 1.6839294303256803e+01 0 0 0
226 2 7.3829999999999991e+00 2.8417180249513345e+00 1.6839294303256803e+01 0 0 0
227 2 7.3829999999999991e+00 0.0000000000000000e+00 1.6839294303256803e+01 0 0 0
228 2 8.6134999999999984e+00 7.1042950623783407e-01 1.6839294303256803e+01 0 0 0
244 2 8.6134999999999984e+00 2.1312885187135002e+00 1.6839294303256803e+01 0 0 0
245 2 9.8440000000000012e+00 2.8417180249513332e+00 1.6839294303256803e+01 0 0 0
246 2 9.8440000000000012e+00 0.0000000000000000e+00 1.6839294303256803e+01 0 0 0
247 2 1.1074500000000002e+01 7.1042950623783330e-01 1.6839294303256803e+01 0 0 0
267 2 1.1074500000000002e+01 2.1312885187135002e+00 1.6839294303256803e+01 0 0 0
197 2 0.0000000000000000e+00 4.2625770374269996e+00 1.6839294303256803e+01 0 0 0
198 2 1.2305000000000001e+00 4.9730065436648339e+00 1.6839294303256803e+01 0 0 0
206 2 1.2305000000000001e+00 6.3938655561404980e+00 1.6839294303256803e+01 0 0 0
208 2 2.4610000000000003e+00 4.2625770374269996e+00 1.6839294303256803e+01 0 0 0
209 2 3.6914999999999996e+00 4.9730065436648339e+00 1.6839294303256803e+01 0 0 0
221 2 3.6914999999999996e+00 6.3938655561404980e+00 1.6839294303256803e+01 0 0 0
196 2 0.0000000000000000e+00 7.1042950623783341e+00 1.6839294303256803e+01 0 0 0
207 2 2.4610000000000003e+00 7.1042950623783341e+00 1.6839294303256803e+01 0 0 0
223 2 4.9220000000000006e+00 4.2625770374269978e+00 1.6839294303256803e+01 0 0 0
224 2 6.1524999999999999e+00 4.9730065436648339e+00 1.6839294303256803e+01 0 0 0
240 2 6.1524999999999999e+00 6.3938655561404980e+00 1.6839294303256803e+01 0 0 0
242 2 7.3829999999999991e+00 4.2625770374269996e+00 1.6839294303256803e+01 0 0 0
222 2 4.9220000000000006e+00 7.1042950623783341e+00 1.6839294303256803e+01 0 0 0
241 2 7.3830000000000009e+00 7.1042950623783341e+00 1.6839294303256803e+01 0 0 0
243 2 8.6135000000000002e+00 4.9730065436648339e+00 1.6839294303256803e+01 0 0 0
263 2 8.6135000000000002e+00 6.3938655561404980e+00 1.6839294303256803e+01 0 0 0
265 2 9.8440000000000012e+00 4.2625770374270004e+00 1.6839294303256803e+01 0 0 0
266 2 1.1074500000000002e+01 4.9730065436648339e+00 1.6839294303256803e+01 0 0 0
287 2 1.1074500000000002e+01 6.3938655561404980e+00 1.6839294303256803e+01 0 0 0
264 2 9.8440000000000012e+00 7.1042950623783341e+00 1.6839294303256803e+01 0 0 0
217 2 1.2305000000000001e+00 1.0656442593567498e+01 1.6839294303256803e+01 0 0 0
218 2 2.4610000000000003e+00 1.1366872099805333e+01 1.6839294303256803e+01 0 0 0
236 2 3.6914999999999996e+00 1.0656442593567499e+01 1.6839294303256803e+01 0 0 0
204 2 0.0000000000000000e+00 8.5251540748539991e+00 1.6839294303256803e+01 0 0 0
205 2 1.2305000000000001e+00 9.2355835810918343e+00 1.6839294303256803e+01 0 0 0
219 2 2.4610000000000003e+00 8.5251540748539991e+00 1.6839294303256803e+01 0 0 0
220 2 3.6915000000000004e+00 9.2355835810918343e+00 1.6839294303256803e+01 0 0 0
203 2 0.0000000000000000e+00 1.1366872099805333e+01 1.6839294303256803e+01 0 0 0
260 2 7.3829999999999991e+00 1.1366872099805333e+01 1.6839294303256803e+01 0 0 0
259 2 6.1524999999999999e+00 1.0656442593567499e+01 1.6839294303256803e+01 0 0 0
237 2 4.9220000000000006e+00 1.1366872099805333e+01 1.6839294303256803e+01 0 0 0
238 2 4.9220000000000006e+00 8.5251540748539991e+00 1.6839294303256803e+01 0 0 0
261 2 7.3830000000000009e+00 8.5251540748539991e+00 1.6839294303256803e+01 0 0 0
239 2 6.1524999999999999e+00 9.2355835810918343e+00 1.6839294303256803e+01 0 0 0
286 2 1.1074500000000002e+01 9.2355835810918343e+00 1.6839294303256803e+01 0 0 0
307 2 1.1074500000000002e+01 1.0656442593567498e+01 1.6839294303256803e+01 0 0 0
283 2 8.6134999999999984e+00 1.0656442593567498e+01 1.6839294303256803e+01 0 0 0
285 2 9.8440000000000012e+00 8.5251540748539956e+00 1.6839294303256803e+01 0 0 0
284 2 9.8440000000000012e+00 1.1366872099805333e+01 1.6839294303256803e+01 0 0 0
262 2 8.6134999999999984e+00 9.2355835810918343e+00 1.6839294303256803e+01 0 0 0
308 2 1.2304999999999998e+01 1.1366872099805333e+01 1.6839294303256803e+01 0 0 0
549 2 0.0000000000000000e+00 1.4208590124756650e+00 2.0029485969483861e+01 0 0 0
550 2 0.0000000000000000e+00 0.0000000000000000e+00 2.0029485969483861e+01 0 0 0
554 2 1.2305000000000001e+00 2.1312885187134998e+00 2.0029485969483861e+01 0 0 0
555 2 2.4610000000000003e+00 1.4208590124756650e+00 2.0029485969483861e+01 0 0 0
556 2 2.4610000000000003e+00 0.0000000000000000e+00 2.0029485969483861e+01 0 0 0
564 2 3.6914999999999996e+00 2.1312885187134998e+00 2.0029485969483861e+01 0 0 0
710 2 0.0000000000000000e+00 2.8417180249513345e+00 2.3219677635700695e+01 0 0 0
711 2 0.0000000000000000e+00 0.0000000000000000e+00 2.3219677635700695e+01 0 0 0
712 2 1.2305000000000001e+00 7.1042950623783474e-01 2.3219677635700695e+01 0 0 0
716 2 1.2305000000000001e+00 2.1312885187134998e+00 2.3219677635700695e+01 0 0 0
717 2 2.4610000000000003e+00 2.8417180249513345e+00 2.3219677635700695e+01 0 0 0
718 2 2.4610000000000003e+00 0.0000000000000000e+00 2.3219677635700695e+01 0 0 0
719 2 3.6915000000000004e+00 7.1042950623783474e-01 2.3219677635700695e+01 0 0 0
727 2 3.6914999999999996e+00 2.1312885187134998e+00 2.3219677635700695e+01 0 0 0
553 2 1.2305000000000001e+00 3.5521475311891644e+00 2.0029485969483861e+01 0 0 0
563 2 3.6914999999999996e+00 3.5521475311891644e+00 2.0029485969483861e+01 0 0 0
565 2 4.9220000000000006e+00 1.4208590124756650e+00 2.0029485969483861e+01 0 0 0
566 2 4.9220000000000006e+00 0.0000000000000000e+00 2.0029485969483861e+01 0 0 0
578 2 6.1524999999999999e+00 2.1312885187134989e+00 2.0029485969483861e+01 0 0 0
579 2 7.3829999999999991e+00 1.4208590124756659e+00 2.0029485969483861e+01 0 0 0
580 2 7.3829999999999991e+00 0.0000000000000000e+00 2.0029485969483861e+01 0 0 0
728 2 4.9220000000000006e+00 2.8417180249513332e+00 2.3219677635700695e+01 0 0 0
729 2 4.9220000000000006e+00 0.0000000000000000e+00 2.3219677635700695e+01 0 0 0
730 2 6.1524999999999999e+00 7.1042950623783407e-01 2.3219677635700695e+01 0 0 0
742 2 6.1524999999999999e+00 2.1312885187134989e+00 2.3219677635700695e+01 0 0 0
743 2 7.3829999999999991e+00 2.8417180249513345e+00 2.3219677635700695e+01 0 0 0
744 2 7.3829999999999991e+00 0.0000000000000000e+00 2.3219677635700695e+01 0 0 0
577 2 6.1524999999999999e+00 3.5521475311891644e+00 2.0029485969483861e+01 0 0 0
596 2 8.6134999999999984e+00 2.1312885187135002e+00 2.0029485969483861e+01 0 0 0
597 2 9.8440000000000012e+00 1.4208590124756659e+00 2.0029485969483861e+01 0 0 0
598 2 9.8440000000000012e+00 0.0000000000000000e+00 2.0029485969483861e+01 0 0 0
618 2 1.1074500000000002e+01 2.1312885187135002e+00 2.0029485969483861e+01 0 0 0
745 2 8.6134999999999984e+00 7.1042950623783407e-01 2.3219677635700695e+01 0 0 0
761 2 8.6134999999999984e+00 2.1312885187135002e+00 2.3219677635700695e+01 0 0 0
762 2 9.8440000000000012e+00 2.8417180249513332e+00 2.3219677635700695e+01 0 0 0
763 2 9.8440000000000012e+00 0.0000000000000000e+00 2.3219677635700695e+01 0 0 0
764 2 1.1074500000000002e+01 7.1042950623783330e-01 2.3219677635700695e+01 0 0 0
784 2 1.1074500000000002e+01 2.1312885187135002e+00 2.3219677635700695e+01 0 0 0
595 2 8.6134999999999984e+00 3.5521475311891657e+00 2.0029485969483861e+01 0 0 0
617 2 1.1074500000000002e+01 3.5521475311891644e+00 2.0029485969483861e+01 0 0 0
551 2 0.0000000000000000e+00 5.6834360499026637e+00 2.0029485969483861e+01 0 0 0
552 2 0.0000000000000000e+00 4.2625770374269996e+00 2.0029485969483861e+01 0 0 0
560 2 1.2305000000000001e+00 6.3938655561404980e+00 2.0029485969483861e+01 0 0 0
561 2 2.4610000000000003e+00 5.6834360499026637e+00 2.0029485969483861e+01 0 0 0
562 2 2.4610000000000003e+00 4.2625770374269996e+00 2.0029485969483861e+01 0 0 0
574 2 3.6914999999999996e+00 6.3938655561404980e+00 2.0029485969483861e+01 0 0 0
714 2 0.0000000000000000e+00 4.2625770374269996e+00 2.3219677635700695e+01 0 0 0
715 2 1.2305000000000001e+00 4.9730065436648339e+00 2.3219677635700695e+01 0 0 0
723 2 1.2305000000000001e+00 6.3938655561404980e+00 2.3219677635700695e+01 0 0 0
725 2 2.4610000000000003e+00 4.2625770374269996e+00 2.3219677635700695e+01 0 0 0
726 2 3.6914999999999996e+00 4.9730065436648339e+00 2.3219677635700695e+01 0 0 0
738 2 3.6914999999999996e+00 6.3938655561404980e+00 2.3219677635700695e+01 0 0 0
559 2 1.2305000000000001e+00 7.8147245686161639e+00 2.0029485969483861e+01 0 0 0
573 2 3.6914999999999996e+00 7.8147245686161639e+00 2.0029485969483861e+01 0 0 0
713 2 0.0000000000000000e+00 7.1042950623783341e+00 2.3219677635700695e+01 0 0 0
724 2 2.4610000000000003e+00 7.1042950623783341e+00 2.3219677635700695e+01 0 0 0
575 2 4.9220000000000006e+00 5.6834360499026637e+00 2.0029485969483861e+01 0 0 0
576 2 4.9220000000000006e+00 4.2625770374269978e+00 2.0029485969483861e+01 0 0 0
592 2 6.1524999999999999e+00 6.3938655561404980e+00 2.0029485969483861e+01 0 0 0
593 2 7.3829999999999991e+00 5.6834360499026637e+00 2.0029485969483861e+01 0 0 0
594 2 7.3829999999999991e+00 4.2625770374269996e+00 2.0029485969483861e+01 0 0 0
740 2 4.9220000000000006e+00 4.2625770374269978e+00 2.3219677635700695e+01 0 0 0
741 2 6.1524999999999999e+00 4.9730065436648339e+00 2.3219677635700695e+01 0 0 0
757 2 6.1524999999999999e+00 6.3938655561404980e+00 2.3219677635700695e+01 0 0 0
759 2 7.3829999999999991e+00 4.2625770374269996e+00 2.3219677635700695e+01 0 0 0
591 2 6.1524999999999999e+00 7.8147245686161639e+00 2.0029485969483861e+01 0 0 0
739 2 4.9220000000000006e+00 7.1042950623783341e+00 2.3219677635700695e+01 0 0 0
758 2 7.3830000000000009e+00 7.1042950623783341e+00 2.3219677635700695e+01 0 0 0
614 2 8.6135000000000002e+00 6.3938655561404980e+00 2.0029485969483861e+01 0 0 0
615 2 9.8440000000000012e+00 5.6834360499026637e+00 2.0029485969483861e+01 0 0 0
616 2 9.8440000000000012e+00 4.2625770374270004e+00 2.0029485969483861e+01 0 0 0
637 2 1.1074500000000002e+01 6.3938655561404980e+00 2.0029485969483861e+01 0 0 0
760 2 8.6135000000000002e+00 4.9730065436648339e+00 2.3219677635700695e+01 0 0 0
780 2 8.6135000000000002e+00 6.3938655561404980e+00 2.3219677635700695e+01 0 0 0
782 2 9.8440000000000012e+00 4.2625770374270004e+00 2.3219677635700695e+01 0 0 0
783 2 1.1074500000000002e+01 4.9730065436648339e+00 2.3219677635700695e+01 0 0 0
804 2 1.1074500000000002e+01 6.3938655561404980e+00 2.3219677635700695e+01 0 0 0
613 2 8.6135000000000002e+00 7.8147245686161639e+00 2.0029485969483861e+01 0 0 0
636 2 1.1074500000000002e+01 7.8147245686161639e+00 2.0029485969483861e+01 0 0 0
781 2 9.8440000000000012e+00 7.1042950623783341e+00 2.3219677635700695e+01 0 0 0
557 2 0.0000000000000000e+00 9.9460130873296642e+00 2.0029485969483861e+01 0 0 0
558 2 0.0000000000000000e+00 8.5251540748539991e+00 2.0029485969483861e+01 0 0 0
571 2 2.4610000000000003e+00 9.9460130873296642e+00 2.0029485969483861e+01 0 0 0
572 2 2.4610000000000003e+00 8.5251540748539991e+00 2.0029485969483861e+01 0 0 0
721 2 0.0000000000000000e+00 8.5251540748539991e+00 2.3219677635700695e+01 0 0 0
722 2 1.2305000000000001e+00 9.2355835810918343e+00 2.3219677635700695e+01 0 0 0
736 2 2.4610000000000003e+00 8.5251540748539991e+00 2.3219677635700695e+01 0 0 0
737 2 3.6915000000000004e+00 9.2355835810918343e+00 2.3219677635700695e+01 0 0 0
569 2 1.2305000000000001e+00 1.2077301606043163e+01 2.0029485969483861e+01 0 0 0
570 2 1.2305000000000001e+00 1.0656442593567498e+01 2.0029485969483861e+01 0 0 0
587 2 3.6914999999999996e+00 1.2077301606043163e+01 2.0029485969483861e+01 0 0 0
588 2 3.6914999999999996e+00 1.0656442593567499e+01 2.0029485969483861e+01 0 0 0
720 2 0.0000000000000000e+00 1.1366872099805333e+01 2.3219677635700695e+01 0 0 0
734 2 1.2305000000000001e+00 1.0656442593567498e+01 2.3219677635700695e+01 0 0 0
735 2 2.4610000000000003e+00 1.1366872099805333e+01 2.3219677635700695e+01 0 0 0
753 2 3.6914999999999996e+00 1.0656442593567499e+01 2.3219677635700695e+01 0 0 0
589 2 4.9220000000000006e+00 9.9460130873296642e+00 2.0029485969483861e+01 0 0 0
590 2 4.9220000000000006e+00 8.5251540748539991e+00 2.0029485969483861e+01 0 0 0
611 2 7.3830000000000009e+00 9.9460130873296642e+00 2.0029485969483861e+01 0 0 0
612 2 7.3830000000000009e+00 8.5251540748539991e+00 2.0029485969483861e+01 0 0 0
755 2 4.9220000000000006e+00 8.5251540748539991e+00 2.3219677635700695e+01 0 0 0
756 2 6.1524999999999999e+00 9.2355835810918343e+00 2.3219677635700695e+01 0 0 0
778 2 7.3830000000000009e+00 8.5251540748539991e+00 2.3219677635700695e+01 0 0 0
609 2 6.1524999999999999e+00 1.2077301606043163e+01 2.0029485969483861e+01 0 0 0
610 2 6.1524999999999999e+00 1.0656442593567499e+01 2.0029485969483861e+01 0 0 0
754 2 4.9220000000000006e+00 1.1366872099805333e+01 2.3219677635700695e+01 0 0 0
776 2 6.1524999999999999e+00 1.0656442593567499e+01 2.3219677635700695e+01 0 0 0
777 2 7.3829999999999991e+00 1.1366872099805333e+01 2.3219677635700695e+01 0 0 0
634 2 9.8440000000000012e+00 9.9460130873296642e+00 2.0029485969483861e+01 0 0 0
635 2 9.8440000000000012e+00 8.5251540748539956e+00 2.0029485969483861e+01 0 0 0
779 2 8.6134999999999984e+00 9.2355835810918343e+00 2.3219677635700695e+01 0 0 0
802 2 9.8440000000000012e+00 8.5251540748539956e+00 2.3219677635700695e+01 0 0 0
803 2 1.1074500000000002e+01 9.2355835810918343e+00 2.3219677635700695e+01 0 0 0
632 2 8.6135000000000002e+00 1.2077301606043163e+01 2.0029485969483861e+01 0 0 0
633 2 8.6134999999999984e+00 1.0656442593567498e+01 2.0029485969483861e+01 0 0 0
655 2 1.1074500000000002e+01 1.2077301606043163e+01 2.0029485969483861e+01 0 0 0
656 2 1.1074500000000002e+01 1.0656442593567498e+01 2.0029485969483861e+01 0 0 0
800 2 8.6134999999999984e+00 1.0656442593567498e+01 2.3219677635700695e+01 0 0 0
801 2 9.8440000000000012e+00 1.1366872099805333e+01 2.3219677635700695e+01 0 0 0
824 2 1.1074500000000002e+01 1.0656442593567498e+01 2.3219677635700695e+01 0 0 0
825 2 1.2304999999999998e+01 1.1366872099805333e+01 2.3219677635700695e+01 0 0 0
2723 1 3.4828423286847547e+00 1.8667373621694749e+00 2.5810809920621388e+01 3 -3 -1
113 1 1.7224184123915309e+00 2.6755269121953340e-01 2.6502386106825895e+01 -4 3 -1
42 1 1.7095836416835604e+00 8.1751216710889363e-02 2.9404544769370780e+01 1 0 1
3477 1 6.3188904851175911e+00 1.5389954880896632e+00 2.6291512742857883e+01 -6 5 -1
1012 1 6.0324903503833625e+00 1.6733385541408505e+00 2.9080641287669422e+01 1 -2 -1
3858 1 8.0924270007005088e+00 3.4561724010665560e+00 2.5274476312230380e+01 -2 2 0
536 1 1.0203681865509113e+01 1.8879427510472226e+00 2.6279430213714772e+01 1 -2 -1
481 1 9.8191309994867986e+00 3.4168728732646092e+00 2.8498296338338356e+01 0 -1 0
178 1 2.0171161290367974e+00 4.2427901036866427e+00 2.6399567192567993e+01 1 -1 -1
444 1 3.4472480713934557e+00 6.5227536442453626e+00 2.5698494418593654e+01 4 -1 0
920 1 2.1625906661792107e+00 4.4235378440117579e+00 2.9268094769935772e+01 0 -4 -1
2183 1 6.4549967597092470e+00 5.5851454020932216e+00 2.6069501349435974e+01 -2 0 0
2662 1 7.6715755633656597e+00 8.0559227904590340e+00 2.5542291291256930e+01 -1 -3 -1
2134 1 6.0407984007289874e+00 6.0904532816305972e+00 2.8923798902926976e+01 4 0 -1
3852 1 1.0582794120079182e+01 5.1178617413118683e+00 2.5630442656172583e+01 0 -5 0
3037 1 1.0003817368075246e+01 7.4626984468156810e+00 2.6587834928977298e+01 4 3 0
2602 1 1.0016556200933463e+01 7.8496343984970141e+00 2.9333207289306056e+01 1 3 -1
894 1 6.7506332804392144e-01 9.2728259252929472e+00 2.5467804728621154e+01 -3 -3 0
529 1 1.3464287061758284e-01 1.1972256863516369e+01 2.6222835611345783e+01 2 3 0
3544 1 3.0493658097900158e+00 9.0920321333926140e+00 2.6483183969233860e+01 -3 4 -1
462 1 2.8141065590217713e+00 9.3728348522770037e+00 2.9359340040100456e+01 -6 -1 0
3422 1 4.5612368816294842e+00 1.1186875167382373e+01 2.5580215301603985e+01 2 -2 -1
3709 1 7.1971837908809118e+00 1.0754869167734633e+01 2.6318069686691871e+01 0 -2 -1
477 1 7.0061312434844076e+00 1.0739872980086199e+01 2.9034637896805219e+01 -5 1 0
3834 1 1.1314620702728400e+01 1.1734166684143895e+01 2.6635149247275187e+01 -2 2 -1
1345 1 1.1014586994717463e+01 1.1898129450196096e+01 2.9305879749529737e+01 0 0 -1
3008 1 1.1810474813269535e+01 9.2746036890556418e+00 2.5384550547133582e+01 5 3 -1
3058 1 3.3934815546750090e+00 2.2471835543395962e+00 3.2852403673164844e+01 1 0 0
914 1 3.4541393936032048e+00 2.0811231437749047e+00 3.0086397818419822e+01 3 1 0
933 1 1.9773372464981729e+00 4.0713931796918834e-01 3.4124071456524632e+01 2 -1 -1
74 1 5.7161792779602028e+00 1.8763161635461891e+00 3.3956804139265287e+01 1 3 -1
2160 1 6.9463669053301036e+00 3.9217496440240422e+00 3.2491894065325511e+01 -1 0 -1
1299 1 7.2568274278878482e+00 3.8754995953316724e+00 2.9753788188107389e+01 -1 -2 0
38 1 9.2920454033945479e+00 3.5736605401844468e+00 3.3856148531231369e+01 2 0 -1
162 1 1.1144895074504763e+01 1.5648429923187910e+00 3.2864406221146211e+01 0 0 0
4341 1 1.1085121009363545e+01 1.3353041663658165e+00 2.9987227300898589e+01 -3 2 -1
3749 1 2.5344939374562250e+00 4.6989479921901678e+00 3.3595303026741917e+01 0 0 -1
3811 1 3.4569005725592059e+00 6.8249925603929853e+00 3.0085567053489275e+01 0 -1 0
1756 1 3.6867759645386897e+00 7.0630024784809908e+00 3.2732930497225496e+01 -7 3 -1
1369 1 6.0301763174939413e+00 6.1580684926403970e+00 3.3633984434836833e+01 -3 1 0
176 1 1.0735559670452531e+01 5.6789277888113840e+00 3.2782381026377266e+01 3 -2 -1
883 1 1.1273809767099387e+01 5.3395938476686586e+00 2.9986930500724736e+01 -1 1 -1
532 1 2.9290546549493190e+00 9.2451727239605574e+00 3.4102564662234258e+01 0 3 -1
4326 1 2.5050553932938230e-01 9.8887269046990571e+00 3.0463274238429520e+01 3 4 -1
1823 1 4.7598293865641556e-01 9.6206827463978826e+00 3.3396130704450016e+01 -1 1 -1
2999 1 7.2452212918112728e+00 8.3122390452181776e+00 3.2700803201214228e+01 -4 2 0
2564 1 7.3567064228009702e+00 8.2692471868545372e+00 3.0038569473591178e+01 1 -2 -1
3837 1 4.5492080444172425e+00 1.1226685743300340e+01 3.0298070576750291e+01 1 -10 0
1216 1 4.5186854644625418e+00 1.1289286637847901e+01 3.3045775870314728e+01 2 -2 0
1397 1 6.8912299535841450e+00 1.0995553400570875e+01 3.3895689463030166e+01 -3 2 -1
4237 1 9.8025450960759386e+00 8.2516244851746929e+00 3.3550262873604069e+01 0 0 -1
18 1 1.1678723647302759e+01 9.9788904482953313e+00 3.2808559540307115e+01 0 5 0
2247 1 1.1851796885556652e+01 9.5644214453615604e+00 3.0081645963159623e+01 1 -4 0
3450 1 2.2095558537167825e+00 5.8039456029559156e-01 3.6851724224459204e+01 2 3 -1
1836 1 1.1150039482092495e+00 3.0239812533942088e+00 3.7470509238575119e+01 0 1 -1
92 1 6.0948236684295303e+00 1.9924288692798890e+00 3.6655486891391888e+01 -2 2 -1
3784 1 1.2061173484419591e+01 9.3871053510805103e-01 3.6061296112964428e+01 -1 -2 0
2978 1 8.5518928057280341e+00 1.7018272439265736e+00 3.7596588421550607e+01 1 2 0
2076 1 9.4759349471553342e+00 3.7633574066762168e+00 3.6409055291875219e+01 -2 0 -1
1759 1 1.1656778302325586e+01 3.1842094903069578e+00 3.7752688902723605e+01 -2 0 0
60 1 2.8762164462130468e+00 4.9871657038363049e+00 3.6274005072743549e+01 -1 -1 -1
4704 1 1.4367609516741902e+00 7.1777718275568683e+00 3.7525048957594663e+01 2 -3 1
3434 1 5.0799626766125732e+00 4.2449710994312895e+00 3.7643499695812253e+01 1 4 -1
1344 1 6.2553710584130648e+00 6.2983071603376608e+00 3.6425655093804963e+01 -2 -1 0
1230 1 8.7013419401376915e+00 6.3106143360865268e+00 3.7411883480911811e+01 -3 5 0
2598 1 2.8267265019256707e+00 9.5561855542635517e+00 3.6873296838773555e+01 -1 0 0
2967 1 1.9150963892317807e+00 1.2069613325461816e+01 3.7600487810928115e+01 2 0 0
900 1 6.9413987064037608e+00 1.0919187767153529e+01 3.6665718963654143e+01 1 -2 -1
1313 1 5.4127963089689786e+00 8.6830457921768147e+00 3.7343655906184893e+01 3 5 -1
1221 1 9.3235910547753260e+00 1.0866063956638035e+01 3.7735071071310514e+01 0 -1 0
3541 1 1.0445115348756621e+01 8.3264037941705791e+00 3.6449583039480487e+01 3 4 0
1039 1 1.4736137887562473e+00 1.3768874907777489e+01 3.6945546866786536e+00 -2 0 -1
1336 1 3.1893492623205044e+00 1.5890584124375138e+01 2.7052110635169182e+00 5 -1 0
1292 1 5.5885785239189829e+00 1.5391951989109918e+01 3.6982180280392307e+00 1 1 2
3431 1 6.4085800444474135e+00 1.3035886572218111e+01 3.1670881036021417e+00 -1 3 1
941 1 1.0295243889297129e+01 1.4698668141173462e+01 2.5693039429430042e+00 -2 -1 0
1204 1 9.0963466401892177e+00 1.2671476203340671e+01 3.7520932271039955e+00 -3 -4 1
4575 1 2.4351792639773517e+00 1.8345852480068352e+01 3.0424285388982470e+00 0 1 1
3840 1 3.8375211674147653e+00 2.0379126360537480e+01 2.4820067408516868e+00 -4 1 1
4244 1 6.9285886576952285e+00 1.7335692788312137e+01 2.6674344692531888e+00 -4 0 0
2885 1 6.1348033707192933e+00 1.9816766722208680e+01 3.4100947496149221e+00 2 4 0
910 1 9.4532976042984593e+00 1.7117681983095917e+01 3.5314537313724093e+00 1 -1 0
4587 1 1.1414080356551940e+01 1.8950361245991214e+01 2.7381716543767025e+00 2 3 1
1380 1 2.9060153974835532e+00 2.2884467459347530e+01 3.3650718126434627e+00 0 -3 1
4612 1 3.0872991721880561e-01 2.3196376107768277e+01 2.2176851276416776e+00 -3 3 2
2699 1 7.1152334085210613e+00 2.4456493844604978e+01 3.6716978303241223e+00 -1 0 0
2961 1 7.8628135434517743e+00 2.1884893428318623e+01 2.7909404836108633e+00 -1 0 0
2688 1 1.0597994117362360e+01 2.1387801804328536e+01 3.4901763476334788e+00 5 2 0
3761 1 1.2090504713383599e+00 1.3815434664855163e+01 6.3454438012704815e+00 3 3 0
4548 1 2.9030720727606885e+00 1.5985771384220076e+01 9.9019140285584726e+00 -1 -3 1
121 1 3.0456295299802303e+00 1.5917965788571381e+01 7.1824639702484507e+00 -2 4 1
1864 1 6.0606185851903698e+00 1.2883216464484168e+01 1.0141533483014467e+01 0 0 0
2138 1 5.4914093659127134e+00 1.5593992168789013e+01 6.4526718169043997e+00 1 5 0
1709 1 6.4274892223783686e+00 1.3069132291612378e+01 7.4185395563248431e+00 1 0 0
4559 1 1.0565989402927428e+01 1.4701183203144257e+01 7.3304561413010800e+00 4 2 0
1722 1 1.0082507896134635e+01 1.4737849793859700e+01 1.0120944025134495e+01 -1 -4 1
1023 1 9.0404358683360204e+00 1.2577226499781171e+01 6.6334317365963082e+00 -2 -1 0
3873 1 2.3099606990966466e+00 1.8397954213532369e+01 5.8975375645120085e+00 -2 -2 1
4545 1 3.6825737088068107e+00 2.0258329214453344e+01 9.9301618941320395e+00 -1 -3 2
3826 1 3.5877095255844611e+00 2.0298905723665204e+01 7.1194674459078007e+00 1 -5 1
3429 1 6.1935980906210695e+00 1.9786033106597351e+01 6.2561077007095038e+00 -3 1 1
4565 1 7.0376926117553742e+00 1.7437594840636649e+01 6.9449548141583017e+00 0 3 1
2601 1 6.9047698747452415e+00 1.7443306514164735e+01 9.7543483511198605e+00 4 1 0
2188 1 9.6938248659211546e+00 1.7072845651948573e+01 6.2172961057487273e+00 3 0 1
4338 1 1.1482648271869367e+01 1.9179606453161639e+01 7.1757825930554047e+00 -1 -1 1
2143 1 1.1307609978712556e+01 1.9058230431264381e+01 1.0016790695837052e+01 0 6 1
4241 1 2.8482659743827848e-01 2.3130284969681263e+01 7.1465652783551716e+00 3 0 1
1797 1 2.8207480367408047e+00 2.2845462725445170e+01 6.3353420301747576e+00 2 1 1
3029 1 4.5698309104867429e-01 2.3113560311925490e+01 9.9522143923298483e+00 1 0 0
2067 1 7.1055373017163754e+00 2.4261446463983443e+01 6.4702678400861009e+00 -2 0 1