LAMMPS data file via write_data, version 16 Mar 2018, timestep = 100000

5031 atoms
2 atom types

0.0000000000000000e+00 4.9219999999999999e+01 xlo xhi
0.0000000000000000e+00 4.9019635930410494e+01 ylo yhi
1.1314009214075114e+00 3.8868599078595508e+01 zlo zhi

Masses

1 18.015
2 12.01

Atoms # atomic

140 2 0.0000000000000000e+00 2.8417180249513345e+00 3.1513608938708062e+00 0 0 0
142 2 0.0000000000000000e+00 0.0000000000000000e+00 3.1513608938708062e+00 0 0 0
144 2 1.2305000000000001e+00 7.1042950623783474e-01 3.1513608938708062e+00 0 0 0
151 2 1.2305000000000001e+00 2.1312885187134998e+00 3.1513608938708062e+00 0 0 0
153 2 2.4610000000000003e+00 2.8417180249513345e+00 3.1513608938708062e+00 0 0 0
155 2 2.4610000000000003e+00 0.0000000000000000e+00 3.1513608938708062e+00 0 0 0
157 2 3.6915000000000004e+00 7.1042950623783474e-01 3.1513608938708062e+00 0 0 0
172 2 3.6914999999999996e+00 2.1312885187134998e+00 3.1513608938708062e+00 0 0 0
174 2 4.9220000000000006e+00 2.8417180249513332e+00 3.1513608938708062e+00 0 0 0
176 2 4.9220000000000006e+00 0.0000000000000000e+00 3.1513608938708062e+00 0 0 0
178 2 6.1524999999999999e+00 7.1042950623783407e-01 3.1513608938708062e+00 0 0 0
201 2 6.1524999999999999e+00 2.1312885187134989e+00 3.1513608938708062e+00 0 0 0
203 2 7.3829999999999991e+00 2.8417180249513345e+00 3.1513608938708062e+00 0 0 0
205 2 7.3829999999999991e+00 0.0000000000000000e+00 3.1513608938708062e+00 0 0 0
207 2 8.6134999999999984e+00 7.1042950623783407e-01 3.1513608938708062e+00 0 0 0
238 2 8.6134999999999984e+00 2.1312885187135002e+00 3.1513608938708062e+00 0 0 0
147 2 0.0000000000000000e+00 4.2625770374269996e+00 3.1513608938708062e+00 0 0 0
149 2 1.2305000000000001e+00 4.9730065436648339e+00 3.1513608938708062e+00 0 0 0
164 2 1.2305000000000001e+00 6.3938655561404980e+00 3.1513608938708062e+00 0 0 0
168 2 2.4610000000000003e+00 4.2625770374269996e+00 3.1513608938708062e+00 0 0 0
170 2 3.6914999999999996e+00 4.9730065436648339e+00 3.1513608938708062e+00 0 0 0
193 2 3.6914999999999996e+00 6.3938655561404980e+00 3.1513608938708062e+00 0 0 0
145 2 0.0000000000000000e+00 7.1042950623783341e+00 3.1513608938708062e+00 0 0 0
166 2 2.4610000000000003e+00 7.1042950623783341e+00 3.1513608938708062e+00 0 0 0
197 2 4.9220000000000006e+00 4.2625770374269978e+00 3.1513608938708062e+00 0 0 0
199 2 6.1524999999999999e+00 4.9730065436648339e+00 3.1513608938708062e+00 0 0 0
230 2 6.1524999999999999e+00 6.3938655561404980e+00 3.1513608938708062e+00 0 0 0
234 2 7.3829999999999991e+00 4.2625770374269996e+00 3.1513608938708062e+00 0 0 0
236 2 8.6135000000000002e+00 4.9730065436648339e+00 3.1513608938708062e+00 0 0 0
275 2 8.6135000000000002e+00 6.3938655561404980e+00 3.1513608938708062e+00 0 0 0
195 2 4.9220000000000006e+00 7.1042950623783341e+00 3.1513608938708062e+00 0 0 0
232 2 7.3830000000000009e+00 7.1042950623783341e+00 3.1513608938708062e+00 0 0 0
160 2 0.0000000000000000e+00 8.5251540748539991e+00 3.1513608938708062e+00 0 0 0
162 2 1.2305000000000001e+00 9.2355835810918343e+00 3.1513608938708062e+00 0 0 0
189 2 2.4610000000000003e+00 8.5251540748539991e+00 3.1513608938708062e+00 0 0 0
191 2 3.6915000000000004e+00 9.2355835810918343e+00 3.1513608938708062e+00 0 0 0
158 2 0.0000000000000000e+00 1.1366872099805333e+01 3.1513608938708062e+00 0 0 0
185 2 1.2305000000000001e+00 1.0656442593567498e+01 3.1513608938708062e+00 0 0 0
187 2 2.4610000000000003e+00 1.1366872099805333e+01 3.1513608938708062e+00 0 0 0
222 2 3.6914999999999996e+00 1.0656442593567499e+01 3.1513608938708062e+00 0 0 0
226 2 4.9220000000000006e+00 8.5251540748539991e+00 3.1513608938708062e+00 0 0 0
228 2 6.1524999999999999e+00 9.2355835810918343e+00 3.1513608938708062e+00 0 0 0
271 2 7.3830000000000009e+00 8.5251540748539991e+00 3.1513608938708062e+00 0 0 0
273 2 8.6134999999999984e+00 9.2355835810918343e+00 3.1513608938708062e+00 0 0 0
224 2 4.9220000000000006e+00 1.1366872099805333e+01 3.1513608938708062e+00 0 0 0
267 2 6.1524999999999999e+00 1.0656442593567499e+01 3.1513608938708062e+00 0 0 0
269 2 7.3829999999999991e+00 1.1366872099805333e+01 3.1513608938708062e+00 0 0 0
314 2 8.6134999999999984e+00 1.0656442593567498e+01 3.1513608938708062e+00 0 0 0
141 2 0.0000000000000000e+00 1.4208590124756650e+00 6.2354811559438010e+00 0 0 0
143 2 0.0000000000000000e+00 0.0000000000000000e+00 6.2354811559438010e+00 0 0 0
152 2 1.2305000000000001e+00 2.1312885187134998e+00 6.2354811559438010e+00 0 0 0
154 2 2.4610000000000003e+00 1.4208590124756650e+00 6.2354811559438010e+00 0 0 0
156 2 2.4610000000000003e+00 0.0000000000000000e+00 6.2354811559438010e+00 0 0 0
173 2 3.6914999999999996e+00 2.1312885187134998e+00 6.2354811559438010e+00 0 0 0
150 2 1.2305000000000001e+00 3.5521475311891644e+00 6.2354811559438010e+00 0 0 0
171 2 3.6914999999999996e+00 3.5521475311891644e+00 6.2354811559438010e+00 0 0 0
469 2 0.0000000000000000e+00 2.8417180249513345e+00 9.3196014180161022e+00 0 0 0
470 2 0.0000000000000000e+00 0.0000000000000000e+00 9.3196014180161022e+00 0 0 0
471 2 1.2305000000000001e+00 7.1042950623783474e-01 9.3196014180161022e+00 0 0 0
475 2 1.2305000000000001e+00 2.1312885187134998e+00 9.3196014180161022e+00 0 0 0
476 2 2.4610000000000003e+00 2.8417180249513345e+00 9.3196014180161022e+00 0 0 0
477 2 2.4610000000000003e+00 0.0000000000000000e+00 9.3196014180161022e+00 0 0 0
478 2 3.6915000000000004e+00 7.1042950623783474e-01 9.3196014180161022e+00 0 0 0
486 2 3.6914999999999996e+00 2.1312885187134998e+00 9.3196014180161022e+00 0 0 0
175 2 4.9220000000000006e+00 1.4208590124756650e+00 6.2354811559438010e+00 0 0 0
177 2 4.9220000000000006e+00 0.0000000000000000e+00 6.2354811559438010e+00 0 0 0
202 2 6.1524999999999999e+00 2.1312885187134989e+00 6.2354811559438010e+00 0 0 0
204 2 7.3829999999999991e+00 1.4208590124756659e+00 6.2354811559438010e+00 0 0 0
206 2 7.3829999999999991e+00 0.0000000000000000e+00 6.2354811559438010e+00 0 0 0
239 2 8.6134999999999984e+00 2.1312885187135002e+00 6.2354811559438010e+00 0 0 0
200 2 6.1524999999999999e+00 3.5521475311891644e+00 6.2354811559438010e+00 0 0 0
237 2 8.6134999999999984e+00 3.5521475311891657e+00 6.2354811559438010e+00 0 0 0
487 2 4.9220000000000006e+00 2.8417180249513332e+00 9.3196014180161022e+00 0 0 0
488 2 4.9220000000000006e+00 0.0000000000000000e+00 9.3196014180161022e+00 0 0 0
489 2 6.1524999999999999e+00 7.1042950623783407e-01 9.3196014180161022e+00 0 0 0
501 2 6.1524999999999999e+00 2.1312885187134989e+00 9.3196014180161022e+00 0 0 0
502 2 7.3829999999999991e+00 2.8417180249513345e+00 9.3196014180161022e+00 0 0 0
503 2 7.3829999999999991e+00 0.0000000000000000e+00 9.3196014180161022e+00 0 0 0
504 2 8.6134999999999984e+00 7.1042950623783407e-01 9.3196014180161022e+00 0 0 0
520 2 8.6134999999999984e+00 2.1312885187135002e+00 9.3196014180161022e+00 0 0 0
146 2 0.0000000000000000e+00 5.6834360499026637e+00 6.2354811559438010e+00 0 0 0
148 2 0.0000000000000000e+00 4.2625770374269996e+00 6.2354811559438010e+00 0 0 0
165 2 1.2305000000000001e+00 6.3938655561404980e+00 6.2354811559438010e+00 0 0 0
167 2 2.4610000000000003e+00 5.6834360499026637e+00 6.2354811559438010e+00 0 0 0
169 2 2.4610000000000003e+00 4.2625770374269996e+00 6.2354811559438010e+00 0 0 0
194 2 3.6914999999999996e+00 6.3938655561404980e+00 6.2354811559438010e+00 0 0 0
163 2 1.2305000000000001e+00 7.8147245686161639e+00 6.2354811559438010e+00 0 0 0
192 2 3.6914999999999996e+00 7.8147245686161639e+00 6.2354811559438010e+00 0 0 0
473 2 0.0000000000000000e+00 4.2625770374269996e+00 9.3196014180161022e+00 0 0 0
474 2 1.2305000000000001e+00 4.9730065436648339e+00 9.3196014180161022e+00 0 0 0
482 2 1.2305000000000001e+00 6.3938655561404980e+00 9.3196014180161022e+00 0 0 0
484 2 2.4610000000000003e+00 4.2625770374269996e+00 9.3196014180161022e+00 0 0 0
485 2 3.6914999999999996e+00 4.9730065436648339e+00 9.3196014180161022e+00 0 0 0
497 2 3.6914999999999996e+00 6.3938655561404980e+00 9.3196014180161022e+00 0 0 0
472 2 0.0000000000000000e+00 7.1042950623783341e+00 9.3196014180161022e+00 0 0 0
483 2 2.4610000000000003e+00 7.1042950623783341e+00 9.3196014180161022e+00 0 0 0
196 2 4.9220000000000006e+00 5.6834360499026637e+00 6.2354811559438010e+00 0 0 0
198 2 4.9220000000000006e+00 4.2625770374269978e+00 6.2354811559438010e+00 0 0 0
231 2 6.1524999999999999e+00 6.3938655561404980e+00 6.2354811559438010e+00 0 0 0
233 2 7.3829999999999991e+00 5.6834360499026637e+00 6.2354811559438010e+00 0 0 0
235 2 7.3829999999999991e+00 4.2625770374269996e+00 6.2354811559438010e+00 0 0 0
276 2 8.6135000000000002e+00 6.3938655561404980e+00 6.2354811559438010e+00 0 0 0
229 2 6.1524999999999999e+00 7.8147245686161639e+00 6.2354811559438010e+00 0 0 0
274 2 8.6135000000000002e+00 7.8147245686161639e+00 6.2354811559438010e+00 0 0 0
499 2 4.9220000000000006e+00 4.2625770374269978e+00 9.3196014180161022e+00 0 0 0
500 2 6.1524999999999999e+00 4.9730065436648339e+00 9.3196014180161022e+00 0 0 0
516 2 6.1524999999999999e+00 6.3938655561404980e+00 9.3196014180161022e+00 0 0 0
518 2 7.3829999999999991e+00 4.2625770374269996e+00 9.3196014180161022e+00 0 0 0
519 2 8.6135000000000002e+00 4.9730065436648339e+00 9.3196014180161022e+00 0 0 0
539 2 8.6135000000000002e+00 6.3938655561404980e+00 9.3196014180161022e+00 0 0 0
498 2 4.9220000000000006e+00 7.1042950623783341e+00 9.3196014180161022e+00 0 0 0
517 2 7.3830000000000009e+00 7.1042950623783341e+00 9.3196014180161022e+00 0 0 0
159 2 0.0000000000000000e+00 9.9460130873296642e+00 6.2354811559438010e+00 0 0 0
161 2 0.0000000000000000e+00 8.5251540748539991e+00 6.2354811559438010e+00 0 0 0
188 2 2.4610000000000003e+00 9.9460130873296642e+00 6.2354811559438010e+00 0 0 0
190 2 2.4610000000000003e+00 8.5251540748539991e+00 6.2354811559438010e+00 0 0 0
184 2 1.2305000000000001e+00 1.2077301606043163e+01 6.2354811559438010e+00 0 0 0
186 2 1.2305000000000001e+00 1.0656442593567498e+01 6.2354811559438010e+00 0 0 0
221 2 3.6914999999999996e+00 1.2077301606043163e+01 6.2354811559438010e+00 0 0 0
223 2 3.6914999999999996e+00 1.0656442593567499e+01 6.2354811559438010e+00 0 0 0
480 2 0.0000000000000000e+00 8.5251540748539991e+00 9.3196014180161022e+00 0 0 0
481 2 1.2305000000000001e+00 9.2355835810918343e+00 9.3196014180161022e+00 0 0 0
495 2 2.4610000000000003e+00 8.5251540748539991e+00 9.3196014180161022e+00 0 0 0
496 2 3.6915000000000004e+00 9.2355835810918343e+00 9.3196014180161022e+00 0 0 0
479 2 0.0000000000000000e+00 1.1366872099805333e+01 9.3196014180161022e+00 0 0 0
493 2 1.2305000000000001e+00 1.0656442593567498e+01 9.3196014180161022e+00 0 0 0
494 2 2.4610000000000003e+00 1.1366872099805333e+01 9.3196014180161022e+00 0 0 0
512 2 3.6914999999999996e+00 1.0656442593567499e+01 9.3196014180161022e+00 0 0 0
536 2 7.3829999999999991e+00 1.1366872099805333e+01 9.3196014180161022e+00 0 0 0
559 2 8.6134999999999984e+00 1.0656442593567498e+01 9.3196014180161022e+00 0 0 0
225 2 4.9220000000000006e+00 9.9460130873296642e+00 6.2354811559438010e+00 0 0 0
227 2 4.9220000000000006e+00 8.5251540748539991e+00 6.2354811559438010e+00 0 0 0
270 2 7.3830000000000009e+00 9.9460130873296642e+00 6.2354811559438010e+00 0 0 0
272 2 7.3830000000000009e+00 8.5251540748539991e+00 6.2354811559438010e+00 0 0 0
266 2 6.1524999999999999e+00 1.2077301606043163e+01 6.2354811559438010e+00 0 0 0
268 2 6.1524999999999999e+00 1.0656442593567499e+01 6.2354811559438010e+00 0 0 0
313 2 8.6135000000000002e+00 1.2077301606043163e+01 6.2354811559438010e+00 0 0 0
315 2 8.6134999999999984e+00 1.0656442593567498e+01 6.2354811559438010e+00 0 0 0
514 2 4.9220000000000006e+00 8.5251540748539991e+00 9.3196014180161022e+00 0 0 0
515 2 6.1524999999999999e+00 9.2355835810918343e+00 9.3196014180161022e+00 0 0 0
537 2 7.3830000000000009e+00 8.5251540748539991e+00 9.3196014180161022e+00 0 0 0
538 2 8.6134999999999984e+00 9.2355835810918343e+00 9.3196014180161022e+00 0 0 0
513 2 4.9220000000000006e+00 1.1366872099805333e+01 9.3196014180161022e+00 0 0 0
535 2 6.1524999999999999e+00 1.0656442593567499e+01 9.3196014180161022e+00 0 0 0
4794 1 4.3194744950474444e+00 3.1107801111763478e+00 1.4745873295094231e+01 1 0 0
25 1 2.9872451569618761e+00 1.9256124985304663e+00 1.2062839962782098e+01 0 1 0
2331 1 5.1007361753076719e+00 3.8876633178083342e+00 1.1474362695594216e+01 0 1 0
4141 1 5.7164509341861232e+00 6.2949263356258074e+00 1.8558779770245923e+01 -1 1 -1
4048 1 8.8291681090283092e+00 1.1176150455733763e+01 1.2333762642141059e+01 0 1 0
1718 1 3.9168383136965534e+00 6.3091703089362303e+00 1.2028577850979037e+01 0 1 0
1777 1 7.5544026358642649e+00 3.8104890233293491e+00 1.2315999078266691e+01 1 0 0
5024 1 8.8044534896673490e+00 6.4663394893401263e+00 1.2229189288236904e+01 0 1 -1
4954 1 9.7661048406239948e-01 1.1231675636280624e+01 1.7351005924178683e+01 1 0 0
43 1 3.0942637787406184e+00 4.6697968467516537e-01 1.9246703158828261e+01 -1 1 0
2589 1 6.9239743346711009e+00 8.5730192196810773e+00 1.4936851982753611e+01 0 0 0
2621 1 4.4488510325013912e+00 9.3258516618414440e+00 1.2193719936990361e+01 0 0 -1
1583 1 7.1264450676687190e+00 8.7063761501003203e+00 1.2160771381739583e+01 0 -1 0
4963 1 4.1542731833433262e+00 9.5177358561769019e+00 1.4758990677246691e+01 1 1 0
2671 1 2.3416639968112374e-01 2.6477414565732604e+00 1.2154601954645164e+01 1 1 0
1485 1 7.6755915682844611e-01 6.0236985000895631e+00 1.4953244219095527e+01 1 1 1
4197 1 8.5895869026499536e+00 1.1190201110868305e+01 1.8338553175629908e+01 1 1 0
4016 1 2.4604770176079276e+00 2.5985113121596246e+00 1.7183402750749760e+01 1 1 0
2314 1 9.4195687027385073e+00 6.8509893457506728e+00 1.5003546080863096e+01 1 0 0
899 1 4.8879356011077499e+00 3.6510704750361791e+00 1.9686504055128598e+01 0 1 0
1525 1 7.2957610797751427e+00 3.6624475627628152e+00 1.5185362679001628e+01 0 -1 -1
1732 1 5.9599519771662139e+00 2.2022847025320864e+00 1.7468689401113984e+01 0 0 0
5019 1 1.0138444898377663e+00 6.9985807272145708e+00 1.8958960205519524e+01 1 1 0
4288 1 8.6951439278356606e+00 1.3892497303933040e+00 1.1940815468907694e+01 1 1 0
4351 1 3.6280073405804298e+00 6.0891462049909757e+00 1.4579667552835300e+01 1 0 1
2561 1 7.7742286454291643e+00 7.0102264632157993e+00 1.9463137255226496e+01 2 0 1
1572 1 1.3415620505926531e+00 7.8798860015114034e+00 1.1667004279880084e+01 0 2 0
1567 1 6.0352195758696237e+00 5.9306772383877639e+00 1.5643244633821203e+01 -1 0 0
3319 1 9.7151298115140055e+00 4.3636886111101365e+00 1.8755880909324326e+01 1 0 0
1558 1 9.4270087481420397e+00 1.1308588962906306e+01 1.5211399787664305e+01 0 0 -1
2402 1 6.6475446103320293e+00 1.1036639568826697e+01 1.6400357898871651e+01 2 1 -1
1801 1 1.4426289674681330e+00 8.7882856498750197e+00 1.4333776597155389e+01 1 1 1
2458 1 9.3314853387450967e+00 8.3536779967160211e+00 1.7607697958732235e+01 -1 0 0
3333 1 3.8881129863851189e+00 1.1522777684262454e+01 1.7792512141561659e+01 2 0 0
1574 1 1.7637785472318404e+00 3.9455124629316263e+00 1.9892933021120633e+01 0 0 0
5026 1 4.9264694834846523e-02 1.2943737659692778e+00 1.4963616616702964e+01 0 0 0
111 1 4.4058569641941592e+00 1.2148920062675986e+01 1.1971408733771469e+01 0 -1 0
4782 1 1.2800660279725806e-01 5.3380261740936605e+00 1.2195148398144713e+01 1 2 0
2409 1 2.6739039168450307e+00 3.8211784192680498e-01 1.4584884635117001e+01 0 0 0
81 1 3.8628362892194654e+00 7.6568570470689394e+00 1.9881781805251979e+01 0 1 0
3970 1 8.4036909460978215e+00 1.2043558099173401e+01 2.7722240712308825e+01 1 0 0
5016 1 4.8296027058473605e+00 2.4359419209143938e+00 2.2438369609369623e+01 -1 1 -1
830 1 8.4385829688292979e+00 2.8154815354714202e+00 2.1056765174635867e+01 0 0 0
4028 1 4.6352308754438791e+00 4.0672210208727035e+00 2.4739785964866741e+01 0 1 0
2517 1 2.3007388717628237e+00 2.5193297707067552e+00 2.8796860615941188e+01 1 1 0
20 1 6.4082054225039786e-01 6.8904376269901482e+00 2.5867488848649351e+01 1 2 0
4322 1 7.3244960110147117e+00 1.4256649336222134e+00 2.3881603569523570e+01 1 0 1
4921 1 8.3869241650634301e+00 5.7137121953410261e+00 2.1731645953471354e+01 1 0 -1
3374 1 6.1765687852672606e+00 2.5825410440408669e-01 2.8765372669946327e+01 0 1 -1
4264 1 8.8137045345137359e+00 1.1427167909203342e-01 2.0458071601119986e+01 1 0 0
658 1 1.5626454853013407e+00 1.8182881304829133e+00 2.3427060251848957e+01 0 0 0
3501 1 4.4127460426489291e+00 6.7878863268707939e+00 2.2485613190979237e+01 0 0 0
2610 1 2.3835615946651560e+00 4.6711018811475746e+00 2.2722904551743643e+01 0 0 0
4310 1 6.7568857437448884e+00 5.5079975948894475e+00 2.4062846906981360e+01 0 0 0
1824 1 3.0925089850929495e+00 1.0840649536890426e+01 2.2160131083215859e+01 1 0 0
3355 1 4.6107356200342431e-01 1.0997085962544489e+01 2.1684809941415082e+01 0 0 0
2488 1 5.4590603276570526e+00 7.8098796689972811e+00 2.7610205955210770e+01 0 1 0
3364 1 9.4394396263347407e+00 9.9705510054945989e+00 2.6226767059415202e+01 1 1 -1
3418 1 1.8798816280407205e+00 8.8577067040875512e+00 2.9073524044009424e+01 0 0 0
754 1 6.4962174038587435e+00 1.0412461799296487e+01 2.4462300196936521e+01 0 0 -1
919 1 5.6526838331211096e+00 1.7098708065659629e+00 2.6307609745902841e+01 1 1 0
4352 1 1.4460524853646273e+00 9.7956943034742689e+00 2.6063210413720522e+01 0 1 0
1472 1 6.9408719205863276e+00 3.6092522193207652e+00 2.8184280906464689e+01 1 0 0
2479 1 9.5639718644864811e+00 1.0998400153554298e+01 2.3188835309765089e+01 0 1 0
3436 1 7.4712049887445362e+00 7.8645782528501567e+00 2.5631768673511132e+01 1 0 0
3524 1 3.7658238098413190e+00 9.2901591057297228e+00 2.4262926468206810e+01 0 -1 0
4885 1 3.6783197357747408e+00 6.6694959159238767e+00 2.5579345821194000e+01 0 1 -1
2387 1 2.7359770289642071e+00 1.2492444107094258e+00 2.6028131555849580e+01 0 1 0
3978 1 8.2148273042617532e+00 3.8711909983082271e+00 2.5839265010406510e+01 0 0 0
3988 1 5.5906697997035759e-01 4.3615504083100092e+00 2.7651554773579416e+01 1 1 -1
4263 1 7.3943917845922629e+00 9.9768646851460936e+00 2.0614151116343649e+01 0 -1 0
3449 1 9.5416238484790927e+00 7.8520419846561085e+00 2.8132110631280376e+01 0 1 0
721 1 4.4607728231521975e+00 1.0057888961165924e+01 2.9015161870823501e+01 0 1 0
2598 1 4.7718704781986174e+00 1.0091537733291883e+01 2.0096226070810044e+01 0 1 0
3166 1 4.9015620301908891e+00 2.7239291899557472e+00 2.9745161010122736e+01 0 1 0
2347 1 6.9142479104800287e+00 1.1530338252482229e+01 3.0042716793973025e+01 0 -1 0
4214 1 4.4638668533722470e+00 2.0285037895046831e+00 3.2593972075234646e+01 -1 1 -1
1716 1 8.4341873347902787e+00 4.6120155013680533e+00 3.2691758248373134e+01 1 0 -1
2584 1 5.5054330211579297e+00 4.7320459839920161e+00 3.3200812262465412e+01 0 0 0
714 1 7.6323554984852180e+00 3.1717240910813094e+00 3.5818394978649906e+01 1 0 0
2483 1 1.8878222353927874e+00 4.2698626249236646e+00 3.3595765400655111e+01 1 0 -1
4035 1 2.2692178638224347e+00 7.0524434126475208e+00 3.3691495976846923e+01 0 0 0
3370 1 4.3158514518753215e+00 6.8991002987049868e+00 3.1756624669862788e+01 0 0 0
931 1 8.1213069145530330e+00 6.8636127556209727e+00 3.0444308939970615e+01 0 0 1
1674 1 4.4785382870120358e+00 9.9812601425216272e+00 3.1962283527951385e+01 1 0 -1
959 1 4.6997382781716261e+00 1.0063353244743082e+01 3.5940979414480850e+01 1 1 1
961 1 3.0546044825867082e+00 9.0149840445373695e+00 3.8777519885359801e+01 0 -1 -1
2665 1 8.0409377815093797e-01 1.0735835478168616e+01 3.7901090278508008e+01 0 -1 0
5025 1 6.6876241717834759e+00 1.0268926344682772e+01 3.3767636107034967e+01 1 1 -1
799 1 8.1996644887607051e+00 9.4932026633596180e+00 3.1465688389747548e+01 0 0 -1
2696 1 2.3136292071309379e+00 1.1448181878571413e+01 3.2428174786239566e+01 1 0 1
3995 1 2.8899490627643813e+00 2.2831733145363375e+00 3.5257142534992113e+01 1 1 0
4955 1 2.2947268048079925e+00 3.6571579747170233e+00 3.8025430791196364e+01 1 1 0
2581 1 8.1511993669464411e-01 3.2290986880320292e+00 3.1145312350988114e+01 1 0 -1
1640 1 2.8776165905753426e+00 9.5038924775338196e-01 3.8453591843037785e+01 0 1 0
4792 1 7.5772836310664378e+00 1.4543570562289718e+00 3.8028384541440076e+01 1 1 0
912 1 8.8003311594506890e+00 3.1403136752403387e+00 3.0310363490603226e+01 1 1 0
4087 1 5.8552485008877211e+00 1.0198257109822707e+01 3.8319388475001851e+01 0 0 0
1784 1 9.3898249915387915e+00 4.3217039301760884e+00 3.8267545771019847e+01 1 1 0
3973 1 8.6135544310456353e+00 5.1041992929668389e-01 2.9483192597526759e+01 0 1 0
4003 1 3.9560531372889836e+00 7.4921086462245414e+00 3.5819928067157029e+01 2 0 0
4111 1 4.0177482964115079e+00 6.1284008373653238e+00 3.8352184960231639e+01 1 2 0
2473 1 8.0331356439234085e+00 8.7483787994485276e+00 3.7968118599756650e+01 0 0 0
4883 1 7.0733389801191278e+00 6.1197414198919402e+00 3.8436869340631652e+01 -1 0 -1
2521 1 8.2778000666703324e+00 8.0405707345322188e+00 3.4935872488685661e+01 0 0 -1
926 1 6.3727453235484131e+00 5.9742633073024827e+00 3.5723865297113747e+01 0 0 0
3344 1 5.7725787023309278e+00 5.9936546127229287e+00 2.9577099693487973e+01 0 1 -1
1566 1 7.3639165344300181e+00 1.6070423480748930e+00 3.3411384377452556e+01 0 -1 -1
3287 1 3.2823665154101889e-01 7.3912078315552976e-01 3.5352584938430034e+01 0 1 0
822 1 2.3063555858661520e+00 1.1394045360584478e+01 3.5349348295160027e+01 0 1 -1
2495 1 1.1750642488903344e-01 1.0660260404554236e+01 3.0852525671888817e+01 0 1 -1
2669 1 1.4542804063951180e+00 6.6705760782222623e-01 3.2365111296711106e+01 1 1 0
2637 1 1.9555775007137708e+00 6.2012387725541824e+00 3.0113775271659641e+01 0 0 0
181 2 0.0000000000000000e+00 1.2787731112280996e+01 3.1513608938708062e+00 0 0 0
183 2 1.2305000000000001e+00 1.3498160618518829e+01 3.1513608938708062e+00 0 0 0
218 2 2.4610000000000003e+00 1.2787731112280996e+01 3.1513608938708062e+00 0 0 0
220 2 3.6915000000000004e+00 1.3498160618518829e+01 3.1513608938708062e+00 0 0 0
179 2 0.0000000000000000e+00 1.5629449137232333e+01 3.1513608938708062e+00 0 0 0
214 2 1.2305000000000001e+00 1.4919019630994494e+01 3.1513608938708062e+00 0 0 0
216 2 2.4610000000000003e+00 1.5629449137232328e+01 3.1513608938708062e+00 0 0 0
259 2 3.6915000000000004e+00 1.4919019630994494e+01 3.1513608938708062e+00 0 0 0
263 2 4.9220000000000006e+00 1.2787731112280996e+01 3.1513608938708062e+00 0 0 0
265 2 6.1524999999999990e+00 1.3498160618518829e+01 3.1513608938708062e+00 0 0 0
310 2 7.3829999999999991e+00 1.2787731112280996e+01 3.1513608938708062e+00 0 0 0
312 2 8.6135000000000002e+00 1.3498160618518835e+01 3.1513608938708062e+00 0 0 0
261 2 4.9220000000000006e+00 1.5629449137232333e+01 3.1513608938708062e+00 0 0 0
306 2 6.1524999999999990e+00 1.4919019630994494e+01 3.1513608938708062e+00 0 0 0
308 2 7.3829999999999991e+00 1.5629449137232333e+01 3.1513608938708062e+00 0 0 0
353 2 8.6135000000000002e+00 1.4919019630994494e+01 3.1513608938708062e+00 0 0 0
210 2 0.0000000000000000e+00 1.7050308149707998e+01 3.1513608938708062e+00 0 0 0
255 2 2.4610000000000003e+00 1.7050308149707998e+01 3.1513608938708062e+00 0 0 0
208 2 0.0000000000000000e+00 1.9892026174659328e+01 3.1513608938708062e+00 0 0 0
212 2 1.2305000000000001e+00 1.7760737655945832e+01 3.1513608938708062e+00 0 0 0
251 2 1.2305000000000001e+00 1.9181596668421495e+01 3.1513608938708062e+00 0 0 0
253 2 2.4610000000000003e+00 1.9892026174659328e+01 3.1513608938708062e+00 0 0 0
257 2 3.6914999999999996e+00 1.7760737655945832e+01 3.1513608938708062e+00 0 0 0
298 2 3.6914999999999996e+00 1.9181596668421495e+01 3.1513608938708062e+00 0 0 0
302 2 4.9220000000000006e+00 1.7050308149707998e+01 3.1513608938708062e+00 0 0 0
349 2 7.3830000000000009e+00 1.7050308149707998e+01 3.1513608938708062e+00 0 0 0
300 2 4.9220000000000006e+00 1.9892026174659328e+01 3.1513608938708062e+00 0 0 0
304 2 6.1524999999999999e+00 1.7760737655945832e+01 3.1513608938708062e+00 0 0 0
345 2 6.1524999999999999e+00 1.9181596668421495e+01 3.1513608938708062e+00 0 0 0
347 2 7.3829999999999991e+00 1.9892026174659328e+01 3.1513608938708062e+00 0 0 0
351 2 8.6134999999999984e+00 1.7760737655945832e+01 3.1513608938708062e+00 0 0 0
387 2 8.6135000000000002e+00 1.9181596668421495e+01 3.1513608938708062e+00 0 0 0
245 2 0.0000000000000000e+00 2.4154603212086325e+01 3.1513608938708062e+00 0 0 0
247 2 0.0000000000000000e+00 2.1312885187134999e+01 3.1513608938708062e+00 0 0 0
249 2 1.2304999999999993e+00 2.2023314693372832e+01 3.1513608938708062e+00 0 0 0
290 2 1.2304999999999993e+00 2.3444173705848499e+01 3.1513608938708062e+00 0 0 0
292 2 2.4610000000000003e+00 2.4154603212086325e+01 3.1513608938708062e+00 0 0 0
294 2 2.4610000000000003e+00 2.1312885187134995e+01 3.1513608938708062e+00 0 0 0
296 2 3.6914999999999996e+00 2.2023314693372832e+01 3.1513608938708062e+00 0 0 0
337 2 3.6915000000000004e+00 2.3444173705848499e+01 3.1513608938708062e+00 0 0 0
339 2 4.9220000000000006e+00 2.4154603212086325e+01 3.1513608938708062e+00 0 0 0
341 2 4.9220000000000006e+00 2.1312885187134995e+01 3.1513608938708062e+00 0 0 0
343 2 6.1524999999999990e+00 2.2023314693372832e+01 3.1513608938708062e+00 0 0 0
379 2 6.1524999999999999e+00 2.3444173705848499e+01 3.1513608938708062e+00 0 0 0
381 2 7.3830000000000009e+00 2.4154603212086336e+01 3.1513608938708062e+00 0 0 0
383 2 7.3829999999999991e+00 2.1312885187134999e+01 3.1513608938708062e+00 0 0 0
385 2 8.6135000000000002e+00 2.2023314693372832e+01 3.1513608938708062e+00 0 0 0
413 2 8.6134999999999984e+00 2.3444173705848499e+01 3.1513608938708062e+00 0 0 0
182 2 0.0000000000000000e+00 1.2787731112280996e+01 6.2354811559438010e+00 0 0 0
219 2 2.4610000000000003e+00 1.2787731112280996e+01 6.2354811559438010e+00 0 0 0
180 2 0.0000000000000000e+00 1.4208590124756663e+01 6.2354811559438010e+00 0 0 0
215 2 1.2305000000000001e+00 1.4919019630994494e+01 6.2354811559438010e+00 0 0 0
217 2 2.4610000000000003e+00 1.4208590124756663e+01 6.2354811559438010e+00 0 0 0
260 2 3.6915000000000004e+00 1.4919019630994494e+01 6.2354811559438010e+00 0 0 0
491 2 0.0000000000000000e+00 1.2787731112280996e+01 9.3196014180161022e+00 0 0 0
492 2 1.2305000000000001e+00 1.3498160618518829e+01 9.3196014180161022e+00 0 0 0
510 2 2.4610000000000003e+00 1.2787731112280996e+01 9.3196014180161022e+00 0 0 0
511 2 3.6915000000000004e+00 1.3498160618518829e+01 9.3196014180161022e+00 0 0 0
490 2 0.0000000000000000e+00 1.5629449137232333e+01 9.3196014180161022e+00 0 0 0
508 2 1.2305000000000001e+00 1.4919019630994494e+01 9.3196014180161022e+00 0 0 0
509 2 2.4610000000000003e+00 1.5629449137232328e+01 9.3196014180161022e+00 0 0 0
531 2 3.6915000000000004e+00 1.4919019630994494e+01 9.3196014180161022e+00 0 0 0
264 2 4.9220000000000006e+00 1.2787731112280996e+01 6.2354811559438010e+00 0 0 0
311 2 7.3829999999999991e+00 1.2787731112280996e+01 6.2354811559438010e+00 0 0 0
262 2 4.9220000000000006e+00 1.4208590124756663e+01 6.2354811559438010e+00 0 0 0
307 2 6.1524999999999990e+00 1.4919019630994494e+01 6.2354811559438010e+00 0 0 0
309 2 7.3830000000000009e+00 1.4208590124756663e+01 6.2354811559438010e+00 0 0 0
354 2 8.6135000000000002e+00 1.4919019630994494e+01 6.2354811559438010e+00 0 0 0
533 2 4.9220000000000006e+00 1.2787731112280996e+01 9.3196014180161022e+00 0 0 0
534 2 6.1524999999999990e+00 1.3498160618518829e+01 9.3196014180161022e+00 0 0 0
557 2 7.3829999999999991e+00 1.2787731112280996e+01 9.3196014180161022e+00 0 0 0
558 2 8.6135000000000002e+00 1.3498160618518835e+01 9.3196014180161022e+00 0 0 0
532 2 4.9220000000000006e+00 1.5629449137232333e+01 9.3196014180161022e+00 0 0 0
555 2 6.1524999999999990e+00 1.4919019630994494e+01 9.3196014180161022e+00 0 0 0
556 2 7.3829999999999991e+00 1.5629449137232333e+01 9.3196014180161022e+00 0 0 0
579 2 8.6135000000000002e+00 1.4919019630994494e+01 9.3196014180161022e+00 0 0 0
211 2 0.0000000000000000e+00 1.7050308149707998e+01 6.2354811559438010e+00 0 0 0
213 2 1.2305000000000001e+00 1.6339878643470165e+01 6.2354811559438010e+00 0 0 0
256 2 2.4610000000000003e+00 1.7050308149707998e+01 6.2354811559438010e+00 0 0 0
258 2 3.6915000000000004e+00 1.6339878643470165e+01 6.2354811559438010e+00 0 0 0
209 2 0.0000000000000000e+00 1.8471167162183658e+01 6.2354811559438010e+00 0 0 0
252 2 1.2305000000000001e+00 1.9181596668421495e+01 6.2354811559438010e+00 0 0 0
254 2 2.4610000000000003e+00 1.8471167162183658e+01 6.2354811559438010e+00 0 0 0
299 2 3.6914999999999996e+00 1.9181596668421495e+01 6.2354811559438010e+00 0 0 0
506 2 0.0000000000000000e+00 1.7050308149707998e+01 9.3196014180161022e+00 0 0 0
529 2 2.4610000000000003e+00 1.7050308149707998e+01 9.3196014180161022e+00 0 0 0
505 2 0.0000000000000000e+00 1.9892026174659328e+01 9.3196014180161022e+00 0 0 0
507 2 1.2305000000000001e+00 1.7760737655945832e+01 9.3196014180161022e+00 0 0 0
527 2 1.2305000000000001e+00 1.9181596668421495e+01 9.3196014180161022e+00 0 0 0
528 2 2.4610000000000003e+00 1.9892026174659328e+01 9.3196014180161022e+00 0 0 0
530 2 3.6914999999999996e+00 1.7760737655945832e+01 9.3196014180161022e+00 0 0 0
551 2 3.6914999999999996e+00 1.9181596668421495e+01 9.3196014180161022e+00 0 0 0
303 2 4.9220000000000006e+00 1.7050308149707998e+01 6.2354811559438010e+00 0 0 0
305 2 6.1524999999999999e+00 1.6339878643470165e+01 6.2354811559438010e+00 0 0 0
350 2 7.3830000000000009e+00 1.7050308149707998e+01 6.2354811559438010e+00 0 0 0
352 2 8.6134999999999984e+00 1.6339878643470165e+01 6.2354811559438010e+00 0 0 0
301 2 4.9220000000000006e+00 1.8471167162183658e+01 6.2354811559438010e+00 0 0 0
346 2 6.1524999999999999e+00 1.9181596668421495e+01 6.2354811559438010e+00 0 0 0
348 2 7.3829999999999991e+00 1.8471167162183658e+01 6.2354811559438010e+00 0 0 0
388 2 8.6135000000000002e+00 1.9181596668421495e+01 6.2354811559438010e+00 0 0 0
553 2 4.9220000000000006e+00 1.7050308149707998e+01 9.3196014180161022e+00 0 0 0
577 2 7.3830000000000009e+00 1.7050308149707998e+01 9.3196014180161022e+00 0 0 0
552 2 4.9220000000000006e+00 1.9892026174659328e+01 9.3196014180161022e+00 0 0 0
554 2 6.1524999999999999e+00 1.7760737655945832e+01 9.3196014180161022e+00 0 0 0
575 2 6.1524999999999999e+00 1.9181596668421495e+01 9.3196014180161022e+00 0 0 0
576 2 7.3829999999999991e+00 1.9892026174659328e+01 9.3196014180161022e+00 0 0 0
578 2 8.6134999999999984e+00 1.7760737655945832e+01 9.3196014180161022e+00 0 0 0