LAMMPS data file via write_data, version 16 Mar 2018, timestep = 100000

4065 atoms
2 atom types

0.0000000000000000e+00 4.9219999999999999e+01 xlo xhi
0.0000000000000000e+00 4.9019635930410494e+01 ylo yhi
1.9614948359044018e+00 2.5879337410379602e+01 zlo zhi

Masses

1 18.015
2 12.01

Atoms # atomic

83 2 0.0000000000000000e+00 2.8417180249513345e+00 3.4021925004919296e+00 0 0 0
85 2 0.0000000000000000e+00 0.0000000000000000e+00 3.4021925004919296e+00 0 0 0
87 2 1.2305000000000001e+00 7.1042950623783474e-01 3.4021925004919296e+00 0 0 0
94 2 1.2305000000000001e+00 2.1312885187134998e+00 3.4021925004919296e+00 0 0 0
96 2 2.4610000000000003e+00 2.8417180249513345e+00 3.4021925004919296e+00 0 0 0
98 2 2.4610000000000003e+00 0.0000000000000000e+00 3.4021925004919296e+00 0 0 0
100 2 3.6915000000000004e+00 7.1042950623783474e-01 3.4021925004919296e+00 0 0 0
115 2 3.6914999999999996e+00 2.1312885187134998e+00 3.4021925004919296e+00 0 0 0
117 2 4.9220000000000006e+00 2.8417180249513332e+00 3.4021925004919296e+00 0 0 0
119 2 4.9220000000000006e+00 0.0000000000000000e+00 3.4021925004919296e+00 0 0 0
121 2 6.1524999999999999e+00 7.1042950623783407e-01 3.4021925004919296e+00 0 0 0
144 2 6.1524999999999999e+00 2.1312885187134989e+00 3.4021925004919296e+00 0 0 0
146 2 7.3829999999999991e+00 2.8417180249513345e+00 3.4021925004919296e+00 0 0 0
148 2 7.3829999999999991e+00 0.0000000000000000e+00 3.4021925004919296e+00 0 0 0
90 2 0.0000000000000000e+00 4.2625770374269996e+00 3.4021925004919296e+00 0 0 0
92 2 1.2305000000000001e+00 4.9730065436648339e+00 3.4021925004919296e+00 0 0 0
107 2 1.2305000000000001e+00 6.3938655561404980e+00 3.4021925004919296e+00 0 0 0
111 2 2.4610000000000003e+00 4.2625770374269996e+00 3.4021925004919296e+00 0 0 0
113 2 3.6914999999999996e+00 4.9730065436648339e+00 3.4021925004919296e+00 0 0 0
136 2 3.6914999999999996e+00 6.3938655561404980e+00 3.4021925004919296e+00 0 0 0
88 2 0.0000000000000000e+00 7.1042950623783341e+00 3.4021925004919296e+00 0 0 0
109 2 2.4610000000000003e+00 7.1042950623783341e+00 3.4021925004919296e+00 0 0 0
140 2 4.9220000000000006e+00 4.2625770374269978e+00 3.4021925004919296e+00 0 0 0
142 2 6.1524999999999999e+00 4.9730065436648339e+00 3.4021925004919296e+00 0 0 0
173 2 6.1524999999999999e+00 6.3938655561404980e+00 3.4021925004919296e+00 0 0 0
177 2 7.3829999999999991e+00 4.2625770374269996e+00 3.4021925004919296e+00 0 0 0
138 2 4.9220000000000006e+00 7.1042950623783341e+00 3.4021925004919296e+00 0 0 0
175 2 7.3830000000000009e+00 7.1042950623783341e+00 3.4021925004919296e+00 0 0 0
103 2 0.0000000000000000e+00 8.5251540748539991e+00 3.4021925004919296e+00 0 0 0
105 2 1.2305000000000001e+00 9.2355835810918343e+00 3.4021925004919296e+00 0 0 0
132 2 2.4610000000000003e+00 8.5251540748539991e+00 3.4021925004919296e+00 0 0 0
134 2 3.6915000000000004e+00 9.2355835810918343e+00 3.4021925004919296e+00 0 0 0
101 2 0.0000000000000000e+00 1.1366872099805333e+01 3.4021925004919296e+00 0 0 0
128 2 1.2305000000000001e+00 1.0656442593567498e+01 3.4021925004919296e+00 0 0 0
130 2 2.4610000000000003e+00 1.1366872099805333e+01 3.4021925004919296e+00 0 0 0
165 2 3.6914999999999996e+00 1.0656442593567499e+01 3.4021925004919296e+00 0 0 0
169 2 4.9220000000000006e+00 8.5251540748539991e+00 3.4021925004919296e+00 0 0 0
171 2 6.1524999999999999e+00 9.2355835810918343e+00 3.4021925004919296e+00 0 0 0
214 2 7.3830000000000009e+00 8.5251540748539991e+00 3.4021925004919296e+00 0 0 0
167 2 4.9220000000000006e+00 1.1366872099805333e+01 3.4021925004919296e+00 0 0 0
210 2 6.1524999999999999e+00 1.0656442593567499e+01 3.4021925004919296e+00 0 0 0
212 2 7.3829999999999991e+00 1.1366872099805333e+01 3.4021925004919296e+00 0 0 0
84 2 0.0000000000000000e+00 1.4208590124756650e+00 6.2835878296670762e+00 0 0 0
86 2 0.0000000000000000e+00 0.0000000000000000e+00 6.2835878296670762e+00 0 0 0
95 2 1.2305000000000001e+00 2.1312885187134998e+00 6.2835878296670762e+00 0 0 0
97 2 2.4610000000000003e+00 1.4208590124756650e+00 6.2835878296670762e+00 0 0 0
99 2 2.4610000000000003e+00 0.0000000000000000e+00 6.2835878296670762e+00 0 0 0
412 2 0.0000000000000000e+00 2.8417180249513345e+00 9.1649831588417179e+00 0 0 0
413 2 0.0000000000000000e+00 0.0000000000000000e+00 9.1649831588417179e+00 0 0 0
414 2 1.2305000000000001e+00 7.1042950623783474e-01 9.1649831588417179e+00 0 0 0
418 2 1.2305000000000001e+00 2.1312885187134998e+00 9.1649831588417179e+00 0 0 0
419 2 2.4610000000000003e+00 2.8417180249513345e+00 9.1649831588417179e+00 0 0 0
420 2 2.4610000000000003e+00 0.0000000000000000e+00 9.1649831588417179e+00 0 0 0
116 2 3.6914999999999996e+00 2.1312885187134998e+00 6.2835878296670762e+00 0 0 0
421 2 3.6915000000000004e+00 7.1042950623783474e-01 9.1649831588417179e+00 0 0 0
429 2 3.6914999999999996e+00 2.1312885187134998e+00 9.1649831588417179e+00 0 0 0
93 2 1.2305000000000001e+00 3.5521475311891644e+00 6.2835878296670762e+00 0 0 0
114 2 3.6914999999999996e+00 3.5521475311891644e+00 6.2835878296670762e+00 0 0 0
118 2 4.9220000000000006e+00 1.4208590124756650e+00 6.2835878296670762e+00 0 0 0
120 2 4.9220000000000006e+00 0.0000000000000000e+00 6.2835878296670762e+00 0 0 0
145 2 6.1524999999999999e+00 2.1312885187134989e+00 6.2835878296670762e+00 0 0 0
430 2 4.9220000000000006e+00 2.8417180249513332e+00 9.1649831588417179e+00 0 0 0
431 2 4.9220000000000006e+00 0.0000000000000000e+00 9.1649831588417179e+00 0 0 0
432 2 6.1524999999999999e+00 7.1042950623783407e-01 9.1649831588417179e+00 0 0 0
444 2 6.1524999999999999e+00 2.1312885187134989e+00 9.1649831588417179e+00 0 0 0
147 2 7.3829999999999991e+00 1.4208590124756659e+00 6.2835878296670762e+00 0 0 0
149 2 7.3829999999999991e+00 0.0000000000000000e+00 6.2835878296670762e+00 0 0 0
445 2 7.3829999999999991e+00 2.8417180249513345e+00 9.1649831588417179e+00 0 0 0
446 2 7.3829999999999991e+00 0.0000000000000000e+00 9.1649831588417179e+00 0 0 0
143 2 6.1524999999999999e+00 3.5521475311891644e+00 6.2835878296670762e+00 0 0 0
89 2 0.0000000000000000e+00 5.6834360499026637e+00 6.2835878296670762e+00 0 0 0
91 2 0.0000000000000000e+00 4.2625770374269996e+00 6.2835878296670762e+00 0 0 0
108 2 1.2305000000000001e+00 6.3938655561404980e+00 6.2835878296670762e+00 0 0 0
110 2 2.4610000000000003e+00 5.6834360499026637e+00 6.2835878296670762e+00 0 0 0
112 2 2.4610000000000003e+00 4.2625770374269996e+00 6.2835878296670762e+00 0 0 0
416 2 0.0000000000000000e+00 4.2625770374269996e+00 9.1649831588417179e+00 0 0 0
417 2 1.2305000000000001e+00 4.9730065436648339e+00 9.1649831588417179e+00 0 0 0
425 2 1.2305000000000001e+00 6.3938655561404980e+00 9.1649831588417179e+00 0 0 0
427 2 2.4610000000000003e+00 4.2625770374269996e+00 9.1649831588417179e+00 0 0 0
137 2 3.6914999999999996e+00 6.3938655561404980e+00 6.2835878296670762e+00 0 0 0
428 2 3.6914999999999996e+00 4.9730065436648339e+00 9.1649831588417179e+00 0 0 0
440 2 3.6914999999999996e+00 6.3938655561404980e+00 9.1649831588417179e+00 0 0 0
106 2 1.2305000000000001e+00 7.8147245686161639e+00 6.2835878296670762e+00 0 0 0
415 2 0.0000000000000000e+00 7.1042950623783341e+00 9.1649831588417179e+00 0 0 0
426 2 2.4610000000000003e+00 7.1042950623783341e+00 9.1649831588417179e+00 0 0 0
135 2 3.6914999999999996e+00 7.8147245686161639e+00 6.2835878296670762e+00 0 0 0
139 2 4.9220000000000006e+00 5.6834360499026637e+00 6.2835878296670762e+00 0 0 0
141 2 4.9220000000000006e+00 4.2625770374269978e+00 6.2835878296670762e+00 0 0 0
174 2 6.1524999999999999e+00 6.3938655561404980e+00 6.2835878296670762e+00 0 0 0
442 2 4.9220000000000006e+00 4.2625770374269978e+00 9.1649831588417179e+00 0 0 0
443 2 6.1524999999999999e+00 4.9730065436648339e+00 9.1649831588417179e+00 0 0 0
459 2 6.1524999999999999e+00 6.3938655561404980e+00 9.1649831588417179e+00 0 0 0
176 2 7.3829999999999991e+00 5.6834360499026637e+00 6.2835878296670762e+00 0 0 0
178 2 7.3829999999999991e+00 4.2625770374269996e+00 6.2835878296670762e+00 0 0 0
461 2 7.3829999999999991e+00 4.2625770374269996e+00 9.1649831588417179e+00 0 0 0
172 2 6.1524999999999999e+00 7.8147245686161639e+00 6.2835878296670762e+00 0 0 0
441 2 4.9220000000000006e+00 7.1042950623783341e+00 9.1649831588417179e+00 0 0 0
460 2 7.3830000000000009e+00 7.1042950623783341e+00 9.1649831588417179e+00 0 0 0
102 2 0.0000000000000000e+00 9.9460130873296642e+00 6.2835878296670762e+00 0 0 0
104 2 0.0000000000000000e+00 8.5251540748539991e+00 6.2835878296670762e+00 0 0 0
131 2 2.4610000000000003e+00 9.9460130873296642e+00 6.2835878296670762e+00 0 0 0
133 2 2.4610000000000003e+00 8.5251540748539991e+00 6.2835878296670762e+00 0 0 0
423 2 0.0000000000000000e+00 8.5251540748539991e+00 9.1649831588417179e+00 0 0 0
424 2 1.2305000000000001e+00 9.2355835810918343e+00 9.1649831588417179e+00 0 0 0
438 2 2.4610000000000003e+00 8.5251540748539991e+00 9.1649831588417179e+00 0 0 0
439 2 3.6915000000000004e+00 9.2355835810918343e+00 9.1649831588417179e+00 0 0 0
127 2 1.2305000000000001e+00 1.2077301606043163e+01 6.2835878296670762e+00 0 0 0
129 2 1.2305000000000001e+00 1.0656442593567498e+01 6.2835878296670762e+00 0 0 0
422 2 0.0000000000000000e+00 1.1366872099805333e+01 9.1649831588417179e+00 0 0 0
436 2 1.2305000000000001e+00 1.0656442593567498e+01 9.1649831588417179e+00 0 0 0
437 2 2.4610000000000003e+00 1.1366872099805333e+01 9.1649831588417179e+00 0 0 0
164 2 3.6914999999999996e+00 1.2077301606043163e+01 6.2835878296670762e+00 0 0 0
166 2 3.6914999999999996e+00 1.0656442593567499e+01 6.2835878296670762e+00 0 0 0
455 2 3.6914999999999996e+00 1.0656442593567499e+01 9.1649831588417179e+00 0 0 0
168 2 4.9220000000000006e+00 9.9460130873296642e+00 6.2835878296670762e+00 0 0 0
170 2 4.9220000000000006e+00 8.5251540748539991e+00 6.2835878296670762e+00 0 0 0
457 2 4.9220000000000006e+00 8.5251540748539991e+00 9.1649831588417179e+00 0 0 0
458 2 6.1524999999999999e+00 9.2355835810918343e+00 9.1649831588417179e+00 0 0 0
213 2 7.3830000000000009e+00 9.9460130873296642e+00 6.2835878296670762e+00 0 0 0
215 2 7.3830000000000009e+00 8.5251540748539991e+00 6.2835878296670762e+00 0 0 0
480 2 7.3830000000000009e+00 8.5251540748539991e+00 9.1649831588417179e+00 0 0 0
209 2 6.1524999999999999e+00 1.2077301606043163e+01 6.2835878296670762e+00 0 0 0
211 2 6.1524999999999999e+00 1.0656442593567499e+01 6.2835878296670762e+00 0 0 0
456 2 4.9220000000000006e+00 1.1366872099805333e+01 9.1649831588417179e+00 0 0 0
478 2 6.1524999999999999e+00 1.0656442593567499e+01 9.1649831588417179e+00 0 0 0
479 2 7.3829999999999991e+00 1.1366872099805333e+01 9.1649831588417179e+00 0 0 0
834 1 3.1185130825382670e+00 2.5461937601649836e+00 1.1871330113466295e+01 1 1 -1
6 1 1.1320492373298345e+00 4.7324743590521745e+00 1.1876171691090489e+01 -1 1 -1
24 1 5.6618907388388191e+00 1.0905781133797763e+01 1.1696997072758064e+01 -1 1 -1
3003 1 6.8204964456598187e+00 5.7779509667293389e+00 1.1523807995261828e+01 0 0 0
66 1 6.6617097456085705e+00 8.3053678973357992e-01 1.1536602652609327e+01 0 1 0
3052 1 2.3213716378674492e+00 7.3037026991828737e+00 1.1451656619140579e+01 0 0 -1
1955 1 5.1657267613683659e+00 8.0338305866590094e+00 1.1797029761845177e+01 0 1 1
1803 1 5.7356716114476196e+00 3.3304663273055954e+00 1.2177554118622373e+01 2 1 1
2005 1 2.3428244283508111e+00 1.1124947891883243e+01 1.1499674034118229e+01 0 0 0
3884 1 3.0999139667314080e-01 9.1983361436367126e+00 1.1823993535505886e+01 0 0 0
1082 1 2.0278808660174810e+00 2.4602711145141939e-01 1.2312822298211033e+01 1 1 0
1868 1 2.9710689199410396e+00 4.6315168427079856e+00 1.5809757872157299e+01 0 1 0
1823 1 8.3351983063175195e-01 3.3789678224078390e+00 1.4503504481799185e+01 0 1 0
3810 1 5.3897726731891362e+00 1.5217880643348780e+00 1.8908075398151091e+01 0 1 0
887 1 1.6149850646661974e+00 8.7168274090067577e-01 1.4918942723302548e+01 0 0 0
1946 1 3.8483927638432376e+00 3.9107258480072549e-01 2.4566969198935091e+01 0 0 1
1012 1 2.7358589807327758e+00 5.4175004677370655e+00 1.8263195661266529e+01 0 0 0
3013 1 6.4416218476845435e+00 5.9861307239668617e+00 1.4547750495049378e+01 0 0 -1
3125 1 2.0873478458396133e+00 6.7573290961857673e+00 1.4291452845129648e+01 2 1 1
865 1 5.2211655712691414e+00 3.4107362445215004e+00 1.4913800419945931e+01 1 0 0
993 1 6.3153200809032572e+00 7.0904187145332127e+00 1.8553049718967699e+01 1 0 0
2101 1 7.9541778240429029e+00 1.2034820903259471e+01 2.1436576493833442e+01 0 0 0
2081 1 4.4081698560508515e+00 8.0892800848357886e+00 1.4601398674298347e+01 1 0 0
3071 1 6.2056080510192144e+00 9.4570538082156475e+00 1.6590134700710468e+01 0 1 -1
900 1 2.4084864119592631e-01 4.1854410546020135e+00 1.9532040674046726e+01 0 1 1
3007 1 4.4243423281097014e+00 1.2003415311739825e+01 2.1551254635549633e+01 0 1 0
28 1 7.6147348335111911e+00 7.2705754308865711e-01 1.4412646015793388e+01 0 1 0
3106 1 6.6769738745625284e+00 2.0384202764069639e+00 2.1436200545755739e+01 0 0 1
809 1 6.8840100134447955e+00 9.3476659447739685e+00 2.4551991352891662e+01 1 0 1
3999 1 6.8244289075044948e+00 3.7377144523140973e+00 2.4718136701371030e+01 0 1 0
978 1 4.9863090497407514e+00 4.4632587039471980e+00 1.9278526139019078e+01 0 0 -1
63 1 2.4525488724072670e+00 7.9840768653231544e+00 2.1281325256381805e+01 -1 0 0
1074 1 5.6545845827074315e+00 5.0336710224965469e+00 2.2112303279168636e+01 1 1 0
3955 1 6.4066682135108719e+00 9.3809658077543450e+00 2.1443053369375754e+01 0 0 -1
3932 1 1.2882232119725749e+00 1.4129496675954627e+00 1.9124326236788143e+01 1 2 1
2992 1 2.3396226407300085e+00 8.2494952353236268e+00 1.7856867323840355e+01 1 0 -1
1881 1 3.2240328032231611e+00 2.0023106308113912e+00 1.6981504947215704e+01 1 0 0
1059 1 3.9026313452068173e+00 1.0930078188703582e+01 1.4206612391294403e+01 0 1 0
1875 1 4.3801331217488455e+00 7.5976126267396715e+00 2.2778647214056996e+01 1 0 -1
1117 1 8.4675698337187344e-01 9.7663760009468241e+00 2.2578225536732973e+01 1 0 0
2860 1 2.2807432266298333e+00 2.7073309643331314e+00 2.4569674150506422e+01 0 0 -1
3058 1 2.5515501718684184e+00 4.9480332871267257e-01 2.1723670417793571e+01 0 0 0
3882 1 2.8195258416232933e+00 3.4237071367876530e+00 2.1833636918326150e+01 1 0 1
2833 1 6.3771366190187235e+00 1.2119538353798371e+00 2.4006244355933696e+01 1 0 0
3070 1 1.5191494107863892e+00 1.0079289315524070e+01 2.5277726881663064e+01 0 0 0
2873 1 8.7532896006320049e-01 5.7035253862299431e+00 2.2151727448673732e+01 1 0 0
819 1 2.5331660413946757e+00 7.4972256944491322e+00 2.4755514073840970e+01 1 0 0
980 1 4.1238326863860539e+00 9.9299077159330817e+00 1.9454376991356447e+01 0 -1 0
3964 1 4.0999715148802460e+00 4.8080392778690149e+00 2.4864295444646011e+01 1 0 0
3074 1 7.4641298002266945e+00 2.2451161366064563e+00 1.6636439536734080e+01 1 0 0
3029 1 4.3045893594789701e+00 1.0953847654071023e+01 2.4511824778242996e+01 0 0 -1
2092 1 3.3208763184692408e-01 8.6954825534843696e+00 1.4999095434991355e+01 0 1 0
3001 1 4.5186667995438414e+00 3.0130646124477500e-01 1.4893404139215722e+01 0 0 -2
2955 1 5.5320301322239329e+00 1.1944309083532824e+01 1.7096995292803307e+01 1 1 0
1838 1 1.6021122192076012e+00 1.2013259162634762e+01 1.4799878876851341e+01 1 0 1
2022 1 2.9280846280336492e+00 1.2170441894466631e+01 1.8114972464276093e+01 1 1 0
58 1 1.3367837501349564e-01 6.3518979371845230e+00 2.4602337873437214e+01 0 0 -1
2042 1 7.9257270603935508e+00 5.2612120090617145e+00 1.6902878926199371e+01 0 2 -1
1066 1 1.6184928161584200e-01 1.1481956955286282e+01 1.8624268887956681e+01 1 -1 0
3036 1 1.6013863409109503e+00 1.1942469577661146e+01 2.1158098341471913e+01 1 1 0
124 2 0.0000000000000000e+00 1.2787731112280996e+01 3.4021925004919296e+00 0 0 0
126 2 1.2305000000000001e+00 1.3498160618518829e+01 3.4021925004919296e+00 0 0 0
161 2 2.4610000000000003e+00 1.2787731112280996e+01 3.4021925004919296e+00 0 0 0
163 2 3.6915000000000004e+00 1.3498160618518829e+01 3.4021925004919296e+00 0 0 0
122 2 0.0000000000000000e+00 1.5629449137232333e+01 3.4021925004919296e+00 0 0 0
157 2 1.2305000000000001e+00 1.4919019630994494e+01 3.4021925004919296e+00 0 0 0
159 2 2.4610000000000003e+00 1.5629449137232328e+01 3.4021925004919296e+00 0 0 0
202 2 3.6915000000000004e+00 1.4919019630994494e+01 3.4021925004919296e+00 0 0 0
206 2 4.9220000000000006e+00 1.2787731112280996e+01 3.4021925004919296e+00 0 0 0
208 2 6.1524999999999990e+00 1.3498160618518829e+01 3.4021925004919296e+00 0 0 0
253 2 7.3829999999999991e+00 1.2787731112280996e+01 3.4021925004919296e+00 0 0 0
204 2 4.9220000000000006e+00 1.5629449137232333e+01 3.4021925004919296e+00 0 0 0
249 2 6.1524999999999990e+00 1.4919019630994494e+01 3.4021925004919296e+00 0 0 0
251 2 7.3829999999999991e+00 1.5629449137232333e+01 3.4021925004919296e+00 0 0 0
153 2 0.0000000000000000e+00 1.7050308149707998e+01 3.4021925004919296e+00 0 0 0
198 2 2.4610000000000003e+00 1.7050308149707998e+01 3.4021925004919296e+00 0 0 0
151 2 0.0000000000000000e+00 1.9892026174659328e+01 3.4021925004919296e+00 0 0 0
155 2 1.2305000000000001e+00 1.7760737655945832e+01 3.4021925004919296e+00 0 0 0
194 2 1.2305000000000001e+00 1.9181596668421495e+01 3.4021925004919296e+00 0 0 0
196 2 2.4610000000000003e+00 1.9892026174659328e+01 3.4021925004919296e+00 0 0 0
200 2 3.6914999999999996e+00 1.7760737655945832e+01 3.4021925004919296e+00 0 0 0
241 2 3.6914999999999996e+00 1.9181596668421495e+01 3.4021925004919296e+00 0 0 0
245 2 4.9220000000000006e+00 1.7050308149707998e+01 3.4021925004919296e+00 0 0 0
292 2 7.3830000000000009e+00 1.7050308149707998e+01 3.4021925004919296e+00 0 0 0
243 2 4.9220000000000006e+00 1.9892026174659328e+01 3.4021925004919296e+00 0 0 0
247 2 6.1524999999999999e+00 1.7760737655945832e+01 3.4021925004919296e+00 0 0 0
288 2 6.1524999999999999e+00 1.9181596668421495e+01 3.4021925004919296e+00 0 0 0
290 2 7.3829999999999991e+00 1.9892026174659328e+01 3.4021925004919296e+00 0 0 0
188 2 0.0000000000000000e+00 2.4154603212086325e+01 3.4021925004919296e+00 0 0 0
190 2 0.0000000000000000e+00 2.1312885187134999e+01 3.4021925004919296e+00 0 0 0
192 2 1.2304999999999993e+00 2.2023314693372832e+01 3.4021925004919296e+00 0 0 0
233 2 1.2304999999999993e+00 2.3444173705848499e+01 3.4021925004919296e+00 0 0 0
235 2 2.4610000000000003e+00 2.4154603212086325e+01 3.4021925004919296e+00 0 0 0
237 2 2.4610000000000003e+00 2.1312885187134995e+01 3.4021925004919296e+00 0 0 0
239 2 3.6914999999999996e+00 2.2023314693372832e+01 3.4021925004919296e+00 0 0 0
280 2 3.6915000000000004e+00 2.3444173705848499e+01 3.4021925004919296e+00 0 0 0
282 2 4.9220000000000006e+00 2.4154603212086325e+01 3.4021925004919296e+00 0 0 0
284 2 4.9220000000000006e+00 2.1312885187134995e+01 3.4021925004919296e+00 0 0 0
286 2 6.1524999999999990e+00 2.2023314693372832e+01 3.4021925004919296e+00 0 0 0
322 2 6.1524999999999999e+00 2.3444173705848499e+01 3.4021925004919296e+00 0 0 0
324 2 7.3830000000000009e+00 2.4154603212086336e+01 3.4021925004919296e+00 0 0 0
326 2 7.3829999999999991e+00 2.1312885187134999e+01 3.4021925004919296e+00 0 0 0
125 2 0.0000000000000000e+00 1.2787731112280996e+01 6.2835878296670762e+00 0 0 0
162 2 2.4610000000000003e+00 1.2787731112280996e+01 6.2835878296670762e+00 0 0 0
434 2 0.0000000000000000e+00 1.2787731112280996e+01 9.1649831588417179e+00 0 0 0
435 2 1.2305000000000001e+00 1.3498160618518829e+01 9.1649831588417179e+00 0 0 0
453 2 2.4610000000000003e+00 1.2787731112280996e+01 9.1649831588417179e+00 0 0 0
454 2 3.6915000000000004e+00 1.3498160618518829e+01 9.1649831588417179e+00 0 0 0
123 2 0.0000000000000000e+00 1.4208590124756663e+01 6.2835878296670762e+00 0 0 0
158 2 1.2305000000000001e+00 1.4919019630994494e+01 6.2835878296670762e+00 0 0 0
160 2 2.4610000000000003e+00 1.4208590124756663e+01 6.2835878296670762e+00 0 0 0
433 2 0.0000000000000000e+00 1.5629449137232333e+01 9.1649831588417179e+00 0 0 0
451 2 1.2305000000000001e+00 1.4919019630994494e+01 9.1649831588417179e+00 0 0 0
452 2 2.4610000000000003e+00 1.5629449137232328e+01 9.1649831588417179e+00 0 0 0
203 2 3.6915000000000004e+00 1.4919019630994494e+01 6.2835878296670762e+00 0 0 0
474 2 3.6915000000000004e+00 1.4919019630994494e+01 9.1649831588417179e+00 0 0 0
207 2 4.9220000000000006e+00 1.2787731112280996e+01 6.2835878296670762e+00 0 0 0
476 2 4.9220000000000006e+00 1.2787731112280996e+01 9.1649831588417179e+00 0 0 0
477 2 6.1524999999999990e+00 1.3498160618518829e+01 9.1649831588417179e+00 0 0 0
254 2 7.3829999999999991e+00 1.2787731112280996e+01 6.2835878296670762e+00 0 0 0
500 2 7.3829999999999991e+00 1.2787731112280996e+01 9.1649831588417179e+00 0 0 0
205 2 4.9220000000000006e+00 1.4208590124756663e+01 6.2835878296670762e+00 0 0 0
250 2 6.1524999999999990e+00 1.4919019630994494e+01 6.2835878296670762e+00 0 0 0
475 2 4.9220000000000006e+00 1.5629449137232333e+01 9.1649831588417179e+00 0 0 0
498 2 6.1524999999999990e+00 1.4919019630994494e+01 9.1649831588417179e+00 0 0 0
252 2 7.3830000000000009e+00 1.4208590124756663e+01 6.2835878296670762e+00 0 0 0
499 2 7.3829999999999991e+00 1.5629449137232333e+01 9.1649831588417179e+00 0 0 0
154 2 0.0000000000000000e+00 1.7050308149707998e+01 6.2835878296670762e+00 0 0 0
156 2 1.2305000000000001e+00 1.6339878643470165e+01 6.2835878296670762e+00 0 0 0
199 2 2.4610000000000003e+00 1.7050308149707998e+01 6.2835878296670762e+00 0 0 0
449 2 0.0000000000000000e+00 1.7050308149707998e+01 9.1649831588417179e+00 0 0 0
472 2 2.4610000000000003e+00 1.7050308149707998e+01 9.1649831588417179e+00 0 0 0
201 2 3.6915000000000004e+00 1.6339878643470165e+01 6.2835878296670762e+00 0 0 0
152 2 0.0000000000000000e+00 1.8471167162183658e+01 6.2835878296670762e+00 0 0 0
195 2 1.2305000000000001e+00 1.9181596668421495e+01 6.2835878296670762e+00 0 0 0
197 2 2.4610000000000003e+00 1.8471167162183658e+01 6.2835878296670762e+00 0 0 0
448 2 0.0000000000000000e+00 1.9892026174659328e+01 9.1649831588417179e+00 0 0 0
450 2 1.2305000000000001e+00 1.7760737655945832e+01 9.1649831588417179e+00 0 0 0
470 2 1.2305000000000001e+00 1.9181596668421495e+01 9.1649831588417179e+00 0 0 0
471 2 2.4610000000000003e+00 1.9892026174659328e+01 9.1649831588417179e+00 0 0 0
242 2 3.6914999999999996e+00 1.9181596668421495e+01 6.2835878296670762e+00 0 0 0
473 2 3.6914999999999996e+00 1.7760737655945832e+01 9.1649831588417179e+00 0 0 0
494 2 3.6914999999999996e+00 1.9181596668421495e+01 9.1649831588417179e+00 0 0 0
246 2 4.9220000000000006e+00 1.7050308149707998e+01 6.2835878296670762e+00 0 0 0
248 2 6.1524999999999999e+00 1.6339878643470165e+01 6.2835878296670762e+00 0 0 0
496 2 4.9220000000000006e+00 1.7050308149707998e+01 9.1649831588417179e+00 0 0 0
293 2 7.3830000000000009e+00 1.7050308149707998e+01 6.2835878296670762e+00 0 0 0
520 2 7.3830000000000009e+00 1.7050308149707998e+01 9.1649831588417179e+00 0 0 0
244 2 4.9220000000000006e+00 1.8471167162183658e+01 6.2835878296670762e+00 0 0 0
289 2 6.1524999999999999e+00 1.9181596668421495e+01 6.2835878296670762e+00 0 0 0
495 2 4.9220000000000006e+00 1.9892026174659328e+01 9.1649831588417179e+00 0 0 0
497 2 6.1524999999999999e+00 1.7760737655945832e+01 9.1649831588417179e+00 0 0 0
518 2 6.1524999999999999e+00 1.9181596668421495e+01 9.1649831588417179e+00 0 0 0
291 2 7.3829999999999991e+00 1.8471167162183658e+01 6.2835878296670762e+00 0 0 0
519 2 7.3829999999999991e+00 1.9892026174659328e+01 9.1649831588417179e+00 0 0 0
193 2 1.2305000000000001e+00 2.0602455680897162e+01 6.2835878296670762e+00 0 0 0
240 2 3.6915000000000004e+00 2.0602455680897162e+01 6.2835878296670762e+00 0 0 0
189 2 0.0000000000000000e+00 2.2733744199610655e+01 6.2835878296670762e+00 0 0 0
191 2 0.0000000000000000e+00 2.1312885187134999e+01 6.2835878296670762e+00 0 0 0
234 2 1.2304999999999993e+00 2.3444173705848499e+01 6.2835878296670762e+00 0 0 0
236 2 2.4610000000000003e+00 2.2733744199610655e+01 6.2835878296670762e+00 0 0 0
238 2 2.4610000000000003e+00 2.1312885187134995e+01 6.2835878296670762e+00 0 0 0
467 2 0.0000000000000000e+00 2.4154603212086325e+01 9.1649831588417179e+00 0 0 0
468 2 0.0000000000000000e+00 2.1312885187134999e+01 9.1649831588417179e+00 0 0 0
469 2 1.2304999999999993e+00 2.2023314693372832e+01 9.1649831588417179e+00 0 0 0
490 2 1.2304999999999993e+00 2.3444173705848499e+01 9.1649831588417179e+00 0 0 0
491 2 2.4610000000000003e+00 2.4154603212086325e+01 9.1649831588417179e+00 0 0 0
492 2 2.4610000000000003e+00 2.1312885187134995e+01 9.1649831588417179e+00 0 0 0
281 2 3.6915000000000004e+00 2.3444173705848499e+01 6.2835878296670762e+00 0 0 0
493 2 3.6914999999999996e+00 2.2023314693372832e+01 9.1649831588417179e+00 0 0 0
514 2 3.6915000000000004e+00 2.3444173705848499e+01 9.1649831588417179e+00 0 0 0
287 2 6.1524999999999999e+00 2.0602455680897162e+01 6.2835878296670762e+00 0 0 0
283 2 4.9220000000000006e+00 2.2733744199610655e+01 6.2835878296670762e+00 0 0 0
285 2 4.9220000000000006e+00 2.1312885187134995e+01 6.2835878296670762e+00 0 0 0
323 2 6.1524999999999999e+00 2.3444173705848499e+01 6.2835878296670762e+00 0 0 0
515 2 4.9220000000000006e+00 2.4154603212086325e+01 9.1649831588417179e+00 0 0 0
516 2 4.9220000000000006e+00 2.1312885187134995e+01 9.1649831588417179e+00 0 0 0
517 2 6.1524999999999990e+00 2.2023314693372832e+01 9.1649831588417179e+00 0 0 0
535 2 6.1524999999999999e+00 2.3444173705848499e+01 9.1649831588417179e+00 0 0 0
325 2 7.3829999999999991e+00 2.2733744199610655e+01 6.2835878296670762e+00 0 0 0
327 2 7.3829999999999991e+00 2.1312885187134999e+01 6.2835878296670762e+00 0 0 0
536 2 7.3830000000000009e+00 2.4154603212086336e+01 9.1649831588417179e+00 0 0 0
537 2 7.3829999999999991e+00 2.1312885187134999e+01 9.1649831588417179e+00 0 0 0
1096 1 1.6684128257656126e+00 1.3688027832517378e+01 1.2222888453508846e+01 2 -1 1
821 1 7.2742673861888543e+00 2.1212842358797797e+01 1.1830731156918221e+01 0 0 1
3985 1 3.8515279598004581e+00 1.5282157392167710e+01 1.1910057421717543e+01 1 0 0
905 1 5.5113272101577477e+00 2.3160288051486155e+01 1.2435919087568376e+01 0 0 0
3917 1 1.4366586935285677e+00 2.3255164678274031e+01 1.1886460559657298e+01 0 -1 0
997 1 6.2959223993455273e+00 1.8596798890935698e+01 1.1770992332626838e+01 0 0 0
932 1 3.5723496895729929e+00 1.8254363804700951e+01 1.1810518580359169e+01 0 0 1
956 1 3.3875777853425744e+00 2.1268234387065249e+01 1.1915879774660313e+01 -1 0 0
3989 1 6.1417252765222727e+00 1.3797928773826914e+01 1.1683051715768045e+01 0 0 0
2841 1 7.8517190282214946e+00 1.6032747957823222e+01 1.1780415416343878e+01 0 1 0
57 1 9.2424392428860525e-01 1.6816516690676114e+01 1.1861988231176996e+01 0 0 0
779 1 1.6031415026363531e+00 1.4197205832315671e+01 1.6426922429742319e+01 0 1 0
15 1 5.3878579665067750e-01 2.1915864382884646e+01 2.4727610054328515e+01 2 0 1
2830 1 5.6932274258396118e+00 1.3269974755907983e+01 1.4580753196756492e+01 1 1 0
871 1 3.7842121483257589e+00 2.3232837163040202e+01 2.1558627132428853e+01 0 0 -1
2997 1 7.9028160261225153e+00 2.1137222785461354e+01 1.4896486214853962e+01 1 1 0
3887 1 1.9262808865634935e+00 1.5861542087695335e+01 2.0159480351100690e+01 1 0 -1
3093 1 6.5533858967769962e+00 1.8790537550149317e+01 1.4546524122988535e+01 -1 1 0
1852 1 6.1793119504085068e+00 1.6288013535850649e+01 1.6851660261600856e+01 1 0 0
2063 1 6.7280816991726566e-01 1.7082431600592223e+01 1.4562752568557981e+01 0 0 1
31 1 2.6905035033119735e+00 2.1417955336545592e+01 1.4627800619402581e+01 1 -1 0
962 1 2.3078423303052222e+00 2.0933653380704484e+01 1.7429145800567206e+01 1 0 -1
2931 1 3.4370787183356883e+00 1.8265668329269580e+01 1.5165540277827290e+01 1 0 1
3088 1 7.3614529727831988e+00 2.2010752892366348e+01 1.9470453924085987e+01 0 0 0
1041 1 8.7392176092908902e-01 2.2708486307682385e+01 2.1776108919147276e+01 1 0 0
916 1 1.9159509538394046e+00 2.4405062843178879e+01 1.7856091195792359e+01 0 -1 -1
970 1 8.0818672498281163e+00 1.6338815762820854e+01 1.4410150339470489e+01 -1 0 -1
1010 1 4.3007203762236976e+00 1.4462673384238547e+01 1.9775177609344503e+01 1 1 -1
30 1 3.3285184374976602e+00 2.2448244150422131e+01 2.4596962406950801e+01 1 0 0
3051 1 3.9584008152984183e+00 1.5250597948150910e+01 1.4994245530191685e+01 0 0 1
62 1 1.3471442092797188e+00 2.4026704959078128e+01 1.4712835225552190e+01 0 1 0
2026 1 2.6774803580612034e+00 1.8376081735541693e+01 1.7965029273573755e+01 0 -1 0
21 1 7.8642661865071837e+00 1.6105485303853172e+01 2.0176357649862702e+01 1 0 0
957 1 6.0082854329060060e+00 2.2762755517900668e+01 2.4792189902905875e+01 0 0 0
3823 1 5.1599141386781087e+00 1.7294386840462391e+01 1.9634852193594561e+01 2 0 1
2901 1 6.3112774543479810e+00 1.9895802762100100e+01 2.0518910908163484e+01 0 0 -1
4003 1 1.1771756596908189e+00 1.7478902387976714e+01 2.4545279301111385e+01 1 0 0
1816 1 5.5746991572178954e+00 2.2445002170955913e+01 1.5155392938467676e+01 0 1 1
886 1 4.3003541349242376e+00 2.2701157973754128e+01 1.8585910028417899e+01 0 -1 -1
1848 1 6.7949437124328389e+00 2.3612836808221278e+01 2.2353865925727291e+01 1 0 1
955 1 6.4797132830473956e+00 2.0051045676965675e+01 2.4551155361120408e+01 0 -1 -1
1795 1 3.0508456800723658e+00 1.3483513225968718e+01 2.5027553030635644e+01 0 0 1
25 1 4.8798301891159461e+00 1.5568818335141541e+01 2.4409284327567143e+01 0 0 -1
3002 1 6.4968859984771550e+00 1.4328882008068160e+01 2.1945852820116798e+01 1 0 -1
1061 1 7.7074347732917863e+00 1.5416414938158130e+01 2.4403622663360828e+01 1 1 1
2056 1 6.5382276758842706e-01 1.4868568849055926e+01 2.4191683166209621e+01 1 0 0
1889 1 4.4561485192511805e+00 2.0231415382390054e+01 2.2373240477624698e+01 0 0 0
1081 1 3.9649057620676977e+00 1.7942134244594964e+01 2.4381154991962212e+01 2 1 0
880 1 2.2811493606944548e+00 1.8398634364205058e+01 2.1166453335997872e+01 0 0 0
2995 1 4.4955938332407958e-01 1.6866861814385658e+01 1.7682658393565539e+01 0 0 -1
3133 1 2.2030325945970031e-01 1.4347397203062334e+01 2.1431294554902713e+01 1 2 0
837 1 3.6761249423305647e-01 2.0340412600103075e+01 2.0521190770252552e+01 0 0 -1
1860 1 1.5715237199117357e-01 1.9891587567079775e+01 1.4076656689333602e+01 0 1 0
2945 1 8.1711782991471686e+00 1.8131148034830812e+01 2.4003219222734607e+01 0 -1 0
2943 1 7.5899471573149908e+00 1.2314327690682267e+01 2.4410558876645347e+01 1 0 1
1130 2 0.0000000000000000e+00 2.5575462224561992e+01 3.4021925004919296e+00 0 0 0