LAMMPS data file via write_data, version 16 Mar 2018, timestep = 100000

5031 atoms
2 atom types

0.0000000000000000e+00 4.9219999999999999e+01 xlo xhi
0.0000000000000000e+00 4.9019635930410494e+01 ylo yhi
1.0247948093791770e+00 3.8975205190623441e+01 zlo zhi

Masses

1 18.015
2 12.01

Atoms # atomic

140 2 0.0000000000000000e+00 2.8417180249513345e+00 3.0561673980213016e+00 0 0 0
142 2 0.0000000000000000e+00 0.0000000000000000e+00 3.0561673980213016e+00 0 0 0
144 2 1.2305000000000001e+00 7.1042950623783474e-01 3.0561673980213016e+00 0 0 0
151 2 1.2305000000000001e+00 2.1312885187134998e+00 3.0561673980213016e+00 0 0 0
153 2 2.4610000000000003e+00 2.8417180249513345e+00 3.0561673980213016e+00 0 0 0
155 2 2.4610000000000003e+00 0.0000000000000000e+00 3.0561673980213016e+00 0 0 0
157 2 3.6915000000000004e+00 7.1042950623783474e-01 3.0561673980213016e+00 0 0 0
172 2 3.6914999999999996e+00 2.1312885187134998e+00 3.0561673980213016e+00 0 0 0
174 2 4.9220000000000006e+00 2.8417180249513332e+00 3.0561673980213016e+00 0 0 0
176 2 4.9220000000000006e+00 0.0000000000000000e+00 3.0561673980213016e+00 0 0 0
178 2 6.1524999999999999e+00 7.1042950623783407e-01 3.0561673980213016e+00 0 0 0
201 2 6.1524999999999999e+00 2.1312885187134989e+00 3.0561673980213016e+00 0 0 0
203 2 7.3829999999999991e+00 2.8417180249513345e+00 3.0561673980213016e+00 0 0 0
205 2 7.3829999999999991e+00 0.0000000000000000e+00 3.0561673980213016e+00 0 0 0
207 2 8.6134999999999984e+00 7.1042950623783407e-01 3.0561673980213016e+00 0 0 0
238 2 8.6134999999999984e+00 2.1312885187135002e+00 3.0561673980213016e+00 0 0 0
147 2 0.0000000000000000e+00 4.2625770374269996e+00 3.0561673980213016e+00 0 0 0
149 2 1.2305000000000001e+00 4.9730065436648339e+00 3.0561673980213016e+00 0 0 0
164 2 1.2305000000000001e+00 6.3938655561404980e+00 3.0561673980213016e+00 0 0 0
168 2 2.4610000000000003e+00 4.2625770374269996e+00 3.0561673980213016e+00 0 0 0
170 2 3.6914999999999996e+00 4.9730065436648339e+00 3.0561673980213016e+00 0 0 0
193 2 3.6914999999999996e+00 6.3938655561404980e+00 3.0561673980213016e+00 0 0 0
145 2 0.0000000000000000e+00 7.1042950623783341e+00 3.0561673980213016e+00 0 0 0
166 2 2.4610000000000003e+00 7.1042950623783341e+00 3.0561673980213016e+00 0 0 0
197 2 4.9220000000000006e+00 4.2625770374269978e+00 3.0561673980213016e+00 0 0 0
199 2 6.1524999999999999e+00 4.9730065436648339e+00 3.0561673980213016e+00 0 0 0
230 2 6.1524999999999999e+00 6.3938655561404980e+00 3.0561673980213016e+00 0 0 0
234 2 7.3829999999999991e+00 4.2625770374269996e+00 3.0561673980213016e+00 0 0 0
236 2 8.6135000000000002e+00 4.9730065436648339e+00 3.0561673980213016e+00 0 0 0
275 2 8.6135000000000002e+00 6.3938655561404980e+00 3.0561673980213016e+00 0 0 0
195 2 4.9220000000000006e+00 7.1042950623783341e+00 3.0561673980213016e+00 0 0 0
232 2 7.3830000000000009e+00 7.1042950623783341e+00 3.0561673980213016e+00 0 0 0
160 2 0.0000000000000000e+00 8.5251540748539991e+00 3.0561673980213016e+00 0 0 0
162 2 1.2305000000000001e+00 9.2355835810918343e+00 3.0561673980213016e+00 0 0 0
189 2 2.4610000000000003e+00 8.5251540748539991e+00 3.0561673980213016e+00 0 0 0
191 2 3.6915000000000004e+00 9.2355835810918343e+00 3.0561673980213016e+00 0 0 0
158 2 0.0000000000000000e+00 1.1366872099805333e+01 3.0561673980213016e+00 0 0 0
185 2 1.2305000000000001e+00 1.0656442593567498e+01 3.0561673980213016e+00 0 0 0
187 2 2.4610000000000003e+00 1.1366872099805333e+01 3.0561673980213016e+00 0 0 0
222 2 3.6914999999999996e+00 1.0656442593567499e+01 3.0561673980213016e+00 0 0 0
226 2 4.9220000000000006e+00 8.5251540748539991e+00 3.0561673980213016e+00 0 0 0
228 2 6.1524999999999999e+00 9.2355835810918343e+00 3.0561673980213016e+00 0 0 0
271 2 7.3830000000000009e+00 8.5251540748539991e+00 3.0561673980213016e+00 0 0 0
273 2 8.6134999999999984e+00 9.2355835810918343e+00 3.0561673980213016e+00 0 0 0
224 2 4.9220000000000006e+00 1.1366872099805333e+01 3.0561673980213016e+00 0 0 0
267 2 6.1524999999999999e+00 1.0656442593567499e+01 3.0561673980213016e+00 0 0 0
269 2 7.3829999999999991e+00 1.1366872099805333e+01 3.0561673980213016e+00 0 0 0
314 2 8.6134999999999984e+00 1.0656442593567498e+01 3.0561673980213016e+00 0 0 0
141 2 0.0000000000000000e+00 1.4208590124756650e+00 6.1577126988474209e+00 0 0 0
143 2 0.0000000000000000e+00 0.0000000000000000e+00 6.1577126988474209e+00 0 0 0
152 2 1.2305000000000001e+00 2.1312885187134998e+00 6.1577126988474209e+00 0 0 0
154 2 2.4610000000000003e+00 1.4208590124756650e+00 6.1577126988474209e+00 0 0 0
156 2 2.4610000000000003e+00 0.0000000000000000e+00 6.1577126988474209e+00 0 0 0
173 2 3.6914999999999996e+00 2.1312885187134998e+00 6.1577126988474209e+00 0 0 0
150 2 1.2305000000000001e+00 3.5521475311891644e+00 6.1577126988474209e+00 0 0 0
171 2 3.6914999999999996e+00 3.5521475311891644e+00 6.1577126988474209e+00 0 0 0
469 2 0.0000000000000000e+00 2.8417180249513345e+00 9.2592579996735953e+00 0 0 0
470 2 0.0000000000000000e+00 0.0000000000000000e+00 9.2592579996735953e+00 0 0 0
471 2 1.2305000000000001e+00 7.1042950623783474e-01 9.2592579996735953e+00 0 0 0
475 2 1.2305000000000001e+00 2.1312885187134998e+00 9.2592579996735953e+00 0 0 0
476 2 2.4610000000000003e+00 2.8417180249513345e+00 9.2592579996735953e+00 0 0 0
477 2 2.4610000000000003e+00 0.0000000000000000e+00 9.2592579996735953e+00 0 0 0
478 2 3.6915000000000004e+00 7.1042950623783474e-01 9.2592579996735953e+00 0 0 0
486 2 3.6914999999999996e+00 2.1312885187134998e+00 9.2592579996735953e+00 0 0 0
175 2 4.9220000000000006e+00 1.4208590124756650e+00 6.1577126988474209e+00 0 0 0
177 2 4.9220000000000006e+00 0.0000000000000000e+00 6.1577126988474209e+00 0 0 0
202 2 6.1524999999999999e+00 2.1312885187134989e+00 6.1577126988474209e+00 0 0 0
204 2 7.3829999999999991e+00 1.4208590124756659e+00 6.1577126988474209e+00 0 0 0
206 2 7.3829999999999991e+00 0.0000000000000000e+00 6.1577126988474209e+00 0 0 0
239 2 8.6134999999999984e+00 2.1312885187135002e+00 6.1577126988474209e+00 0 0 0
200 2 6.1524999999999999e+00 3.5521475311891644e+00 6.1577126988474209e+00 0 0 0
237 2 8.6134999999999984e+00 3.5521475311891657e+00 6.1577126988474209e+00 0 0 0
487 2 4.9220000000000006e+00 2.8417180249513332e+00 9.2592579996735953e+00 0 0 0
488 2 4.9220000000000006e+00 0.0000000000000000e+00 9.2592579996735953e+00 0 0 0
489 2 6.1524999999999999e+00 7.1042950623783407e-01 9.2592579996735953e+00 0 0 0
501 2 6.1524999999999999e+00 2.1312885187134989e+00 9.2592579996735953e+00 0 0 0
502 2 7.3829999999999991e+00 2.8417180249513345e+00 9.2592579996735953e+00 0 0 0
503 2 7.3829999999999991e+00 0.0000000000000000e+00 9.2592579996735953e+00 0 0 0
504 2 8.6134999999999984e+00 7.1042950623783407e-01 9.2592579996735953e+00 0 0 0
520 2 8.6134999999999984e+00 2.1312885187135002e+00 9.2592579996735953e+00 0 0 0
146 2 0.0000000000000000e+00 5.6834360499026637e+00 6.1577126988474209e+00 0 0 0
148 2 0.0000000000000000e+00 4.2625770374269996e+00 6.1577126988474209e+00 0 0 0
165 2 1.2305000000000001e+00 6.3938655561404980e+00 6.1577126988474209e+00 0 0 0
167 2 2.4610000000000003e+00 5.6834360499026637e+00 6.1577126988474209e+00 0 0 0
169 2 2.4610000000000003e+00 4.2625770374269996e+00 6.1577126988474209e+00 0 0 0
194 2 3.6914999999999996e+00 6.3938655561404980e+00 6.1577126988474209e+00 0 0 0
163 2 1.2305000000000001e+00 7.8147245686161639e+00 6.1577126988474209e+00 0 0 0
192 2 3.6914999999999996e+00 7.8147245686161639e+00 6.1577126988474209e+00 0 0 0
473 2 0.0000000000000000e+00 4.2625770374269996e+00 9.2592579996735953e+00 0 0 0
474 2 1.2305000000000001e+00 4.9730065436648339e+00 9.2592579996735953e+00 0 0 0
482 2 1.2305000000000001e+00 6.3938655561404980e+00 9.2592579996735953e+00 0 0 0
484 2 2.4610000000000003e+00 4.2625770374269996e+00 9.2592579996735953e+00 0 0 0
485 2 3.6914999999999996e+00 4.9730065436648339e+00 9.2592579996735953e+00 0 0 0
497 2 3.6914999999999996e+00 6.3938655561404980e+00 9.2592579996735953e+00 0 0 0
472 2 0.0000000000000000e+00 7.1042950623783341e+00 9.2592579996735953e+00 0 0 0
483 2 2.4610000000000003e+00 7.1042950623783341e+00 9.2592579996735953e+00 0 0 0
196 2 4.9220000000000006e+00 5.6834360499026637e+00 6.1577126988474209e+00 0 0 0
198 2 4.9220000000000006e+00 4.2625770374269978e+00 6.1577126988474209e+00 0 0 0
231 2 6.1524999999999999e+00 6.3938655561404980e+00 6.1577126988474209e+00 0 0 0
233 2 7.3829999999999991e+00 5.6834360499026637e+00 6.1577126988474209e+00 0 0 0
235 2 7.3829999999999991e+00 4.2625770374269996e+00 6.1577126988474209e+00 0 0 0
276 2 8.6135000000000002e+00 6.3938655561404980e+00 6.1577126988474209e+00 0 0 0
229 2 6.1524999999999999e+00 7.8147245686161639e+00 6.1577126988474209e+00 0 0 0
274 2 8.6135000000000002e+00 7.8147245686161639e+00 6.1577126988474209e+00 0 0 0
499 2 4.9220000000000006e+00 4.2625770374269978e+00 9.2592579996735953e+00 0 0 0
500 2 6.1524999999999999e+00 4.9730065436648339e+00 9.2592579996735953e+00 0 0 0
516 2 6.1524999999999999e+00 6.3938655561404980e+00 9.2592579996735953e+00 0 0 0
518 2 7.3829999999999991e+00 4.2625770374269996e+00 9.2592579996735953e+00 0 0 0
519 2 8.6135000000000002e+00 4.9730065436648339e+00 9.2592579996735953e+00 0 0 0
539 2 8.6135000000000002e+00 6.3938655561404980e+00 9.2592579996735953e+00 0 0 0
498 2 4.9220000000000006e+00 7.1042950623783341e+00 9.2592579996735953e+00 0 0 0
517 2 7.3830000000000009e+00 7.1042950623783341e+00 9.2592579996735953e+00 0 0 0
159 2 0.0000000000000000e+00 9.9460130873296642e+00 6.1577126988474209e+00 0 0 0
161 2 0.0000000000000000e+00 8.5251540748539991e+00 6.1577126988474209e+00 0 0 0
188 2 2.4610000000000003e+00 9.9460130873296642e+00 6.1577126988474209e+00 0 0 0
190 2 2.4610000000000003e+00 8.5251540748539991e+00 6.1577126988474209e+00 0 0 0
184 2 1.2305000000000001e+00 1.2077301606043163e+01 6.1577126988474209e+00 0 0 0
186 2 1.2305000000000001e+00 1.0656442593567498e+01 6.1577126988474209e+00 0 0 0
221 2 3.6914999999999996e+00 1.2077301606043163e+01 6.1577126988474209e+00 0 0 0
223 2 3.6914999999999996e+00 1.0656442593567499e+01 6.1577126988474209e+00 0 0 0
480 2 0.0000000000000000e+00 8.5251540748539991e+00 9.2592579996735953e+00 0 0 0
481 2 1.2305000000000001e+00 9.2355835810918343e+00 9.2592579996735953e+00 0 0 0
495 2 2.4610000000000003e+00 8.5251540748539991e+00 9.2592579996735953e+00 0 0 0
496 2 3.6915000000000004e+00 9.2355835810918343e+00 9.2592579996735953e+00 0 0 0
479 2 0.0000000000000000e+00 1.1366872099805333e+01 9.2592579996735953e+00 0 0 0
493 2 1.2305000000000001e+00 1.0656442593567498e+01 9.2592579996735953e+00 0 0 0
494 2 2.4610000000000003e+00 1.1366872099805333e+01 9.2592579996735953e+00 0 0 0
512 2 3.6914999999999996e+00 1.0656442593567499e+01 9.2592579996735953e+00 0 0 0
535 2 6.1524999999999999e+00 1.0656442593567499e+01 9.2592579996735953e+00 0 0 0
536 2 7.3829999999999991e+00 1.1366872099805333e+01 9.2592579996735953e+00 0 0 0
559 2 8.6134999999999984e+00 1.0656442593567498e+01 9.2592579996735953e+00 0 0 0
225 2 4.9220000000000006e+00 9.9460130873296642e+00 6.1577126988474209e+00 0 0 0
227 2 4.9220000000000006e+00 8.5251540748539991e+00 6.1577126988474209e+00 0 0 0
270 2 7.3830000000000009e+00 9.9460130873296642e+00 6.1577126988474209e+00 0 0 0
272 2 7.3830000000000009e+00 8.5251540748539991e+00 6.1577126988474209e+00 0 0 0
266 2 6.1524999999999999e+00 1.2077301606043163e+01 6.1577126988474209e+00 0 0 0
268 2 6.1524999999999999e+00 1.0656442593567499e+01 6.1577126988474209e+00 0 0 0
313 2 8.6135000000000002e+00 1.2077301606043163e+01 6.1577126988474209e+00 0 0 0
315 2 8.6134999999999984e+00 1.0656442593567498e+01 6.1577126988474209e+00 0 0 0
514 2 4.9220000000000006e+00 8.5251540748539991e+00 9.2592579996735953e+00 0 0 0
515 2 6.1524999999999999e+00 9.2355835810918343e+00 9.2592579996735953e+00 0 0 0
537 2 7.3830000000000009e+00 8.5251540748539991e+00 9.2592579996735953e+00 0 0 0
538 2 8.6134999999999984e+00 9.2355835810918343e+00 9.2592579996735953e+00 0 0 0
513 2 4.9220000000000006e+00 1.1366872099805333e+01 9.2592579996735953e+00 0 0 0
4315 1 9.3255119950622944e-01 7.7746613696138178e+00 1.1769271082509885e+01 1 1 0
3291 1 2.7649212917802677e+00 2.4828314276130996e+00 1.2587493863046088e+01 0 0 0
3387 1 2.8414703809494086e+00 3.2870989396722927e+00 1.5340465702659374e+01 1 -1 0
1563 1 5.3844175361167967e-01 6.5901951298089108e+00 1.4082099112182602e+01 0 1 0
3157 1 4.8264063427134403e+00 1.1200828137781855e+01 1.1514886516371591e+01 0 1 0
959 1 7.2065026532759324e+00 2.5384544451971314e+00 1.2550105380353841e+01 1 1 1
1848 1 6.9104112295500766e+00 7.8074339877644654e+00 1.8116681204633494e+01 1 0 0
2671 1 2.9081430319767696e+00 6.2183198577805507e+00 1.5782186265977419e+01 1 1 0
4057 1 4.9657888909265298e+00 4.0863064493390544e+00 1.1438018028180760e+01 1 1 0
725 1 2.4439708067270169e+00 9.2002541085257583e+00 1.7657309833711853e+01 2 0 -1
687 1 4.3229375647029888e+00 2.5629353210212407e+00 1.9910459403758537e+01 0 0 -1
3476 1 5.7463837236189832e+00 6.8707278146472435e+00 1.2276024233540046e+01 1 0 0
825 1 5.5003630426681278e+00 6.0902337978453662e+00 1.4844811033908318e+01 -1 0 0
77 1 3.7080783543607785e+00 8.6748233290033578e+00 1.2337897192517236e+01 0 1 0
2638 1 3.2063558187433121e+00 9.3987250848859727e+00 1.5089290040321510e+01 0 1 0
2613 1 1.2662087101641684e-01 1.1052819543224670e+01 1.2165480750433183e+01 1 1 0
3431 1 9.5445225063297432e+00 4.3768608468600521e+00 1.5800613487986714e+01 1 0 0
4842 1 1.3457153035461993e+00 1.3313979049983488e-01 1.2890141532473130e+01 1 0 0
2448 1 7.8837221515978042e+00 8.5428472908224755e+00 1.2440402926974270e+01 0 0 -1
1641 1 8.6074953289075502e+00 1.1468000606222041e+01 1.2778441759237349e+01 0 0 0
3488 1 9.5230690543037078e+00 8.0577167218976220e-01 1.8711322274339658e+01 0 1 0
791 1 3.3262253212521276e+00 1.1196775553947843e+01 1.9324731179735405e+01 -1 1 -1
3176 1 9.3074548902961329e-01 4.7058298578836686e+00 1.1840705635574288e+01 0 1 0
3491 1 6.6116360508833507e+00 4.9244193171273585e+00 1.8582254664122793e+01 0 0 -1
1826 1 5.5033306900061394e+00 1.8604283793285461e+00 1.4725042518685841e+01 0 0 0
4137 1 3.0061915991314900e+00 1.5611191241261009e+00 1.7647618726530954e+01 -1 1 0
3414 1 4.3039102585229294e-01 3.9486909387667091e-01 1.7940336880865409e+01 1 0 1
1531 1 9.1824292130757676e+00 9.1180966581951850e+00 1.6065833813768172e+01 1 1 0
927 1 6.2544977480222723e+00 8.8400302230045469e+00 1.5486274507866794e+01 1 0 1
1843 1 4.3419963115351023e-01 1.0117969136736308e+01 1.4749104664487110e+01 2 0 0
96 1 6.9134309033656480e+00 3.9787435332924330e+00 1.6004474051013972e+01 -1 1 1
5031 1 1.9465038374777599e+00 6.2377262973420269e+00 1.8472385138410168e+01 1 0 -1
1653 1 6.4267008785096849e+00 1.2064178551860765e+01 1.6665971333200051e+01 1 0 0
3332 1 9.8003707637899886e+00 6.8606901369135560e+00 1.4288192316951129e+01 0 -1 -1
2548 1 5.6052458834001779e+00 2.5174962760309311e-01 1.7366027990583362e+01 0 1 0
37 1 6.8392303852379284e+00 1.1621475232377827e+00 1.9663279373795177e+01 0 1 -1
2674 1 9.1709554967174149e+00 1.1963520457858312e+01 1.5558341751612275e+01 0 -1 0
4965 1 8.6845365210030323e+00 3.7171205932778215e+00 1.9592759589183633e+01 1 1 0
4131 1 3.2960180081875183e+00 1.2241547253133957e+01 1.5072427795007455e+01 1 1 0
4187 1 9.7863476426798321e+00 3.7599806503368995e+00 1.2021873855297050e+01 0 0 0
2672 1 2.4791923666396474e+00 1.6867024987747858e+00 2.1720900674867078e+01 0 1 0
833 1 2.6390962159352167e+00 1.0915863577126165e+01 2.4258341898149389e+01 0 0 0
4035 1 3.8856717021350931e+00 2.6056293058894187e+00 2.3954438191401493e+01 0 0 0
4256 1 7.1081905499115416e+00 3.0787255483339659e-02 2.2623574926083091e+01 0 1 0
1817 1 5.7076942145660858e+00 6.8457848918584210e+00 2.4695118477074224e+01 0 1 0
2352 1 6.6470475655530352e+00 2.5323193082042859e+00 2.3855933247200745e+01 0 0 0
2327 1 2.1922972526799493e+00 5.8580595820621095e+00 2.7448362620927330e+01 1 0 0
116 1 3.8673087125018744e+00 5.3995820272725412e+00 2.3451807449209298e+01 -1 0 0
2433 1 1.8537154064301287e+00 6.4986297887758449e+00 2.4462214461279881e+01 1 0 0
4812 1 8.2412001323163739e+00 4.2771008430093573e+00 2.2471244212714023e+01 1 0 0
834 1 7.5756779758403923e+00 7.0921162792432124e+00 2.2795981827859883e+01 0 1 0
4851 1 5.4235115879247981e+00 7.6120571066189679e+00 2.0648956411418034e+01 0 1 0
1596 1 3.5590768825404018e+00 8.6087727894861601e+00 2.5263384851130983e+01 0 0 0
916 1 9.1730292972049128e+00 7.8970845964137544e+00 2.5136655411931926e+01 1 0 0
3492 1 9.5238848914123011e+00 1.0416453482407146e+01 2.5645871811544065e+01 0 1 0
59 1 5.3096595317035415e+00 8.9107873553635546e+00 2.7525902688470477e+01 1 1 -1
2461 1 8.3684186599569692e+00 1.0991451397991524e+01 2.1515799904203330e+01 0 1 0
942 1 6.4863646048767967e+00 1.0311264713839051e+01 2.3133446686840614e+01 0 1 0
4079 1 2.6989795063095134e+00 1.4216940552814747e+00 2.6322200522516003e+01 0 0 0
1515 1 8.9338222825196356e-01 9.4724912771347558e+00 2.1637856625431855e+01 0 1 0
1790 1 6.8692243075210335e+00 1.1167978610117652e+01 2.5930026572622687e+01 0 -2 1
1836 1 7.4917955210034890e+00 2.2582414183916595e+00 2.6426657879015945e+01 1 1 0
4085 1 4.5491198626229412e+00 5.9979326130925132e+00 2.8949162948597717e+01 0 1 0
4854 1 9.1189872085790591e-01 3.4216819206077052e+00 2.7510359755061678e+01 1 1 0
4253 1 3.5347991903233349e+00 1.0207405850011693e+01 2.9186713422229019e+01 1 0 0
886 1 7.9495500647385446e+00 7.0673899038949823e+00 2.7358736195095158e+01 0 1 0
3978 1 6.2843095403418205e+00 4.8978134117149024e+00 2.6829985182803600e+01 0 0 0
2637 1 6.2335606275944155e-01 8.2236814899854540e+00 2.8852697820707480e+01 0 0 0
4801 1 1.2981447147496579e+00 1.0343131581578540e+01 2.7182348232010746e+01 1 1 0
4889 1 3.8447157251809161e+00 9.8230249644622383e+00 2.1731849487841881e+01 2 0 0
1001 1 8.9495840229475601e+00 3.3828548699544672e+00 2.9045256389193565e+01 1 1 0
2691 1 3.9214755313510978e+00 5.4665294253466259e+00 2.0502230394403380e+01 0 1 1
4809 1 9.5532564410806025e+00 8.5595183834957460e+00 2.1263429461720481e+01 -1 1 0
1670 1 1.1266169093336392e-01 1.2253317363613016e+01 2.1616826000366494e+01 2 -1 -1
4916 1 6.4702348576307998e+00 6.8523657021238193e-02 2.7910810153638153e+01 1 1 0
3261 1 2.1974165664404577e+00 2.5401083439287473e+00 3.1722560619451443e+01 0 0 0
2495 1 1.8044780528594098e+00 1.4500685224587264e+00 3.4474766365517553e+01 0 1 -1
3364 1 4.9733024692406698e+00 8.0242157613089340e+00 3.1515897539877088e+01 1 1 -1
4145 1 8.4554653928232053e+00 3.0476696558348948e+00 3.4643357732038140e+01 1 2 0
4827 1 7.6245546132749080e+00 1.0961917435981889e+01 3.0219546019445243e+01 1 -1 0
3211 1 3.9191072649761431e+00 4.8271414737628779e+00 3.1931183201539618e+01 1 0 0
895 1 1.6417119576810693e+00 6.4470466592980848e+00 3.2507521642213234e+01 0 -1 0
949 1 6.3662031361631097e+00 7.3773562822848575e+00 3.3799822663782209e+01 0 1 0
54 1 9.2490171584424168e+00 4.2088131363692831e+00 3.2002091503161488e+01 0 0 0
631 1 4.8985040588391273e+00 1.1752088522675843e+01 3.1012443238192471e+01 -1 1 0
4022 1 6.5589776626320528e+00 9.4093666283572652e+00 3.5427920461408235e+01 0 1 1
4242 1 1.9718050953224380e+00 8.9151587005166704e+00 3.1150653671043997e+01 1 0 0
2703 1 9.3344036505184285e+00 1.1161637568639467e+01 3.4418568757153835e+01 1 -1 1
4055 1 6.7220716937039731e+00 1.1882770051040049e+01 3.3405783222872259e+01 0 -1 0
2490 1 7.3759961078887546e+00 8.3970490320049311e+00 3.0039265451611868e+01 1 0 0
1594 1 9.1210538598883328e+00 7.0818773372962767e+00 3.1604212227610656e+01 -1 -1 0
1535 1 4.0328558787629945e+00 1.4127455881622804e+00 3.7942874698287909e+01 0 0 0
948 1 3.9681349945087350e+00 2.3595061038389757e+00 3.5429266194740876e+01 0 1 0
951 1 1.9172760967795406e+00 3.2137883231301743e+00 3.8445085084151614e+01 1 0 0
728 1 9.1682562200296402e+00 1.1512925295302249e+01 3.7083364148956193e+01 -1 1 0
935 1 6.1762927391579110e+00 1.1305737736403907e+00 3.4088864205299430e+01 1 0 0
115 1 6.5908205430502038e+00 1.0973657918441484e+00 3.8438400531699486e+01 0 -1 0
3221 1 2.2435896192595322e+00 8.7075955088865200e+00 3.8216440612535081e+01 0 -1 0
4092 1 2.6137077814634733e+00 6.2779662422666522e+00 3.5570448579680075e+01 0 0 -1
632 1 4.7680920060841743e+00 5.0278989585360954e+00 3.4479984673633652e+01 0 1 0
3526 1 3.0073207957040107e+00 5.7994081330977014e+00 3.8413909262474647e+01 0 -1 0
3496 1 5.7087401247453498e+00 6.1910265866455729e+00 3.8241670783685421e+01 1 0 1
1616 1 9.7210615591658875e+00 7.0596069983705139e+00 3.6116182153541914e+01 0 -1 0
1494 1 7.5558475645928525e+00 3.7493001094353131e+00 3.8472321624459155e+01 0 0 -1
4309 1 7.5353131514131979e+00 5.2972557861819842e+00 3.5948790665558860e+01 1 0 0
3288 1 3.9927273316820435e+00 1.0305127628827998e+01 3.5656270184458336e+01 0 1 -1
1806 1 4.5161828944600320e+00 1.0728735911295562e+01 3.8443652361899993e+01 1 0 0
4979 1 6.0001666411884953e+00 9.9005101888306091e-01 3.1287280481520462e+01 1 0 -1
2584 1 6.3610994837314774e+00 3.7269068850767999e+00 3.0397492483640381e+01 0 0 0
2516 1 6.3901012832074002e+00 8.8836180647037448e+00 3.8448657323410458e+01 0 1 0
806 1 9.7602895930678866e+00 8.5537742582385352e+00 3.3883734940531539e+01 2 1 0
4236 1 9.4342864113370197e+00 8.8434602068998007e+00 3.8301005062164876e+01 0 1 -1
4094 1 1.7869177284238082e+00 8.8348784058575500e+00 3.5248459617253943e+01 0 0 0
4087 1 3.2602917314475333e-01 1.0691131042417684e+01 3.2731531489109415e+01 0 0 0
1661 1 4.4552149972664978e-01 1.0894120051457325e+01 3.8172518706610475e+01 1 0 0
2528 1 3.4714071129171575e+00 4.4393588054373678e-01 3.0512118169942397e+01 1 1 -1
181 2 0.0000000000000000e+00 1.2787731112280996e+01 3.0561673980213016e+00 0 0 0
183 2 1.2305000000000001e+00 1.3498160618518829e+01 3.0561673980213016e+00 0 0 0
218 2 2.4610000000000003e+00 1.2787731112280996e+01 3.0561673980213016e+00 0 0 0
220 2 3.6915000000000004e+00 1.3498160618518829e+01 3.0561673980213016e+00 0 0 0
179 2 0.0000000000000000e+00 1.5629449137232333e+01 3.0561673980213016e+00 0 0 0
214 2 1.2305000000000001e+00 1.4919019630994494e+01 3.0561673980213016e+00 0 0 0
216 2 2.4610000000000003e+00 1.5629449137232328e+01 3.0561673980213016e+00 0 0 0
259 2 3.6915000000000004e+00 1.4919019630994494e+01 3.0561673980213016e+00 0 0 0
263 2 4.9220000000000006e+00 1.2787731112280996e+01 3.0561673980213016e+00 0 0 0
265 2 6.1524999999999990e+00 1.3498160618518829e+01 3.0561673980213016e+00 0 0 0
310 2 7.3829999999999991e+00 1.2787731112280996e+01 3.0561673980213016e+00 0 0 0
312 2 8.6135000000000002e+00 1.3498160618518835e+01 3.0561673980213016e+00 0 0 0
261 2 4.9220000000000006e+00 1.5629449137232333e+01 3.0561673980213016e+00 0 0 0
306 2 6.1524999999999990e+00 1.4919019630994494e+01 3.0561673980213016e+00 0 0 0
308 2 7.3829999999999991e+00 1.5629449137232333e+01 3.0561673980213016e+00 0 0 0
353 2 8.6135000000000002e+00 1.4919019630994494e+01 3.0561673980213016e+00 0 0 0
210 2 0.0000000000000000e+00 1.7050308149707998e+01 3.0561673980213016e+00 0 0 0
255 2 2.4610000000000003e+00 1.7050308149707998e+01 3.0561673980213016e+00 0 0 0
208 2 0.0000000000000000e+00 1.9892026174659328e+01 3.0561673980213016e+00 0 0 0
212 2 1.2305000000000001e+00 1.7760737655945832e+01 3.0561673980213016e+00 0 0 0
251 2 1.2305000000000001e+00 1.9181596668421495e+01 3.0561673980213016e+00 0 0 0
253 2 2.4610000000000003e+00 1.9892026174659328e+01 3.0561673980213016e+00 0 0 0
257 2 3.6914999999999996e+00 1.7760737655945832e+01 3.0561673980213016e+00 0 0 0
298 2 3.6914999999999996e+00 1.9181596668421495e+01 3.0561673980213016e+00 0 0 0
302 2 4.9220000000000006e+00 1.7050308149707998e+01 3.0561673980213016e+00 0 0 0
349 2 7.3830000000000009e+00 1.7050308149707998e+01 3.0561673980213016e+00 0 0 0
300 2 4.9220000000000006e+00 1.9892026174659328e+01 3.0561673980213016e+00 0 0 0
304 2 6.1524999999999999e+00 1.7760737655945832e+01 3.0561673980213016e+00 0 0 0
345 2 6.1524999999999999e+00 1.9181596668421495e+01 3.0561673980213016e+00 0 0 0
347 2 7.3829999999999991e+00 1.9892026174659328e+01 3.0561673980213016e+00 0 0 0
351 2 8.6134999999999984e+00 1.7760737655945832e+01 3.0561673980213016e+00 0 0 0
387 2 8.6135000000000002e+00 1.9181596668421495e+01 3.0561673980213016e+00 0 0 0
245 2 0.0000000000000000e+00 2.4154603212086325e+01 3.0561673980213016e+00 0 0 0
247 2 0.0000000000000000e+00 2.1312885187134999e+01 3.0561673980213016e+00 0 0 0
249 2 1.2304999999999993e+00 2.2023314693372832e+01 3.0561673980213016e+00 0 0 0
290 2 1.2304999999999993e+00 2.3444173705848499e+01 3.0561673980213016e+00 0 0 0
292 2 2.4610000000000003e+00 2.4154603212086325e+01 3.0561673980213016e+00 0 0 0
294 2 2.4610000000000003e+00 2.1312885187134995e+01 3.0561673980213016e+00 0 0 0
296 2 3.6914999999999996e+00 2.2023314693372832e+01 3.0561673980213016e+00 0 0 0
337 2 3.6915000000000004e+00 2.3444173705848499e+01 3.0561673980213016e+00 0 0 0
339 2 4.9220000000000006e+00 2.4154603212086325e+01 3.0561673980213016e+00 0 0 0
341 2 4.9220000000000006e+00 2.1312885187134995e+01 3.0561673980213016e+00 0 0 0
343 2 6.1524999999999990e+00 2.2023314693372832e+01 3.0561673980213016e+00 0 0 0
379 2 6.1524999999999999e+00 2.3444173705848499e+01 3.0561673980213016e+00 0 0 0
381 2 7.3830000000000009e+00 2.4154603212086336e+01 3.0561673980213016e+00 0 0 0
383 2 7.3829999999999991e+00 2.1312885187134999e+01 3.0561673980213016e+00 0 0 0
385 2 8.6135000000000002e+00 2.2023314693372832e+01 3.0561673980213016e+00 0 0 0
413 2 8.6134999999999984e+00 2.3444173705848499e+01 3.0561673980213016e+00 0 0 0
182 2 0.0000000000000000e+00 1.2787731112280996e+01 6.1577126988474209e+00 0 0 0
219 2 2.4610000000000003e+00 1.2787731112280996e+01 6.1577126988474209e+00 0 0 0
180 2 0.0000000000000000e+00 1.4208590124756663e+01 6.1577126988474209e+00 0 0 0
215 2 1.2305000000000001e+00 1.4919019630994494e+01 6.1577126988474209e+00 0 0 0
217 2 2.4610000000000003e+00 1.4208590124756663e+01 6.1577126988474209e+00 0 0 0
260 2 3.6915000000000004e+00 1.4919019630994494e+01 6.1577126988474209e+00 0 0 0
491 2 0.0000000000000000e+00 1.2787731112280996e+01 9.2592579996735953e+00 0 0 0
492 2 1.2305000000000001e+00 1.3498160618518829e+01 9.2592579996735953e+00 0 0 0
510 2 2.4610000000000003e+00 1.2787731112280996e+01 9.2592579996735953e+00 0 0 0
511 2 3.6915000000000004e+00 1.3498160618518829e+01 9.2592579996735953e+00 0 0 0
490 2 0.0000000000000000e+00 1.5629449137232333e+01 9.2592579996735953e+00 0 0 0
508 2 1.2305000000000001e+00 1.4919019630994494e+01 9.2592579996735953e+00 0 0 0
509 2 2.4610000000000003e+00 1.5629449137232328e+01 9.2592579996735953e+00 0 0 0
531 2 3.6915000000000004e+00 1.4919019630994494e+01 9.2592579996735953e+00 0 0 0
264 2 4.9220000000000006e+00 1.2787731112280996e+01 6.1577126988474209e+00 0 0 0
311 2 7.3829999999999991e+00 1.2787731112280996e+01 6.1577126988474209e+00 0 0 0
262 2 4.9220000000000006e+00 1.4208590124756663e+01 6.1577126988474209e+00 0 0 0
307 2 6.1524999999999990e+00 1.4919019630994494e+01 6.1577126988474209e+00 0 0 0
309 2 7.3830000000000009e+00 1.4208590124756663e+01 6.1577126988474209e+00 0 0 0
354 2 8.6135000000000002e+00 1.4919019630994494e+01 6.1577126988474209e+00 0 0 0
533 2 4.9220000000000006e+00 1.2787731112280996e+01 9.2592579996735953e+00 0 0 0
534 2 6.1524999999999990e+00 1.3498160618518829e+01 9.2592579996735953e+00 0 0 0
557 2 7.3829999999999991e+00 1.2787731112280996e+01 9.2592579996735953e+00 0 0 0
558 2 8.6135000000000002e+00 1.3498160618518835e+01 9.2592579996735953e+00 0 0 0
532 2 4.9220000000000006e+00 1.5629449137232333e+01 9.2592579996735953e+00 0 0 0
555 2 6.1524999999999990e+00 1.4919019630994494e+01 9.2592579996735953e+00 0 0 0
556 2 7.3829999999999991e+00 1.5629449137232333e+01 9.2592579996735953e+00 0 0 0
579 2 8.6135000000000002e+00 1.4919019630994494e+01 9.2592579996735953e+00 0 0 0
211 2 0.0000000000000000e+00 1.7050308149707998e+01 6.1577126988474209e+00 0 0 0
213 2 1.2305000000000001e+00 1.6339878643470165e+01 6.1577126988474209e+00 0 0 0
256 2 2.4610000000000003e+00 1.7050308149707998e+01 6.1577126988474209e+00 0 0 0
258 2 3.6915000000000004e+00 1.6339878643470165e+01 6.1577126988474209e+00 0 0 0
209 2 0.0000000000000000e+00 1.8471167162183658e+01 6.1577126988474209e+00 0 0 0
252 2 1.2305000000000001e+00 1.9181596668421495e+01 6.1577126988474209e+00 0 0 0
254 2 2.4610000000000003e+00 1.8471167162183658e+01 6.1577126988474209e+00 0 0 0
299 2 3.6914999999999996e+00 1.9181596668421495e+01 6.1577126988474209e+00 0 0 0
506 2 0.0000000000000000e+00 1.7050308149707998e+01 9.2592579996735953e+00 0 0 0
529 2 2.4610000000000003e+00 1.7050308149707998e+01 9.2592579996735953e+00 0 0 0
505 2 0.0000000000000000e+00 1.9892026174659328e+01 9.2592579996735953e+00 0 0 0
507 2 1.2305000000000001e+00 1.7760737655945832e+01 9.2592579996735953e+00 0 0 0
527 2 1.2305000000000001e+00 1.9181596668421495e+01 9.2592579996735953e+00 0 0 0
528 2 2.4610000000000003e+00 1.9892026174659328e+01 9.2592579996735953e+00 0 0 0
530 2 3.6914999999999996e+00 1.7760737655945832e+01 9.2592579996735953e+00 0 0 0
551 2 3.6914999999999996e+00 1.9181596668421495e+01 9.2592579996735953e+00 0 0 0
303 2 4.9220000000000006e+00 1.7050308149707998e+01 6.1577126988474209e+00 0 0 0
305 2 6.1524999999999999e+00 1.6339878643470165e+01 6.1577126988474209e+00 0 0 0
350 2 7.3830000000000009e+00 1.7050308149707998e+01 6.1577126988474209e+00 0 0 0
352 2 8.6134999999999984e+00 1.6339878643470165e+01 6.1577126988474209e+00 0 0 0
301 2 4.9220000000000006e+00 1.8471167162183658e+01 6.1577126988474209e+00 0 0 0
346 2 6.1524999999999999e+00 1.9181596668421495e+01 6.1577126988474209e+00 0 0 0
348 2 7.3829999999999991e+00 1.8471167162183658e+01 6.1577126988474209e+00 0 0 0
388 2 8.6135000000000002e+00 1.9181596668421495e+01 6.1577126988474209e+00 0 0 0
553 2 4.9220000000000006e+00 1.7050308149707998e+01 9.2592579996735953e+00 0 0 0
577 2 7.3830000000000009e+00 1.7050308149707998e+01 9.2592579996735953e+00 0 0 0
552 2 4.9220000000000006e+00 1.9892026174659328e+01 9.2592579996735953e+00 0 0 0
554 2 6.1524999999999999e+00 1.7760737655945832e+01 9.2592579996735953e+00 0 0 0
575 2 6.1524999999999999e+00 1.9181596668421495e+01 9.2592579996735953e+00 0 0 0