
# Create simulation box and atoms

read_data data.ML_graphite_m1000atm_250K
  orthogonal box = (0 0 1.04861) to (49.22 49.0196 38.9514)
  5 by 4 by 4 MPI processor grid
  reading atoms ...
  5031 atoms
  reading velocities ...
  5031 velocities
group water type 1
2271 atoms in group water
group graphite type 2
2760 atoms in group graphite

# Define potential

pair_style sw
pair_coeff * * MLC_e.sw mW C


# Fix graphite atoms in place

fix 5 graphite setforce 0.0 0.0 0.0
velocity graphite set 0.0 0.0 0.0


# Equilibration of molecular water

# Add velocity/set timestep

velocity	    water create ${TEMP} ${SEED} rot yes dist gaussian
velocity	    water create 250 ${SEED} rot yes dist gaussian
velocity	    water create 250 13527 rot yes dist gaussian
timestep	    5.0

# Define output

compute			1 water msd
compute			3 water temp
thermo	    	50
thermo_style	custom step temp press vol etotal ke pe c_1[4] c_3

# Neighbor lists

neigh_modify    delay 0 every 1 check yes

# Set fixes

fix             1 water momentum 10 linear 1 1 1 rescale
fix             2 water nve
fix             3 water temp/csvr ${TEMP} ${TEMP} 500.0 ${SEED}
fix             3 water temp/csvr 250 ${TEMP} 500.0 ${SEED}
fix             3 water temp/csvr 250 250 500.0 ${SEED}
fix             3 water temp/csvr 250 250 500.0 13527
fix             4 water press/berendsen z ${PRES} ${PRES} 1000.0 modulus 20000
fix             4 water press/berendsen z -1000 ${PRES} 1000.0 modulus 20000
fix             4 water press/berendsen z -1000 -1000 1000.0 modulus 20000

# Run 0.5 ns equilibration

dump		    1 all atom 2000 ${DIR}/eq.${NAME}-${TEMP}.dump
dump		    1 all atom 2000 run_6/eq.${NAME}-${TEMP}.dump
dump		    1 all atom 2000 run_6/eq.het_freeze_6-${TEMP}.dump
dump		    1 all atom 2000 run_6/eq.het_freeze_6-250.dump

reset_timestep  0

run	            100000
Neighbor list info ...
  update every 1 steps, delay 0 steps, check yes
  max neighbors/atom: 2000, page size: 100000
  master list distance cutoff = 6.67472
  ghost atom cutoff = 6.67472
  binsize = 3.33736, bins = 15 15 12
  1 neighbor lists, perpetual/occasional/extra = 1 0 0
  (1) pair sw, perpetual
      attributes: full, newton on
      pair build: full/bin/atomonly
      stencil: full/bin/3d
      bin: standard
Per MPI rank memory allocation (min/avg/max) = 4.069 | 4.188 | 4.476 Mbytes
Step Temp Press Volume TotEng KinEng PotEng c_1[4] c_3 
       0    112.82306   -1433.2777    91449.793   -21655.009    1691.6097   -23346.618            0          250 
      50    111.51415   -1425.3498    91439.092   -21680.956    1671.9846    -23352.94   0.51383953    247.09964 
     100    110.43019   -1374.4871    91418.722   -21691.811    1655.7323   -23347.543   0.81411567    244.69774 
     150    111.51093    -1209.789      91415.9   -21695.519    1671.9363   -23367.455   0.98316726    247.09251 
     200    110.82233   -1495.7789    91435.641   -21702.599    1661.6117    -23364.21    1.2610577    245.56665 
     250    108.41221   -1759.6669    91331.154   -21755.937    1625.4756   -23381.412    1.4362972    240.22616 
     300    112.59862    -1200.065    91275.976    -21749.36    1688.2446   -23437.604    1.5184819    249.50267 
     350    112.58335   -1052.3125     91252.79   -21732.222    1688.0156   -23420.237    1.6474063    249.46883 
     400     113.7552   -1521.8965    91266.559    -21750.16    1705.5857   -23455.746    1.7686922    252.06549 
     450    114.13286   -1299.9034     91261.44   -21737.677    1711.2481   -23448.925    1.9526354    252.90233 
     500    114.09667   -1402.0671    91321.288   -21717.761    1710.7055   -23428.467    2.1465948    252.82214 
     550    115.10045   -1401.6767    91343.892   -21706.386    1725.7557   -23432.142    2.3149546    255.04637 
     600    112.66281   -858.41989    91375.669    -21738.61     1689.207   -23427.817    2.5335545    249.64491 
     650    112.42533    -1061.436    91476.587   -21741.353    1685.6463       -23427    2.7757446    249.11868 
     700     110.1466   -1404.5419    91481.202   -21733.598    1651.4803   -23385.078    2.9615824    244.06934 
     750    110.54687   -1244.4621    91500.384   -21709.447    1657.4817   -23366.928    3.0846974    244.95628 
     800    110.76951   -1293.3352    91521.961   -21741.553    1660.8199   -23402.373    3.2297085    245.44963 
     850      112.357   -1108.0179    91570.716   -21759.705    1684.6218   -23444.327     3.395713    248.96726 
     900    109.29734   -1284.6829    91670.729   -21742.301    1638.7469   -23381.048    3.4965517     242.1875 
     950    111.26931   -1453.0554    91633.267   -21748.178    1668.3136   -23416.491    3.7738512    246.55711 
    1000    112.22006    -1208.013    91601.933   -21720.866    1682.5686   -23403.434    3.9582333    248.66383 
    1050    110.69238   -1479.0285    91627.623   -21704.288    1659.6634   -23363.951    4.1732051    245.27871 
    1100    112.81978   -1363.4236    91631.282   -21645.474    1691.5605   -23337.034    4.3567339    249.99273 
    1150    118.01433   -1525.5445    91551.654   -21631.547    1769.4448   -23400.992    4.5661066    261.50312 
    1200    116.36747   -1311.3556    91551.402   -21614.259    1744.7528   -23359.012     4.744529    257.85392 
    1250    115.42985   -1539.3151    91503.114   -21643.166    1730.6946   -23373.861    4.9818259    255.77629 
    1300    117.64886   -1596.3871    91413.199   -21627.696    1763.9652   -23391.661    5.0717673    260.69329 
    1350    117.33335   -1546.8415    91407.465   -21563.853    1759.2346   -23323.088    5.2339824    259.99417 
    1400    115.19797   -1448.4171    91333.773   -21586.448    1727.2178   -23313.666    5.4637932    255.26246 
    1450    111.55968   -1668.8012     91219.49   -21691.144    1672.6672   -23363.811    5.5925057    247.20052 
    1500    112.14668    -1386.297    91193.994   -21675.986    1681.4683   -23357.454    5.7475696    248.50122 
    1550    110.96888   -1166.1735    91163.807   -21683.928     1663.809   -23347.737    5.9038582    245.89139 
    1600    115.75711   -1156.0352     91189.77   -21644.691    1735.6013   -23380.293    6.0505368    256.50144 
    1650    111.35184   -984.35165    91154.086   -21656.902     1669.551   -23326.453    6.3115575    246.73998 
    1700    112.43922   -1122.4783    91211.523   -21642.009    1685.8545   -23327.863     6.387607    249.14945 
    1750    115.35319   -953.16153    91242.553   -21640.221    1729.5452   -23369.766    6.5030244    255.60641 
    1800    115.86658   -1463.2387    91186.519   -21639.945    1737.2426   -23377.187    6.5614663      256.744 
    1850    110.84728   -1272.5978    91111.603   -21661.817    1661.9859   -23323.803    6.6576765    245.62196 
    1900     111.5871   -1292.0515    91139.821   -21670.452    1673.0784    -23343.53    6.7877244    247.26129 
    1950    113.57001   -1347.1954    91056.788   -21653.597    1702.8091   -23356.406    6.9159123    251.65513 
    2000    112.56458   -1218.0849    91068.249   -21605.048    1687.7342   -23292.782    7.1164165    249.42724 
    2050    115.51642   -1444.0622    91024.886   -21624.355    1731.9925   -23356.347     7.229217    255.96811 
    2100    112.26825   -1506.4225    90938.238    -21652.04    1683.2912   -23335.331    7.3544338    248.77062 
    2150    112.49054   -1050.3031    90889.717   -21648.687    1686.6241   -23335.311    7.6361646    249.26318 
    2200    113.32026   -1190.6089    90887.967   -21664.947    1699.0645   -23364.011    7.8423942    251.10172 
    2250    114.19989   -1144.5205    90932.027    -21611.23    1712.2531   -23323.483    8.0131288    253.05085 
    2300    113.33948   -1395.9535    90954.611   -21575.059    1699.3526   -23274.412    8.0867417    251.14432 
    2350    112.94094   -1061.7615    90970.334   -21550.942    1693.3771   -23244.319    8.3017557     250.2612 
    2400    115.46024   -1002.8278    90962.006   -21549.899    1731.1501   -23281.049    8.3784571    255.84361 
    2450    111.74805   -1228.5084    90992.797   -21602.699    1675.4916    -23278.19    8.3721827    247.61794 
    2500    115.79679   -1392.1557    90982.352   -21660.365    1736.1962   -23396.561     8.691249    256.58935 
    2550    111.50238   -1497.1823    90967.919   -21668.909     1671.808   -23340.717    8.8632075    247.07355 
    2600    115.13105   -1361.0967    90894.904    -21657.63    1726.2145   -23383.845     9.003124    255.11418 
    2650    112.91689   -1422.4389    90830.198   -21695.299    1693.0165   -23388.315    9.1723774    250.20791 
    2700    111.14012   -1100.6264    90815.883   -21701.886    1666.3765   -23368.262    9.3424954    246.27084 
    2750    114.11509   -1379.1084    90774.243   -21670.526    1710.9816   -23381.508    9.3371898    252.86295 
    2800    112.59824   -1363.7726    90769.181   -21600.756    1688.2389   -23288.995    9.5307675    249.50184 
    2850    117.24471    -1441.977    90737.457    -21580.61    1757.9056   -23338.516    9.7785793    259.79776 
    2900    112.70191    -1395.838    90637.886   -21612.234    1689.7932   -23302.027    9.9585211    249.73154 
    2950    115.45966   -1312.3004    90675.639   -21612.634    1731.1415   -23343.776    10.182304    255.84233 
    3000    112.26779   -1112.7004    90708.962   -21631.375    1683.2842    -23314.66    10.378109    248.76959 
    3050    108.10016   -1252.5198     90744.45   -21680.888    1620.7969   -23301.685    10.608533    239.53471 
    3100    111.23329   -1150.0269     90807.39   -21672.828    1667.7735   -23340.601        10.88    246.47729 
    3150    113.49215   -1341.2946    90849.407   -21663.482    1701.6416   -23365.124    11.015867     251.4826 
    3200    111.23943    -1573.165    90834.705   -21703.957    1667.8655   -23371.822    11.226396    246.49089 
    3250    113.31801   -1160.8465    90771.392   -21680.956    1699.0306   -23379.987    11.403169    251.09673 
    3300    112.01349   -1299.6789    90762.197   -21668.202    1679.4714   -23347.674    11.515015     248.2061 
    3350    113.03562    -1550.625    90713.108   -21642.617    1694.7966   -23337.413     11.53409    250.47099 
    3400    112.82956   -1266.6602    90653.565     -21642.8    1691.7071   -23334.507    11.704791    250.01439 
    3450    115.34931   -1008.1418    90699.175   -21636.782     1729.487   -23366.269    11.909424    255.59782 
    3500    118.11154   -1338.9043    90713.882   -21615.373    1770.9024   -23386.276    12.190364    261.71852 
    3550    112.07035   -1149.4697    90712.926   -21634.385     1680.324   -23314.709    12.395046     248.3321 
    3600    114.74825   -1311.4626    90725.886   -21635.089    1720.4749   -23355.564     12.47526    254.26594 
    3650    116.21158   -1371.7574    90749.264    -21623.81    1742.4154   -23366.225    12.655281    257.50848 
    3700    111.74593   -1274.9102     90765.94   -21640.144    1675.4598   -23315.604    12.833864    247.61324 
    3750    110.90401   -1027.6975    90753.088   -21639.977    1662.8365   -23302.813    12.944872    245.74765 
    3800    112.20687    -1418.973    90808.201   -21641.059    1682.3708   -23323.429     13.18803     248.6346 
    3850    111.17017    -1530.496    90724.785   -21636.004    1666.8272   -23302.832    13.341659    246.33744 
    3900    111.41349   -1161.7407    90648.603   -21669.084    1670.4754   -23339.559    13.451359     246.8766 
    3950    113.55551   -1076.3109    90590.051   -21629.145    1702.5917   -23331.737    13.608845    251.62301 
    4000     115.3148   -1711.9948    90583.025   -21642.445    1728.9696   -23371.414    13.848852    255.52135 
    4050    114.91078     -1382.79    90519.249   -21621.682    1722.9119   -23344.594    14.164541    254.62609 
    4100    113.75896   -1063.8185    90577.725   -21631.882    1705.6421   -23337.524    14.368242    252.07383 
    4150    115.00158     -1131.34     90585.07   -21620.156    1724.2733   -23344.429    14.613861     254.8273 
    4200    114.28655    -1373.051    90635.534   -21624.438    1713.5525   -23337.991    14.653376    253.24289 
    4250    111.98544   -1247.4847    90647.928   -21629.344    1679.0508   -23308.395    14.887734    248.14395 
    4300    111.28946   -1138.3828    90698.601   -21641.016    1668.6157   -23309.632    15.057904    246.60176 
    4350    112.60111   -1361.2245    90721.921   -21637.541    1688.2819   -23325.823    15.077915    249.50819 
    4400    111.86541   -1294.0049    90697.812   -21650.272    1677.2512   -23327.523    15.179082    247.87797 
    4450    110.93512   -1303.1079    90732.072   -21680.169    1663.3029   -23343.472    15.245773    245.81659 
    4500    111.99641   -1133.0425    90784.735   -21714.765    1679.2153    -23393.98    15.528114    248.16826 
    4550    109.25883   -1219.2197    90710.853   -21719.621    1638.1695    -23357.79    15.749376    242.10217 
    4600    111.28384   -1204.4925    90702.839   -21704.475    1668.5314   -23373.007    16.075473     246.5893 
    4650    112.22707   -1437.8408    90668.249   -21668.096    1682.6737    -23350.77    16.456117    248.67937 
    4700    113.76075   -1543.2726    90635.867   -21684.742     1705.669   -23390.411    16.638239     252.0778 
    4750    112.40824   -1339.8407    90602.115   -21687.404    1685.3901   -23372.794    16.816258    249.08082 
    4800    115.32365   -1256.5471    90589.461   -21644.356    1729.1022   -23373.458     16.99575    255.54094 
    4850    113.46774   -968.95797    90624.231    -21671.38    1701.2757   -23372.656    17.070062    251.42853 
    4900    110.38348   -1469.6175    90579.454   -21698.278    1655.0319    -23353.31    17.371402    244.59423 
    4950    110.64082    -1320.083    90538.631   -21708.786    1658.8903   -23367.676    17.506272    245.16446 
    5000    111.40337    -1720.016    90489.273   -21724.942    1670.3236   -23395.265    17.790529    246.85416 
    5050     110.1953   -1354.5759    90391.677   -21733.064    1652.2105   -23385.275    17.832723    244.17726 
    5100    113.18464   -1169.6048     90404.34   -21683.378     1697.031   -23380.409    17.996417     250.8012 
    5150    110.75003   -1443.1699    90411.744   -21650.508    1660.5277   -23311.035      18.0755    245.40645 
    5200    114.04784   -1375.1757    90447.415   -21633.023    1709.9734   -23342.997    18.207634    252.71393 
    5250    114.27759   -1296.2673    90368.909   -21644.972    1713.4181    -23358.39    18.379108    253.22303 
    5300    112.94555   -1415.5757    90311.447   -21650.865    1693.4462   -23344.311    18.611516    250.27141 
    5350    109.92301   -1307.5453    90279.333   -21702.046    1648.1279   -23350.174    18.808145     243.5739 
    5400    114.24859   -896.42507    90376.506   -21691.563    1712.9833   -23404.546    19.006638    253.15877 
    5450    110.86835   -945.94451    90518.381   -21710.823    1662.3018   -23373.125    19.244854    245.66863 
    5500    110.79358   -1398.8659    90593.382   -21725.952    1661.1808   -23387.133    19.695165    245.50296 
    5550    110.17896   -1145.2517    90596.885   -21683.132    1651.9654   -23335.097    19.900163    244.14105 
    5600    108.31333   -1351.7939    90619.852   -21689.426    1623.9931   -23313.419    20.061933    240.00706 
    5650    112.26607    -1434.228    90601.531   -21641.222    1683.2584    -23324.48    20.251375    248.76578 
    5700    113.23802   -1149.1865    90666.968   -21641.588    1697.8314    -23339.42    20.308711    250.91949 
    5750    114.95494   -1259.9751    90764.251   -21623.762     1723.574   -23347.336    20.416824    254.72395 
    5800    117.33439   -1288.4955    90838.775   -21608.944    1759.2502   -23368.194    20.686845    259.99648 
    5850    115.99493   -1237.8248    90867.842   -21659.644    1739.1671   -23398.811    20.735237    257.02842 
    5900    110.66953   -1185.4754    90887.141   -21692.488    1659.3207   -23351.809    20.827833    245.22807 
    5950    112.24177   -1228.8303    90937.895   -21676.311    1682.8942   -23359.205    20.931837    248.71195 
    6000    114.79477   -1299.7306    91032.985   -21685.613    1721.1725   -23406.785    21.147909    254.36903 
    6050    113.99049   -1439.2982    91033.952   -21690.704    1709.1135   -23399.817    21.296112    252.58686 
    6100    113.89598   -1353.2758    91021.739   -21692.133    1707.6965   -23399.829    21.450919    252.37744 
    6150    111.94167   -1189.1555     91047.43   -21724.659    1678.3946   -23403.054    21.643309    248.04696 
    6200    112.13916   -1327.4165    91075.344   -21743.601    1681.3557   -23424.957    21.766946    248.48457 
    6250    114.04911    -1272.708     91150.11   -21738.298    1709.9924    -23448.29     21.89255    252.71675 
    6300    111.13149   -1531.9065     91081.06   -21776.813    1666.2471    -23443.06    22.068936    246.25171 
    6350    110.46554   -1303.4052    91082.687   -21794.124    1656.2622   -23450.386    22.132127    244.77606 
    6400    114.89544   -1292.5701    91156.588   -21737.553    1722.6819   -23460.235     22.27669     254.5921 
    6450    111.67068    -1279.702    91214.393   -21712.795    1674.3315   -23387.127    22.437306    247.44649 
    6500    109.93543   -1447.6666    91229.493    -21742.22     1648.314   -23390.534    22.606435    243.60141 
    6550    112.61185   -1170.5094      91233.1   -21719.373    1688.4429   -23407.816    22.655248    249.53198 
    6600     113.5767   -1244.2655    91306.961    -21767.29    1702.9094   -23470.199    22.907472    251.66996 
    6650    111.46688   -1386.2778    91283.276   -21800.916    1671.2759   -23472.192    23.343424     246.9949 
    6700     111.8522   -1250.4831    91286.723   -21767.409    1677.0531   -23444.462    23.733541    247.84871 
    6750    113.42994   -1415.9813    91307.035   -21746.113    1700.7089   -23446.822    23.816389    251.34476 
    6800    113.62365   -1376.5906    91325.663    -21725.94    1703.6132   -23429.553    24.088595    251.77398 
    6850     111.8308   -963.53828    91352.278   -21732.911    1676.7323   -23409.644    24.266699    247.80129 
    6900    111.75053   -1357.7598    91371.059   -21764.958    1675.5287   -23440.487    24.449418    247.62342 
    6950    109.47603   -1468.2856    91425.684   -21754.203    1641.4261   -23395.629    24.634428    242.58345 
    7000    112.41732   -1733.3937    91296.487   -21768.946    1685.5262   -23454.472    24.755171    249.10094 
    7050    109.05515   -1349.1988    91204.188   -21768.212    1635.1156   -23403.327    24.899596    241.65084 
    7100    110.26121   -1706.7226    91144.071   -21760.401    1653.1987   -23413.599    24.891343     244.3233 
    7150    111.34007   -1153.7984     91138.68   -21735.597    1669.3745   -23404.972    24.929848     246.7139 
    7200    112.13675   -933.74352     91233.08   -21746.183    1681.3195   -23427.502    25.127325    248.47923 
    7250    112.50446   -1352.0958     91333.11   -21714.835    1686.8327   -23401.668    25.354115    249.29402 
    7300    115.13024    -1406.034     91330.04    -21702.45    1726.2024   -23428.653    25.351937    255.11239 
    7350    112.91301   -1434.2182    91331.711   -21704.899    1692.9584   -23397.857    25.539978    250.19932 
    7400    112.46206   -1462.1172     91285.98   -21671.368    1686.1971   -23357.565    25.707647    249.20008 
    7450    114.63848   -1243.4351     91278.61   -21669.068    1718.8292   -23387.898    25.935893    254.02272 
    7500    112.23948   -1684.6132    91230.429    -21697.04    1682.8598   -23379.899    26.025517    248.70686 
    7550    111.45767   -1217.2568    91209.588    -21695.65    1671.1377   -23366.787    26.177944    246.97448 
    7600     112.3798   -1119.3841    91305.186   -21676.417    1684.9637   -23361.381    26.330404     249.0178 
    7650    109.86806   -1503.7311    91355.521   -21704.631     1647.304   -23351.935    26.686122    243.45214 
    7700    112.18802   -1255.1755    91412.018   -21706.931    1682.0883   -23389.019    26.968147    248.59285 
    7750     113.7116   -1614.3806    91420.353   -21645.865    1704.9319   -23350.796    27.100486    251.96887 
    7800    111.20674    -1443.029     91451.29   -21647.343    1667.3755   -23314.719     27.32462    246.41846 
    7850    113.96624   -1567.1307    91497.957   -21660.425    1708.7499   -23369.175    27.484727    252.53313 
    7900    113.93398   -1447.2948    91576.321   -21644.962    1708.2663   -23353.229    27.864264    252.46164 
    7950    113.40527   -1714.0559    91489.904   -21613.781    1700.3391    -23314.12    27.946199     251.2901 
    8000    117.27704   -1071.0165    91446.924   -21599.579    1758.3903   -23357.969    27.820737    259.86938 
    8050    113.97562    -1450.002    91425.497   -21640.217    1708.8906   -23349.108    27.851289    252.55392 
    8100    113.96861   -1323.9125    91391.767   -21637.879    1708.7854   -23346.664    28.165297    252.53837 
    8150     111.1995   -1170.0769    91409.638   -21638.014    1667.2669   -23305.281    28.477844    246.40242 
    8200    115.34288   -1119.4536    91407.706   -21601.978    1729.3906   -23331.368    28.671462    255.58357 
    8250     114.8015   -1327.1722    91428.673   -21591.508    1721.2734   -23312.782    28.841623    254.38394 
    8300    115.40653   -1246.9806    91457.616   -21572.701    1730.3449   -23303.046    29.100383    255.72461 
    8350    112.35859   -1404.2842    91386.233   -21581.169    1684.6456   -23265.815    29.251852    248.97079 
    8400    111.53116   -1171.9001    91387.523   -21599.662    1672.2397   -23271.902    29.382314    247.13734 
    8450    111.87331   -1623.7768    91414.147   -21618.665    1677.3696   -23296.034    29.562578    247.89548 
    8500    112.39545   -1324.3465    91444.835   -21631.562    1685.1984    -23316.76    29.838026    249.05248 
    8550    112.35754   -1859.9409    91456.613   -21669.404    1684.6298   -23354.034    30.059349    248.96846 
    8600    112.00972   -1504.2708    91410.443    -21600.76    1679.4148   -23280.175    30.018924    248.19774 
    8650    112.48155   -1144.7174    91396.902   -21601.079    1686.4892   -23287.568    30.147402    249.24326 
    8700    114.42392   -1398.1609    91357.728   -21576.248    1715.6122    -23291.86    30.277625    253.54729 
    8750    114.93035   -1861.0712     91325.91   -21591.608    1723.2053   -23314.813    30.487547    254.66946 
    8800    112.57798   -1409.7154     91269.88   -21640.276    1687.9351   -23328.211    30.556568    249.45693 
    8850    113.12625   -1383.6667     91231.76   -21647.675    1696.1555   -23343.831    30.618603    250.67182 
    8900    112.56183   -1675.4191    91141.365   -21683.127    1687.6929    -23370.82    30.754104    249.42114 
    8950    111.32969   -1500.7303    91117.495   -21652.544    1669.2189   -23321.763    31.062772     246.6909 
    9000    111.30435   -1350.8767    91129.381   -21652.714     1668.839   -23321.553    31.300619    246.63475 
    9050    111.53082   -1237.8203    91204.334   -21653.959    1672.2344   -23326.193    31.480457    247.13657 
    9100    111.11733   -1350.2116    91189.525   -21633.869    1666.0349   -23299.904     31.60261    246.22034 
    9150    112.94271    -1317.315    91090.675    -21636.82    1693.4036   -23330.224    31.829037    250.26512 
    9200    113.48727   -1224.2577    91060.466   -21653.727    1701.5684   -23355.296    32.177354    251.47178 
    9250    111.32992      -1405.7     91090.94   -21665.908    1669.2223    -23335.13    32.213715     246.6914 
    9300    111.68993   -1313.1107    91109.257   -21647.459    1674.6201   -23322.079     32.20547    247.48914 
    9350    112.21794   -1059.3804    91127.385     -21628.6    1682.5368   -23311.137    32.375572    248.65913 
    9400    112.71754   -1285.3893    91127.993   -21650.569    1690.0275   -23340.596    32.645571    249.76617 
    9450    112.42944   -1475.8511    91040.706   -21655.516     1685.708   -23341.223    32.666794    249.12779 
    9500    110.64159   -1088.7061    91037.375   -21630.929    1658.9019   -23289.831    32.811096    245.16617 
    9550    108.78641   -1186.2652    91073.619   -21662.501    1631.0862   -23293.587    33.174998    241.05534 
    9600    112.28221   -1027.2617    91162.666    -21655.95    1683.5005    -23339.45    33.155829    248.80156 
    9650    113.54027   -1143.9193    91225.193   -21623.534    1702.3632   -23325.897    33.164438    251.58924 
    9700    112.34664   -1364.1497    91232.789     -21641.3    1684.4665   -23325.766    33.200403    248.94431 
    9750    113.43686   -1367.2756    91216.305   -21642.193    1700.8127   -23343.006    33.105324    251.36009 
    9800    110.91303   -1416.9336    91200.722   -21640.212    1662.9716   -23303.183    33.216835    245.76763 
    9850    113.51873   -1089.8896    91162.761   -21627.407    1702.0402   -23329.447    33.454767     251.5415 
    9900    110.76411   -1036.4282    91210.332   -21663.002    1660.7389   -23323.741    33.803896    245.43766 
    9950    110.31622   -1087.6684     91289.82   -21689.941    1654.0234   -23343.964    34.073019    244.44519 
   10000    110.39728    -1331.294    91366.072   -21671.999    1655.2389   -23327.238    34.378828    244.62482 
   10050    114.45355   -1518.2595      91325.2   -21655.785    1716.0563   -23371.841    34.501565    253.61293 
   10100    112.31651   -1105.3032     91332.86   -21658.368    1684.0148   -23342.383    34.910068    248.87756 
   10150    112.06923   -1267.4052    91310.506   -21658.139    1680.3072   -23338.447    35.342957    248.32962 
   10200    110.07944   -1318.2413      91298.7   -21659.054    1650.4733   -23309.528    35.748204    243.92053 
   10250    112.59492   -1548.6559     91307.47   -21642.842    1688.1891   -23331.031     36.20154    249.49448 
   10300    111.31114   -1587.5168    91270.235   -21655.057    1668.9408   -23323.997    36.310854     246.6498 
   10350    112.62441   -1654.4437    91250.984   -21702.529    1688.6312    -23391.16    36.367611    249.55982 
   10400    113.02625   -1203.4024    91214.384   -21698.525    1694.6562   -23393.181    36.918087    250.45023 
   10450    113.46944   -971.18856    91213.478    -21690.38    1701.3011   -23391.681    37.229289    251.43227 
   10500    109.58925   -921.85633    91267.669    -21717.54    1643.1237   -23360.663    37.347843    242.83433 
   10550    111.46608   -1252.0387    91276.459    -21671.89    1671.2638   -23343.154    37.579193    246.99312 
   10600    112.30008   -1330.3218    91281.178    -21648.79    1683.7683   -23332.558    37.924182    248.84114 
   10650     111.4104   -1231.5661     91294.99   -21638.905    1670.4291   -23309.334     37.86816    246.86975 
   10700    116.71184   -1387.2632     91309.43   -21614.002     1749.916   -23363.918    38.022731    258.61699 
   10750    111.99818   -1263.0352    91246.124   -21607.686    1679.2419   -23286.928    38.327203    248.17218 
   10800    114.28724   -1071.9005    91209.217   -21594.062    1713.5628   -23307.625    38.397953     253.2444 
   10850    112.35166   -1448.2829    91193.159   -21605.784    1684.5417   -23290.325    38.555436    248.95543 
   10900    114.02022    -1067.194    91179.248   -21601.016    1709.5593   -23310.575    38.874724    252.65274 
   10950    113.72743   -1327.1122    91167.239   -21595.347    1705.1693   -23300.516    39.011376    252.00395 
   11000    116.26091   -1169.7645     91227.55   -21615.289     1743.155   -23358.444    39.021337    257.61779 
   11050    114.01686   -1109.3157    91242.046   -21586.302    1709.5089   -23295.811    39.023686    252.64529 
   11100    114.90819   -1345.9537     91166.87   -21574.392     1722.873   -23297.265    39.422708    254.62035 
   11150    114.09577   -1359.2054      91144.8   -21586.652     1710.692   -23297.344     39.48013    252.82013 
   11200    114.66856   -1318.1596    91120.565    -21610.77    1719.2801    -23330.05    39.658699    254.08935 
   11250    114.74204   -1254.3962     91144.15   -21630.265    1720.3818   -23350.647    40.203516    254.25218 
   11300    109.53088   -1475.4389    91155.803   -21634.674    1642.2485   -23276.922    40.595202    242.70499 
   11350    114.30146   -1342.7342     91103.75   -21686.996     1713.776   -23400.772    40.744124    253.27592 
   11400    113.60245   -1287.2576    91145.544   -21649.727    1703.2955   -23353.022    40.834611    251.72702 
   11450    110.38034   -1286.6654    91185.731   -21684.937    1654.9849   -23339.922    41.072712    244.58728 
   11500    115.27631   -1290.5004    91153.048    -21598.26    1728.3924   -23326.652    41.333421    255.43605 
   11550    112.19452   -1381.6441    91152.811    -21597.08    1682.1857   -23279.266     41.68252    248.60724 
   11600     115.6097   -1419.5924    91100.208   -21604.929     1733.391    -23338.32    41.950645    256.17479 
   11650    113.06391   -1628.3785    91057.072   -21621.952    1695.2209   -23317.172    41.808886     250.5337 
   11700    111.69973   -1321.0593    91037.193   -21647.152    1674.7671    -23321.92    41.805843    247.51086 
   11750    112.22757   -1315.4096    91072.347   -21679.611    1682.6812   -23362.292    41.903603    248.68047 
   11800    112.18284   -1284.3281    91089.834   -21702.232    1682.0106   -23384.243     41.99269    248.58137 
   11850    112.13674   -1476.6911    91030.873   -21683.568    1681.3193   -23364.887    41.820254     248.4792 
   11900    117.05233   -1089.2824    90951.198   -21618.365    1755.0211   -23373.386    41.975574    259.37145 
   11950    110.87547   -1302.7481    90941.239   -21668.417    1662.4086   -23330.825    42.225023    245.68442 
   12000    113.06139   -1482.6429    90862.291   -21686.514    1695.1831   -23381.697    42.422044     250.5281 
   12050    111.49629   -1318.4235    90769.254   -21715.259    1671.7167   -23386.976    42.592549    247.06005 
   12100    115.30586   -1250.9656    90706.471   -21699.118    1728.8355   -23427.954    42.793609    255.50154 
   12150    113.95615   -1485.7697    90744.788   -21719.115    1708.5987   -23427.714    42.891472    252.51077 
   12200    108.98047   -1107.3146    90692.651   -21763.354    1633.9958    -23397.35    43.271708    241.48535 
   12250    113.79578   -1231.1823    90687.811   -21722.071    1706.1941   -23428.265    43.572144    252.15541 
   12300    110.91029   -1295.8879    90721.111   -21737.088    1662.9306   -23400.019    43.948697    245.76157 
   12350    109.61076   -1200.3036    90661.224   -21718.044    1643.4462    -23361.49    44.211878      242.882 
   12400     113.7215   -1467.8461    90743.877   -21652.322    1705.0804   -23357.402    44.374116    251.99081 
   12450    112.94847    -1075.672     90745.43   -21642.577    1693.4901   -23336.067    44.553947     250.2779 
   12500    111.59584   -1347.3435    90792.556   -21625.611    1673.2093   -23298.821    44.779997    247.28064 
   12550     115.0274   -1514.1498    90782.816   -21600.179    1724.6603   -23324.839    44.946436     254.8845 
   12600    114.98061   -1199.0884    90749.564   -21606.142    1723.9589   -23330.101    45.086312    254.78083 
   12650    116.57309   -1398.9587    90754.334   -21647.227    1747.8357   -23395.063     45.22655    258.30954 
   12700    114.39003    -1152.684     90740.58   -21610.905     1715.104   -23326.009    45.474591    253.47218 
   12750     112.0933   -1307.6412    90801.446   -21591.755    1680.6681   -23272.423      45.8374    248.38295 
   12800    112.60313   -1134.9184    90845.099   -21595.277    1688.3122   -23283.589     46.10767    249.51266 
   12850     113.5245   -883.82269    90935.097   -21582.453    1702.1267   -23284.579    46.342901    251.55429 
   12900    114.46197   -1281.9819    91044.229   -21594.256    1716.1826   -23310.438    46.511116    253.63158 
   12950    113.80328    -1432.656    91021.388   -21617.891    1706.3066   -23324.197    46.296594    252.17203 
   13000    112.10866   -1784.0398    91033.407    -21635.65    1680.8983   -23316.548    46.631075    248.41698 
   13050    111.96495   -1317.3504    90911.907   -21616.625    1678.7436   -23295.369    46.857929    248.09855 
   13100    111.63065   -985.91028    90879.982   -21591.608    1673.7313    -23265.34    47.113618    247.35778 
   13150    117.08782   -1340.3354    90962.117   -21542.354    1755.5532   -23297.908     47.57375     259.4501 
   13200    113.86568   -1298.2415    90953.078   -21543.454    1707.2422   -23250.696    47.605861     252.3103 
   13250    112.31877   -1107.2205    90887.918   -21541.687    1684.0487   -23225.736    47.914799    248.88257 
   13300     115.3114   -1331.7331    90923.837    -21532.48    1728.9186   -23261.398    48.041492    255.51381 
   13350    114.49707   -1117.9632     90930.06   -21558.299    1716.7088   -23275.008    48.361037    253.70936 
   13400    113.96193    -1298.304    90915.271   -21606.225    1708.6854    -23314.91      48.6535    252.52358 
   13450    112.57606   -1379.2468    90898.188   -21591.979    1687.9063   -23279.885    48.820292    249.45268 
   13500    112.50429   -1190.5041     90845.91   -21613.289    1686.8302   -23300.119    48.962611    249.29365 
   13550    114.99572   -1239.2103    90914.074   -21604.299    1724.1854   -23328.485    49.233552     254.8143 
   13600    114.96825   -1244.6422    91004.085   -21559.285    1723.7735   -23283.058    49.266743    254.75343 
   13650    116.42938   -615.57737    91014.665   -21534.031     1745.681   -23279.712    49.373456     257.9911 
   13700    119.44328   -872.67086    91061.893   -21497.036    1790.8698   -23287.906    49.522894    264.66948 
   13750    117.31395   -1223.2589    90988.009   -21549.179    1758.9438   -23308.123    49.432986    259.95118 
   13800    112.35796   -1131.0643    90957.947   -21536.083    1684.6362   -23220.719    49.410062    248.96939 
   13850    111.90495   -1163.0934     90976.95   -21595.227     1677.844    -23273.07    49.439485    247.96558 
   13900    114.42269   -1145.9672    90973.259    -21652.72    1715.5937   -23368.314    49.579961    253.54455 
   13950    115.10098   -1219.9649    91056.841   -21684.826    1725.7636    -23410.59    49.869842    255.04754 
   14000    112.67833   -1083.0944    91018.631   -21663.616    1689.4397   -23353.055    50.119425    249.67931 
   14050    112.17398   -1381.4908    90989.423   -21634.178    1681.8777   -23316.056    50.325403    248.56172 
   14100    114.20703    -1243.318    90934.666   -21652.328    1712.3602   -23364.688    50.642769    253.06668 
   14150    111.00224   -1344.6425    90991.082   -21650.076    1664.3092   -23314.385    50.814289    245.96531 
   14200    114.61501   -1360.1052    91032.093   -21673.487    1718.4773   -23391.964    51.276638    253.97071 
   14250    114.32224    -1155.569    90988.263   -21672.481    1714.0877   -23386.569    51.597411    253.32198 
   14300    112.75699   -1168.6035     91040.15   -21655.068    1690.6191   -23345.687    51.619829     249.8536 
   14350    112.75008   -1297.9928    91059.264   -21700.491    1690.5154   -23391.006     51.88491    249.83828 
   14400    112.55254   -1355.4526    90986.604   -21675.887    1687.5536   -23363.441    52.395461    249.40055 
   14450    112.40856   -1102.7205     90989.09   -21654.797    1685.3949   -23340.192    52.594143    249.08153 
   14500    114.62633    -1338.994    90977.058   -21623.342     1718.647   -23341.989    52.760289    253.99579 
   14550    111.86153   -1562.3444    90906.589   -21681.838     1677.193   -23359.031    53.048174    247.86939 
   14600    109.57875   -1276.7691    90892.751   -21697.491    1642.9662   -23340.458    53.474105    242.81107 
   14650    110.40131   -1059.4851    90894.854   -21708.251    1655.2993   -23363.551     53.54163    244.63375 
   14700    111.06623     -1188.45    90937.637   -21723.254    1665.2687   -23388.523    53.615405    246.10711 
   14750    112.91089   -1187.4568    90948.826   -21689.909    1692.9266   -23382.836    53.622631    250.19462 
   14800    112.51619   -1261.6916    90982.809   -21704.059    1687.0087   -23391.068    53.844344    249.32002 
   14850     113.3692   -1152.0708    91042.997   -21655.161    1699.7982   -23354.959    53.900694    251.21017 
   14900    114.31745   -1161.2149    91164.327   -21678.131    1714.0158   -23392.147    53.960168    253.31136 
   14950    114.36414   -1218.9437    91198.426    -21677.26    1714.7158   -23391.976    54.146229    253.41481 
   15000    114.69702   -1364.5894    91232.493   -21672.358    1719.7069   -23392.064    54.228761    254.15243 
   15050    116.50888   -1370.5186    91241.554   -21681.101    1746.8729   -23427.974    54.282182    258.16725 
   15100    115.78133    -931.3427    91320.157   -21699.996    1735.9644    -23435.96    54.453818     256.5551 
   15150    111.14611   -1008.3869    91333.241    -21698.84    1666.4663   -23365.307    54.560502    246.28411 
   15200    112.63489   -1421.2605    91288.354   -21710.016    1688.7883   -23398.804    54.867917    249.58303 
   15250    112.02652   -1156.0149    91316.155   -21747.638    1679.6668   -23427.305     54.93115    248.23499 
   15300    113.17942   -1024.8019    91303.978   -21730.949    1696.9527   -23427.901    55.182712    250.78963 
   15350    113.11626   -1381.8185    91319.097   -21723.128    1696.0058   -23419.134    55.572647    250.64969 
   15400    113.54496   -1383.4081    91270.496   -21706.895    1702.4335   -23409.328    55.907305    251.59963 
   15450    111.19052   -1504.6773    91313.889   -21734.017    1667.1323   -23401.149    56.198484    246.38252 
   15500    111.27931   -1407.9175    91393.474   -21724.206    1668.4635   -23392.669    56.424707    246.57926 
   15550    112.32193   -1267.8408    91407.863   -21699.935     1684.096   -23384.031    56.304908    248.88956 
   15600    114.07424   -1490.0333    91376.599   -21713.982    1710.3692   -23424.352    56.285141    252.77243 
   15650    114.15093   -960.08215    91357.923   -21685.332    1711.5191   -23396.851    56.315149    252.94238 
   15700    112.70632   -1082.3221    91434.623   -21748.552    1689.8594   -23438.412     56.68615    249.74132 
   15750    111.09955   -1247.8165    91449.391   -21763.848    1665.7682   -23429.616    56.813537    246.18093 
   15800    112.39333    -923.2384    91458.608   -21739.269    1685.1665   -23424.435    57.031544    249.04778 
   15850    112.64788   -1133.2879    91440.051   -21764.771    1688.9831   -23453.754    57.099162    249.61182 
   15900    112.19057   -1372.6721    91472.763   -21738.101    1682.1264   -23420.227     57.33178    248.59849 
   15950    112.64848    -1461.871    91420.917   -21737.744     1688.992   -23426.736    57.407092    249.61314 
   16000    114.80953   -1111.8247    91419.833    -21715.76    1721.3937   -23437.154    57.584223    254.40173 
   16050    111.80033   -1270.6821    91471.996   -21712.337    1676.2754   -23388.613     57.66547    247.73377 
   16100    114.87425   -1264.5974    91427.371   -21675.185    1722.3642   -23397.549    57.817277    254.54515 
   16150    114.84336   -1430.2957    91380.392   -21682.317     1721.901   -23404.218    57.675186    254.47669 
   16200    114.25588   -1779.1737    91358.431   -21688.183    1713.0926   -23401.275    57.768415    253.17492 
   16250    109.23899   -1416.3033     91359.32   -21713.395    1637.8721   -23351.267     57.66586    242.05821 
   16300    112.09162   -1389.3432    91361.968   -21675.795    1680.6428   -23356.438    58.102346    248.37922 
   16350    114.74922   -1251.8516    91377.395   -21689.113    1720.4896   -23409.603     58.11044    254.26811 
   16400    114.51851   -1014.3994    91400.357   -21675.624    1717.0303   -23392.654    57.972958    253.75687 
   16450    114.04055   -1414.0417    91433.524   -21730.767    1709.8642   -23440.632    58.398852    252.69779 
   16500    111.69807   -1306.5032    91438.107   -21748.906    1674.7421   -23423.648    58.687747    247.50717 
   16550    111.22639    -1296.962    91414.253    -21741.31    1667.6701    -23408.98     58.91784    246.46201 
   16600    112.81361   -1491.4521    91417.438   -21725.089     1691.468   -23416.557    59.191044    249.97905 
   16650     113.4714   -1526.7514    91391.869   -21739.516    1701.3305   -23440.846    59.413817    251.43663 
   16700    112.07354   -1438.4918    91377.888   -21743.568    1680.3717    -23423.94    59.505721    248.33916 
   16750    115.70402   -1508.8277    91351.101   -21701.047    1734.8053   -23435.853    59.277859     256.3838 
   16800    114.00119   -1003.6087    91333.522   -21718.524    1709.2739   -23427.798     59.19421    252.61056 
   16850    115.24459   -997.77987    91389.542   -21688.904    1727.9168   -23416.821    59.416909    255.36576 
   16900    115.85892    -1337.009    91432.595   -21709.418    1737.1277   -23446.546    59.632337    256.72703 
   16950    111.05256   -1349.7276    91419.582   -21748.458    1665.0637   -23413.521    59.637826    246.07681 
   17000    111.65591    -1423.252    91381.754   -21739.804      1674.11   -23413.914    59.965592    247.41376 
   17050    110.86758   -882.41236    91467.906   -21775.693    1662.2903   -23437.983    59.997643    245.66693 
   17100    111.62074   -1323.4212    91562.048   -21789.181    1673.5828   -23462.764    60.203259    247.33583 
   17150    113.30297   -1471.8315    91546.996   -21789.884    1698.8052   -23488.689    60.532008    251.06341 
   17200    111.41536   -1226.0798    91499.558    -21774.21    1670.5034   -23444.714    60.847906    246.88074 
   17250    112.85706   -1154.4216    91435.415   -21779.238    1692.1194   -23471.357    60.910969    250.07533 
   17300    111.69501   -1313.5915    91475.717   -21784.221    1674.6963   -23458.917    60.875178     247.5004 
   17350    112.70892   -1331.3698    91519.179   -21743.075    1689.8983   -23432.973    61.182377    249.74708 
   17400    115.40001   -1064.7107    91589.602   -21734.412    1730.2471    -23464.66    61.520994    255.71016 
   17450     113.1788   -1392.0084    91614.815   -21740.841    1696.9435   -23437.784    61.575302    250.78827 
   17500    115.55901   -1575.4134    91609.922   -21692.424    1732.6311   -23425.056    61.881874    256.06248 
   17550    113.80377   -1402.8007    91547.955   -21676.598     1706.314   -23382.912    61.822452    252.17312 
   17600    114.23464   -1598.0694     91516.72   -21665.568    1712.7742   -23378.342    61.677275    253.12787 
   17650    111.43521   -1497.0343     91474.84   -21690.903     1670.801   -23361.704    62.051278    246.92472 
   17700    112.65876   -849.30838    91546.109   -21681.444    1689.1463    -23370.59    62.042274    249.63593 
   17750    111.50105   -1481.0591     91526.44   -21744.378    1671.7881   -23416.166    62.306566     247.0706 
   17800    112.33925   -1416.5607    91466.108   -21746.091    1684.3557   -23430.446    62.248523    248.92794 
   17850    108.59677   -1334.3798     91422.48   -21726.715    1628.2429   -23354.958    62.222315    240.63514 
   17900    112.00656   -1111.7265     91447.22   -21741.734    1679.3675   -23421.101    62.457076    248.19075 
   17950    112.18386   -1421.2667    91504.907   -21728.064    1682.0258    -23410.09    62.905891    248.58362 
   18000     110.1774   -1237.7427    91465.239    -21729.64     1651.942   -23381.582    63.123341    244.13758 
   18050    111.72044   -1043.0054    91505.787   -21702.367    1675.0776   -23377.445    63.301987    247.55675 
   18100    112.04913   -1338.8328    91502.373   -21725.257    1680.0057   -23405.263    63.751948    248.28507 
   18150    111.61388   -1199.8834    91513.368   -21733.652    1673.4799   -23407.132     64.23217    247.32062 
   18200    114.66709   -1416.2097    91543.651    -21671.72    1719.2581   -23390.978    64.097255     254.0861 
   18250    116.01185   -1276.3649    91461.278   -21642.971    1739.4208   -23382.392    64.212654    257.06591 
   18300    112.81348   -1508.5543    91434.255   -21701.877     1691.466   -23393.343    64.221789    249.97876 
   18350    114.15142   -1547.7193     91416.52   -21702.655    1711.5264   -23414.181    64.206396    252.94345 
   18400    110.87328   -1779.6876    91262.475   -21713.337    1662.3758   -23375.713    64.292045    245.67957 
   18450     111.1362   -1378.0948    91156.327   -21734.517    1666.3179   -23400.835    64.313254    246.26216 
   18500    112.03548   -1356.9479    91074.187    -21759.46    1679.8011   -23439.261    64.657075    248.25482 
   18550    111.89227   -1453.9459    91015.293   -21770.892    1677.6539   -23448.546    64.919431    247.93749 
   18600    112.54399   -1388.1412     90970.85   -21744.471    1687.4254   -23431.896    65.123269    249.38161 
   18650    112.60217   -1315.3293    90851.806    -21762.77    1688.2978   -23451.068    65.226245    249.51054 
   18700    114.40385   -1388.9481    90804.105   -21750.899    1715.3113   -23466.211     65.61378    253.50281 
   18750    112.66084   -1422.9981    90717.276   -21739.293    1689.1775   -23428.471    65.805807    249.64054 
   18800    113.07331   -1310.9465    90666.835   -21770.916    1695.3618   -23466.278    65.949052    250.55451 
   18850    111.44458    -1295.187    90719.515   -21743.217    1670.9415   -23414.158    65.943383    246.94549 
   18900    112.44086    -745.6118    90790.244   -21727.667    1685.8792   -23413.546     66.24658     249.1531 
   18950    111.76101   -1090.2322    90974.293   -21695.543    1675.6859   -23371.229    66.439214    247.64665 
   19000    113.77478   -1191.4148    91029.934   -21708.226    1705.8793   -23414.105    66.534948    252.10888 
   19050    114.94828   -1167.8232    91082.463   -21738.989    1723.4742   -23462.463    66.561096    254.70919 
   19100    112.46245   -990.54621    91143.603   -21731.368    1686.2029   -23417.571    66.682133    249.20094 
   19150    111.26571   -1239.8856    91223.139       -21739    1668.2596    -23407.26    66.813178    246.54914 
   19200    114.69775   -1295.4104    91295.793   -21704.513    1719.7179   -23424.231    66.823056    254.15405 
   19250    115.91196   -1556.9124    91303.971   -21672.971    1737.9231   -23410.894    67.072599    256.84457 
   19300    114.56372   -1320.4754     91271.11   -21658.912    1717.7083   -23376.621    67.179386    253.85706 
   19350    114.12264   -1408.8529    91206.475   -21667.584    1711.0949   -23378.679    67.311671    252.87969 
   19400    115.77426   -1562.2186    91199.004   -21673.778    1735.8585   -23409.637    67.657818    256.53945 
   19450    116.78427   -1396.0534    91233.424   -21651.849    1751.0019   -23402.851    67.852392    258.77747 
   19500    114.28252   -1296.6201    91299.825   -21677.628     1713.492    -23391.12    68.142765    253.23395 
   19550    115.77608   -1373.0689    91320.155   -21684.201    1735.8857   -23420.087    68.138601    256.54348 
   19600    114.08492   -1051.4633    91281.634   -21667.782    1710.5293   -23378.311    68.084643    252.79609 
   19650    116.35633   -1431.2625    91300.453   -21642.671    1744.5857   -23387.257    68.409833    257.82923 
   19700    114.46985   -1438.4404    91298.032   -21673.082    1716.3008   -23389.383    68.765825    253.64906 
   19750    112.18531   -1214.7142    91325.218   -21732.497    1682.0476   -23414.544    69.009026    248.58683 
   19800    111.28569   -1270.5291    91353.428   -21722.796    1668.5591   -23391.355    69.174125    246.59339 
   19850    112.17282   -1198.6013    91387.008   -21734.975    1681.8603   -23416.836    69.467998    248.55916 
   19900    116.74123   -1530.0044    91329.183   -21686.215    1750.3567   -23436.572     69.46497    258.68212 
   19950    112.28402   -1418.0684    91374.727   -21739.404    1683.5277   -23422.932    69.737854    248.80557 
   20000    110.94418   -1538.8344    91303.272   -21719.002    1663.4387   -23382.441    70.268723    245.83665 
   20050     113.1262   -1243.4263    91294.676   -21700.912    1696.1547   -23397.066    70.648347     250.6717 
   20100    112.34269    -1632.319     91221.95   -21700.602    1684.4072    -23385.01    70.881978    248.93556 
   20150    113.55391   -1399.2079    91162.593   -21722.773    1702.5677    -23425.34    71.024367    251.61947 
   20200    112.60408   -1181.2192    91156.889   -21751.506    1688.3264   -23439.833     71.20669    249.51476 
   20250    113.91075   -1468.7151    91108.222   -21776.725    1707.9179   -23484.643    71.233373    252.41015 
   20300    113.34653   -1240.2223      91078.7   -21768.401    1699.4583   -23467.859    71.056925    251.15993 
   20350    114.46689   -1121.4159    91085.057   -21716.449    1716.2564   -23432.706    70.932615    253.64249 
   20400    113.53306   -1041.7256    91169.113   -21706.466     1702.255   -23408.721    70.866044    251.57326 
   20450    115.01757   -1326.7076    91121.151   -21715.756     1724.513   -23440.269    71.002663    254.86271 
   20500    114.37005   -1010.8562    91106.872   -21709.272    1714.8045   -23424.077    71.101043    253.42792 
   20550    114.85261   -1158.1375    91062.894   -21697.161    1722.0396     -23419.2    71.088893    254.49718 
   20600    113.16067   -1526.1787    91118.818   -21668.207    1696.6716   -23364.878    71.555212    250.74809 
   20650    112.69298   -1561.4874    91145.629   -21720.869    1689.6594   -23410.529    72.081266    249.71176 
   20700    115.78902   -1230.2866    91181.811   -21696.222    1736.0797   -23432.302    72.099572    256.57214 
   20750    114.69779   -1189.8453    91191.358   -21651.529    1719.7184   -23371.247    72.184769    254.15413 
   20800    113.72148    -880.3611     91187.26   -21664.753    1705.0801   -23369.833    72.021236    251.99076 
   20850    113.56911   -1030.5399    91204.065   -21680.506    1702.7956   -23383.302    71.984447    251.65315 
   20900    111.27191    -1526.354    91202.673   -21725.135    1668.3525   -23393.488    72.173084    246.56286 
   20950    109.29449   -1322.0911    91074.325   -21734.434    1638.7042   -23373.138    72.396232    242.18119 
   21000    109.35914   -1107.5547    91024.185   -21747.514    1639.6734   -23387.188    72.243823    242.32443 
   21050    111.97292   -1270.6339    91030.825   -21709.731    1678.8631   -23388.594    72.495231    248.11621 
   21100    115.08596   -1246.8119    91015.237   -21693.835    1725.5384   -23419.374     72.90252    255.01426 
   21150    114.01252   -907.94199    91090.428   -21629.032    1709.4438   -23338.475    73.287208    252.63566 
   21200    113.49175   -1093.4237    91152.318   -21650.794    1701.6357    -23352.43    73.174697    251.48172 
   21250    114.73373   -1273.4672    91159.281   -21655.388    1720.2573   -23375.646     73.14279    254.23377 
   21300    111.01033    -1280.702    91114.681    -21661.72    1664.4306   -23326.151     73.70707    245.98325 
   21350    112.99058   -1062.3483     91170.57   -21675.101    1694.1214   -23369.223     74.09524     250.3712 
   21400    114.12893   -1218.8154    91151.666   -21699.369    1711.1892   -23410.559    74.243487    252.89362 
   21450    114.11384   -1222.7738    91159.532   -21707.457     1710.963    -23418.42    74.428081    252.86019 
   21500     113.4224   -1115.8219    91257.516   -21693.429    1700.5958   -23394.025    74.824922    251.32804 
   21550    114.22239   -1439.5005    91250.841   -21678.483    1712.5904   -23391.073    74.996479    253.10071 
   21600    111.82646    -1415.779    91229.997   -21735.397    1676.6672   -23412.065    75.188964    247.79168 
   21650     114.1711   -1166.3095    91265.436   -21746.727    1711.8215   -23458.549    75.288063    252.98706 
   21700    114.65779    -1419.827    91232.942   -21751.409    1719.1187   -23470.528    75.251825    254.06551 
   21750    111.51769   -1320.3166    91209.874   -21803.414    1672.0376   -23475.451    75.223693    247.10748 
   21800    113.90558   -1237.9101    91211.038   -21776.914    1707.8405   -23484.755    75.339055    252.39872 
   21850    113.47622   -1460.6535    91216.213   -21760.351    1701.4028   -23461.754    75.457299     251.4473 
   21900     114.4881   -1241.1124    91272.168   -21761.304    1716.5745   -23477.878    75.574997     253.6895 
   21950    112.51143   -1531.6467     91239.28   -21757.964    1686.9373   -23444.901    75.971861    249.30947 
   22000    112.82012    -1455.232    91171.367   -21707.581    1691.5657   -23399.147    76.254551    249.99349 
   22050    112.32243   -1026.8608    91140.684   -21719.288    1684.1035   -23403.392    76.216629    248.89067 
   22100     112.1958   -1348.4448    91078.162   -21700.591    1682.2049   -23382.796    76.459224    248.61008 
   22150    113.26963   -1404.2081    91040.763    -21694.08    1698.3053   -23392.385    76.580102    250.98953 
   22200    111.58019   -1337.4309    91050.882   -21698.264    1672.9748   -23371.239    76.669439    247.24598 
   22250    111.35197   -1084.5818    91091.812   -21706.304    1669.5529   -23375.857    76.757249    246.74027 
   22300    111.77038    -1437.528    91132.968   -21737.583    1675.8263   -23413.409    76.922581     247.6674 
   22350    111.34072   -1401.5996    91086.576   -21791.713    1669.3843   -23461.097    77.273904    246.71534 
   22400    112.60621   -1274.4218    91107.487   -21775.928    1688.3584   -23464.287    77.487534    249.51949 
   22450    110.72458   -1351.5616    91041.116   -21763.278    1660.1461   -23423.424    77.615626    245.35005 
   22500    114.71947   -1031.4034    91033.802   -21699.644    1720.0434   -23419.687      77.4762    254.20217 
   22550    112.39285   -1118.5847    91160.982   -21687.118    1685.1593   -23372.278    77.283472     249.0467 
   22600    113.03346    -1631.091    91258.399   -21698.513    1694.7644   -23393.277    77.354617    250.46622 
   22650     114.1264   -1388.0616    91214.388   -21749.434    1711.1513   -23460.586    77.004176    252.88802 
   22700    111.37072   -1509.7644    91139.394   -21729.488    1669.8341   -23399.322    77.104799    246.78182 
   22750    113.56377   -1245.2354     91140.21   -21715.708    1702.7155   -23418.424      77.3273     251.6413 
   22800    113.42613   -1213.8587    91200.971   -21732.807    1700.6518   -23433.459    77.517799    251.33632 
   22850    111.31949   -1149.6008    91230.782   -21749.966    1669.0659   -23419.031    77.799985     246.6683 
   22900    113.35117   -1191.1866    91258.685    -21742.46    1699.5279   -23441.988    77.945013    251.17022 
   22950    110.91255   -1052.5389    91185.386   -21762.765    1662.9645    -23425.73    77.762971    245.76657 
   23000    111.56058     -1183.03    91134.004   -21727.918    1672.6807   -23400.599    77.761575    247.20252 
   23050    110.61298    -1049.913    91140.931   -21742.073    1658.4729   -23400.546    77.853368    245.10278 
   23100    113.02712     -952.376    91162.509   -21715.278    1694.6693   -23409.948    77.689217    250.45217 
   23150    112.51978   -1175.7652    91194.713    -21721.18    1687.0625   -23408.243    78.061778    249.32798 
   23200    112.94687   -1183.8865    91289.151   -21701.851    1693.4661   -23395.317    78.543325    250.27435 
   23250    111.79913   -1103.2164    91289.874   -21672.787    1676.2574   -23349.045     78.64789    247.73111 
   23300    116.14765   -1397.6733    91328.356   -21680.109    1741.4569   -23421.566    78.735473    257.36682 
   23350     112.9966   -1568.9111    91291.995   -21635.888    1694.2117     -23330.1    78.638624    250.38454 
   23400    114.83855   -1725.0334    91209.814   -21635.944    1721.8288   -23357.773    78.874521    254.46603 
   23450    113.88068   -1518.8667    91174.082   -21641.862     1707.467   -23349.329    79.239842    252.34352 
   23500    113.29344   -1337.5469    91181.999   -21618.533    1698.6624   -23317.195    79.252958     251.0423 
   23550    110.87712   -1462.4051    91116.193    -21667.56    1662.4333   -23329.993    79.316648    245.68807 
   23600    111.63425   -1454.8399    91050.598   -21689.352    1673.7853   -23363.137    79.559078    247.36576 
   23650    110.25194   -1370.3361    90937.192   -21705.269    1653.0597   -23358.328     79.58985    244.30276 
   23700    113.14865   -913.98967    90922.649   -21693.994    1696.4914   -23390.485    79.594648    250.72146 
   23750     111.5988   -1390.5463    90948.413   -21690.213    1673.2538   -23363.467     79.68145    247.28721 
   23800    110.05954   -1185.1363      90916.9   -21674.585    1650.1749    -23324.76    79.832646    243.87643 
   23850    115.50383   -1228.9397    90940.459   -21664.241    1731.8037   -23396.045    79.980563     255.9402 
   23900    112.66929   -1567.4977    90847.922   -21683.059    1689.3042   -23372.363    80.266857    249.65927 
   23950    111.01013   -1204.1217    90875.552   -21693.767    1664.4275   -23358.194    80.353665    245.98279 
   24000    111.34668   -1241.0465    90898.029   -21655.803    1669.4736   -23325.276     80.44543    246.72854 
   24050    115.61499   -1102.4281    90953.073   -21624.946    1733.4704   -23358.416    80.741597    256.18652 
   24100    114.07728   -1290.3552    90924.863   -21680.543    1710.4148   -23390.957    80.934261    252.77917 
   24150    114.14052   -1466.9991    90822.504    -21666.58    1711.3629   -23377.943    80.872494    252.91929 
   24200     109.5865   -1270.9653    90819.838   -21680.419    1643.0824   -23323.501    80.888399    242.82824 
   24250    112.73727   -1171.4138    90799.671   -21655.792    1690.3234   -23346.116    81.050417    249.80991 
   24300    113.33981   -1211.3637    90790.834    -21604.13    1699.3575   -23303.487    81.184423    251.14503 
   24350    110.50498   -1134.2953    90833.991   -21691.303    1656.8536   -23348.157    81.220207    244.86346 
   24400    113.64143   -858.88824    90907.348   -21706.268    1703.8799   -23410.148    81.249869    251.81339 
   24450    114.04352   -1039.8103    91008.714   -21705.398    1709.9086   -23415.307    81.415243    252.70437 
   24500    111.77397   -1069.6188    91106.015   -21704.698    1675.8802   -23380.578    81.782689    247.67536 
   24550    111.66413   -1182.8467    91103.097   -21754.374    1674.2334   -23428.607    81.886743    247.43198 
   24600    111.69167   -1238.7102    91063.893   -21758.848    1674.6463   -23433.495    82.467601    247.49301 
   24650      110.631   -1244.7671    91046.136    -21743.94    1658.7431   -23402.683    82.479744    245.14271 
   24700    112.04637    -1488.484    90996.184   -21781.183    1679.9644   -23461.147    82.737257    248.27896 
   24750      110.593   -1159.2032    90924.795   -21742.776    1658.1734   -23400.949    82.738282    245.05851 
   24800     110.8331   -1356.5743    90961.311   -21730.665    1661.7732   -23392.438    82.784415    245.59052 
   24850    111.78901    -1027.098        90977   -21727.585    1676.1057   -23403.691    82.960954    247.70869 
   24900    110.71179   -1164.5391    91023.648   -21718.069    1659.9545   -23378.024    83.167088    245.32173 
   24950    112.78566   -1530.4533    90985.102   -21725.892    1691.0489    -23416.94    83.029166    249.91711 
   25000     112.4575   -1182.8291    90912.384   -21745.387    1686.1287   -23431.516    83.021101    249.18997 
   25050    113.01802   -1583.0012    90919.215   -21664.496    1694.5328   -23359.029    83.388672      250.432 
   25100    114.18643   -1412.5245    90909.622   -21680.831    1712.0513   -23392.882    83.513541    253.02103 
   25150    111.83838   -1121.2762    90904.281   -21679.267    1676.8459   -23356.113     83.68652    247.81809 
   25200    111.10126   -1268.0593    90920.879   -21672.488     1665.794   -23338.282    83.667989    246.18474 
   25250    112.94984   -1054.1088    90959.441   -21636.419    1693.5105    -23329.93    83.911639    250.28092 
   25300    116.45711   -1603.3037    90986.887   -21611.779    1746.0967   -23357.875    84.535008    258.05254 
   25350    113.32499   -1365.3742    90843.635   -21607.102    1699.1354   -23306.237     84.85174    251.11221 
   25400    110.78715   -1281.4133    90737.121   -21634.796    1661.0844    -23295.88    85.205662    245.48872 
   25450    113.68695   -1235.7383    90722.707   -21635.909    1704.5623   -23340.471    85.626284    251.91425 
   25500    110.24375    -1159.244    90733.912    -21657.34    1652.9368   -23310.277     85.76623    244.28461 
   25550    111.88098   -1118.5365    90744.517   -21651.963    1677.4847   -23329.447    85.926214    247.91249 
   25600    113.52367   -909.68226    90826.693   -21665.067    1702.1143   -23367.181    85.970549    251.55245 
   25650    111.18254   -1103.0992    90858.536    -21676.34    1667.0127   -23343.353    86.172826    246.36485 
   25700    113.66606   -1250.2641    90841.443   -21690.836    1704.2492   -23395.085    86.121865    251.86797 
   25750    111.11504    -1393.892    90774.593   -21694.698    1666.0005   -23360.699    86.136077    246.21527 
   25800    113.84451   -1115.9987    90657.771   -21677.485    1706.9247    -23384.41    86.174051    252.26338 
   25850    111.53552   -939.77138    90636.064   -21669.649     1672.305   -23341.954    86.648134    247.14699 
   25900    110.17908   -1521.7199    90639.426   -21673.108    1651.9673   -23325.075    86.729009    244.14132 
   25950    114.37564   -1163.1297    90578.775   -21640.306    1714.8883   -23355.194    86.831434     253.4403 
   26000    113.05506   -1006.1507      90588.6   -21626.548    1695.0881   -23321.636    86.786666    250.51407 
   26050    112.03466   -1077.5417    90692.849     -21621.2    1679.7888   -23300.989    86.988236    248.25301 
   26100    114.63759   -1161.6377    90753.785    -21621.49    1718.8157   -23340.306    87.315631    254.02073 
   26150    113.56231   -1537.8805    90722.366    -21647.55    1702.6937   -23350.244    87.911008    251.63808 
   26200    114.22999   -1200.7692    90579.656   -21656.191    1712.7044   -23368.895    88.204026    253.11756 
   26250    114.60474   -1237.4919    90572.614   -21613.949    1718.3232   -23332.273    88.525324    253.94794 
   26300    114.79144   -1329.2563    90485.575    -21635.01    1721.1226   -23356.132     88.93743    254.36166 
   26350     114.8748   -939.97355    90458.594   -21644.739    1722.3724   -23367.111     88.85821    254.54637 
   26400    110.82931   -1226.5356    90421.363   -21686.378    1661.7164   -23348.094    89.121183    245.58212 
   26450    110.31565   -1083.3612    90438.667    -21702.84    1654.0149   -23356.855    89.078807    244.44393 
   26500    113.11451   -1386.5732    90531.832   -21661.329    1695.9796   -23357.309    89.260272    250.64582 
   26550    110.10545   -1237.2506    90528.546   -21597.084    1650.8632   -23247.947    89.474081    243.97815 
   26600    113.02502   -1175.2472    90560.297   -21625.702    1694.6378   -23320.339    89.523192    250.44751 
   26650    116.53577   -779.78753    90604.118   -21633.069     1747.276   -23380.345    89.645305    258.22683 
   26700    117.91719   -854.22969    90690.081   -21643.316    1767.9883   -23411.304    89.682866    261.28786 
   26750    110.65494   -1008.3239     90716.09   -21707.869     1659.102   -23366.971    89.972685    245.19574 
   26800    117.01823   -1376.5941    90787.979   -21729.511    1754.5099   -23484.021    90.008775     259.2959 
   26850    112.79978   -1059.2989    90799.819   -21737.131    1691.2606   -23428.391    90.156478     249.9484 
   26900    113.83129    -1066.076    90896.609   -21745.328    1706.7265   -23452.055    90.493943    252.23409 
   26950    112.74847   -1362.7331    90905.373   -21727.355    1690.4912   -23417.846    90.546205     249.8347 
   27000    113.90275   -1291.1603    90852.179   -21751.004     1707.798   -23458.802    90.304313    252.39245 
   27050    114.52942    -1287.095    90819.284   -21740.948     1717.194   -23458.142    90.382854    253.78106 
   27100    115.89559   -1166.2131    90814.201   -21667.956    1737.6775   -23405.634    90.350735    256.80828 
   27150    113.45644   -1274.0866    90785.364   -21702.225    1701.1062   -23403.331    90.826758    251.40347 
   27200     114.7771   -1076.2514    90786.475    -21687.56    1720.9076   -23408.467    91.050897    254.32988 
   27250    115.86582   -936.25553    90733.164   -21690.102    1737.2312   -23427.333    90.943894    256.74232 
   27300    114.60965    -1187.081    90807.302   -21744.406    1718.3968   -23462.803    91.033266    253.95882 
   27350    114.24939   -1160.4869    90925.421   -21766.826    1712.9953   -23479.821    91.250221    253.16054 
   27400    112.85477   -1260.4509     90994.99   -21765.504    1692.0852   -23457.589    91.427811    250.07027 
   27450    114.48698   -1261.2451    91041.268   -21776.543    1716.5576   -23493.101    91.482695      253.687 
   27500    114.46671   -1362.3326    91018.103   -21771.398    1716.2538   -23487.652     91.55381     253.6421 
   27550    116.52784   -1405.9043    90962.127   -21725.757    1747.1572   -23472.914    91.772332    258.20926 
   27600    112.63975     -1108.45    90993.774   -21710.518    1688.8612   -23399.379    91.919334     249.5938 
   27650    116.68669   -1280.4552    91066.881   -21700.456    1749.5389   -23449.995    92.052677    258.56126 
   27700    113.82406   -1120.7866    91149.295   -21661.141    1706.6181   -23367.759    91.972848    252.21807 
   27750    115.10086   -1476.4763    91186.318   -21673.878    1725.7619    -23399.64    92.376969    255.04729 
   27800    114.93535   -1254.1161    91151.918   -21694.051    1723.2803   -23417.331    92.622611    254.68054 
   27850     116.8094   -1312.8669    91136.989   -21685.524    1751.3787   -23436.902    92.666126    258.83315 
   27900    113.75611   -1177.3068    91128.815   -21682.032    1705.5994   -23387.631    92.712348    252.06751 
   27950    110.88576   -1464.9498    91028.352   -21671.154    1662.5629   -23333.717    92.871888    245.70722 
   28000    112.80115   -1270.0077      90969.4   -21721.216    1691.2811   -23412.497     93.11171    249.95144 
   28050    113.64427   -1404.1872    90909.058   -21759.152    1703.9225   -23463.074    93.342423    251.81969 
   28100    112.45378   -1325.8615    90951.083   -21797.681    1686.0729   -23483.754    93.553487    249.18172 
   28150    111.19213   -1390.8772    91002.564   -21766.333    1667.1563    -23433.49     93.75662    246.38608 
   28200    109.55063   -1385.7098    91004.774    -21777.11    1642.5446   -23419.654    93.837747    242.74876 
   28250     110.0844   -1104.3294    90998.852   -21768.161    1650.5477   -23418.708    93.835623    243.93152 
   28300    109.04788   -1408.6972    90997.949   -21823.944    1635.0066    -23458.95     93.98377    241.63473 
   28350    109.51811   -1399.0202    90954.564   -21886.808     1642.057   -23528.865    94.274032    242.67669 
   28400    109.67821   -1401.4762    90962.494   -21852.204    1644.4575   -23496.661    94.174241    243.03146 
   28450    110.04155   -1203.7115    90933.382   -21860.048    1649.9051   -23509.953     94.43954    243.83656 
   28500    107.53391   -1130.6471    90883.926   -21864.726    1612.3069   -23477.033    94.565287    238.27998 
   28550    108.68477   -1246.9908     90874.52   -21863.665    1629.5623   -23493.227    94.802063    240.83012 
   28600     109.7877   -1296.9579    90862.029   -21807.051    1646.0991    -23453.15     95.32252    243.27407 
   28650    111.71026   -1313.0957    90799.737   -21798.376    1674.9249   -23473.301    95.785663    247.53418 
   28700    111.93299   -1237.1972    90833.042   -21760.367    1678.2644   -23438.631    96.074598    248.02772 
   28750    115.73666   -1023.2496    90871.933   -21719.954    1735.2947   -23455.248    96.477969    256.45613 
   28800    111.16085   -1159.4201    90934.743   -21759.172    1666.6874   -23425.859    96.441821    246.31678 
   28850    109.74077   -1301.4737     90942.95   -21756.107    1645.3954   -23401.502    96.688858    243.17007 
   28900    112.15359   -1439.1374    90898.463   -21776.542    1681.5719   -23458.114    96.869016    248.51654 
   28950    110.55625   -1071.0406    90942.843    -21779.25    1657.6224   -23436.872    96.794249    244.97707 
   29000    112.42432   -1227.9919     90987.58   -21762.552    1685.6312   -23448.183    96.833479    249.11645 
   29050    112.75511   -1720.5835    91006.767   -21760.698    1690.5909   -23451.289    96.911386    249.84943 
   29100    108.75849   -1434.4011    90945.628   -21794.427    1630.6676   -23425.095    97.157255    240.99347 
   29150    111.73768   -1315.0824    90914.789   -21764.398    1675.3361   -23439.734    97.382439    247.59495 
   29200     109.5764   -1048.1276    90966.198   -21741.577    1642.9309   -23384.508    97.333449    242.80585 
   29250    112.63028   -1306.7617     91074.69    -21730.14    1688.7193   -23418.859    97.233985    249.57283 
   29300    114.41477   -992.15258    91125.058   -21705.275    1715.4749    -23420.75    97.520457      253.527 
   29350    111.65007   -1459.7934     91141.49   -21726.799    1674.0225   -23400.822    97.977166    247.40082 
   29400     112.7344   -1181.0962    91150.225   -21722.222    1690.2803   -23412.503    98.440879    249.80353 
   29450    114.53176   -1459.9983    91152.513   -21735.926     1717.229   -23453.155    98.519636    253.78623 
   29500    110.43706   -1167.4883    91242.498   -21774.622    1655.8352   -23430.457    98.716111    244.71295 
   29550    110.52251   -1316.9068    91215.299   -21797.347    1657.1165   -23454.463    98.937581    244.90231 
   29600    111.96081   -1300.3963    91234.395   -21772.679    1678.6815    -23451.36    98.957209    248.08936 
   29650    111.58127   -1303.5823    91284.747   -21716.576     1672.991   -23389.567    98.788647    247.24838 
   29700    111.99636   -1278.2666    91244.025   -21704.293    1679.2146   -23383.508    99.050949    248.16816 
   29750    111.27114   -1432.2144    91233.985   -21719.088     1668.341   -23387.428    98.938738    246.56116 
   29800    113.68934   -1259.5645    91209.297   -21709.809    1704.5982   -23414.408    99.278552    251.91955 
   29850    109.50199   -1588.5435    91180.097    -21725.95    1641.8153   -23367.765    99.246241    242.64097 
   29900    112.28997   -1543.8393    91055.068   -21692.024    1683.6168   -23375.641    99.242042    248.81875 
   29950    111.86942   -1487.4671     91011.17   -21745.862    1677.3114   -23423.173    99.362299    247.88687 
   30000    111.61249   -1375.7945    90967.505   -21739.351     1673.459    -23412.81     99.61984    247.31753 
   30050    110.15196   -1556.7572     90956.46   -21772.194    1651.5606   -23423.755    99.685002    244.08121 
   30100    111.41436   -1573.3543    90895.913   -21771.046    1670.4884   -23441.534    100.07882    246.87851 
   30150    111.15336   -1135.9309    90892.195   -21718.819    1666.5751   -23385.394    100.05457    246.30018 
   30200    113.76684   -1249.2262    90848.541   -21738.367    1705.7602   -23444.127    100.18474    252.09128 
   30250    115.56129   -1251.1657    90925.917   -21703.734    1732.6653   -23436.399    99.784247    256.06753 
   30300    110.09484   -1284.3194    90940.013    -21739.82    1650.7042   -23390.524    100.15466    243.95465 
   30350    111.54896   -1432.1235    90941.253   -21782.605    1672.5064   -23455.111    100.41901    247.17676 
   30400    109.42506   -1552.7004    90927.662   -21765.371    1640.6618   -23406.032     100.7558     242.4705 
   30450    113.78489   -1312.2274    90871.587   -21750.614    1706.0309   -23456.645    101.16497    252.13129 
   30500    116.79738   -1436.9855    90881.909   -21698.729    1751.1985   -23449.927    101.41061    258.80653 
   30550    111.44967    -1366.672    90920.997   -21703.879    1671.0179   -23374.897    101.61169    246.95677 
   30600    115.16237    -1165.658    90897.121    -21729.68     1726.684   -23456.364    101.54546    255.18357 
   30650    112.92364   -1190.1474    90948.583   -21752.421    1693.1177   -23445.539    101.68588    250.22286 
   30700    113.78537   -1360.9344    90944.067   -21765.703     1706.038   -23471.741    102.20925    252.13233 
   30750    113.60384   -1466.2683    90888.558   -21804.461    1703.3163   -23507.778    102.64401    251.73009 
   30800    110.68501   -1240.6916    90876.481   -21817.584    1659.5528   -23477.137     102.9737    245.26237 
   30850    109.98032   -1455.4334    90933.245   -21812.322    1648.9871   -23461.309    102.85782    243.70088 
   30900    113.23347   -1396.3197    90991.549   -21775.409    1697.7631   -23473.172    102.89231     250.9094 
   30950    113.07943   -1197.2663    91009.612   -21754.685    1695.4535   -23450.139    103.19716    250.56807 
   31000    111.49197     -1078.52    91069.735   -21737.015     1671.652   -23408.667    103.32813    247.05049 
   31050    112.66039   -1340.5082    91114.523   -21753.084    1689.1707   -23442.255    103.56901    249.63954 
   31100    113.86146   -1423.2848    91123.359   -21726.479    1707.1789   -23433.658    103.58313    252.30095 
   31150    110.73197   -1294.2446    91260.639     -21717.3    1660.2569   -23377.557    103.81872    245.36643 
   31200      116.175   -1448.7231    91263.148    -21712.79     1741.867   -23454.657    103.74913    257.42743 
   31250    111.76026   -1467.9913    91268.659   -21761.608    1675.6746   -23437.283    103.74136    247.64497 
   31300    112.76741   -1682.8624    91276.579   -21716.175    1690.7753    -23406.95    103.92453    249.87669 
   31350    114.11963   -1665.7776    91227.575   -21737.369    1711.0498   -23448.419    104.34117    252.87302 
   31400    112.25653   -1453.2327    91158.903    -21762.44    1683.1154   -23445.556    104.38713    248.74465 
   31450    113.75167   -1325.4273    91146.883   -21726.457    1705.5328    -23431.99    104.48023    252.05767 
   31500    111.35814   -1326.8375    91174.549   -21732.676    1669.6454   -23402.322    104.37517    246.75393 
   31550    116.47372   -1208.2605     91159.82   -21683.667    1746.3457   -23430.013    104.72691    258.08934 
   31600    115.37542   -1365.0456     91115.47   -21673.419    1729.8785   -23403.297    104.85301    255.65567 
   31650    118.83969   -1113.1306    91103.612   -21664.246    1781.8199   -23446.066    104.72083      263.332 
   31700    116.33629   -1356.2307    91188.664   -21680.696    1744.2852   -23424.981    105.07851    257.78481 
   31750    113.53598   -1161.8159    91114.245   -21684.302    1702.2988   -23386.601     105.1911    251.57973 
   31800    111.70689   -1389.2554    91061.885   -21672.166    1674.8745   -23347.041    105.58836    247.52673 
   31850    115.52522   -1379.3197        91007   -21715.322    1732.1245   -23447.447    105.56999     255.9876 
   31900    114.21835   -1338.4431    90904.073   -21724.217      1712.53   -23436.747    105.89412    253.09177 
   31950    116.46649   -1101.4311     90872.48   -21732.745    1746.2374   -23478.983    106.03777    258.07333 
   32000    111.68204   -1241.2734    90905.454   -21752.804    1674.5018   -23427.306    106.28711    247.47166 
   32050    111.63986   -966.78421    90988.562   -21771.391    1673.8694   -23445.261     106.3284     247.3782 
   32100    113.65281   -1492.9524    91095.416   -21728.146    1704.0505   -23432.197    106.80579     251.8386 
   32150    113.02472   -1048.3884    91058.053    -21763.11    1694.6333   -23457.744    107.05988    250.44686 
   32200    112.18453   -1274.5662    91041.438   -21770.435    1682.0358    -23452.47    107.01259     248.5851 
   32250    113.52217   -1314.3791    91097.681   -21750.294    1702.0918   -23452.386    107.09538    251.54912 
   32300     112.4373   -1228.4948    91084.236   -21804.085    1685.8257   -23489.911    106.92181     249.1452 
   32350    114.12314   -1040.9745    91098.399   -21804.469    1711.1024   -23515.572    107.04877    252.88079 
   32400    113.65784   -1046.8672    91096.789   -21790.962     1704.126   -23495.088    107.41489    251.84975 
   32450    110.89531   -1293.4942    91145.031   -21799.497    1662.7061   -23462.203    107.94711    245.72838 
   32500     111.9452   -1264.0091    91098.824   -21813.767    1678.4475   -23492.215    108.33375    248.05478 
   32550    112.05601   -1034.5342    91050.266   -21806.223    1680.1089   -23486.332    108.79392    248.30032 
   32600    112.28592    -823.3941    91077.578   -21778.507     1683.556   -23462.063    109.24096    248.80976 
   32650    112.01942   -951.91817    91187.118   -21778.637    1679.5603   -23458.197    108.99985    248.21924 
   32700    110.88994   -1146.5526    91240.122   -21776.859    1662.6256   -23439.484    109.01021    245.71649 
   32750    113.65154   -1242.5494    91208.763   -21770.998    1704.0315    -23475.03    109.03718    251.83579 
   32800    109.96378   -1251.8657    91147.196   -21782.503    1648.7391   -23431.242    109.45694    243.66423 
   32850    113.14399   -1209.0214    91136.559   -21755.357    1696.4216   -23451.779    109.85731    250.71114 
   32900     114.4758   -966.25269    91230.066   -21745.343      1716.39   -23461.733    110.04467    253.66224 
   32950     111.8082   -1348.7768    91248.109   -21755.678    1676.3934   -23432.071    110.22273    247.75121 
   33000    110.06083   -853.33202    91310.288   -21732.355    1650.1943   -23382.549    109.98432    243.87929 
   33050    113.27736   -1299.2142    91387.816   -21711.276    1698.4212   -23409.698     110.2354    251.00666 
   33100    113.31871   -1296.6122    91357.031   -21734.005    1699.0412   -23433.046    110.41305    251.09829 
   33150    111.26667   -1080.3807    91350.504    -21730.68     1668.274   -23398.954      110.251    246.55126 
   33200    111.35259   -1018.8281     91356.14   -21743.111    1669.5622   -23412.674    110.36684    246.74164 
   33250    111.88802   -1188.5288    91336.549   -21742.028    1677.5902   -23419.618    110.86349    247.92808 
   33300     114.5525   -1202.1459    91266.774   -21737.115      1717.54   -23454.655     111.0767    253.83219 
   33350    112.40392   -1040.4948     91311.98   -21753.615    1685.3254    -23438.94    111.11417    249.07125 
   33400    114.62784   -861.16564    91310.117   -21767.726    1718.6697   -23486.396    111.35238    253.99914 
   33450    111.98748     -849.044     91370.54   -21771.329    1679.0814    -23450.41    111.48118    248.14847 
   33500    114.70089   -1064.0458     91333.93   -21757.107    1719.7649   -23476.872    111.65368      254.161 
   33550    112.30506   -1376.4841    91260.324   -21789.297     1683.843    -23473.14    111.41798    248.85218 
   33600     111.9232   -1473.3679    91248.181   -21798.332    1678.1176    -23476.45    112.05981    248.00603 
   33650    109.66196   -1327.5138    91166.118   -21795.905    1644.2139   -23440.119    112.16897    242.99546 
   33700    109.36174    -1207.533    91178.323   -21778.171    1639.7124   -23417.883    112.37641    242.33019 
   33750    109.44039   -1206.8056    91193.945   -21774.942    1640.8917   -23415.834    112.50786    242.50448 
   33800    112.63069    -1121.136     91297.89       -21725    1688.7254   -23413.725    112.22124    249.57373 
   33850    112.37014   -1285.3698    91254.341   -21715.665    1684.8189   -23400.484    112.11102     248.9964 
   33900    111.74913   -1327.2593    91231.385    -21717.68    1675.5077   -23393.187    112.40597    247.62032 
   33950    116.03655   -1230.6686     91226.72   -21696.579     1739.791    -23436.37    112.70792    257.12063 
[...]
   92000    113.25742   -1416.7679    91037.324   -21647.265    1698.1223   -23345.387    279.90555    250.96248 
   92050    111.70938   -1222.6051    91060.743   -21647.723    1674.9118   -23322.635    280.44413    247.53225 
   92100    114.60551   -1479.2191    91052.292   -21626.405    1718.3347    -23344.74    280.45324    253.94965 
   92150     115.7057   -1404.1332    91057.322   -21629.082    1734.8305   -23363.913    279.78902    256.38752 
   92200    111.29383   -1479.1093    91019.001   -21653.979    1668.6812    -23322.66    279.71517    246.61144 
   92250    111.27114   -1385.4774    90943.518   -21680.439     1668.341    -23348.78     280.1916    246.56116 
   92300    113.33794   -1343.7369    90927.977   -21667.376    1699.3296   -23366.706    280.59346    251.14091 
   92350    110.77805   -1279.6824    90926.366   -21648.918    1660.9478   -23309.866    280.15548    245.46853 
   92400    113.76482   -1320.9885    90903.806   -21641.727      1705.73   -23347.457    280.02524    252.08681 
   92450    112.21182   -1150.4976    90923.855   -21599.622     1682.445   -23282.067    280.53613    248.64557 
   92500     115.4693    -1306.067    90984.699   -21607.072    1731.2861   -23338.358    280.91874     255.8637 
   92550    114.69296   -904.56276    91026.521   -21606.586     1719.646   -23326.232    280.95237    254.14344 
   92600    112.85902   -1156.0172    91080.242   -21624.129    1692.1489   -23316.278    281.24682    250.07969 
   92650    114.30548   -1409.7861    91107.708   -21618.091    1713.8363   -23331.927    282.28118    253.28482 
   92700    112.59406   -1128.7498    91159.266   -21637.053    1688.1761   -23325.229    282.55403    249.49256 
   92750    111.80404   -1129.5783    91215.124   -21648.692     1676.331   -23325.023    282.07236    247.74199 
   92800    115.23749   -1358.4201    91196.585   -21645.372    1727.8104   -23373.183    281.86445    255.35004 
   92850    113.18298   -1414.2921    91176.122   -21607.623    1697.0062   -23304.629    282.78442    250.79754 
   92900    111.11038   -1145.9466    91113.954     -21663.6    1665.9306   -23329.531    282.58307    246.20493 
   92950    110.52636    -1129.743    91125.874   -21676.609    1657.1741   -23333.783    282.85599    244.91083 
   93000    111.32211   -1599.1712    91074.855   -21692.715    1669.1053   -23361.821    283.05363    246.67411 
   93050    111.29718   -1460.4782    90982.557   -21676.026    1668.7314   -23344.758    283.14344    246.61886 
   93100    112.79233   -1260.8472    90936.443   -21690.694    1691.1489   -23381.843    282.63126     249.9319 
   93150    114.68707   -1060.6916    90964.059   -21705.084    1719.5577   -23424.641    283.32993    254.13039 
   93200    112.55037   -1159.9957    91058.584   -21727.245     1687.521   -23414.766    283.41536    249.39574 
   93250    111.83893   -1256.7924    91088.643   -21739.249    1676.8541   -23416.103    283.65557     247.8193 
   93300    109.66235   -1318.1025    91105.436   -21726.516    1644.2197   -23370.735    284.33294    242.99632 
   93350    112.29029   -1224.6345    91139.748    -21756.12    1683.6216   -23439.742    284.33894    248.81946 
   93400     113.5789   -1072.6497    91180.048   -21691.589    1702.9424   -23394.532    284.23375    251.67484 
   93450    111.17296   -1369.5473    91221.396   -21678.431     1666.869     -23345.3    284.31637    246.34362 
   93500    111.85704   -1378.4354     91267.38   -21667.877    1677.1257   -23345.003    285.14466    247.85944 
   93550    113.31384   -1426.1135    91230.461   -21635.146    1698.9682   -23334.114    285.47633     251.0875 
   93600     114.2604   -1325.1809    91212.702   -21603.549    1713.1604    -23316.71    284.80913    253.18494 
   93650    113.66914   -1395.0416    91224.994   -21605.016    1704.2953   -23309.311    284.98109    251.87478 
   93700    113.83527    -1363.514    91123.202   -21605.254    1706.7863    -23312.04    284.95189    252.24292 
   93750    115.43142   -1253.2852    91073.494   -21595.403    1730.7181   -23326.121    285.18429    255.77976 
   93800    114.11403   -1396.8464    91064.424   -21638.985    1710.9658    -23349.95    285.28275    252.86061 
   93850    111.87512   -1097.1396    91109.307   -21602.578    1677.3968   -23279.975     285.4201    247.89949 
   93900    113.95893   -1416.8769    91114.454   -21612.367    1708.6403   -23321.007    285.33089    252.51692 
   93950     116.9993   -1365.7554    91132.336   -21579.626    1754.2261   -23333.852    285.88399    259.25396 
   94000    114.61617   -1080.5506    91177.219   -21599.137    1718.4947   -23317.631    286.02739    253.97328 
   94050    111.54674   -1446.9582    91163.219   -21676.204    1672.4731   -23348.678     285.9959    247.17184 
   94100    113.61887   -1359.3136    91142.335   -21657.187    1703.5417   -23360.728    286.75939     251.7634 
   94150    112.54821   -1030.6686    91159.554   -21672.147    1687.4888   -23359.635    286.96749    249.39097 
   94200    113.37185   -1052.8295    91174.986    -21647.16     1699.838   -23346.998    287.04721    251.21604 
   94250    114.07107   -1368.6421    91198.639   -21611.213    1710.3217   -23321.535    287.08825    252.76541 
   94300    112.35931   -1504.0527     91105.02     -21618.3    1684.6564   -23302.957    287.01797    248.97239 
   94350     112.4258   -1430.4832    91061.521   -21641.907    1685.6534   -23327.561     286.9246    249.11973 
   94400    112.98041   -1561.1045    90992.747   -21661.145    1693.9689   -23355.114    287.03129    250.34866 
   94450    112.81111   -1512.4545    90919.852   -21670.163    1691.4305   -23361.594     287.0539    249.97352 
   94500    114.83431   -945.12811    90927.918   -21644.935    1721.7654   -23366.701    287.08023    254.45665 
   94550    109.37523   -1400.2773    90989.522    -21705.06    1639.9147   -23344.975    287.18338    242.36009 
   94600    111.57611   -1411.2106    90993.311   -21702.985    1672.9135   -23375.899    286.99637    247.23692 
   94650    112.69606   -827.06242    91017.756   -21704.803    1689.7055   -23394.509    287.92652    249.71859 
   94700    112.05218    -1318.666    91127.714   -21695.441    1680.0515   -23375.493    287.64838    248.29184 
   94750    112.27236   -1322.3002     91167.51   -21705.516    1683.3527   -23388.869    287.10232    248.77972 
   94800    113.70721   -1113.0492    91213.405   -21656.232    1704.8661   -23361.098    287.51353    251.95914 
   94850     113.8051   -1355.3057    91252.643   -21663.005    1706.3339   -23369.339    286.96111    252.17606 
   94900    113.14799   -1122.0124    91252.826   -21626.627    1696.4815   -23323.109    286.58192    250.71999 
   94950    114.72021    -1344.499    91253.283   -21632.581    1720.0546   -23352.636    286.94939    254.20382 
   95000    113.17841   -1120.6431    91279.572   -21641.507    1696.9375   -23338.444    286.38006    250.78739 
   95050    111.86684    -967.0787    91238.953   -21673.202    1677.2726   -23350.475    286.13533    247.88114 
   95100    111.32071    -1179.035    91260.867   -21693.438    1669.0843   -23362.522    286.24451    246.67101 
   95150     114.4165   -1335.5017    91243.735   -21649.656    1715.5009   -23365.157    285.69371    253.53084 
   95200    114.32009   -957.10218    91306.068   -21652.521    1714.0554   -23366.577    285.93222    253.31721 
   95250    113.21554   -1395.6843    91334.849   -21679.052    1697.4943   -23376.546    286.51931    250.86967 
   95300    112.56936   -1257.1848    91307.653   -21689.117    1687.8059   -23376.923    286.73007    249.43784 
   95350    113.04021    -1225.616    91293.041   -21645.987    1694.8655   -23340.852    286.94637    250.48116 
   95400     115.6131   -1224.3617    91254.375   -21609.379    1733.4421   -23342.821    287.12199    256.18233 
   95450    112.13321   -1236.7906    91227.571   -21625.527    1681.2665   -23306.793    287.06381    248.47139 
   95500    113.22453   -1304.8587    91191.317   -21606.162    1697.6291   -23303.791    287.31822     250.8896 
   95550     115.6232   -1112.8751     91167.68   -21648.376    1733.5935    -23381.97    287.56436    256.20472 
   95600    114.07718   -1251.7563    91146.012     -21650.8    1710.4132   -23361.213     287.2186    252.77894 
   95650    112.96352   -1198.0402     91216.25   -21712.718    1693.7157   -23406.434    287.26089    250.31124 
   95700    114.08419   -1123.3623    91195.972   -21704.563    1710.5184   -23415.082     287.4784    252.79449 
   95750    111.07908    -1593.352    91128.831   -21720.108    1665.4613    -23385.57    287.50149    246.13558 
   95800     111.4798    -1059.569    91144.297   -21687.069    1671.4696   -23358.539    286.97738    247.02352 
   95850    114.49687   -1419.2516     91137.55   -21637.211     1716.706   -23353.917    287.07286    253.70893 
   95900    114.70468   -1267.8902    91141.359   -21663.544    1719.8217   -23383.365    287.21861    254.16941 
   95950    111.39528    -1412.951    91173.737   -21710.108    1670.2024   -23380.311    287.27663    246.83625 
   96000    113.71415   -953.67125    91196.687   -21681.629    1704.9702   -23386.599    286.95215    251.97453 
   96050    113.52211   -1177.1244    91222.428   -21682.005    1702.0908   -23384.096    287.46724    251.54899 
   96100    114.57696    -1253.229    91287.248   -21667.718    1717.9068   -23385.625    287.68004     253.8864 
   96150     112.9537   -1142.4014    91357.789   -21646.184    1693.5685   -23339.752     287.7065    250.28948 
   96200    115.49576   -1245.5676    91335.725    -21678.65    1731.6828   -23410.333    287.12066    255.92233 
   96250    114.56294   -1305.9653    91305.002   -21712.038    1717.6965   -23429.734    287.33657    253.85532 
   96300     111.9584   -730.29224    91384.246    -21702.62    1678.6454   -23381.266    287.52657    248.08403 
   96350    111.02366   -1534.4715    91413.371    -21681.88    1664.6305    -23346.51    287.75438    246.01279 
   96400    110.65172   -1344.9312    91342.854   -21671.441    1659.0538   -23330.495    287.99461    245.18862 
   96450     117.1376   -1672.8986    91226.585   -21645.042    1756.2996   -23401.342    287.91904    259.56041 
   96500    114.01673   -1407.7653    91189.035   -21653.714    1709.5069   -23363.221    288.21389    252.64499 
   96550    113.18249   -1279.8743    91072.076   -21663.534    1696.9987   -23360.533    287.97059    250.79643 
   96600    112.65119   -1141.5199    91127.038   -21686.756    1689.0327   -23375.789    288.57274    249.61915 
   96650    116.71446   -1546.3697    91182.618   -21666.132    1749.9553   -23416.088     288.1679    258.62279 
   96700    113.50259   -1304.8164    91169.705   -21627.826    1701.7982   -23329.625    287.98452    251.50574 
   96750    114.91671   -1078.4005    91204.376   -21657.831    1723.0008   -23380.832    288.72752    254.63923 
   96800    114.99345   -1553.1456    91208.529    -21629.28    1724.1513   -23353.432    287.68263    254.80927 
   96850    114.09444   -1288.7646    91212.009   -21646.342    1710.6721   -23357.014    287.83008     252.8172 
   96900    115.71366   -1119.9437     91285.29   -21658.147    1734.9499   -23393.097    287.99284    256.40517 
   96950    115.62519    -1184.747    91299.396   -21629.191    1733.6233   -23362.815    287.85297    256.20912 
   97000    114.41489   -1363.7185    91259.419   -21638.418    1715.4768   -23353.895    288.75154    253.52727 
   97050    114.35579   -1268.2758    91209.466   -21636.462    1714.5906   -23351.052     288.9833    253.39631 
   97100    112.77275   -1187.1579    91184.557   -21674.124    1690.8554    -23364.98    288.88136    249.88852 
   97150    113.85255   -1229.2519    91170.812   -21669.787    1707.0453   -23376.832    289.40852    252.28121 
   97200    111.35538   -1449.4974     91156.15   -21735.281     1669.604   -23404.886    289.75119    246.74782 
   97250    111.34328   -1318.9119    91133.224   -21726.745    1669.4226   -23396.168    289.84686    246.72101 
   97300    113.09471   -930.97398    91147.831   -21753.532    1695.6826   -23449.214    290.40919    250.60193 
   97350    112.72589     -1194.08    91271.963   -21731.482    1690.1528   -23421.635    290.54069    249.78469 
   97400    110.40308   -1389.1889    91311.921   -21721.645    1655.3258   -23376.971     290.7821    244.63766 
   97450    110.65894   -1309.7771    91306.908   -21706.679    1659.1621   -23365.841     291.3211    245.20462 
   97500    115.81109   -1411.0028    91347.844   -21653.146    1736.4106   -23389.557    291.41492    256.62105 
   97550    112.65281   -1420.8988    91362.724   -21650.507     1689.057   -23339.564    291.41162    249.62274 
   97600    115.04147   -1176.7339    91332.538   -21668.728    1724.8713   -23393.599    291.68136    254.91567 
   97650    112.14653   -1425.9281    91345.543    -21745.09    1681.4662   -23426.556    292.19302    248.50091 
   97700    110.79584   -1476.4098    91315.469   -21772.269    1661.2146   -23433.484    291.74199    245.50796 
   97750    115.79999   -1017.2593    91292.919   -21702.065    1736.2442   -23438.309    291.50088    256.59645 
   97800    110.23133   -1557.8476    91276.957   -21717.578    1652.7507   -23370.329     291.8051    244.25709 
   97850    111.02279   -1161.1065    91251.185   -21724.114    1664.6173   -23388.731    292.08213    246.01084 
   97900    109.01799   -1358.4518    91221.286   -21756.765    1634.5585   -23391.323     291.7113    241.56851 
   97950    111.46075   -1032.9448    91197.687    -21746.43    1671.1839   -23417.614    291.91967    246.98131 
   98000    112.60309   -1007.9464    91147.177   -21716.258    1688.3115    -23404.57    292.07023    249.51257 
   98050    112.95118    -1278.208    91168.268   -21726.181    1693.5306   -23419.712    291.93841    250.28389 
   98100    111.21861    -1714.512    91088.647   -21725.134    1667.5533   -23392.687    291.89728    246.44475 
   98150     113.1098   -1106.5274    91082.783   -21694.512    1695.9089   -23390.421    291.72672    250.63538 
   98200    111.32906   -1293.6816    91144.067   -21695.121    1669.2094    -23364.33    292.01725    246.68951 
   98250    113.03677   -1430.3482    91182.094   -21688.743     1694.814   -23383.557    292.06345    250.47355 
   98300    112.11073    -1222.768    91166.777   -21687.666    1680.9293   -23368.595    292.15463    248.42157 
   98350    113.88476   -1179.0982    91201.786   -21718.625    1707.5282   -23426.153    292.19457    252.35256 
   98400    111.47014   -1174.1591    91117.766    -21732.62    1671.3248   -23403.945    292.05968    247.00212 
   98450    111.81153   -1415.7485    91070.958   -21721.891    1676.4433   -23398.334    292.33148    247.75858 
   98500    109.66284   -1303.7537    91044.988   -21741.447     1644.227   -23385.674    292.02799    242.99739 
   98550    109.86917   -1268.8408    91044.134   -21805.494    1647.3206   -23452.815    291.80636     243.4546 
   98600    114.36422   -1253.5225    91076.633   -21791.074     1714.717   -23505.791    292.02544    253.41498 
   98650    109.44696    -1388.039    91140.884   -21795.418    1640.9903   -23436.408    292.20116    242.51904 
   98700    111.16312   -1183.2937    91133.397   -21780.856    1666.7215   -23447.577    291.49788    246.32181 
   98750    105.50177   -1407.7793    91098.721   -21793.062    1581.8381     -23374.9    291.50236    233.77705 
   98800    111.24312   -1081.2165    91122.852   -21801.114    1667.9208   -23469.035    291.86693    246.49906 
   98850    112.24824   -1284.0517    91217.123   -21789.975    1682.9911   -23472.966    291.84987    248.72628 
   98900    111.09772   -1287.3893    91260.408   -21836.998    1665.7409   -23502.739    291.68083    246.17689 
   98950     108.7747   -1488.5263    91227.375   -21884.315    1630.9108   -23515.225    291.83687    241.02941 
   99000    108.62623   -1240.9137    91228.827   -21868.955    1628.6846   -23497.639    291.84675    240.70041 
   99050     110.2729   -1425.0504    91177.144   -21788.179    1653.3739   -23441.553     292.3932     244.3492 
   99100     112.0716   -1465.1417    91118.436    -21785.94    1680.3427   -23466.283     292.2981    248.33487 
   99150    109.23442   -1510.5776    91129.278   -21803.445    1637.8035   -23441.249    292.03335    242.04808 
   99200    113.28748   -1297.0854    91146.732   -21772.244    1698.5729   -23470.817    292.22577    251.02908 
   99250    111.99345   -1127.6595    91247.212   -21749.565    1679.1709   -23428.736    292.53881     248.1617 
   99300     114.2261   -1329.9585     91264.64   -21714.579    1712.6462   -23427.225    292.07847    253.10894 
   99350    112.72682   -976.78138    91296.188   -21756.776    1690.1668   -23446.943    291.75969    249.78675 
   99400    112.08611    -926.9544    91377.724   -21741.091    1680.5603   -23421.651    292.03305    248.36702 
   99450    110.61205   -1125.7477    91404.258   -21783.067     1658.459   -23441.526    291.93913    245.10071 
   99500    111.93011   -1127.6157    91409.222   -21798.664    1678.2213   -23476.885    292.03031    248.02135 
   99550    109.03249   -1233.9119    91449.001   -21801.271    1634.7758   -23436.046    291.69254    241.60062 
   99600     111.7642   -1485.5023    91402.687   -21815.358    1675.7337   -23491.092    292.16588    247.65372 
   99650    111.41838   -1497.5197    91392.324   -21805.144    1670.5486   -23475.692    292.52635    246.88742 
   99700     110.0933   -910.48743    91491.631   -21806.517    1650.6812   -23457.198    292.37668    243.95124 
   99750    110.74829   -1248.2952    91572.426   -21703.381    1660.5017   -23363.882     292.6812     245.4026 
   99800    110.54498   -1263.3514    91574.898   -21746.471    1657.4533   -23403.924    292.97868    244.95209 
   99850    112.57609   -1279.9426    91559.209   -21784.403    1687.9067    -23472.31    292.95165    249.45274 
   99900    107.89686   -1097.7906    91573.837   -21752.379    1617.7488   -23370.128    293.48571    239.08423 
   99950    111.02757   -1265.8338    91561.601   -21726.642     1664.689   -23391.331    293.43878    246.02143 
  100000    111.34487   -1378.2579    91564.719   -21737.755    1669.4464   -23407.202    293.85257    246.72453 
Loop time of 42.7598 on 80 procs for 100000 steps with 5031 atoms

Performance: 1010.296 ns/day, 0.024 hours/ns, 2338.648 timesteps/s
100.0% CPU use with 80 MPI tasks x no OpenMP threads

MPI task timing breakdown:
Section |  min time  |  avg time  |  max time  |%varavg| %total
---------------------------------------------------------------
Pair    | 5.6678     | 17.564     | 24.531     | 170.6 | 41.08
Neigh   | 0.48199    | 1.2557     | 3.4826     |  95.0 |  2.94
Comm    | 10.791     | 17.044     | 28.256     | 162.4 | 39.86
Output  | 0.12642    | 0.12995    | 0.25573    |   3.9 |  0.30
Modify  | 3.9952     | 5.9286     | 7.572      |  41.7 | 13.86
Other   |            | 0.8372     |            |       |  1.96

Nlocal:    62.8875 ave 144 max 31 min
Histogram: 54 6 0 0 0 0 0 0 5 15
Nghost:    669.013 ave 832 max 390 min
Histogram: 20 0 0 0 0 0 0 39 1 20
Neighs:    0 ave 0 max 0 min
Histogram: 80 0 0 0 0 0 0 0 0 0
FullNghs:  5898.43 ave 18786 max 1194 min
Histogram: 60 0 0 0 0 0 0 0 1 19

Total # of neighbors = 471874
Ave neighs/atom = 93.7933
Neighbor list builds = 5957
Dangerous builds = 0

write_data		${DIR}/data.eq-${NAME}-${TEMP}
write_data		run_6/data.eq-${NAME}-${TEMP}
write_data		run_6/data.eq-het_freeze_6-${TEMP}
write_data		run_6/data.eq-het_freeze_6-250
undump          1

reset_timestep  0

unfix           2
unfix           3
unfix           4


################################################
#######         Run Simulation         #########
################################################

log				${DIR}/log.run_${NAME}
log				run_6/log.run_${NAME}
log				run_6/log.run_het_freeze_6
