LAMMPS data file via write_data, version 16 Mar 2018, timestep = 100000

4545 atoms
2 atom types

0.0000000000000000e+00 4.9219999999999999e+01 xlo xhi
0.0000000000000000e+00 4.9019635930410494e+01 ylo yhi
1.7270786027480636e+00 3.1908261183773973e+01 zlo zhi

Masses

1 18.015
2 12.01

Atoms # atomic

91 2 0.0000000000000000e+00 2.8417180249513345e+00 3.2318602850390112e+00 0 0 0
93 2 0.0000000000000000e+00 0.0000000000000000e+00 3.2318602850390112e+00 0 0 0
95 2 1.2305000000000001e+00 7.1042950623783474e-01 3.2318602850390112e+00 0 0 0
102 2 1.2305000000000001e+00 2.1312885187134998e+00 3.2318602850390112e+00 0 0 0
104 2 2.4610000000000003e+00 2.8417180249513345e+00 3.2318602850390112e+00 0 0 0
106 2 2.4610000000000003e+00 0.0000000000000000e+00 3.2318602850390112e+00 0 0 0
108 2 3.6915000000000004e+00 7.1042950623783474e-01 3.2318602850390112e+00 0 0 0
123 2 3.6914999999999996e+00 2.1312885187134998e+00 3.2318602850390112e+00 0 0 0
125 2 4.9220000000000006e+00 2.8417180249513332e+00 3.2318602850390112e+00 0 0 0
127 2 4.9220000000000006e+00 0.0000000000000000e+00 3.2318602850390112e+00 0 0 0
129 2 6.1524999999999999e+00 7.1042950623783407e-01 3.2318602850390112e+00 0 0 0
152 2 6.1524999999999999e+00 2.1312885187134989e+00 3.2318602850390112e+00 0 0 0
154 2 7.3829999999999991e+00 2.8417180249513345e+00 3.2318602850390112e+00 0 0 0
156 2 7.3829999999999991e+00 0.0000000000000000e+00 3.2318602850390112e+00 0 0 0
158 2 8.6134999999999984e+00 7.1042950623783407e-01 3.2318602850390112e+00 0 0 0
189 2 8.6134999999999984e+00 2.1312885187135002e+00 3.2318602850390112e+00 0 0 0
191 2 9.8440000000000012e+00 2.8417180249513332e+00 3.2318602850390112e+00 0 0 0
193 2 9.8440000000000012e+00 0.0000000000000000e+00 3.2318602850390112e+00 0 0 0
195 2 1.1074500000000002e+01 7.1042950623783330e-01 3.2318602850390112e+00 0 0 0
234 2 1.1074500000000002e+01 2.1312885187135002e+00 3.2318602850390112e+00 0 0 0
98 2 0.0000000000000000e+00 4.2625770374269996e+00 3.2318602850390112e+00 0 0 0
100 2 1.2305000000000001e+00 4.9730065436648339e+00 3.2318602850390112e+00 0 0 0
115 2 1.2305000000000001e+00 6.3938655561404980e+00 3.2318602850390112e+00 0 0 0
119 2 2.4610000000000003e+00 4.2625770374269996e+00 3.2318602850390112e+00 0 0 0
121 2 3.6914999999999996e+00 4.9730065436648339e+00 3.2318602850390112e+00 0 0 0
144 2 3.6914999999999996e+00 6.3938655561404980e+00 3.2318602850390112e+00 0 0 0
96 2 0.0000000000000000e+00 7.1042950623783341e+00 3.2318602850390112e+00 0 0 0
117 2 2.4610000000000003e+00 7.1042950623783341e+00 3.2318602850390112e+00 0 0 0
148 2 4.9220000000000006e+00 4.2625770374269978e+00 3.2318602850390112e+00 0 0 0
150 2 6.1524999999999999e+00 4.9730065436648339e+00 3.2318602850390112e+00 0 0 0
181 2 6.1524999999999999e+00 6.3938655561404980e+00 3.2318602850390112e+00 0 0 0
185 2 7.3829999999999991e+00 4.2625770374269996e+00 3.2318602850390112e+00 0 0 0
146 2 4.9220000000000006e+00 7.1042950623783341e+00 3.2318602850390112e+00 0 0 0
183 2 7.3830000000000009e+00 7.1042950623783341e+00 3.2318602850390112e+00 0 0 0
187 2 8.6135000000000002e+00 4.9730065436648339e+00 3.2318602850390112e+00 0 0 0
226 2 8.6135000000000002e+00 6.3938655561404980e+00 3.2318602850390112e+00 0 0 0
230 2 9.8440000000000012e+00 4.2625770374270004e+00 3.2318602850390112e+00 0 0 0
232 2 1.1074500000000002e+01 4.9730065436648339e+00 3.2318602850390112e+00 0 0 0
273 2 1.1074500000000002e+01 6.3938655561404980e+00 3.2318602850390112e+00 0 0 0
228 2 9.8440000000000012e+00 7.1042950623783341e+00 3.2318602850390112e+00 0 0 0
111 2 0.0000000000000000e+00 8.5251540748539991e+00 3.2318602850390112e+00 0 0 0
113 2 1.2305000000000001e+00 9.2355835810918343e+00 3.2318602850390112e+00 0 0 0
140 2 2.4610000000000003e+00 8.5251540748539991e+00 3.2318602850390112e+00 0 0 0
142 2 3.6915000000000004e+00 9.2355835810918343e+00 3.2318602850390112e+00 0 0 0
109 2 0.0000000000000000e+00 1.1366872099805333e+01 3.2318602850390112e+00 0 0 0
136 2 1.2305000000000001e+00 1.0656442593567498e+01 3.2318602850390112e+00 0 0 0
138 2 2.4610000000000003e+00 1.1366872099805333e+01 3.2318602850390112e+00 0 0 0
173 2 3.6914999999999996e+00 1.0656442593567499e+01 3.2318602850390112e+00 0 0 0
177 2 4.9220000000000006e+00 8.5251540748539991e+00 3.2318602850390112e+00 0 0 0
179 2 6.1524999999999999e+00 9.2355835810918343e+00 3.2318602850390112e+00 0 0 0
222 2 7.3830000000000009e+00 8.5251540748539991e+00 3.2318602850390112e+00 0 0 0
175 2 4.9220000000000006e+00 1.1366872099805333e+01 3.2318602850390112e+00 0 0 0
218 2 6.1524999999999999e+00 1.0656442593567499e+01 3.2318602850390112e+00 0 0 0
220 2 7.3829999999999991e+00 1.1366872099805333e+01 3.2318602850390112e+00 0 0 0
224 2 8.6134999999999984e+00 9.2355835810918343e+00 3.2318602850390112e+00 0 0 0
269 2 9.8440000000000012e+00 8.5251540748539956e+00 3.2318602850390112e+00 0 0 0
271 2 1.1074500000000002e+01 9.2355835810918343e+00 3.2318602850390112e+00 0 0 0
265 2 8.6134999999999984e+00 1.0656442593567498e+01 3.2318602850390112e+00 0 0 0
267 2 9.8440000000000012e+00 1.1366872099805333e+01 3.2318602850390112e+00 0 0 0
312 2 1.1074500000000002e+01 1.0656442593567498e+01 3.2318602850390112e+00 0 0 0
314 2 1.2304999999999998e+01 1.1366872099805333e+01 3.2318602850390112e+00 0 0 0
92 2 0.0000000000000000e+00 1.4208590124756650e+00 6.2414236496202804e+00 0 0 0
94 2 0.0000000000000000e+00 0.0000000000000000e+00 6.2414236496202804e+00 0 0 0
103 2 1.2305000000000001e+00 2.1312885187134998e+00 6.2414236496202804e+00 0 0 0
105 2 2.4610000000000003e+00 1.4208590124756650e+00 6.2414236496202804e+00 0 0 0
107 2 2.4610000000000003e+00 0.0000000000000000e+00 6.2414236496202804e+00 0 0 0
124 2 3.6914999999999996e+00 2.1312885187134998e+00 6.2414236496202804e+00 0 0 0
420 2 0.0000000000000000e+00 2.8417180249513345e+00 9.2509870142018222e+00 0 0 0
421 2 0.0000000000000000e+00 0.0000000000000000e+00 9.2509870142018222e+00 0 0 0
422 2 1.2305000000000001e+00 7.1042950623783474e-01 9.2509870142018222e+00 0 0 0
426 2 1.2305000000000001e+00 2.1312885187134998e+00 9.2509870142018222e+00 0 0 0
427 2 2.4610000000000003e+00 2.8417180249513345e+00 9.2509870142018222e+00 0 0 0
428 2 2.4610000000000003e+00 0.0000000000000000e+00 9.2509870142018222e+00 0 0 0
429 2 3.6915000000000004e+00 7.1042950623783474e-01 9.2509870142018222e+00 0 0 0
437 2 3.6914999999999996e+00 2.1312885187134998e+00 9.2509870142018222e+00 0 0 0
101 2 1.2305000000000001e+00 3.5521475311891644e+00 6.2414236496202804e+00 0 0 0
122 2 3.6914999999999996e+00 3.5521475311891644e+00 6.2414236496202804e+00 0 0 0
126 2 4.9220000000000006e+00 1.4208590124756650e+00 6.2414236496202804e+00 0 0 0
128 2 4.9220000000000006e+00 0.0000000000000000e+00 6.2414236496202804e+00 0 0 0
153 2 6.1524999999999999e+00 2.1312885187134989e+00 6.2414236496202804e+00 0 0 0
155 2 7.3829999999999991e+00 1.4208590124756659e+00 6.2414236496202804e+00 0 0 0
157 2 7.3829999999999991e+00 0.0000000000000000e+00 6.2414236496202804e+00 0 0 0
438 2 4.9220000000000006e+00 2.8417180249513332e+00 9.2509870142018222e+00 0 0 0
439 2 4.9220000000000006e+00 0.0000000000000000e+00 9.2509870142018222e+00 0 0 0
440 2 6.1524999999999999e+00 7.1042950623783407e-01 9.2509870142018222e+00 0 0 0
452 2 6.1524999999999999e+00 2.1312885187134989e+00 9.2509870142018222e+00 0 0 0
453 2 7.3829999999999991e+00 2.8417180249513345e+00 9.2509870142018222e+00 0 0 0
454 2 7.3829999999999991e+00 0.0000000000000000e+00 9.2509870142018222e+00 0 0 0
151 2 6.1524999999999999e+00 3.5521475311891644e+00 6.2414236496202804e+00 0 0 0
190 2 8.6134999999999984e+00 2.1312885187135002e+00 6.2414236496202804e+00 0 0 0
192 2 9.8440000000000012e+00 1.4208590124756659e+00 6.2414236496202804e+00 0 0 0
194 2 9.8440000000000012e+00 0.0000000000000000e+00 6.2414236496202804e+00 0 0 0
235 2 1.1074500000000002e+01 2.1312885187135002e+00 6.2414236496202804e+00 0 0 0
455 2 8.6134999999999984e+00 7.1042950623783407e-01 9.2509870142018222e+00 0 0 0
471 2 8.6134999999999984e+00 2.1312885187135002e+00 9.2509870142018222e+00 0 0 0
472 2 9.8440000000000012e+00 2.8417180249513332e+00 9.2509870142018222e+00 0 0 0
473 2 9.8440000000000012e+00 0.0000000000000000e+00 9.2509870142018222e+00 0 0 0
474 2 1.1074500000000002e+01 7.1042950623783330e-01 9.2509870142018222e+00 0 0 0
494 2 1.1074500000000002e+01 2.1312885187135002e+00 9.2509870142018222e+00 0 0 0
188 2 8.6134999999999984e+00 3.5521475311891657e+00 6.2414236496202804e+00 0 0 0
233 2 1.1074500000000002e+01 3.5521475311891644e+00 6.2414236496202804e+00 0 0 0
97 2 0.0000000000000000e+00 5.6834360499026637e+00 6.2414236496202804e+00 0 0 0
99 2 0.0000000000000000e+00 4.2625770374269996e+00 6.2414236496202804e+00 0 0 0
116 2 1.2305000000000001e+00 6.3938655561404980e+00 6.2414236496202804e+00 0 0 0
118 2 2.4610000000000003e+00 5.6834360499026637e+00 6.2414236496202804e+00 0 0 0
120 2 2.4610000000000003e+00 4.2625770374269996e+00 6.2414236496202804e+00 0 0 0
145 2 3.6914999999999996e+00 6.3938655561404980e+00 6.2414236496202804e+00 0 0 0
424 2 0.0000000000000000e+00 4.2625770374269996e+00 9.2509870142018222e+00 0 0 0
425 2 1.2305000000000001e+00 4.9730065436648339e+00 9.2509870142018222e+00 0 0 0
433 2 1.2305000000000001e+00 6.3938655561404980e+00 9.2509870142018222e+00 0 0 0
435 2 2.4610000000000003e+00 4.2625770374269996e+00 9.2509870142018222e+00 0 0 0
436 2 3.6914999999999996e+00 4.9730065436648339e+00 9.2509870142018222e+00 0 0 0
448 2 3.6914999999999996e+00 6.3938655561404980e+00 9.2509870142018222e+00 0 0 0
114 2 1.2305000000000001e+00 7.8147245686161639e+00 6.2414236496202804e+00 0 0 0
143 2 3.6914999999999996e+00 7.8147245686161639e+00 6.2414236496202804e+00 0 0 0
423 2 0.0000000000000000e+00 7.1042950623783341e+00 9.2509870142018222e+00 0 0 0
434 2 2.4610000000000003e+00 7.1042950623783341e+00 9.2509870142018222e+00 0 0 0
147 2 4.9220000000000006e+00 5.6834360499026637e+00 6.2414236496202804e+00 0 0 0
149 2 4.9220000000000006e+00 4.2625770374269978e+00 6.2414236496202804e+00 0 0 0
182 2 6.1524999999999999e+00 6.3938655561404980e+00 6.2414236496202804e+00 0 0 0
184 2 7.3829999999999991e+00 5.6834360499026637e+00 6.2414236496202804e+00 0 0 0
186 2 7.3829999999999991e+00 4.2625770374269996e+00 6.2414236496202804e+00 0 0 0
450 2 4.9220000000000006e+00 4.2625770374269978e+00 9.2509870142018222e+00 0 0 0
451 2 6.1524999999999999e+00 4.9730065436648339e+00 9.2509870142018222e+00 0 0 0
467 2 6.1524999999999999e+00 6.3938655561404980e+00 9.2509870142018222e+00 0 0 0
469 2 7.3829999999999991e+00 4.2625770374269996e+00 9.2509870142018222e+00 0 0 0
180 2 6.1524999999999999e+00 7.8147245686161639e+00 6.2414236496202804e+00 0 0 0
449 2 4.9220000000000006e+00 7.1042950623783341e+00 9.2509870142018222e+00 0 0 0
468 2 7.3830000000000009e+00 7.1042950623783341e+00 9.2509870142018222e+00 0 0 0
227 2 8.6135000000000002e+00 6.3938655561404980e+00 6.2414236496202804e+00 0 0 0
229 2 9.8440000000000012e+00 5.6834360499026637e+00 6.2414236496202804e+00 0 0 0
231 2 9.8440000000000012e+00 4.2625770374270004e+00 6.2414236496202804e+00 0 0 0
274 2 1.1074500000000002e+01 6.3938655561404980e+00 6.2414236496202804e+00 0 0 0
470 2 8.6135000000000002e+00 4.9730065436648339e+00 9.2509870142018222e+00 0 0 0
490 2 8.6135000000000002e+00 6.3938655561404980e+00 9.2509870142018222e+00 0 0 0
492 2 9.8440000000000012e+00 4.2625770374270004e+00 9.2509870142018222e+00 0 0 0
493 2 1.1074500000000002e+01 4.9730065436648339e+00 9.2509870142018222e+00 0 0 0
514 2 1.1074500000000002e+01 6.3938655561404980e+00 9.2509870142018222e+00 0 0 0
225 2 8.6135000000000002e+00 7.8147245686161639e+00 6.2414236496202804e+00 0 0 0
272 2 1.1074500000000002e+01 7.8147245686161639e+00 6.2414236496202804e+00 0 0 0
491 2 9.8440000000000012e+00 7.1042950623783341e+00 9.2509870142018222e+00 0 0 0
110 2 0.0000000000000000e+00 9.9460130873296642e+00 6.2414236496202804e+00 0 0 0
112 2 0.0000000000000000e+00 8.5251540748539991e+00 6.2414236496202804e+00 0 0 0
139 2 2.4610000000000003e+00 9.9460130873296642e+00 6.2414236496202804e+00 0 0 0
141 2 2.4610000000000003e+00 8.5251540748539991e+00 6.2414236496202804e+00 0 0 0
431 2 0.0000000000000000e+00 8.5251540748539991e+00 9.2509870142018222e+00 0 0 0
432 2 1.2305000000000001e+00 9.2355835810918343e+00 9.2509870142018222e+00 0 0 0
446 2 2.4610000000000003e+00 8.5251540748539991e+00 9.2509870142018222e+00 0 0 0
447 2 3.6915000000000004e+00 9.2355835810918343e+00 9.2509870142018222e+00 0 0 0
135 2 1.2305000000000001e+00 1.2077301606043163e+01 6.2414236496202804e+00 0 0 0
137 2 1.2305000000000001e+00 1.0656442593567498e+01 6.2414236496202804e+00 0 0 0
172 2 3.6914999999999996e+00 1.2077301606043163e+01 6.2414236496202804e+00 0 0 0
174 2 3.6914999999999996e+00 1.0656442593567499e+01 6.2414236496202804e+00 0 0 0
430 2 0.0000000000000000e+00 1.1366872099805333e+01 9.2509870142018222e+00 0 0 0
444 2 1.2305000000000001e+00 1.0656442593567498e+01 9.2509870142018222e+00 0 0 0
445 2 2.4610000000000003e+00 1.1366872099805333e+01 9.2509870142018222e+00 0 0 0
463 2 3.6914999999999996e+00 1.0656442593567499e+01 9.2509870142018222e+00 0 0 0
176 2 4.9220000000000006e+00 9.9460130873296642e+00 6.2414236496202804e+00 0 0 0
178 2 4.9220000000000006e+00 8.5251540748539991e+00 6.2414236496202804e+00 0 0 0
221 2 7.3830000000000009e+00 9.9460130873296642e+00 6.2414236496202804e+00 0 0 0
223 2 7.3830000000000009e+00 8.5251540748539991e+00 6.2414236496202804e+00 0 0 0
465 2 4.9220000000000006e+00 8.5251540748539991e+00 9.2509870142018222e+00 0 0 0
466 2 6.1524999999999999e+00 9.2355835810918343e+00 9.2509870142018222e+00 0 0 0
488 2 7.3830000000000009e+00 8.5251540748539991e+00 9.2509870142018222e+00 0 0 0
217 2 6.1524999999999999e+00 1.2077301606043163e+01 6.2414236496202804e+00 0 0 0
219 2 6.1524999999999999e+00 1.0656442593567499e+01 6.2414236496202804e+00 0 0 0
464 2 4.9220000000000006e+00 1.1366872099805333e+01 9.2509870142018222e+00 0 0 0
486 2 6.1524999999999999e+00 1.0656442593567499e+01 9.2509870142018222e+00 0 0 0
487 2 7.3829999999999991e+00 1.1366872099805333e+01 9.2509870142018222e+00 0 0 0
268 2 9.8440000000000012e+00 9.9460130873296642e+00 6.2414236496202804e+00 0 0 0
270 2 9.8440000000000012e+00 8.5251540748539956e+00 6.2414236496202804e+00 0 0 0
489 2 8.6134999999999984e+00 9.2355835810918343e+00 9.2509870142018222e+00 0 0 0
512 2 9.8440000000000012e+00 8.5251540748539956e+00 9.2509870142018222e+00 0 0 0
513 2 1.1074500000000002e+01 9.2355835810918343e+00 9.2509870142018222e+00 0 0 0
264 2 8.6135000000000002e+00 1.2077301606043163e+01 6.2414236496202804e+00 0 0 0
266 2 8.6134999999999984e+00 1.0656442593567498e+01 6.2414236496202804e+00 0 0 0
311 2 1.1074500000000002e+01 1.2077301606043163e+01 6.2414236496202804e+00 0 0 0
313 2 1.1074500000000002e+01 1.0656442593567498e+01 6.2414236496202804e+00 0 0 0
510 2 8.6134999999999984e+00 1.0656442593567498e+01 9.2509870142018222e+00 0 0 0
511 2 9.8440000000000012e+00 1.1366872099805333e+01 9.2509870142018222e+00 0 0 0
534 2 1.1074500000000002e+01 1.0656442593567498e+01 9.2509870142018222e+00 0 0 0
535 2 1.2304999999999998e+01 1.1366872099805333e+01 9.2509870142018222e+00 0 0 0
42 1 3.1325813741866155e+00 3.1312077702448518e+00 1.1916376515981586e+01 0 0 -1
596 1 1.1986935681453823e+00 1.1156113965956493e+00 1.1842481418832078e+01 0 1 0
3616 1 8.8319605464483857e+00 2.2332702943139733e+00 1.3948362193704762e+01 1 2 0
4385 1 6.0960648802587469e+00 2.3512141834182501e+00 1.2243322068808091e+01 1 0 -1
758 1 1.9658958748596840e+00 9.4151058964477450e+00 1.5917168591997775e+01 0 0 0
38 1 1.9416917048569338e+00 5.6335249481047160e+00 1.1931839181197574e+01 1 1 0
779 1 6.2694044903642601e+00 9.3399267513143585e+00 1.4203168376479779e+01 1 0 -1
1463 1 5.5133354702523691e+00 1.1705183839960705e+01 1.6017848462223391e+01 -1 0 0
4396 1 9.9717020537230798e+00 4.5104798418895538e+00 1.1467677502355977e+01 1 0 -1
3780 1 7.1446386795431724e+00 4.8938863731970947e+00 1.2156563897648235e+01 1 2 -1
588 1 2.5771128082128043e+00 1.0109478881778310e+01 1.1876622794974134e+01 2 1 0
2289 1 3.9807908765896247e+00 7.6788024207267904e+00 1.2012377419587985e+01 1 -1 -1
4336 1 6.7525675051074909e+00 7.7105561775889093e+00 1.1596405127307289e+01 1 0 0
2249 1 5.5933484383617103e+00 1.0732188759489160e+01 1.1648819071372484e+01 0 0 -2
3058 1 9.8113991884216354e+00 1.1529801975857756e+01 1.2335814110259083e+01 0 0 0
603 1 9.5206080733509548e+00 8.9895174704973506e+00 1.1912594310794265e+01 1 0 -1
776 1 1.5474805861454524e+00 2.0819696649018868e+00 1.4640765613683355e+01 0 1 -1
2235 1 9.0909454067603583e+00 1.3214775761383495e+00 1.6422605025104541e+01 0 1 1
3135 1 6.3479246715485242e+00 2.4260036802648948e+00 1.6706417403868432e+01 0 1 0
4458 1 8.5749615522892650e+00 5.5097169600421276e+00 1.4452685169063125e+01 0 1 0
1564 1 4.0614970250997151e-01 4.1229358765266984e+00 1.5943378095220041e+01 1 0 0
3880 1 1.9163818091412572e+00 6.2450683358391865e+00 1.4546064477528077e+01 0 0 0
2179 1 4.3575334819586651e+00 3.2836669558707170e+00 1.4733487402377694e+01 1 1 0
3835 1 1.0212000102872898e+01 1.0135291145646837e+01 1.6319637837903571e+01 1 0 1
1414 1 4.2116237307884310e+00 7.9802335586997639e+00 1.4898558596764021e+01 1 0 0
4464 1 4.8156140233711522e+00 5.9554068449610149e+00 1.6780005468502026e+01 0 0 0
2277 1 1.1422220806541487e+01 4.5843598874756148e+00 1.4227269838782163e+01 1 1 0
859 1 8.8166924901816426e+00 8.3979609376647275e+00 1.4531512061203498e+01 1 1 0
1351 1 2.7743078799334882e+00 1.1957626588164988e+01 1.5172184762306811e+01 1 -1 0
4356 1 9.7542188332990474e+00 4.3300987887463777e-01 1.2351821938328733e+01 1 1 -1
1391 1 1.2146221566005959e+01 8.0886841220205863e+00 1.1941056831566305e+01 0 1 0
3127 1 1.7141633652525126e-01 3.0723818158166392e+00 2.0755573488337966e+01 0 1 0
2944 1 1.1487885230328736e+01 4.2886142206158573e-01 2.5384450053809346e+01 1 1 1
1594 1 5.0461636380750265e+00 7.9455085276297330e+00 1.8949384335309695e+01 1 0 0
4544 1 3.0361465996789572e+00 3.2011087066263646e+00 1.9948431785363390e+01 1 1 -1
3833 1 2.8389937297413410e+00 9.6882265698072523e+00 1.8451333325090388e+01 1 -1 0
620 1 8.8542931250195522e+00 1.1431423092063296e+01 3.0783921430273338e+01 1 -1 1
3870 1 1.0600147043848715e+01 4.8787744034306595e+00 1.9386399364421258e+01 0 1 0
3763 1 7.7198329556771430e+00 4.6358146334106358e+00 1.9630634147251655e+01 -1 0 -1
3732 1 1.8474393954821975e+00 3.9444131310258594e+00 3.0567511721862793e+01 1 0 -1
615 1 2.0753602350746752e+00 6.8048383785499151e+00 1.9588852373766166e+01 0 1 0
4455 1 6.4983072237285100e+00 9.7267046413702474e+00 1.7866346064762702e+01 0 1 0
2985 1 1.1669900005992041e+01 2.0153136638535378e+00 2.8109421594400303e+01 0 0 0
1444 1 1.1114536011543285e+01 7.4898316013612751e+00 1.8789788850369760e+01 -1 1 0
2199 1 1.1879000054657086e+01 1.0464294928205200e+01 2.8227458668816560e+01 0 1 -1
703 1 1.1360649834075778e+01 3.0685496578286022e+00 2.4560903952722107e+01 1 0 0
2185 1 1.0888047535595824e+01 1.1622181727121905e+01 1.8772215414352438e+01 0 0 0
3087 1 6.8152919033546153e+00 1.1302735924155501e+01 2.0140952856980427e+01 0 1 0
1615 1 8.6658402097728420e+00 7.7429459857832335e+00 1.7807180616111083e+01 1 0 0
3695 1 3.9241753775595973e+00 1.0967474312380235e+01 3.0848925083663822e+01 1 1 1
2875 1 5.7808797599590998e+00 1.1832279764453022e+01 2.8300748135547515e+01 0 1 -1
2241 1 1.2301502912697400e+00 5.3313272824476847e+00 2.4941847404425666e+01 0 0 -1
855 1 5.1419305550303340e+00 1.5462958013073211e+00 1.8832041105276389e+01 0 0 0
865 1 7.2383229383792065e+00 8.2647440068382771e-01 2.0514973499309271e+01 0 1 1
1435 1 1.1805997708183547e+01 9.7390433254186721e+00 2.0634986868481541e+01 0 -1 0
3674 1 1.1012293726111773e+01 3.1430396510832530e+00 2.1747763745599876e+01 -1 0 0
869 1 8.2960823253731455e+00 3.0844015752083616e+00 2.1951786677364815e+01 0 1 1
1541 1 1.9955258891583361e+00 7.1193042091143557e+00 2.2564093668645356e+01 0 0 0
4534 1 2.3896448719792796e+00 4.6732794801837843e+00 1.7661218036062138e+01 1 0 0
2848 1 1.2833050736724176e+00 1.2597927192647957e+00 3.0909117084682570e+01 1 1 0
1423 1 6.5905259168777395e+00 6.6570482119289824e+00 2.0948672334588267e+01 0 0 -1
2195 1 4.2678079246619278e+00 8.5688813110611211e+00 2.3514250845865988e+01 2 -1 -1
4488 1 5.3559373366248773e+00 3.6623914141963714e+00 2.3719952978979940e+01 1 0 0
2268 1 8.3874050380745651e+00 8.6434699419035841e+00 2.0507211683564535e+01 0 0 -1
785 1 4.7223723951817115e-01 5.6100451491508423e+00 2.7839055885095782e+01 1 0 1
1474 1 1.2971421270229866e+00 1.1125916647322281e+01 2.0547599824654021e+01 0 1 0
2980 1 3.8643307682894856e-01 1.0132095894386202e+01 2.4850472709691076e+01 0 0 0
4542 1 6.0167357812041873e+00 1.0974829219863768e+01 2.2812346326195005e+01 2 -1 -1
1431 1 6.4444995925181674e+00 6.7167094800640550e+00 2.3971663903699771e+01 0 -1 0
2907 1 1.0204481077492545e+01 8.9120052441894586e+00 2.2918095375677368e+01 0 1 0
2316 1 3.8247063029667348e+00 1.9786404132115865e+00 2.6475535569709848e+01 1 1 -2
1462 1 3.9947867786691837e+00 5.0788323611586526e+00 2.1619965015982153e+01 1 0 0
4436 1 3.7780697403314583e+00 4.8823611651590824e+00 2.5786058346020859e+01 1 0 -1
1513 1 8.5505393303587471e+00 1.7158983356284827e+00 2.5137524316632508e+01 2 1 0
738 1 6.9826150711452701e+00 5.8579076157464636e+00 2.8336990157432787e+01 -1 0 0
3092 1 1.2042116039822565e+01 2.3903970428331314e+00 3.0965677848266793e+01 -1 1 0
728 1 1.0569832603464180e+01 1.1447741881988764e+01 2.4219177635463730e+01 0 0 0
2297 1 3.2601051356546162e+00 6.4255731942177912e+00 2.7974982777971924e+01 1 2 -1
2977 1 2.0428117511392352e+00 9.9363998164132390e+00 2.8209225966484965e+01 0 0 0
2254 1 6.1751567265654241e+00 8.8093646805468282e+00 2.7862093117031534e+01 0 0 0
1518 1 3.7843938541345428e+00 8.5201394812464262e+00 2.6513630220290892e+01 0 1 0
1535 1 1.0749032626937991e+01 5.5461022424598339e+00 2.6033826483180448e+01 0 0 0
3853 1 7.8444196768313308e+00 4.2345296675078457e+00 2.5566703188972731e+01 1 0 0
1609 1 1.6797882482076598e+00 7.7355392200194051e-01 2.8212894065816833e+01 -1 2 0
3149 1 3.2719003943087426e+00 1.0988462633049158e+01 2.4687973725793952e+01 1 -1 -1
4378 1 9.5733908764150364e+00 6.5797205618680445e+00 2.8550627593494589e+01 0 1 -1
1562 1 9.2079583897989838e+00 9.2248045649023815e+00 2.8795038656824502e+01 1 0 -1
838 1 7.6854434001376397e+00 9.1492581049044652e+00 2.4292438450562699e+01 0 0 0
2236 1 1.1959791577477340e+01 7.4331177118353517e+00 2.4229293223031448e+01 -1 0 0
2989 1 1.0998049648381299e+01 3.1771560051531220e+00 1.7356099508998959e+01 1 0 0
63 1 5.9081716642942474e+00 2.8842385480730912e+00 2.7825314409193417e+01 2 0 0
741 1 4.5677057582928375e+00 3.3521287444619667e+00 3.0404901091844671e+01 1 1 0
888 1 7.8928218289251149e+00 4.9883456727451941e-01 2.8134298625633072e+01 0 0 0
2158 1 4.4757115676251145e+00 4.8520768205206344e-01 3.0939815230210833e+01 1 0 -1
3122 1 7.1839353852514316e+00 5.2839998174312119e-01 3.0845561806991533e+01 1 1 0
3703 1 4.4535050992609237e+00 7.3074329431348894e-01 2.4015117198512833e+01 0 0 0
3646 1 1.7145621457347648e+00 8.9930014667073532e+00 3.0978494806262631e+01 0 0 1
2845 1 3.2339888357907784e+00 6.6325163818695705e+00 3.1098667097129827e+01 1 0 0
3748 1 6.3608496253370470e+00 5.2473646503258582e+00 3.1003214889434119e+01 1 0 -1
3651 1 5.7089902800673666e+00 8.6805634762840622e+00 3.0554410628692040e+01 1 0 0
41 1 1.0393158477490269e+01 4.9277496325870800e+00 3.0927699143237227e+01 1 0 0
702 1 9.2191329010494325e+00 3.1912448094692434e+00 2.8187685146620282e+01 0 1 0
4428 1 8.0427007843207967e+00 3.1460494503848420e+00 3.0836977324895656e+01 1 0 -1
2351 1 8.3665269878283262e+00 1.0952212582013981e+01 2.6685936690544310e+01 1 2 0
1365 1 1.1160903313461873e+01 5.9468227246068261e-01 2.0876082979093965e+01 0 0 0
3628 1 1.9559597272523391e-01 9.2247467545186783e+00 2.2192177728968304e+01 0 -1 0
4398 1 7.3866439387312814e+00 5.0948720375920438e+00 1.6838671290093139e+01 0 0 0
1428 1 1.2103533271501242e+01 1.0536426637716559e+01 3.0949734945214644e+01 0 1 0
594 1 1.2291879665886334e+01 1.2209575177989130e+01 2.2052742380236815e+01 -1 1 -1
132 2 0.0000000000000000e+00 1.2787731112280996e+01 3.2318602850390112e+00 0 0 0
134 2 1.2305000000000001e+00 1.3498160618518829e+01 3.2318602850390112e+00 0 0 0
169 2 2.4610000000000003e+00 1.2787731112280996e+01 3.2318602850390112e+00 0 0 0
171 2 3.6915000000000004e+00 1.3498160618518829e+01 3.2318602850390112e+00 0 0 0
130 2 0.0000000000000000e+00 1.5629449137232333e+01 3.2318602850390112e+00 0 0 0
165 2 1.2305000000000001e+00 1.4919019630994494e+01 3.2318602850390112e+00 0 0 0
167 2 2.4610000000000003e+00 1.5629449137232328e+01 3.2318602850390112e+00 0 0 0
210 2 3.6915000000000004e+00 1.4919019630994494e+01 3.2318602850390112e+00 0 0 0
214 2 4.9220000000000006e+00 1.2787731112280996e+01 3.2318602850390112e+00 0 0 0
216 2 6.1524999999999990e+00 1.3498160618518829e+01 3.2318602850390112e+00 0 0 0
261 2 7.3829999999999991e+00 1.2787731112280996e+01 3.2318602850390112e+00 0 0 0
212 2 4.9220000000000006e+00 1.5629449137232333e+01 3.2318602850390112e+00 0 0 0
257 2 6.1524999999999990e+00 1.4919019630994494e+01 3.2318602850390112e+00 0 0 0
259 2 7.3829999999999991e+00 1.5629449137232333e+01 3.2318602850390112e+00 0 0 0
263 2 8.6135000000000002e+00 1.3498160618518835e+01 3.2318602850390112e+00 0 0 0
308 2 9.8440000000000012e+00 1.2787731112280996e+01 3.2318602850390112e+00 0 0 0
310 2 1.1074500000000002e+01 1.3498160618518829e+01 3.2318602850390112e+00 0 0 0
304 2 8.6135000000000002e+00 1.4919019630994494e+01 3.2318602850390112e+00 0 0 0
306 2 9.8440000000000012e+00 1.5629449137232328e+01 3.2318602850390112e+00 0 0 0
346 2 1.1074500000000002e+01 1.4919019630994494e+01 3.2318602850390112e+00 0 0 0
161 2 0.0000000000000000e+00 1.7050308149707998e+01 3.2318602850390112e+00 0 0 0
206 2 2.4610000000000003e+00 1.7050308149707998e+01 3.2318602850390112e+00 0 0 0
159 2 0.0000000000000000e+00 1.9892026174659328e+01 3.2318602850390112e+00 0 0 0
163 2 1.2305000000000001e+00 1.7760737655945832e+01 3.2318602850390112e+00 0 0 0
202 2 1.2305000000000001e+00 1.9181596668421495e+01 3.2318602850390112e+00 0 0 0
204 2 2.4610000000000003e+00 1.9892026174659328e+01 3.2318602850390112e+00 0 0 0
208 2 3.6914999999999996e+00 1.7760737655945832e+01 3.2318602850390112e+00 0 0 0
249 2 3.6914999999999996e+00 1.9181596668421495e+01 3.2318602850390112e+00 0 0 0
253 2 4.9220000000000006e+00 1.7050308149707998e+01 3.2318602850390112e+00 0 0 0
300 2 7.3830000000000009e+00 1.7050308149707998e+01 3.2318602850390112e+00 0 0 0
251 2 4.9220000000000006e+00 1.9892026174659328e+01 3.2318602850390112e+00 0 0 0
255 2 6.1524999999999999e+00 1.7760737655945832e+01 3.2318602850390112e+00 0 0 0
296 2 6.1524999999999999e+00 1.9181596668421495e+01 3.2318602850390112e+00 0 0 0
298 2 7.3829999999999991e+00 1.9892026174659328e+01 3.2318602850390112e+00 0 0 0
342 2 9.8440000000000012e+00 1.7050308149707998e+01 3.2318602850390112e+00 0 0 0
376 2 1.2304999999999998e+01 1.7050308149707998e+01 3.2318602850390112e+00 0 0 0
302 2 8.6134999999999984e+00 1.7760737655945832e+01 3.2318602850390112e+00 0 0 0
338 2 8.6135000000000002e+00 1.9181596668421495e+01 3.2318602850390112e+00 0 0 0
340 2 9.8440000000000012e+00 1.9892026174659335e+01 3.2318602850390112e+00 0 0 0
344 2 1.1074500000000002e+01 1.7760737655945835e+01 3.2318602850390112e+00 0 0 0
372 2 1.1074500000000002e+01 1.9181596668421495e+01 3.2318602850390112e+00 0 0 0
196 2 0.0000000000000000e+00 2.4154603212086325e+01 3.2318602850390112e+00 0 0 0
198 2 0.0000000000000000e+00 2.1312885187134999e+01 3.2318602850390112e+00 0 0 0
200 2 1.2304999999999993e+00 2.2023314693372832e+01 3.2318602850390112e+00 0 0 0
241 2 1.2304999999999993e+00 2.3444173705848499e+01 3.2318602850390112e+00 0 0 0
243 2 2.4610000000000003e+00 2.4154603212086325e+01 3.2318602850390112e+00 0 0 0
245 2 2.4610000000000003e+00 2.1312885187134995e+01 3.2318602850390112e+00 0 0 0
247 2 3.6914999999999996e+00 2.2023314693372832e+01 3.2318602850390112e+00 0 0 0
288 2 3.6915000000000004e+00 2.3444173705848499e+01 3.2318602850390112e+00 0 0 0
290 2 4.9220000000000006e+00 2.4154603212086325e+01 3.2318602850390112e+00 0 0 0
292 2 4.9220000000000006e+00 2.1312885187134995e+01 3.2318602850390112e+00 0 0 0
294 2 6.1524999999999990e+00 2.2023314693372832e+01 3.2318602850390112e+00 0 0 0
330 2 6.1524999999999999e+00 2.3444173705848499e+01 3.2318602850390112e+00 0 0 0
332 2 7.3830000000000009e+00 2.4154603212086336e+01 3.2318602850390112e+00 0 0 0
334 2 7.3829999999999991e+00 2.1312885187134999e+01 3.2318602850390112e+00 0 0 0
336 2 8.6135000000000002e+00 2.2023314693372832e+01 3.2318602850390112e+00 0 0 0
364 2 8.6134999999999984e+00 2.3444173705848499e+01 3.2318602850390112e+00 0 0 0
366 2 9.8440000000000012e+00 2.4154603212086336e+01 3.2318602850390112e+00 0 0 0
368 2 9.8440000000000012e+00 2.1312885187134999e+01 3.2318602850390112e+00 0 0 0
370 2 1.1074500000000002e+01 2.2023314693372832e+01 3.2318602850390112e+00 0 0 0
390 2 1.1074500000000002e+01 2.3444173705848499e+01 3.2318602850390112e+00 0 0 0
133 2 0.0000000000000000e+00 1.2787731112280996e+01 6.2414236496202804e+00 0 0 0
170 2 2.4610000000000003e+00 1.2787731112280996e+01 6.2414236496202804e+00 0 0 0
442 2 0.0000000000000000e+00 1.2787731112280996e+01 9.2509870142018222e+00 0 0 0
443 2 1.2305000000000001e+00 1.3498160618518829e+01 9.2509870142018222e+00 0 0 0
461 2 2.4610000000000003e+00 1.2787731112280996e+01 9.2509870142018222e+00 0 0 0
462 2 3.6915000000000004e+00 1.3498160618518829e+01 9.2509870142018222e+00 0 0 0
131 2 0.0000000000000000e+00 1.4208590124756663e+01 6.2414236496202804e+00 0 0 0
166 2 1.2305000000000001e+00 1.4919019630994494e+01 6.2414236496202804e+00 0 0 0
168 2 2.4610000000000003e+00 1.4208590124756663e+01 6.2414236496202804e+00 0 0 0
211 2 3.6915000000000004e+00 1.4919019630994494e+01 6.2414236496202804e+00 0 0 0
441 2 0.0000000000000000e+00 1.5629449137232333e+01 9.2509870142018222e+00 0 0 0
459 2 1.2305000000000001e+00 1.4919019630994494e+01 9.2509870142018222e+00 0 0 0
460 2 2.4610000000000003e+00 1.5629449137232328e+01 9.2509870142018222e+00 0 0 0