LAMMPS data file via write_data, version 16 Mar 2018, timestep = 8000000

4545 atoms
2 atom types

0.0000000000000000e+00 4.9219999999999999e+01 xlo xhi
0.0000000000000000e+00 4.9019635930410494e+01 ylo yhi
5.8368318090489524e-01 3.3051656605607057e+01 zlo zhi

Masses

1 18.015
2 12.01

Atoms # atomic

91 2 0.0000000000000000e+00 2.8417180249513345e+00 2.2024803085344162e+00 0 0 0
93 2 0.0000000000000000e+00 0.0000000000000000e+00 2.2024803085344162e+00 0 0 0
95 2 1.2305000000000001e+00 7.1042950623783474e-01 2.2024803085344162e+00 0 0 0
102 2 1.2305000000000001e+00 2.1312885187134998e+00 2.2024803085344162e+00 0 0 0
104 2 2.4610000000000003e+00 2.8417180249513345e+00 2.2024803085344162e+00 0 0 0
106 2 2.4610000000000003e+00 0.0000000000000000e+00 2.2024803085344162e+00 0 0 0
108 2 3.6915000000000004e+00 7.1042950623783474e-01 2.2024803085344162e+00 0 0 0
123 2 3.6914999999999996e+00 2.1312885187134998e+00 2.2024803085344162e+00 0 0 0
125 2 4.9220000000000006e+00 2.8417180249513332e+00 2.2024803085344162e+00 0 0 0
127 2 4.9220000000000006e+00 0.0000000000000000e+00 2.2024803085344162e+00 0 0 0
129 2 6.1524999999999999e+00 7.1042950623783407e-01 2.2024803085344162e+00 0 0 0
152 2 6.1524999999999999e+00 2.1312885187134989e+00 2.2024803085344162e+00 0 0 0
154 2 7.3829999999999991e+00 2.8417180249513345e+00 2.2024803085344162e+00 0 0 0
156 2 7.3829999999999991e+00 0.0000000000000000e+00 2.2024803085344162e+00 0 0 0
158 2 8.6134999999999984e+00 7.1042950623783407e-01 2.2024803085344162e+00 0 0 0
189 2 8.6134999999999984e+00 2.1312885187135002e+00 2.2024803085344162e+00 0 0 0
191 2 9.8440000000000012e+00 2.8417180249513332e+00 2.2024803085344162e+00 0 0 0
193 2 9.8440000000000012e+00 0.0000000000000000e+00 2.2024803085344162e+00 0 0 0
195 2 1.1074500000000002e+01 7.1042950623783330e-01 2.2024803085344162e+00 0 0 0
234 2 1.1074500000000002e+01 2.1312885187135002e+00 2.2024803085344162e+00 0 0 0
98 2 0.0000000000000000e+00 4.2625770374269996e+00 2.2024803085344162e+00 0 0 0
100 2 1.2305000000000001e+00 4.9730065436648339e+00 2.2024803085344162e+00 0 0 0
115 2 1.2305000000000001e+00 6.3938655561404980e+00 2.2024803085344162e+00 0 0 0
119 2 2.4610000000000003e+00 4.2625770374269996e+00 2.2024803085344162e+00 0 0 0
121 2 3.6914999999999996e+00 4.9730065436648339e+00 2.2024803085344162e+00 0 0 0
144 2 3.6914999999999996e+00 6.3938655561404980e+00 2.2024803085344162e+00 0 0 0
96 2 0.0000000000000000e+00 7.1042950623783341e+00 2.2024803085344162e+00 0 0 0
117 2 2.4610000000000003e+00 7.1042950623783341e+00 2.2024803085344162e+00 0 0 0
148 2 4.9220000000000006e+00 4.2625770374269978e+00 2.2024803085344162e+00 0 0 0
150 2 6.1524999999999999e+00 4.9730065436648339e+00 2.2024803085344162e+00 0 0 0
181 2 6.1524999999999999e+00 6.3938655561404980e+00 2.2024803085344162e+00 0 0 0
185 2 7.3829999999999991e+00 4.2625770374269996e+00 2.2024803085344162e+00 0 0 0
146 2 4.9220000000000006e+00 7.1042950623783341e+00 2.2024803085344162e+00 0 0 0
183 2 7.3830000000000009e+00 7.1042950623783341e+00 2.2024803085344162e+00 0 0 0
187 2 8.6135000000000002e+00 4.9730065436648339e+00 2.2024803085344162e+00 0 0 0
226 2 8.6135000000000002e+00 6.3938655561404980e+00 2.2024803085344162e+00 0 0 0
230 2 9.8440000000000012e+00 4.2625770374270004e+00 2.2024803085344162e+00 0 0 0
232 2 1.1074500000000002e+01 4.9730065436648339e+00 2.2024803085344162e+00 0 0 0
273 2 1.1074500000000002e+01 6.3938655561404980e+00 2.2024803085344162e+00 0 0 0
228 2 9.8440000000000012e+00 7.1042950623783341e+00 2.2024803085344162e+00 0 0 0
111 2 0.0000000000000000e+00 8.5251540748539991e+00 2.2024803085344162e+00 0 0 0
113 2 1.2305000000000001e+00 9.2355835810918343e+00 2.2024803085344162e+00 0 0 0
140 2 2.4610000000000003e+00 8.5251540748539991e+00 2.2024803085344162e+00 0 0 0
142 2 3.6915000000000004e+00 9.2355835810918343e+00 2.2024803085344162e+00 0 0 0
109 2 0.0000000000000000e+00 1.1366872099805333e+01 2.2024803085344162e+00 0 0 0
136 2 1.2305000000000001e+00 1.0656442593567498e+01 2.2024803085344162e+00 0 0 0
138 2 2.4610000000000003e+00 1.1366872099805333e+01 2.2024803085344162e+00 0 0 0
173 2 3.6914999999999996e+00 1.0656442593567499e+01 2.2024803085344162e+00 0 0 0
177 2 4.9220000000000006e+00 8.5251540748539991e+00 2.2024803085344162e+00 0 0 0
179 2 6.1524999999999999e+00 9.2355835810918343e+00 2.2024803085344162e+00 0 0 0
222 2 7.3830000000000009e+00 8.5251540748539991e+00 2.2024803085344162e+00 0 0 0
175 2 4.9220000000000006e+00 1.1366872099805333e+01 2.2024803085344162e+00 0 0 0
218 2 6.1524999999999999e+00 1.0656442593567499e+01 2.2024803085344162e+00 0 0 0
220 2 7.3829999999999991e+00 1.1366872099805333e+01 2.2024803085344162e+00 0 0 0
224 2 8.6134999999999984e+00 9.2355835810918343e+00 2.2024803085344162e+00 0 0 0
269 2 9.8440000000000012e+00 8.5251540748539956e+00 2.2024803085344162e+00 0 0 0
271 2 1.1074500000000002e+01 9.2355835810918343e+00 2.2024803085344162e+00 0 0 0
265 2 8.6134999999999984e+00 1.0656442593567498e+01 2.2024803085344162e+00 0 0 0
267 2 9.8440000000000012e+00 1.1366872099805333e+01 2.2024803085344162e+00 0 0 0
312 2 1.1074500000000002e+01 1.0656442593567498e+01 2.2024803085344162e+00 0 0 0
314 2 1.2304999999999998e+01 1.1366872099805333e+01 2.2024803085344162e+00 0 0 0
92 2 0.0000000000000000e+00 1.4208590124756650e+00 5.4400745637900396e+00 0 0 0
94 2 0.0000000000000000e+00 0.0000000000000000e+00 5.4400745637900396e+00 0 0 0
103 2 1.2305000000000001e+00 2.1312885187134998e+00 5.4400745637900396e+00 0 0 0
105 2 2.4610000000000003e+00 1.4208590124756650e+00 5.4400745637900396e+00 0 0 0
107 2 2.4610000000000003e+00 0.0000000000000000e+00 5.4400745637900396e+00 0 0 0
124 2 3.6914999999999996e+00 2.1312885187134998e+00 5.4400745637900396e+00 0 0 0
420 2 0.0000000000000000e+00 2.8417180249513345e+00 8.6776688190488276e+00 0 0 0
421 2 0.0000000000000000e+00 0.0000000000000000e+00 8.6776688190488276e+00 0 0 0
422 2 1.2305000000000001e+00 7.1042950623783474e-01 8.6776688190488276e+00 0 0 0
426 2 1.2305000000000001e+00 2.1312885187134998e+00 8.6776688190488276e+00 0 0 0
427 2 2.4610000000000003e+00 2.8417180249513345e+00 8.6776688190488276e+00 0 0 0
428 2 2.4610000000000003e+00 0.0000000000000000e+00 8.6776688190488276e+00 0 0 0
429 2 3.6915000000000004e+00 7.1042950623783474e-01 8.6776688190488276e+00 0 0 0
437 2 3.6914999999999996e+00 2.1312885187134998e+00 8.6776688190488276e+00 0 0 0
101 2 1.2305000000000001e+00 3.5521475311891644e+00 5.4400745637900396e+00 0 0 0
122 2 3.6914999999999996e+00 3.5521475311891644e+00 5.4400745637900396e+00 0 0 0
126 2 4.9220000000000006e+00 1.4208590124756650e+00 5.4400745637900396e+00 0 0 0
128 2 4.9220000000000006e+00 0.0000000000000000e+00 5.4400745637900396e+00 0 0 0
153 2 6.1524999999999999e+00 2.1312885187134989e+00 5.4400745637900396e+00 0 0 0
155 2 7.3829999999999991e+00 1.4208590124756659e+00 5.4400745637900396e+00 0 0 0
157 2 7.3829999999999991e+00 0.0000000000000000e+00 5.4400745637900396e+00 0 0 0
438 2 4.9220000000000006e+00 2.8417180249513332e+00 8.6776688190488276e+00 0 0 0
439 2 4.9220000000000006e+00 0.0000000000000000e+00 8.6776688190488276e+00 0 0 0
440 2 6.1524999999999999e+00 7.1042950623783407e-01 8.6776688190488276e+00 0 0 0
452 2 6.1524999999999999e+00 2.1312885187134989e+00 8.6776688190488276e+00 0 0 0
453 2 7.3829999999999991e+00 2.8417180249513345e+00 8.6776688190488276e+00 0 0 0
454 2 7.3829999999999991e+00 0.0000000000000000e+00 8.6776688190488276e+00 0 0 0
151 2 6.1524999999999999e+00 3.5521475311891644e+00 5.4400745637900396e+00 0 0 0
190 2 8.6134999999999984e+00 2.1312885187135002e+00 5.4400745637900396e+00 0 0 0
192 2 9.8440000000000012e+00 1.4208590124756659e+00 5.4400745637900396e+00 0 0 0
194 2 9.8440000000000012e+00 0.0000000000000000e+00 5.4400745637900396e+00 0 0 0
235 2 1.1074500000000002e+01 2.1312885187135002e+00 5.4400745637900396e+00 0 0 0
455 2 8.6134999999999984e+00 7.1042950623783407e-01 8.6776688190488276e+00 0 0 0
471 2 8.6134999999999984e+00 2.1312885187135002e+00 8.6776688190488276e+00 0 0 0
472 2 9.8440000000000012e+00 2.8417180249513332e+00 8.6776688190488276e+00 0 0 0
473 2 9.8440000000000012e+00 0.0000000000000000e+00 8.6776688190488276e+00 0 0 0
474 2 1.1074500000000002e+01 7.1042950623783330e-01 8.6776688190488276e+00 0 0 0
494 2 1.1074500000000002e+01 2.1312885187135002e+00 8.6776688190488276e+00 0 0 0
188 2 8.6134999999999984e+00 3.5521475311891657e+00 5.4400745637900396e+00 0 0 0
233 2 1.1074500000000002e+01 3.5521475311891644e+00 5.4400745637900396e+00 0 0 0
97 2 0.0000000000000000e+00 5.6834360499026637e+00 5.4400745637900396e+00 0 0 0
99 2 0.0000000000000000e+00 4.2625770374269996e+00 5.4400745637900396e+00 0 0 0
116 2 1.2305000000000001e+00 6.3938655561404980e+00 5.4400745637900396e+00 0 0 0
118 2 2.4610000000000003e+00 5.6834360499026637e+00 5.4400745637900396e+00 0 0 0
120 2 2.4610000000000003e+00 4.2625770374269996e+00 5.4400745637900396e+00 0 0 0
145 2 3.6914999999999996e+00 6.3938655561404980e+00 5.4400745637900396e+00 0 0 0
424 2 0.0000000000000000e+00 4.2625770374269996e+00 8.6776688190488276e+00 0 0 0
425 2 1.2305000000000001e+00 4.9730065436648339e+00 8.6776688190488276e+00 0 0 0
433 2 1.2305000000000001e+00 6.3938655561404980e+00 8.6776688190488276e+00 0 0 0
435 2 2.4610000000000003e+00 4.2625770374269996e+00 8.6776688190488276e+00 0 0 0
436 2 3.6914999999999996e+00 4.9730065436648339e+00 8.6776688190488276e+00 0 0 0
448 2 3.6914999999999996e+00 6.3938655561404980e+00 8.6776688190488276e+00 0 0 0
114 2 1.2305000000000001e+00 7.8147245686161639e+00 5.4400745637900396e+00 0 0 0
143 2 3.6914999999999996e+00 7.8147245686161639e+00 5.4400745637900396e+00 0 0 0
423 2 0.0000000000000000e+00 7.1042950623783341e+00 8.6776688190488276e+00 0 0 0
434 2 2.4610000000000003e+00 7.1042950623783341e+00 8.6776688190488276e+00 0 0 0
147 2 4.9220000000000006e+00 5.6834360499026637e+00 5.4400745637900396e+00 0 0 0
149 2 4.9220000000000006e+00 4.2625770374269978e+00 5.4400745637900396e+00 0 0 0
182 2 6.1524999999999999e+00 6.3938655561404980e+00 5.4400745637900396e+00 0 0 0
184 2 7.3829999999999991e+00 5.6834360499026637e+00 5.4400745637900396e+00 0 0 0
186 2 7.3829999999999991e+00 4.2625770374269996e+00 5.4400745637900396e+00 0 0 0
450 2 4.9220000000000006e+00 4.2625770374269978e+00 8.6776688190488276e+00 0 0 0
451 2 6.1524999999999999e+00 4.9730065436648339e+00 8.6776688190488276e+00 0 0 0
467 2 6.1524999999999999e+00 6.3938655561404980e+00 8.6776688190488276e+00 0 0 0
469 2 7.3829999999999991e+00 4.2625770374269996e+00 8.6776688190488276e+00 0 0 0
180 2 6.1524999999999999e+00 7.8147245686161639e+00 5.4400745637900396e+00 0 0 0
449 2 4.9220000000000006e+00 7.1042950623783341e+00 8.6776688190488276e+00 0 0 0
468 2 7.3830000000000009e+00 7.1042950623783341e+00 8.6776688190488276e+00 0 0 0
227 2 8.6135000000000002e+00 6.3938655561404980e+00 5.4400745637900396e+00 0 0 0
229 2 9.8440000000000012e+00 5.6834360499026637e+00 5.4400745637900396e+00 0 0 0
231 2 9.8440000000000012e+00 4.2625770374270004e+00 5.4400745637900396e+00 0 0 0
274 2 1.1074500000000002e+01 6.3938655561404980e+00 5.4400745637900396e+00 0 0 0
470 2 8.6135000000000002e+00 4.9730065436648339e+00 8.6776688190488276e+00 0 0 0
490 2 8.6135000000000002e+00 6.3938655561404980e+00 8.6776688190488276e+00 0 0 0
492 2 9.8440000000000012e+00 4.2625770374270004e+00 8.6776688190488276e+00 0 0 0
493 2 1.1074500000000002e+01 4.9730065436648339e+00 8.6776688190488276e+00 0 0 0
514 2 1.1074500000000002e+01 6.3938655561404980e+00 8.6776688190488276e+00 0 0 0
225 2 8.6135000000000002e+00 7.8147245686161639e+00 5.4400745637900396e+00 0 0 0
272 2 1.1074500000000002e+01 7.8147245686161639e+00 5.4400745637900396e+00 0 0 0
491 2 9.8440000000000012e+00 7.1042950623783341e+00 8.6776688190488276e+00 0 0 0
110 2 0.0000000000000000e+00 9.9460130873296642e+00 5.4400745637900396e+00 0 0 0
112 2 0.0000000000000000e+00 8.5251540748539991e+00 5.4400745637900396e+00 0 0 0
139 2 2.4610000000000003e+00 9.9460130873296642e+00 5.4400745637900396e+00 0 0 0
141 2 2.4610000000000003e+00 8.5251540748539991e+00 5.4400745637900396e+00 0 0 0
431 2 0.0000000000000000e+00 8.5251540748539991e+00 8.6776688190488276e+00 0 0 0
432 2 1.2305000000000001e+00 9.2355835810918343e+00 8.6776688190488276e+00 0 0 0
446 2 2.4610000000000003e+00 8.5251540748539991e+00 8.6776688190488276e+00 0 0 0
447 2 3.6915000000000004e+00 9.2355835810918343e+00 8.6776688190488276e+00 0 0 0
135 2 1.2305000000000001e+00 1.2077301606043163e+01 5.4400745637900396e+00 0 0 0
137 2 1.2305000000000001e+00 1.0656442593567498e+01 5.4400745637900396e+00 0 0 0
172 2 3.6914999999999996e+00 1.2077301606043163e+01 5.4400745637900396e+00 0 0 0
174 2 3.6914999999999996e+00 1.0656442593567499e+01 5.4400745637900396e+00 0 0 0
430 2 0.0000000000000000e+00 1.1366872099805333e+01 8.6776688190488276e+00 0 0 0
444 2 1.2305000000000001e+00 1.0656442593567498e+01 8.6776688190488276e+00 0 0 0
445 2 2.4610000000000003e+00 1.1366872099805333e+01 8.6776688190488276e+00 0 0 0
463 2 3.6914999999999996e+00 1.0656442593567499e+01 8.6776688190488276e+00 0 0 0
176 2 4.9220000000000006e+00 9.9460130873296642e+00 5.4400745637900396e+00 0 0 0
178 2 4.9220000000000006e+00 8.5251540748539991e+00 5.4400745637900396e+00 0 0 0
221 2 7.3830000000000009e+00 9.9460130873296642e+00 5.4400745637900396e+00 0 0 0
223 2 7.3830000000000009e+00 8.5251540748539991e+00 5.4400745637900396e+00 0 0 0
465 2 4.9220000000000006e+00 8.5251540748539991e+00 8.6776688190488276e+00 0 0 0
466 2 6.1524999999999999e+00 9.2355835810918343e+00 8.6776688190488276e+00 0 0 0
488 2 7.3830000000000009e+00 8.5251540748539991e+00 8.6776688190488276e+00 0 0 0
217 2 6.1524999999999999e+00 1.2077301606043163e+01 5.4400745637900396e+00 0 0 0
219 2 6.1524999999999999e+00 1.0656442593567499e+01 5.4400745637900396e+00 0 0 0
464 2 4.9220000000000006e+00 1.1366872099805333e+01 8.6776688190488276e+00 0 0 0
486 2 6.1524999999999999e+00 1.0656442593567499e+01 8.6776688190488276e+00 0 0 0
487 2 7.3829999999999991e+00 1.1366872099805333e+01 8.6776688190488276e+00 0 0 0
268 2 9.8440000000000012e+00 9.9460130873296642e+00 5.4400745637900396e+00 0 0 0
270 2 9.8440000000000012e+00 8.5251540748539956e+00 5.4400745637900396e+00 0 0 0
489 2 8.6134999999999984e+00 9.2355835810918343e+00 8.6776688190488276e+00 0 0 0
512 2 9.8440000000000012e+00 8.5251540748539956e+00 8.6776688190488276e+00 0 0 0
513 2 1.1074500000000002e+01 9.2355835810918343e+00 8.6776688190488276e+00 0 0 0
264 2 8.6135000000000002e+00 1.2077301606043163e+01 5.4400745637900396e+00 0 0 0
266 2 8.6134999999999984e+00 1.0656442593567498e+01 5.4400745637900396e+00 0 0 0
311 2 1.1074500000000002e+01 1.2077301606043163e+01 5.4400745637900396e+00 0 0 0
313 2 1.1074500000000002e+01 1.0656442593567498e+01 5.4400745637900396e+00 0 0 0
510 2 8.6134999999999984e+00 1.0656442593567498e+01 8.6776688190488276e+00 0 0 0
511 2 9.8440000000000012e+00 1.1366872099805333e+01 8.6776688190488276e+00 0 0 0
534 2 1.1074500000000002e+01 1.0656442593567498e+01 8.6776688190488276e+00 0 0 0
535 2 1.2304999999999998e+01 1.1366872099805333e+01 8.6776688190488276e+00 0 0 0
2957 1 3.4520793111602432e+00 2.0855069720999486e+00 1.1577865777785052e+01 1 0 0
2241 1 6.4286391293284195e-01 2.0666218466618753e+00 1.1024093771918643e+01 0 -1 -1
1534 1 8.9695206062874053e+00 2.0096049485115484e+00 1.1218216262921970e+01 1 -3 1
4401 1 1.1674385166622601e+01 1.5134283198415079e+00 1.1800013743725305e+01 4 7 -1
1509 1 3.4513382142124449e+00 6.5547359625190653e+00 1.1109120655751608e+01 -1 -1 0
1482 1 7.3618667168685237e-01 7.0117274255802204e+00 1.1178418309128769e+01 0 -1 0
2933 1 7.6111899690772677e+00 4.2106612064288784e+00 1.1537514525980816e+01 2 1 0
4417 1 4.9513503471039426e+00 4.3391191644561671e+00 1.1242817640158281e+01 0 -3 1
800 1 9.0853574736420928e+00 6.5927526354535244e+00 1.1027965654029815e+01 -1 -3 0
3774 1 4.2045296024827259e+00 1.1863089955009118e+01 1.4816091410912673e+01 -1 5 0
857 1 3.8275072110422590e+00 1.1669855426625835e+01 1.1986974469388059e+01 -4 -3 0
593 1 1.2044621298271771e+01 1.1121339632888358e+01 1.2268197411226009e+01 2 1 -1
3099 1 4.8377791405122235e+00 8.8934812697526002e+00 1.1503895127451058e+01 2 -4 0
4444 1 7.5858583919732530e+00 8.8089634641106223e+00 1.1852935769921702e+01 1 -1 0
2320 1 9.3317715162941095e+00 1.0980556986502837e+01 1.1365863897061507e+01 -1 1 0
3742 1 7.8725580327630444e+00 8.8467916209911515e+00 1.4627761069156099e+01 1 2 0
1 1 3.5732627977050933e+00 1.9688513280677642e+00 1.4429582961956156e+01 -1 0 0
827 1 6.9946975852771298e-01 2.2268898831231541e+00 1.4999135665350593e+01 -4 4 0
3875 1 5.0434301689681282e+00 9.1222997720416856e+00 1.4672140360560567e+01 5 -2 1
2335 1 9.3569077506397864e+00 1.1019190517984100e+01 1.5599801328153413e+01 5 2 0
855 1 8.7530574732274573e+00 1.7914769860951305e+00 1.5220606608971758e+01 0 -2 0
1499 1 1.1450042374724497e+01 1.2817185747274249e+00 1.4561018324841086e+01 3 -2 -1
2838 1 9.1116296449049250e-01 6.7320176972410071e+00 1.4562024352821583e+01 -1 0 0
3152 1 3.5819188164307034e+00 6.6029459775575781e+00 1.3951443697315947e+01 0 0 0
29 1 7.7278898230679118e+00 4.4252164573661110e+00 1.4211243418906864e+01 3 1 0
621 1 5.0263678352341046e+00 4.1089998705536264e+00 1.4726143401264332e+01 2 3 0
3678 1 1.3716201955418155e+00 1.2135152939386476e+01 1.4789454808575956e+01 3 -3 0
2339 1 9.2379092448942970e+00 6.5160103358335482e+00 1.5143352600262817e+01 1 -1 1
33 1 1.2117129326622766e+01 6.0949243628820406e+00 1.4486951939885106e+01 -3 4 -1
3003 1 1.1825833755620097e+01 6.3607026393771786e+00 1.1801236386575345e+01 -1 2 0
1521 1 1.2130609726791040e+01 1.0641452520969226e+01 1.5039180536059412e+01 2 2 0
2213 1 1.1467739696328332e+01 3.9127592250631924e+00 2.6274587473300532e+01 2 0 0
2311 1 9.5658667647165103e+00 1.0871541411059379e+01 3.1999209497913245e+01 1 3 -1
3770 1 5.6957236424148121e+00 1.8617932926993117e+00 1.8432262323478071e+01 4 -1 -1
1646 1 8.4548320883697787e+00 1.5268757840878187e+00 1.8067976718188394e+01 -5 -4 0
2262 1 9.8259138689743377e+00 3.8478494031729342e+00 1.8852839914408474e+01 -2 0 0
613 1 1.8303477789631231e+00 4.6352581383974378e+00 1.8381740396795518e+01 -4 11 0
47 1 4.5680301950601987e-01 7.0398012685004812e+00 1.7570648080357238e+01 0 -4 -1
3102 1 4.4085526141048330e+00 4.5249981637928194e+00 1.7429763476234108e+01 3 -2 0
1617 1 5.6632544149054365e+00 6.7082508767676599e+00 1.8563227418596075e+01 3 -2 1
3626 1 8.6665627936878185e+00 6.3966757178180620e+00 1.7997237713780127e+01 0 0 -1
3711 1 1.8932141529968718e+00 9.2816389718232042e+00 1.8424440815133881e+01 -1 -2 0
837 1 1.0261712835223296e+00 1.1949589712421828e+01 1.7546092013024609e+01 3 0 -1
2398 1 4.5169912628893050e+00 9.2516055814972145e+00 1.7664475406830697e+01 0 1 0
3136 1 6.3666869813418128e+00 1.1290568448334211e+01 1.8419983059533976e+01 4 -1 0
3007 1 1.0217087326510571e+01 8.3753080600398064e+00 1.9142118391880668e+01 3 1 -1
4544 1 9.2871141008465123e+00 1.0813695806056890e+01 1.8407003456935630e+01 3 -1 -1
2886 1 2.8696670262304838e+00 2.1154868244623470e+00 2.2197179362950877e+01 0 -1 0
754 1 2.7444314436648778e+00 2.1732878778019256e+00 2.4901713133190597e+01 3 1 1
3725 1 6.7736006145180934e+00 1.1371962865590833e+01 3.1747229553513730e+01 1 1 -1
2263 1 5.3282675574317908e+00 1.9652210858257060e+00 2.1098763633491561e+01 -3 1 0
4414 1 1.0423545887508761e+01 1.4855865148509926e+00 2.2350658449723436e+01 3 0 -1
3716 1 9.4480368462134408e+00 4.2725560756664889e+00 2.1610252172276788e+01 3 1 -1
1528 1 1.6537843811357744e+00 4.6679127214783946e+00 2.1064866167106693e+01 6 -2 0
3642 1 3.2932897876477973e+00 6.8688587044898100e+00 2.2066737183946461e+01 0 1 1
2951 1 2.9760669822029597e+00 6.8792517734389795e+00 2.5173517918017055e+01 2 1 0
1368 1 6.8053314238932829e+00 4.2516612221533974e+00 2.2162628526724674e+01 2 3 0
2196 1 5.8649531811099429e+00 6.6009364916719520e+00 2.1240568672088372e+01 0 -1 0
2205 1 1.1036213188581600e+01 6.2607498797032566e+00 2.2412144693073586e+01 0 -3 0
2907 1 2.2191068012577579e+00 9.2463302466504000e+00 2.1339438727871769e+01 -3 2 0
4412 1 3.4284176008651013e+00 1.1465497324859507e+01 2.2461090552835834e+01 0 0 -1
2268 1 5.9692624234366374e+00 1.1261353249530336e+01 2.1364658469307972e+01 -3 2 -1
1355 1 7.1507856113932906e+00 8.8330166371756444e+00 2.2043330468197254e+01 1 0 0
1387 1 9.8239824294464722e+00 8.6096693719277475e+00 2.1711724393225122e+01 -2 -4 0
3661 1 1.0533075282093904e+01 1.1041192414109606e+01 2.2770868236002588e+01 2 -3 -1
4403 1 2.8237917831087023e-01 2.2799563292939578e+00 1.7875705855859916e+01 -2 8 -1
3145 1 6.9220984367097325e+00 1.1453774778219218e+01 2.9004779710479678e+01 1 5 0
57 1 9.8934517999872096e+00 1.0689932574987031e+01 2.8718304526575007e+01 3 -3 0
2321 1 7.7189843173490678e+00 1.8507124172336269e+00 2.5507707090949257e+01 3 2 -1
2406 1 4.3055765921349174e+00 4.3214874382434267e+00 2.8534786821205991e+01 -2 0 1
4497 1 1.0449439521990445e+01 1.4937450860133987e+00 2.5081286459990036e+01 1 4 0
3703 1 5.1021293730307642e+00 9.3145940011560135e+00 3.2298295790988263e+01 0 -1 0
3697 1 1.1204271085221651e+00 6.9517889143185085e+00 2.8820134024489299e+01 -2 0 0
3767 1 2.8657964467925789e-01 7.1080498748161345e+00 2.6101981833844690e+01 1 1 -1
671 1 6.5757628094034395e+00 4.2456770371711787e+00 2.5138999249027894e+01 0 -2 0
631 1 4.0413552251191369e+00 4.6669963398028429e+00 2.5735276823747892e+01 -2 1 0
854 1 8.0531988888005497e+00 6.5615785389283330e+00 2.5522430342934854e+01 2 -2 0
79 1 1.0793078607346375e+01 6.3331857960998379e+00 2.5014361658524070e+01 5 0 0
1447 1 8.6412328409704280e+00 6.3794467969855253e+00 2.8108392164464679e+01 2 2 0
2203 1 8.5152607741372921e-01 1.1723449898985336e+01 2.6190448584900462e+01 -1 0 -1
2861 1 3.2867599214854359e+00 1.1544790405616425e+01 2.4984693042086718e+01 -1 1 0
859 1 8.7583841308820864e-01 1.1346043440792966e+01 2.8885898367078489e+01 1 4 0
2878 1 5.4990817814511717e+00 9.1052086942937525e+00 2.8307468167664194e+01 2 0 0
2198 1 6.8385101979776612e+00 9.1091857175471151e+00 2.4687523088319224e+01 -1 -1 0
3861 1 4.4653754283214262e+00 9.2444156289847843e+00 2.5840934648008695e+01 4 -2 0
2197 1 1.0931836890634871e+01 1.0879178447128275e+01 2.5547288706355090e+01 0 1 -1
3617 1 8.2904830469985988e+00 1.1224221677431995e+01 2.6304063476382549e+01 1 2 0
2180 1 1.2162294375492721e+01 8.5065544902000987e+00 2.5573214453896821e+01 5 3 -1
4495 1 5.7994698140748255e+00 2.1893751425766030e+00 2.9182961320642939e+01 -2 1 0
1480 1 5.7311486158569878e+00 1.8422311102948363e+00 3.2002939853264067e+01 2 1 -1
3840 1 8.2621915792183156e+00 1.7171975275542797e+00 2.8133090090351374e+01 1 -3 1
3149 1 9.8296133884054075e+00 3.7563926174348121e+00 2.8578986496481569e+01 7 -3 -1
4333 1 8.6542856211395591e+00 1.6593685462543961e+00 3.2337555312596088e+01 2 7 1
4426 1 1.0494733479105724e+01 3.6699014973336639e+00 3.1355204869789809e+01 5 -1 0
1651 1 1.7902464605919877e+00 4.3172505806420682e+00 2.9369499677525368e+01 1 -1 1
789 1 8.3987220139070096e-01 6.8244878150473820e+00 3.1992360189281772e+01 -5 1 0
830 1 1.7639523810955964e+00 4.2063064990846462e+00 3.2004642474882665e+01 4 5 -1
2121 1 6.1051148355150495e+00 6.5254049122534843e+00 2.9070172338630975e+01 -2 1 1
3729 1 4.6367722367461432e+00 4.4541641880096208e+00 3.2026338841870071e+01 1 3 0
806 1 5.9748510985901575e+00 6.7428803278345883e+00 3.1934780243471980e+01 2 5 1
2368 1 1.0785434895457851e+01 8.0449647096730335e+00 2.8905726306075870e+01 -2 -1 0
2901 1 1.0339568494108565e+01 8.2245055418338726e+00 3.1865784677459793e+01 -2 3 1
1622 1 8.6883719796495722e+00 6.2914992517857193e+00 3.2210296744351865e+01 9 1 1
2885 1 2.9042706121123181e+00 9.2744815405635723e+00 2.9201124570801831e+01 -3 3 -1
2931 1 2.4830683046215301e+00 9.2318915183389443e+00 3.1814134034217574e+01 -1 -3 -1
2310 1 7.8187786184675423e-01 1.1484053517876108e+01 3.1758482113866460e+01 1 0 -1
2912 1 2.1060091882650198e-01 2.3381363975393912e+00 2.8065090706777077e+01 -1 -2 0
785 1 1.3175043842679057e+00 8.2304261222792222e-03 2.1075761562506258e+01 4 2 1
85 1 1.2939718495332608e+00 2.5046179687882392e-02 2.8960646474557954e+01 2 -1 0
3873 1 1.2559618114880777e-01 2.5318248842735382e+00 2.5393808438862578e+01 3 2 0
132 2 0.0000000000000000e+00 1.2787731112280996e+01 2.2024803085344162e+00 0 0 0
134 2 1.2305000000000001e+00 1.3498160618518829e+01 2.2024803085344162e+00 0 0 0
169 2 2.4610000000000003e+00 1.2787731112280996e+01 2.2024803085344162e+00 0 0 0
171 2 3.6915000000000004e+00 1.3498160618518829e+01 2.2024803085344162e+00 0 0 0
130 2 0.0000000000000000e+00 1.5629449137232333e+01 2.2024803085344162e+00 0 0 0
165 2 1.2305000000000001e+00 1.4919019630994494e+01 2.2024803085344162e+00 0 0 0
167 2 2.4610000000000003e+00 1.5629449137232328e+01 2.2024803085344162e+00 0 0 0
210 2 3.6915000000000004e+00 1.4919019630994494e+01 2.2024803085344162e+00 0 0 0
214 2 4.9220000000000006e+00 1.2787731112280996e+01 2.2024803085344162e+00 0 0 0
216 2 6.1524999999999990e+00 1.3498160618518829e+01 2.2024803085344162e+00 0 0 0
261 2 7.3829999999999991e+00 1.2787731112280996e+01 2.2024803085344162e+00 0 0 0
212 2 4.9220000000000006e+00 1.5629449137232333e+01 2.2024803085344162e+00 0 0 0
257 2 6.1524999999999990e+00 1.4919019630994494e+01 2.2024803085344162e+00 0 0 0
259 2 7.3829999999999991e+00 1.5629449137232333e+01 2.2024803085344162e+00 0 0 0
263 2 8.6135000000000002e+00 1.3498160618518835e+01 2.2024803085344162e+00 0 0 0
308 2 9.8440000000000012e+00 1.2787731112280996e+01 2.2024803085344162e+00 0 0 0
310 2 1.1074500000000002e+01 1.3498160618518829e+01 2.2024803085344162e+00 0 0 0
304 2 8.6135000000000002e+00 1.4919019630994494e+01 2.2024803085344162e+00 0 0 0
306 2 9.8440000000000012e+00 1.5629449137232328e+01 2.2024803085344162e+00 0 0 0
346 2 1.1074500000000002e+01 1.4919019630994494e+01 2.2024803085344162e+00 0 0 0
161 2 0.0000000000000000e+00 1.7050308149707998e+01 2.2024803085344162e+00 0 0 0
206 2 2.4610000000000003e+00 1.7050308149707998e+01 2.2024803085344162e+00 0 0 0
159 2 0.0000000000000000e+00 1.9892026174659328e+01 2.2024803085344162e+00 0 0 0
163 2 1.2305000000000001e+00 1.7760737655945832e+01 2.2024803085344162e+00 0 0 0
202 2 1.2305000000000001e+00 1.9181596668421495e+01 2.2024803085344162e+00 0 0 0
204 2 2.4610000000000003e+00 1.9892026174659328e+01 2.2024803085344162e+00 0 0 0
208 2 3.6914999999999996e+00 1.7760737655945832e+01 2.2024803085344162e+00 0 0 0
249 2 3.6914999999999996e+00 1.9181596668421495e+01 2.2024803085344162e+00 0 0 0
253 2 4.9220000000000006e+00 1.7050308149707998e+01 2.2024803085344162e+00 0 0 0
300 2 7.3830000000000009e+00 1.7050308149707998e+01 2.2024803085344162e+00 0 0 0
251 2 4.9220000000000006e+00 1.9892026174659328e+01 2.2024803085344162e+00 0 0 0
255 2 6.1524999999999999e+00 1.7760737655945832e+01 2.2024803085344162e+00 0 0 0
296 2 6.1524999999999999e+00 1.9181596668421495e+01 2.2024803085344162e+00 0 0 0
298 2 7.3829999999999991e+00 1.9892026174659328e+01 2.2024803085344162e+00 0 0 0
342 2 9.8440000000000012e+00 1.7050308149707998e+01 2.2024803085344162e+00 0 0 0
376 2 1.2304999999999998e+01 1.7050308149707998e+01 2.2024803085344162e+00 0 0 0
302 2 8.6134999999999984e+00 1.7760737655945832e+01 2.2024803085344162e+00 0 0 0
338 2 8.6135000000000002e+00 1.9181596668421495e+01 2.2024803085344162e+00 0 0 0
340 2 9.8440000000000012e+00 1.9892026174659335e+01 2.2024803085344162e+00 0 0 0
344 2 1.1074500000000002e+01 1.7760737655945835e+01 2.2024803085344162e+00 0 0 0
372 2 1.1074500000000002e+01 1.9181596668421495e+01 2.2024803085344162e+00 0 0 0
196 2 0.0000000000000000e+00 2.4154603212086325e+01 2.2024803085344162e+00 0 0 0
198 2 0.0000000000000000e+00 2.1312885187134999e+01 2.2024803085344162e+00 0 0 0
200 2 1.2304999999999993e+00 2.2023314693372832e+01 2.2024803085344162e+00 0 0 0
241 2 1.2304999999999993e+00 2.3444173705848499e+01 2.2024803085344162e+00 0 0 0
243 2 2.4610000000000003e+00 2.4154603212086325e+01 2.2024803085344162e+00 0 0 0
245 2 2.4610000000000003e+00 2.1312885187134995e+01 2.2024803085344162e+00 0 0 0
247 2 3.6914999999999996e+00 2.2023314693372832e+01 2.2024803085344162e+00 0 0 0
288 2 3.6915000000000004e+00 2.3444173705848499e+01 2.2024803085344162e+00 0 0 0
290 2 4.9220000000000006e+00 2.4154603212086325e+01 2.2024803085344162e+00 0 0 0
292 2 4.9220000000000006e+00 2.1312885187134995e+01 2.2024803085344162e+00 0 0 0
294 2 6.1524999999999990e+00 2.2023314693372832e+01 2.2024803085344162e+00 0 0 0
330 2 6.1524999999999999e+00 2.3444173705848499e+01 2.2024803085344162e+00 0 0 0
332 2 7.3830000000000009e+00 2.4154603212086336e+01 2.2024803085344162e+00 0 0 0
334 2 7.3829999999999991e+00 2.1312885187134999e+01 2.2024803085344162e+00 0 0 0
336 2 8.6135000000000002e+00 2.2023314693372832e+01 2.2024803085344162e+00 0 0 0
364 2 8.6134999999999984e+00 2.3444173705848499e+01 2.2024803085344162e+00 0 0 0
366 2 9.8440000000000012e+00 2.4154603212086336e+01 2.2024803085344162e+00 0 0 0
368 2 9.8440000000000012e+00 2.1312885187134999e+01 2.2024803085344162e+00 0 0 0
370 2 1.1074500000000002e+01 2.2023314693372832e+01 2.2024803085344162e+00 0 0 0
390 2 1.1074500000000002e+01 2.3444173705848499e+01 2.2024803085344162e+00 0 0 0
133 2 0.0000000000000000e+00 1.2787731112280996e+01 5.4400745637900396e+00 0 0 0
170 2 2.4610000000000003e+00 1.2787731112280996e+01 5.4400745637900396e+00 0 0 0
442 2 0.0000000000000000e+00 1.2787731112280996e+01 8.6776688190488276e+00 0 0 0
443 2 1.2305000000000001e+00 1.3498160618518829e+01 8.6776688190488276e+00 0 0 0
461 2 2.4610000000000003e+00 1.2787731112280996e+01 8.6776688190488276e+00 0 0 0
462 2 3.6915000000000004e+00 1.3498160618518829e+01 8.6776688190488276e+00 0 0 0
131 2 0.0000000000000000e+00 1.4208590124756663e+01 5.4400745637900396e+00 0 0 0
166 2 1.2305000000000001e+00 1.4919019630994494e+01 5.4400745637900396e+00 0 0 0
168 2 2.4610000000000003e+00 1.4208590124756663e+01 5.4400745637900396e+00 0 0 0
211 2 3.6915000000000004e+00 1.4919019630994494e+01 5.4400745637900396e+00 0 0 0
441 2 0.0000000000000000e+00 1.5629449137232333e+01 8.6776688190488276e+00 0 0 0