LAMMPS data file via write_data, version 16 Mar 2018, timestep = 8000000

5031 atoms
2 atom types

0.0000000000000000e+00 4.9219999999999999e+01 xlo xhi
0.0000000000000000e+00 4.9019635930410494e+01 ylo yhi
2.9533601252103026e-01 3.9704663987467896e+01 zlo zhi

Masses

1 18.015
2 12.01

Atoms # atomic

140 2 0.0000000000000000e+00 2.8417180249513345e+00 2.4048001205742682e+00 0 0 0
142 2 0.0000000000000000e+00 0.0000000000000000e+00 2.4048001205742682e+00 0 0 0
144 2 1.2305000000000001e+00 7.1042950623783474e-01 2.4048001205742682e+00 0 0 0
151 2 1.2305000000000001e+00 2.1312885187134998e+00 2.4048001205742682e+00 0 0 0
153 2 2.4610000000000003e+00 2.8417180249513345e+00 2.4048001205742682e+00 0 0 0
155 2 2.4610000000000003e+00 0.0000000000000000e+00 2.4048001205742682e+00 0 0 0
157 2 3.6915000000000004e+00 7.1042950623783474e-01 2.4048001205742682e+00 0 0 0
172 2 3.6914999999999996e+00 2.1312885187134998e+00 2.4048001205742682e+00 0 0 0
174 2 4.9220000000000006e+00 2.8417180249513332e+00 2.4048001205742682e+00 0 0 0
176 2 4.9220000000000006e+00 0.0000000000000000e+00 2.4048001205742682e+00 0 0 0
178 2 6.1524999999999999e+00 7.1042950623783407e-01 2.4048001205742682e+00 0 0 0
201 2 6.1524999999999999e+00 2.1312885187134989e+00 2.4048001205742682e+00 0 0 0
203 2 7.3829999999999991e+00 2.8417180249513345e+00 2.4048001205742682e+00 0 0 0
205 2 7.3829999999999991e+00 0.0000000000000000e+00 2.4048001205742682e+00 0 0 0
207 2 8.6134999999999984e+00 7.1042950623783407e-01 2.4048001205742682e+00 0 0 0
238 2 8.6134999999999984e+00 2.1312885187135002e+00 2.4048001205742682e+00 0 0 0
147 2 0.0000000000000000e+00 4.2625770374269996e+00 2.4048001205742682e+00 0 0 0
149 2 1.2305000000000001e+00 4.9730065436648339e+00 2.4048001205742682e+00 0 0 0
164 2 1.2305000000000001e+00 6.3938655561404980e+00 2.4048001205742682e+00 0 0 0
168 2 2.4610000000000003e+00 4.2625770374269996e+00 2.4048001205742682e+00 0 0 0
170 2 3.6914999999999996e+00 4.9730065436648339e+00 2.4048001205742682e+00 0 0 0
193 2 3.6914999999999996e+00 6.3938655561404980e+00 2.4048001205742682e+00 0 0 0
145 2 0.0000000000000000e+00 7.1042950623783341e+00 2.4048001205742682e+00 0 0 0
166 2 2.4610000000000003e+00 7.1042950623783341e+00 2.4048001205742682e+00 0 0 0
197 2 4.9220000000000006e+00 4.2625770374269978e+00 2.4048001205742682e+00 0 0 0
199 2 6.1524999999999999e+00 4.9730065436648339e+00 2.4048001205742682e+00 0 0 0
230 2 6.1524999999999999e+00 6.3938655561404980e+00 2.4048001205742682e+00 0 0 0
234 2 7.3829999999999991e+00 4.2625770374269996e+00 2.4048001205742682e+00 0 0 0
236 2 8.6135000000000002e+00 4.9730065436648339e+00 2.4048001205742682e+00 0 0 0
275 2 8.6135000000000002e+00 6.3938655561404980e+00 2.4048001205742682e+00 0 0 0
195 2 4.9220000000000006e+00 7.1042950623783341e+00 2.4048001205742682e+00 0 0 0
232 2 7.3830000000000009e+00 7.1042950623783341e+00 2.4048001205742682e+00 0 0 0
160 2 0.0000000000000000e+00 8.5251540748539991e+00 2.4048001205742682e+00 0 0 0
162 2 1.2305000000000001e+00 9.2355835810918343e+00 2.4048001205742682e+00 0 0 0
189 2 2.4610000000000003e+00 8.5251540748539991e+00 2.4048001205742682e+00 0 0 0
191 2 3.6915000000000004e+00 9.2355835810918343e+00 2.4048001205742682e+00 0 0 0
158 2 0.0000000000000000e+00 1.1366872099805333e+01 2.4048001205742682e+00 0 0 0
185 2 1.2305000000000001e+00 1.0656442593567498e+01 2.4048001205742682e+00 0 0 0
187 2 2.4610000000000003e+00 1.1366872099805333e+01 2.4048001205742682e+00 0 0 0
222 2 3.6914999999999996e+00 1.0656442593567499e+01 2.4048001205742682e+00 0 0 0
226 2 4.9220000000000006e+00 8.5251540748539991e+00 2.4048001205742682e+00 0 0 0
228 2 6.1524999999999999e+00 9.2355835810918343e+00 2.4048001205742682e+00 0 0 0
271 2 7.3830000000000009e+00 8.5251540748539991e+00 2.4048001205742682e+00 0 0 0
273 2 8.6134999999999984e+00 9.2355835810918343e+00 2.4048001205742682e+00 0 0 0
224 2 4.9220000000000006e+00 1.1366872099805333e+01 2.4048001205742682e+00 0 0 0
267 2 6.1524999999999999e+00 1.0656442593567499e+01 2.4048001205742682e+00 0 0 0
269 2 7.3829999999999991e+00 1.1366872099805333e+01 2.4048001205742682e+00 0 0 0
314 2 8.6134999999999984e+00 1.0656442593567498e+01 2.4048001205742682e+00 0 0 0
141 2 0.0000000000000000e+00 1.4208590124756650e+00 5.6255773074714295e+00 0 0 0
143 2 0.0000000000000000e+00 0.0000000000000000e+00 5.6255773074714295e+00 0 0 0
152 2 1.2305000000000001e+00 2.1312885187134998e+00 5.6255773074714295e+00 0 0 0
154 2 2.4610000000000003e+00 1.4208590124756650e+00 5.6255773074714295e+00 0 0 0
156 2 2.4610000000000003e+00 0.0000000000000000e+00 5.6255773074714295e+00 0 0 0
173 2 3.6914999999999996e+00 2.1312885187134998e+00 5.6255773074714295e+00 0 0 0
150 2 1.2305000000000001e+00 3.5521475311891644e+00 5.6255773074714295e+00 0 0 0
171 2 3.6914999999999996e+00 3.5521475311891644e+00 5.6255773074714295e+00 0 0 0
469 2 0.0000000000000000e+00 2.8417180249513345e+00 8.8463544943745820e+00 0 0 0
470 2 0.0000000000000000e+00 0.0000000000000000e+00 8.8463544943745820e+00 0 0 0
471 2 1.2305000000000001e+00 7.1042950623783474e-01 8.8463544943745820e+00 0 0 0
475 2 1.2305000000000001e+00 2.1312885187134998e+00 8.8463544943745820e+00 0 0 0
476 2 2.4610000000000003e+00 2.8417180249513345e+00 8.8463544943745820e+00 0 0 0
477 2 2.4610000000000003e+00 0.0000000000000000e+00 8.8463544943745820e+00 0 0 0
478 2 3.6915000000000004e+00 7.1042950623783474e-01 8.8463544943745820e+00 0 0 0
486 2 3.6914999999999996e+00 2.1312885187134998e+00 8.8463544943745820e+00 0 0 0
175 2 4.9220000000000006e+00 1.4208590124756650e+00 5.6255773074714295e+00 0 0 0
177 2 4.9220000000000006e+00 0.0000000000000000e+00 5.6255773074714295e+00 0 0 0
202 2 6.1524999999999999e+00 2.1312885187134989e+00 5.6255773074714295e+00 0 0 0
204 2 7.3829999999999991e+00 1.4208590124756659e+00 5.6255773074714295e+00 0 0 0
206 2 7.3829999999999991e+00 0.0000000000000000e+00 5.6255773074714295e+00 0 0 0
239 2 8.6134999999999984e+00 2.1312885187135002e+00 5.6255773074714295e+00 0 0 0
200 2 6.1524999999999999e+00 3.5521475311891644e+00 5.6255773074714295e+00 0 0 0
237 2 8.6134999999999984e+00 3.5521475311891657e+00 5.6255773074714295e+00 0 0 0
487 2 4.9220000000000006e+00 2.8417180249513332e+00 8.8463544943745820e+00 0 0 0
488 2 4.9220000000000006e+00 0.0000000000000000e+00 8.8463544943745820e+00 0 0 0
489 2 6.1524999999999999e+00 7.1042950623783407e-01 8.8463544943745820e+00 0 0 0
501 2 6.1524999999999999e+00 2.1312885187134989e+00 8.8463544943745820e+00 0 0 0
502 2 7.3829999999999991e+00 2.8417180249513345e+00 8.8463544943745820e+00 0 0 0
503 2 7.3829999999999991e+00 0.0000000000000000e+00 8.8463544943745820e+00 0 0 0
504 2 8.6134999999999984e+00 7.1042950623783407e-01 8.8463544943745820e+00 0 0 0
520 2 8.6134999999999984e+00 2.1312885187135002e+00 8.8463544943745820e+00 0 0 0
146 2 0.0000000000000000e+00 5.6834360499026637e+00 5.6255773074714295e+00 0 0 0
148 2 0.0000000000000000e+00 4.2625770374269996e+00 5.6255773074714295e+00 0 0 0
165 2 1.2305000000000001e+00 6.3938655561404980e+00 5.6255773074714295e+00 0 0 0
167 2 2.4610000000000003e+00 5.6834360499026637e+00 5.6255773074714295e+00 0 0 0
169 2 2.4610000000000003e+00 4.2625770374269996e+00 5.6255773074714295e+00 0 0 0
194 2 3.6914999999999996e+00 6.3938655561404980e+00 5.6255773074714295e+00 0 0 0
163 2 1.2305000000000001e+00 7.8147245686161639e+00 5.6255773074714295e+00 0 0 0
192 2 3.6914999999999996e+00 7.8147245686161639e+00 5.6255773074714295e+00 0 0 0
473 2 0.0000000000000000e+00 4.2625770374269996e+00 8.8463544943745820e+00 0 0 0
474 2 1.2305000000000001e+00 4.9730065436648339e+00 8.8463544943745820e+00 0 0 0
482 2 1.2305000000000001e+00 6.3938655561404980e+00 8.8463544943745820e+00 0 0 0
484 2 2.4610000000000003e+00 4.2625770374269996e+00 8.8463544943745820e+00 0 0 0
485 2 3.6914999999999996e+00 4.9730065436648339e+00 8.8463544943745820e+00 0 0 0
497 2 3.6914999999999996e+00 6.3938655561404980e+00 8.8463544943745820e+00 0 0 0
472 2 0.0000000000000000e+00 7.1042950623783341e+00 8.8463544943745820e+00 0 0 0
483 2 2.4610000000000003e+00 7.1042950623783341e+00 8.8463544943745820e+00 0 0 0
196 2 4.9220000000000006e+00 5.6834360499026637e+00 5.6255773074714295e+00 0 0 0
198 2 4.9220000000000006e+00 4.2625770374269978e+00 5.6255773074714295e+00 0 0 0
231 2 6.1524999999999999e+00 6.3938655561404980e+00 5.6255773074714295e+00 0 0 0
233 2 7.3829999999999991e+00 5.6834360499026637e+00 5.6255773074714295e+00 0 0 0
235 2 7.3829999999999991e+00 4.2625770374269996e+00 5.6255773074714295e+00 0 0 0
276 2 8.6135000000000002e+00 6.3938655561404980e+00 5.6255773074714295e+00 0 0 0
229 2 6.1524999999999999e+00 7.8147245686161639e+00 5.6255773074714295e+00 0 0 0
274 2 8.6135000000000002e+00 7.8147245686161639e+00 5.6255773074714295e+00 0 0 0
499 2 4.9220000000000006e+00 4.2625770374269978e+00 8.8463544943745820e+00 0 0 0
500 2 6.1524999999999999e+00 4.9730065436648339e+00 8.8463544943745820e+00 0 0 0
516 2 6.1524999999999999e+00 6.3938655561404980e+00 8.8463544943745820e+00 0 0 0
518 2 7.3829999999999991e+00 4.2625770374269996e+00 8.8463544943745820e+00 0 0 0
519 2 8.6135000000000002e+00 4.9730065436648339e+00 8.8463544943745820e+00 0 0 0
539 2 8.6135000000000002e+00 6.3938655561404980e+00 8.8463544943745820e+00 0 0 0
498 2 4.9220000000000006e+00 7.1042950623783341e+00 8.8463544943745820e+00 0 0 0
517 2 7.3830000000000009e+00 7.1042950623783341e+00 8.8463544943745820e+00 0 0 0
159 2 0.0000000000000000e+00 9.9460130873296642e+00 5.6255773074714295e+00 0 0 0
161 2 0.0000000000000000e+00 8.5251540748539991e+00 5.6255773074714295e+00 0 0 0
188 2 2.4610000000000003e+00 9.9460130873296642e+00 5.6255773074714295e+00 0 0 0
190 2 2.4610000000000003e+00 8.5251540748539991e+00 5.6255773074714295e+00 0 0 0
184 2 1.2305000000000001e+00 1.2077301606043163e+01 5.6255773074714295e+00 0 0 0
186 2 1.2305000000000001e+00 1.0656442593567498e+01 5.6255773074714295e+00 0 0 0
221 2 3.6914999999999996e+00 1.2077301606043163e+01 5.6255773074714295e+00 0 0 0
223 2 3.6914999999999996e+00 1.0656442593567499e+01 5.6255773074714295e+00 0 0 0
480 2 0.0000000000000000e+00 8.5251540748539991e+00 8.8463544943745820e+00 0 0 0
481 2 1.2305000000000001e+00 9.2355835810918343e+00 8.8463544943745820e+00 0 0 0
495 2 2.4610000000000003e+00 8.5251540748539991e+00 8.8463544943745820e+00 0 0 0
496 2 3.6915000000000004e+00 9.2355835810918343e+00 8.8463544943745820e+00 0 0 0
479 2 0.0000000000000000e+00 1.1366872099805333e+01 8.8463544943745820e+00 0 0 0
493 2 1.2305000000000001e+00 1.0656442593567498e+01 8.8463544943745820e+00 0 0 0
494 2 2.4610000000000003e+00 1.1366872099805333e+01 8.8463544943745820e+00 0 0 0
512 2 3.6914999999999996e+00 1.0656442593567499e+01 8.8463544943745820e+00 0 0 0
513 2 4.9220000000000006e+00 1.1366872099805333e+01 8.8463544943745820e+00 0 0 0
536 2 7.3829999999999991e+00 1.1366872099805333e+01 8.8463544943745820e+00 0 0 0
559 2 8.6134999999999984e+00 1.0656442593567498e+01 8.8463544943745820e+00 0 0 0
225 2 4.9220000000000006e+00 9.9460130873296642e+00 5.6255773074714295e+00 0 0 0
227 2 4.9220000000000006e+00 8.5251540748539991e+00 5.6255773074714295e+00 0 0 0
270 2 7.3830000000000009e+00 9.9460130873296642e+00 5.6255773074714295e+00 0 0 0
272 2 7.3830000000000009e+00 8.5251540748539991e+00 5.6255773074714295e+00 0 0 0
266 2 6.1524999999999999e+00 1.2077301606043163e+01 5.6255773074714295e+00 0 0 0
268 2 6.1524999999999999e+00 1.0656442593567499e+01 5.6255773074714295e+00 0 0 0
313 2 8.6135000000000002e+00 1.2077301606043163e+01 5.6255773074714295e+00 0 0 0
315 2 8.6134999999999984e+00 1.0656442593567498e+01 5.6255773074714295e+00 0 0 0
515 2 6.1524999999999999e+00 9.2355835810918343e+00 8.8463544943745820e+00 0 0 0
514 2 4.9220000000000006e+00 8.5251540748539991e+00 8.8463544943745820e+00 0 0 0
537 2 7.3830000000000009e+00 8.5251540748539991e+00 8.8463544943745820e+00 0 0 0
538 2 8.6134999999999984e+00 9.2355835810918343e+00 8.8463544943745820e+00 0 0 0
535 2 6.1524999999999999e+00 1.0656442593567499e+01 8.8463544943745820e+00 0 0 0
647 1 2.0348659302705774e+00 7.7078515582781582e-01 1.1558002145832955e+01 -2 2 0
1565 1 1.5593105217235408e+00 3.4377627497703500e-01 1.4336319747289588e+01 0 2 0
2309 1 2.6065176634698570e+00 3.7856259349098234e+00 1.1638746469447479e+01 0 0 0
4901 1 1.0008961913007890e+00 1.1355021756484327e+01 1.5113598257078911e+01 2 1 0
2617 1 5.9953254212199436e+00 2.3738794461768223e-01 1.4246204519515242e+01 5 0 0
4205 1 7.1624573150870763e+00 1.3109195688110937e+00 1.1520928066276163e+01 0 -2 -1
1703 1 3.4939016163703367e+00 1.0023166656279448e+01 1.8902180916085612e+01 0 1 0
1614 1 5.5687161737822883e+00 1.1622454558748087e+01 1.8188355962454210e+01 1 1 0
25 1 3.2620907638947916e+00 4.5342822987783657e+00 1.4378669282654002e+01 0 -1 0
1855 1 4.9653109790153263e+00 5.4589785618364308e+00 1.1762475083086400e+01 -2 1 0
761 1 7.4309684791894632e+00 4.0428184986506128e+00 1.1544233205758962e+01 0 2 -1
760 1 7.8091368995717012e+00 4.6369336734449647e+00 1.4282144793214526e+01 1 0 -1
3425 1 5.4231624113046824e+00 1.1337126717105486e+01 1.5482215044015648e+01 -2 0 0
1713 1 9.7752179067794920e+00 8.4867429112437787e+00 1.1752111616119249e+01 -4 1 -1
743 1 4.7144805949013096e+00 8.2883453391462165e+00 1.1795076914320475e+01 2 2 0
2493 1 1.0826693992832703e+00 8.6805982118624510e+00 1.4361569554491627e+01 -1 2 0
1808 1 2.1016655963014150e+00 9.6176964991740146e+00 1.1603446783370071e+01 0 -1 -1
4989 1 5.2722477988547940e+00 8.9015998394948372e+00 1.4490189912030097e+01 1 2 0
4064 1 7.1740973381635111e+00 9.4975540594131918e+00 1.1406948667215191e+01 0 1 0
700 1 7.7609319137047397e+00 1.0314515094370428e+01 1.9155913642921448e+01 1 -2 0
1518 1 5.3721640352363522e+00 5.9671806870153112e+00 1.8833691186381714e+01 4 -1 0
3448 1 1.0956132315891869e+00 1.1571353678129723e+01 1.7965330787739415e+01 3 -1 0
4164 1 1.2276702434214291e+00 3.0884153334634110e+00 1.5380401599403783e+01 -1 0 -1
1485 1 7.1645939995310126e-01 3.4810830427644723e+00 1.8014194321863684e+01 0 2 1
680 1 3.0879922639200701e+00 2.1506993823688285e+00 1.8719288792102283e+01 1 1 -1
4823 1 5.6002850129253465e+00 2.8739068006943844e+00 1.5130121399940901e+01 2 2 0
1513 1 5.6240797219762211e+00 3.2312058292273607e+00 1.7778960042744639e+01 2 2 0
4882 1 7.7827946592675259e+00 1.7069768462686938e+00 1.9022084365143673e+01 2 0 0
1558 1 3.0283687874087541e+00 7.3780291752507221e+00 1.5325640523481340e+01 -1 0 -1
2596 1 3.2703967494635915e+00 7.4815302935530141e+00 1.8061404402792359e+01 -1 2 0
4284 1 1.0500322797285671e+00 6.1155137971876377e+00 1.8715985330729850e+01 -1 0 0
2441 1 7.6972716871826306e+00 7.3598757039172291e+00 1.8285336465434312e+01 1 0 -1
4024 1 7.6371466787966984e+00 7.1663606219003881e+00 1.5430296100943981e+01 -3 1 0
1643 1 9.7365287515536671e+00 5.5601114081313474e+00 1.1285887210142326e+01 -1 0 -1
4862 1 7.2496880782452191e+00 1.2196194066013113e+01 1.1639244696058318e+01 1 -1 0
917 1 3.2359590423410918e+00 2.1008953761323172e+00 2.1577607503590986e+01 -1 -1 0
3310 1 9.5896401328295777e-01 4.2257878697634893e-01 2.2254874877235036e+01 2 0 0
3198 1 7.6947375243738234e+00 1.9331177037705440e+00 2.1739100761833996e+01 0 -2 -1
862 1 1.1046304920992609e+00 6.0084807660176844e+00 2.9783907964355496e+01 1 2 0
4319 1 3.0567384794464885e+00 4.8856103654384810e+00 2.2256534730500558e+01 -1 0 0
2666 1 8.3898607313842122e-01 6.0011193408344896e+00 2.1509393222892982e+01 0 2 0
4242 1 5.3872056929305208e+00 5.7837183071048175e+00 2.1533504103513614e+01 1 1 0
4956 1 7.6068612863028795e+00 4.6961476649004483e+00 2.2796340977183515e+01 -1 -1 -1
3179 1 8.1821464632027596e-01 8.5890796489415102e+00 2.2553071073230502e+01 -2 1 0
3434 1 3.1882902248746494e+00 1.0032609963311629e+01 2.1614820624981057e+01 0 -2 -1
28 1 5.3324958723271561e+00 8.4088618242540942e+00 2.2435567157917813e+01 3 -1 0
4051 1 7.3720752411673640e+00 1.0294247070940264e+01 2.1703497663782318e+01 2 -2 0
4264 1 9.5339647451423986e+00 8.7666168803565618e+00 2.5131198097171897e+01 2 3 0
3457 1 7.7766159593304984e-01 3.2255418640318569e+00 2.5866755683730737e+01 -1 0 0
2527 1 7.3610604585068762e-01 3.2404455597950439e+00 2.8509538752933473e+01 1 -1 0
3181 1 7.6891097461769728e+00 1.0026588846931631e+01 2.9575165788482227e+01 1 -1 -1
3135 1 5.5769939295339555e+00 2.7523306062390313e-01 2.2471225877843395e+01 -3 3 0
2553 1 5.4507933989819923e+00 3.4153410119784207e+00 2.8758534664016626e+01 1 0 0
1724 1 5.4075110833746152e+00 3.2996063942130323e+00 2.5863883635302727e+01 4 -2 0
3161 1 5.5264886002193707e+00 4.6684646568323462e-01 2.5139583428128628e+01 0 1 0
1687 1 7.7512745551970319e-01 8.5359439499166765e+00 2.5437533251311315e+01 1 0 0
1474 1 5.2758259619584118e+00 1.1644306866866009e+01 2.8475322011180349e+01 -2 3 0
1810 1 3.2972682599205956e+00 4.4377283128600196e+00 2.4969739834038286e+01 1 1 0
1720 1 3.1483229155278978e+00 7.4712904635174811e+00 2.8863773655859308e+01 -2 2 0
2680 1 3.1963332314951662e+00 7.4526269810981915e+00 2.6224707588889082e+01 0 -1 0
2602 1 7.6626992459951104e+00 4.8260656363946888e+00 2.5583650505293040e+01 -4 1 0
792 1 7.4510760564786569e+00 7.3524188157777965e+00 2.6124932064420278e+01 -1 1 -1
2661 1 7.7228261305986550e+00 7.1580174129257861e+00 2.8816192223587457e+01 1 0 0
1534 1 5.5093750480000994e+00 1.1240637309696822e+01 2.5762928897795629e+01 -2 3 0
878 1 5.2659928363778743e+00 8.4399025016010949e+00 2.5066977835654718e+01 2 -1 0
2334 1 8.7144929003223448e-01 1.1394175419350516e+01 2.8702923003603921e+01 0 -1 0
1500 1 9.2057335695372622e-01 1.1314817480566628e+01 2.5990513048902358e+01 -2 5 0
1469 1 8.0267203376332874e-01 4.6754938103406685e-01 2.5169409795706795e+01 4 -2 0
3200 1 3.1516110716296755e+00 2.0010121242012735e+00 2.9627355579108002e+01 2 1 0
3245 1 3.1028775544474683e+00 9.9750178112765902e+00 2.9610611320504866e+01 -1 -1 0
88 1 9.7639101227468732e+00 6.0566532891438563e+00 2.1793011884384853e+01 0 0 0
3370 1 9.4233733450900985e+00 8.9633629733915701e+00 2.2350008812987319e+01 -1 -3 0
117 1 9.5892843049562924e+00 1.1355621240003007e+01 2.6190133380021262e+01 -2 3 0
1564 1 7.4657474857041946e+00 1.6768386054844007e+00 2.9523341795824919e+01 1 3 -1
3172 1 9.5632171574259957e+00 3.1523317496558199e+00 2.8695591491377407e+01 3 -3 0
1490 1 5.4558294005119059e+00 6.0800216029066307e+00 2.9716252655905176e+01 -1 3 -1
1512 1 3.1038952219395126e+00 2.0124144562046942e+00 3.2359438405198986e+01 0 0 0
1483 1 4.8281307734547143e+00 5.3405537463836037e+00 3.9218532021756346e+01 2 1 1
3418 1 9.6131285242857114e+00 1.0319335779759237e-01 3.3095502605187079e+01 0 1 0
2634 1 7.3708713336822091e+00 1.5334966934006502e+00 3.2332764725557908e+01 2 1 1
3369 1 4.6929813663183655e+00 8.0456599054186917e+00 3.6437893838006246e+01 2 0 -1
3441 1 3.0662989054689995e+00 4.7068480431072244e+00 3.3594016025669504e+01 0 -2 -1
1849 1 9.2817733154381044e-01 5.9437973655345155e+00 3.2580232370020695e+01 -1 3 0
4353 1 7.6877470966647028e+00 4.3894846299403580e+00 3.3172991413977641e+01 2 -1 0
4272 1 5.3827204723316999e+00 6.0223290253215040e+00 3.2560228157443433e+01 0 2 1
4896 1 7.1044138479590817e+00 9.8906273301728955e+00 3.9012789993586125e+01 -4 1 0
59 1 1.0987490927988122e+00 8.6882901293979646e+00 3.3422330411278068e+01 0 2 -1
1721 1 3.2565213826796260e+00 9.9619243838305991e+00 3.2493006577300562e+01 1 -1 0
763 1 5.6749150924293321e+00 8.9683631355487652e+00 3.3635081251755480e+01 -3 -1 -1
778 1 7.8533867803366038e+00 1.0071804794402533e+01 3.2350878597421470e+01 2 2 0
1487 1 2.3354546117015467e+00 3.6149362470065216e+00 3.8481283164217587e+01 0 -2 0
4854 1 1.7107416531407167e+00 5.4349180768771121e-01 3.5782184726570250e+01 -1 0 0
1814 1 1.5972153957416335e+00 8.7409276493768573e-01 3.8815749863579654e+01 2 0 0
1540 1 1.8452172143014385e+00 3.5549133862706506e+00 3.5933034678990765e+01 -1 2 0
4885 1 2.3562191890750999e+00 9.3700188924297638e+00 3.6188289385876004e+01 -3 2 -1
4122 1 4.8057207736923253e+00 8.0972158490411346e+00 3.9253620248639876e+01 3 0 -1
4911 1 7.0984514944377315e+00 1.3564346343912419e+00 3.6050578576821081e+01 -1 1 0
4262 1 6.9902535645065420e+00 1.1677010187066030e+00 3.8610459574857501e+01 -1 1 0
1861 1 9.4143005084219524e+00 8.4643921410656624e+00 3.9175500427923438e+01 2 -1 0
821 1 7.2291581075494840e+00 9.6192443921996009e+00 3.6286498724268242e+01 -2 0 -1
4022 1 2.2486821349788020e+00 9.3150458877421247e+00 3.9166224587900288e+01 -3 0 1
109 1 4.6824193589984517e+00 5.3335132704858257e+00 3.6522196714679183e+01 -1 -1 1
4032 1 7.2882156419331858e+00 4.0937757396090504e+00 3.6054250635915295e+01 1 0 0
3220 1 7.3612776862432003e+00 4.1563767560431391e+00 3.9228432398602081e+01 -2 0 0
3403 1 9.7457307272925098e-01 1.7363515609807706e-01 3.3192280498576338e+01 1 1 0
4070 1 1.5722366063656545e-01 7.6141624166741710e+00 3.9006302365021838e+01 1 2 0
4286 1 9.7567422413953420e+00 5.5433264586097861e+00 3.6474474851279538e+01 2 2 0
894 1 9.7884359330784836e+00 5.3483893009538956e+00 3.9193053455576688e+01 -1 0 -1
85 1 5.1763799568048174e+00 4.5787491884080000e-01 3.3545452736865215e+01 0 1 0
1571 1 2.2337878313099178e+00 1.2137798901398948e+01 3.5784028869074064e+01 2 0 -1
3444 1 9.5662011979324948e+00 5.4943714346507022e-02 3.5902018890899484e+01 -1 2 0
181 2 0.0000000000000000e+00 1.2787731112280996e+01 2.4048001205742682e+00 0 0 0
183 2 1.2305000000000001e+00 1.3498160618518829e+01 2.4048001205742682e+00 0 0 0
218 2 2.4610000000000003e+00 1.2787731112280996e+01 2.4048001205742682e+00 0 0 0
220 2 3.6915000000000004e+00 1.3498160618518829e+01 2.4048001205742682e+00 0 0 0
179 2 0.0000000000000000e+00 1.5629449137232333e+01 2.4048001205742682e+00 0 0 0
214 2 1.2305000000000001e+00 1.4919019630994494e+01 2.4048001205742682e+00 0 0 0
216 2 2.4610000000000003e+00 1.5629449137232328e+01 2.4048001205742682e+00 0 0 0
259 2 3.6915000000000004e+00 1.4919019630994494e+01 2.4048001205742682e+00 0 0 0
263 2 4.9220000000000006e+00 1.2787731112280996e+01 2.4048001205742682e+00 0 0 0
265 2 6.1524999999999990e+00 1.3498160618518829e+01 2.4048001205742682e+00 0 0 0
310 2 7.3829999999999991e+00 1.2787731112280996e+01 2.4048001205742682e+00 0 0 0
312 2 8.6135000000000002e+00 1.3498160618518835e+01 2.4048001205742682e+00 0 0 0
261 2 4.9220000000000006e+00 1.5629449137232333e+01 2.4048001205742682e+00 0 0 0
306 2 6.1524999999999990e+00 1.4919019630994494e+01 2.4048001205742682e+00 0 0 0
308 2 7.3829999999999991e+00 1.5629449137232333e+01 2.4048001205742682e+00 0 0 0
353 2 8.6135000000000002e+00 1.4919019630994494e+01 2.4048001205742682e+00 0 0 0
210 2 0.0000000000000000e+00 1.7050308149707998e+01 2.4048001205742682e+00 0 0 0
255 2 2.4610000000000003e+00 1.7050308149707998e+01 2.4048001205742682e+00 0 0 0
208 2 0.0000000000000000e+00 1.9892026174659328e+01 2.4048001205742682e+00 0 0 0
212 2 1.2305000000000001e+00 1.7760737655945832e+01 2.4048001205742682e+00 0 0 0
251 2 1.2305000000000001e+00 1.9181596668421495e+01 2.4048001205742682e+00 0 0 0
253 2 2.4610000000000003e+00 1.9892026174659328e+01 2.4048001205742682e+00 0 0 0
257 2 3.6914999999999996e+00 1.7760737655945832e+01 2.4048001205742682e+00 0 0 0
298 2 3.6914999999999996e+00 1.9181596668421495e+01 2.4048001205742682e+00 0 0 0
302 2 4.9220000000000006e+00 1.7050308149707998e+01 2.4048001205742682e+00 0 0 0
349 2 7.3830000000000009e+00 1.7050308149707998e+01 2.4048001205742682e+00 0 0 0
300 2 4.9220000000000006e+00 1.9892026174659328e+01 2.4048001205742682e+00 0 0 0
304 2 6.1524999999999999e+00 1.7760737655945832e+01 2.4048001205742682e+00 0 0 0
345 2 6.1524999999999999e+00 1.9181596668421495e+01 2.4048001205742682e+00 0 0 0
347 2 7.3829999999999991e+00 1.9892026174659328e+01 2.4048001205742682e+00 0 0 0
351 2 8.6134999999999984e+00 1.7760737655945832e+01 2.4048001205742682e+00 0 0 0
387 2 8.6135000000000002e+00 1.9181596668421495e+01 2.4048001205742682e+00 0 0 0
245 2 0.0000000000000000e+00 2.4154603212086325e+01 2.4048001205742682e+00 0 0 0
247 2 0.0000000000000000e+00 2.1312885187134999e+01 2.4048001205742682e+00 0 0 0
249 2 1.2304999999999993e+00 2.2023314693372832e+01 2.4048001205742682e+00 0 0 0
290 2 1.2304999999999993e+00 2.3444173705848499e+01 2.4048001205742682e+00 0 0 0
292 2 2.4610000000000003e+00 2.4154603212086325e+01 2.4048001205742682e+00 0 0 0
294 2 2.4610000000000003e+00 2.1312885187134995e+01 2.4048001205742682e+00 0 0 0
296 2 3.6914999999999996e+00 2.2023314693372832e+01 2.4048001205742682e+00 0 0 0
337 2 3.6915000000000004e+00 2.3444173705848499e+01 2.4048001205742682e+00 0 0 0
339 2 4.9220000000000006e+00 2.4154603212086325e+01 2.4048001205742682e+00 0 0 0
341 2 4.9220000000000006e+00 2.1312885187134995e+01 2.4048001205742682e+00 0 0 0
343 2 6.1524999999999990e+00 2.2023314693372832e+01 2.4048001205742682e+00 0 0 0
379 2 6.1524999999999999e+00 2.3444173705848499e+01 2.4048001205742682e+00 0 0 0
381 2 7.3830000000000009e+00 2.4154603212086336e+01 2.4048001205742682e+00 0 0 0
383 2 7.3829999999999991e+00 2.1312885187134999e+01 2.4048001205742682e+00 0 0 0
385 2 8.6135000000000002e+00 2.2023314693372832e+01 2.4048001205742682e+00 0 0 0
413 2 8.6134999999999984e+00 2.3444173705848499e+01 2.4048001205742682e+00 0 0 0
182 2 0.0000000000000000e+00 1.2787731112280996e+01 5.6255773074714295e+00 0 0 0
219 2 2.4610000000000003e+00 1.2787731112280996e+01 5.6255773074714295e+00 0 0 0
180 2 0.0000000000000000e+00 1.4208590124756663e+01 5.6255773074714295e+00 0 0 0
215 2 1.2305000000000001e+00 1.4919019630994494e+01 5.6255773074714295e+00 0 0 0
217 2 2.4610000000000003e+00 1.4208590124756663e+01 5.6255773074714295e+00 0 0 0
260 2 3.6915000000000004e+00 1.4919019630994494e+01 5.6255773074714295e+00 0 0 0
491 2 0.0000000000000000e+00 1.2787731112280996e+01 8.8463544943745820e+00 0 0 0
492 2 1.2305000000000001e+00 1.3498160618518829e+01 8.8463544943745820e+00 0 0 0
510 2 2.4610000000000003e+00 1.2787731112280996e+01 8.8463544943745820e+00 0 0 0
511 2 3.6915000000000004e+00 1.3498160618518829e+01 8.8463544943745820e+00 0 0 0
490 2 0.0000000000000000e+00 1.5629449137232333e+01 8.8463544943745820e+00 0 0 0
508 2 1.2305000000000001e+00 1.4919019630994494e+01 8.8463544943745820e+00 0 0 0
509 2 2.4610000000000003e+00 1.5629449137232328e+01 8.8463544943745820e+00 0 0 0
531 2 3.6915000000000004e+00 1.4919019630994494e+01 8.8463544943745820e+00 0 0 0
264 2 4.9220000000000006e+00 1.2787731112280996e+01 5.6255773074714295e+00 0 0 0
311 2 7.3829999999999991e+00 1.2787731112280996e+01 5.6255773074714295e+00 0 0 0
262 2 4.9220000000000006e+00 1.4208590124756663e+01 5.6255773074714295e+00 0 0 0
307 2 6.1524999999999990e+00 1.4919019630994494e+01 5.6255773074714295e+00 0 0 0
309 2 7.3830000000000009e+00 1.4208590124756663e+01 5.6255773074714295e+00 0 0 0
354 2 8.6135000000000002e+00 1.4919019630994494e+01 5.6255773074714295e+00 0 0 0
533 2 4.9220000000000006e+00 1.2787731112280996e+01 8.8463544943745820e+00 0 0 0
534 2 6.1524999999999990e+00 1.3498160618518829e+01 8.8463544943745820e+00 0 0 0
557 2 7.3829999999999991e+00 1.2787731112280996e+01 8.8463544943745820e+00 0 0 0
558 2 8.6135000000000002e+00 1.3498160618518835e+01 8.8463544943745820e+00 0 0 0
532 2 4.9220000000000006e+00 1.5629449137232333e+01 8.8463544943745820e+00 0 0 0
555 2 6.1524999999999990e+00 1.4919019630994494e+01 8.8463544943745820e+00 0 0 0
556 2 7.3829999999999991e+00 1.5629449137232333e+01 8.8463544943745820e+00 0 0 0
579 2 8.6135000000000002e+00 1.4919019630994494e+01 8.8463544943745820e+00 0 0 0
211 2 0.0000000000000000e+00 1.7050308149707998e+01 5.6255773074714295e+00 0 0 0
213 2 1.2305000000000001e+00 1.6339878643470165e+01 5.6255773074714295e+00 0 0 0
256 2 2.4610000000000003e+00 1.7050308149707998e+01 5.6255773074714295e+00 0 0 0
258 2 3.6915000000000004e+00 1.6339878643470165e+01 5.6255773074714295e+00 0 0 0
209 2 0.0000000000000000e+00 1.8471167162183658e+01 5.6255773074714295e+00 0 0 0
252 2 1.2305000000000001e+00 1.9181596668421495e+01 5.6255773074714295e+00 0 0 0
254 2 2.4610000000000003e+00 1.8471167162183658e+01 5.6255773074714295e+00 0 0 0
299 2 3.6914999999999996e+00 1.9181596668421495e+01 5.6255773074714295e+00 0 0 0
506 2 0.0000000000000000e+00 1.7050308149707998e+01 8.8463544943745820e+00 0 0 0
529 2 2.4610000000000003e+00 1.7050308149707998e+01 8.8463544943745820e+00 0 0 0
505 2 0.0000000000000000e+00 1.9892026174659328e+01 8.8463544943745820e+00 0 0 0
507 2 1.2305000000000001e+00 1.7760737655945832e+01 8.8463544943745820e+00 0 0 0
527 2 1.2305000000000001e+00 1.9181596668421495e+01 8.8463544943745820e+00 0 0 0
528 2 2.4610000000000003e+00 1.9892026174659328e+01 8.8463544943745820e+00 0 0 0
530 2 3.6914999999999996e+00 1.7760737655945832e+01 8.8463544943745820e+00 0 0 0
551 2 3.6914999999999996e+00 1.9181596668421495e+01 8.8463544943745820e+00 0 0 0
303 2 4.9220000000000006e+00 1.7050308149707998e+01 5.6255773074714295e+00 0 0 0
305 2 6.1524999999999999e+00 1.6339878643470165e+01 5.6255773074714295e+00 0 0 0
350 2 7.3830000000000009e+00 1.7050308149707998e+01 5.6255773074714295e+00 0 0 0
352 2 8.6134999999999984e+00 1.6339878643470165e+01 5.6255773074714295e+00 0 0 0
301 2 4.9220000000000006e+00 1.8471167162183658e+01 5.6255773074714295e+00 0 0 0
346 2 6.1524999999999999e+00 1.9181596668421495e+01 5.6255773074714295e+00 0 0 0
348 2 7.3829999999999991e+00 1.8471167162183658e+01 5.6255773074714295e+00 0 0 0
388 2 8.6135000000000002e+00 1.9181596668421495e+01 5.6255773074714295e+00 0 0 0
553 2 4.9220000000000006e+00 1.7050308149707998e+01 8.8463544943745820e+00 0 0 0
577 2 7.3830000000000009e+00 1.7050308149707998e+01 8.8463544943745820e+00 0 0 0
552 2 4.9220000000000006e+00 1.9892026174659328e+01 8.8463544943745820e+00 0 0 0
554 2 6.1524999999999999e+00 1.7760737655945832e+01 8.8463544943745820e+00 0 0 0
575 2 6.1524999999999999e+00 1.9181596668421495e+01 8.8463544943745820e+00 0 0 0
576 2 7.3829999999999991e+00 1.9892026174659328e+01 8.8463544943745820e+00 0 0 0
578 2 8.6134999999999984e+00 1.7760737655945832e+01 8.8463544943745820e+00 0 0 0
596 2 8.6135000000000002e+00 1.9181596668421495e+01 8.8463544943745820e+00 0 0 0
250 2 1.2305000000000001e+00 2.0602455680897162e+01 5.6255773074714295e+00 0 0 0