LAMMPS data file via write_data, version 16 Mar 2018, timestep = 6000000

6736 atoms
2 atom types

0.0000000000000000e+00 4.9219999999999999e+01 xlo xhi
0.0000000000000000e+00 4.9019635930410494e+01 ylo yhi
5.6190597776351225e-01 5.9500094022226271e+01 zlo zhi

Masses

1 18.015
2 12.01

Atoms # atomic

2798 1 8.8383502431968697e-01 1.7362595706703003e+00 1.9770816492912826e+00 -2 -1 0
6109 1 1.1798007645330320e+00 4.1625371646268263e+00 3.1143201577943822e+00 0 0 1
1191 1 1.1924797193015271e+01 1.4910789488916764e+01 1.9725679244276368e+00 0 -1 1
3787 1 5.2888172860198370e+00 1.3176045049703273e+00 2.1036955762953888e+00 -2 0 0
2744 1 5.7889979139774130e+00 3.7971903434325220e+00 3.0013136807642611e+00 0 3 1
5137 1 9.8435780102449630e+00 2.5455107570887265e+00 3.1723745492078823e+00 -1 -2 1
175 1 1.1916076280448001e+01 1.5070689682678893e+01 9.0198789019842813e+00 -1 2 0
3869 1 9.2980917849009828e+00 3.4254960813495294e-01 2.1068380184711897e+00 -1 -1 0
2196 1 3.6557546284509210e+00 5.0068224824635825e+00 2.3233719031284989e+00 -2 -1 0
2925 1 4.0186724701087408e+00 7.7086689781980660e+00 3.0516151125668198e+00 0 2 1
2918 1 8.2040800463810371e+00 4.3523014639808553e+00 2.1201341601164634e+00 0 -2 1
1013 1 8.3623434337842149e+00 7.1307366602903111e+00 3.2980467842050878e+00 0 0 1
4104 1 1.0736986441731236e+01 7.7435750898097835e+00 2.3937372875097509e+00 0 -1 1
4599 1 1.8900273304638977e+00 8.8997158621408978e+00 2.3624759738941590e+00 1 -2 0
2468 1 2.3367705317722054e+00 1.1421971937117773e+01 3.4117771406049950e+00 1 1 0
2608 1 6.3900153139311469e+00 8.6790285998614802e+00 2.1763994613328945e+00 -3 0 1
940 1 6.5625033040550314e+00 1.1120546925008139e+01 3.3666421324352118e+00 -2 -3 1
96 1 4.7197332193130954e+00 1.2785250065729834e+01 2.5930071082810930e+00 2 -1 1
3368 1 1.1107322967539098e+01 9.9798140739744685e+00 3.6477681723714541e+00 4 0 0
398 1 9.3112760544559467e+00 1.1574564448956213e+01 2.3947332807725976e+00 0 1 0
3592 1 5.2738247101575353e-01 1.5598565236295494e+01 3.1733090717063690e+00 3 -3 0
1050 1 7.6861733578148614e+00 1.5542869622906347e+01 6.5632290856989712e+00 1 0 1
904 1 3.4233540825787256e-01 1.2913710885872737e+01 2.2091816513460314e+00 1 -1 0
4392 1 1.2108181451090982e+01 3.5488814801475193e+00 2.3236142197067284e+00 -1 -1 1
1908 1 5.1007882669985714e+00 1.5109024982235216e+01 3.2749141657853520e+00 1 3 0
49 1 9.3722602886243767e+00 1.4096161533095172e+01 2.9423967462469052e+00 0 2 1
5156 1 7.5444803936067739e+00 1.5894190906244065e+01 2.1356828472366258e+00 1 -3 0
6293 1 8.4374675874205085e-01 1.7219268258815870e+00 6.3854186024524680e+00 0 0 1
177 1 1.1333263686864969e+00 4.1935410695698767e+00 5.7180697534411351e+00 1 7 0
5893 1 4.9652558209062416e+00 1.0107810454807478e+00 6.8646023341135436e+00 0 -3 1
2762 1 5.4250921161391172e+00 3.3853287098077347e+00 5.7201356958230054e+00 -2 1 1
4113 1 9.6507997554358660e+00 2.5272497708675670e+00 5.8799215059381300e+00 1 0 0
3790 1 1.1765514717428093e+01 1.2664625125463063e+01 1.0384509295993348e+01 1 -1 0
2776 1 3.3395674001231144e+00 5.0641418846604713e+00 6.4558153547091814e+00 -2 5 1
995 1 3.8883562922542514e+00 7.5875482994956673e+00 5.6179937086187861e+00 3 3 1
2692 1 7.6202523834725522e+00 3.9799535860040938e+00 7.0326383199342155e+00 4 1 1
5840 1 6.2720714239401945e+00 8.1490190442863266e+00 6.8171622607389057e+00 2 2 0
1955 1 8.2196435411089421e+00 6.6528526656488367e+00 5.7839389281527458e+00 -1 1 0
3747 1 1.0705327772161429e+01 7.5683223831263513e+00 6.9910313452083201e+00 1 1 0
440 1 1.8791013403853121e+00 8.7148188823573172e+00 6.5882490169924255e+00 1 1 0
3791 1 1.9651043652020979e+00 1.1407189615995959e+01 6.0079312874470476e+00 1 -1 1
4365 1 6.4956584881582664e+00 1.0573978931022314e+01 5.9474555202593882e+00 2 0 1
4129 1 4.1785504786398509e+00 1.2108470082646114e+01 6.7469398855186880e+00 -1 3 1
1113 1 1.1453770120747967e+01 9.9966019457783766e+00 6.2259821875604491e+00 -4 0 1
2868 1 9.0174403611206237e+00 1.1500928457090176e+01 6.7854453215459793e+00 1 0 0
302 1 2.7805268660032341e+00 1.3765953444685540e+01 1.0362576777286572e+01 2 0 1
6206 1 6.6397586037475043e-01 1.5670470080780454e+01 5.7019967700964056e+00 -3 0 1
4396 1 1.1894834211740143e+01 3.5104444297707667e+00 9.5552590432988378e+00 2 0 1
5307 1 4.8949380742388016e+00 1.4691906044076935e+01 5.9651047976481806e+00 2 -3 1
2736 1 3.0971501564193155e-01 1.3243494689968024e+01 6.9231288016416768e+00 0 2 1
6007 1 9.2603025930298148e+00 1.3807855331299489e+01 5.4484252722344673e+00 1 1 1
476 1 3.2365688379213222e+00 2.4735926751115174e+00 1.0659775379063626e+01 4 3 0
5913 1 7.3024691562938171e-01 1.3893510313856436e+00 9.4663298000747265e+00 -1 2 0
3603 1 5.2348910246555285e+00 7.3163613013620998e-01 9.8764374540214064e+00 0 4 0
5229 1 7.4487191126958896e+00 1.5054763070015242e+00 1.0570838274916213e+01 1 -1 0
3567 1 7.6488574801420484e+00 3.9132668410305480e+00 9.5513619574365691e+00 2 5 0
6083 1 1.1790469529114411e+01 9.3616592574958124e-01 1.0289157909760391e+01 2 -1 1
1124 1 1.6535219831746184e+00 6.5086464429844471e+00 1.0553983726380540e+01 3 -1 0
258 1 3.6422615748293441e+00 4.8207433712117229e+00 9.1803784135591879e+00 -1 -1 0
5889 1 5.9530602819629070e+00 5.6108480340571036e+00 1.0390382589392926e+01 -1 3 1
126 1 1.0125840128682617e+01 4.9250111538542001e+00 1.0400741621455072e+01 1 1 0
3425 1 1.0335263661078461e+01 7.4326044706971857e+00 9.7686437476495307e+00 -1 1 1
4254 1 6.8981881706038974e+00 1.3303716110496973e+01 1.0372750500259686e+01 1 1 1
4164 1 1.9078020526490147e+00 8.8130675246380292e+00 9.4332985878703592e+00 2 -1 0
1888 1 4.2163253359794730e+00 9.7254859326516971e+00 1.0380300135616123e+01 2 0 1
5093 1 6.2488980338865581e+00 8.4832525575138948e+00 9.7161671824237601e+00 5 0 0
2104 1 4.6853556054641512e+00 1.2055470836399310e+01 9.3788572095019003e+00 0 -1 0
1116 1 9.1864359292992503e+00 1.1867369437773524e+01 9.5003111834255431e+00 1 0 1
4401 1 8.5856207435441032e+00 9.3755863625123137e+00 1.0432171374876841e+01 2 -3 1
2202 1 5.1853757390354949e-01 1.3049762972510845e+01 9.7227641073523685e+00 0 0 0
1023 1 7.5835300003879089e+00 1.5813219762503312e+01 9.2063027586401311e+00 -1 -1 1
468 1 2.8944543509003071e+00 3.7080215622906409e-01 2.9928032538579479e+00 1 3 0
447 1 7.2704486339972618e-02 1.0538816404176318e+01 1.0179792745113815e+01 1 -3 0
3691 1 1.2040278227939190e+01 3.4281557953383355e+00 6.6275383309083429e+00 -2 -1 0
975 1 1.1580719008168622e+01 1.4968618356584383e+01 6.3493912003986868e+00 0 1 0
3718 1 3.1706439171396701e+00 1.6332852192512853e+01 9.5812925950104813e+00 0 0 0
388 1 3.0381138631241584e+00 1.6226953993696117e+01 2.4100722935319245e+00 0 2 0
6205 1 2.8153442452017901e+00 5.2027520436830343e-02 5.6797067037688693e+00 -2 2 0
5119 1 3.2297576243267296e+00 2.2321057406606633e+00 1.3420656324486281e+01 -1 0 0
2600 1 7.7009510606028253e-01 1.2145808830413751e+00 1.4308978452524501e+01 2 0 1
2022 1 7.7193033738778283e+00 1.7739435831606161e+00 1.3446584529650382e+01 1 -1 0
351 1 5.1682914343861723e+00 7.7517074213862402e-01 1.4162621910878233e+01 3 0 0
1235 1 8.9672440470265524e-01 1.6331583790235477e+01 2.1248043557515444e+01 2 -2 1
1154 1 1.1984824928556838e+01 1.0373026773335363e+00 1.3145313787318644e+01 1 2 1
6132 1 4.4537681983404775e-01 8.1721451357038610e+00 2.3701112875444714e+01 1 -3 1
6035 1 3.5393399332593258e+00 4.7463742842300025e+00 1.4123805711686238e+01 2 0 1
2051 1 1.7701047053490035e+00 6.3724977698423739e+00 1.3204890791968166e+01 0 0 0
5263 1 7.8663785540228206e+00 4.2957186858018943e+00 1.3832520090066419e+01 1 2 0
2864 1 5.9452005738752147e+00 5.7142468896421681e+00 1.3285605873497163e+01 -2 1 0
1766 1 6.4293660629185103e+00 8.2502469351318322e+00 1.4100613210118762e+01 1 -1 0
2899 1 1.0848430528338932e+01 7.7333856320266294e+00 1.4135574233893990e+01 0 1 1
909 1 1.0138237470462316e+01 5.3467999946239360e+00 1.3201673689847237e+01 1 0 1
891 1 1.9992099441104485e+00 8.8000179639770373e+00 1.3997604491349158e+01 -1 -2 1
6150 1 4.1848120449666331e+00 9.6846551898403366e+00 1.3192272473114851e+01 2 1 1
3486 1 8.9186861202965044e+00 9.3877869318870211e+00 1.3066036786038087e+01 1 1 0
3478 1 9.4164342477179943e+00 1.1781070820470523e+01 1.3979991885128472e+01 4 -2 0
340 1 1.0770603616018650e+00 3.8179813146996504e+00 2.3605264424331391e+01 2 2 0
2637 1 2.8112646154301997e+00 1.4027902745071970e+01 1.3076948915384262e+01 1 0 1
3699 1 4.8438299694617806e+00 1.2348409118973651e+01 1.4360304382655350e+01 0 -2 0
3559 1 7.3794115704174779e+00 1.3223794970184601e+01 1.3145441185277109e+01 -4 0 0
874 1 1.0678437789505352e+01 1.0074654957506761e+01 2.4075278557314260e+01 0 3 1
2141 1 1.1767435374016490e+01 1.2711360342883728e+01 1.3106037766175811e+01 0 2 0
1218 1 9.5784931763017216e+00 1.8662006098891681e-01 1.3993014117461037e+01 1 -1 1
5883 1 3.0125806244802251e+00 2.1931526567582447e+00 1.7169489549733949e+01 2 0 1
3387 1 3.1989915923372627e+00 1.7429202114123401e+00 2.0038596206247117e+01 0 0 1
1835 1 5.2319969213339035e-01 1.3167518586838547e+01 1.3870873642889121e+01 3 -3 0
4212 1 7.5172955961008272e+00 1.5919656192977270e+00 1.7217895164795880e+01 0 -2 0
1067 1 9.2920746527585685e+00 1.4839742556565152e+01 2.3571291362282555e+01 1 2 1
3419 1 1.1746455571122608e+01 6.3866819285328946e-01 1.7286844451764640e+01 0 -1 1
2005 1 1.2022580673886578e+01 7.4833702461431384e-01 1.9866339950164942e+01 -2 4 0
45 1 3.6328935920984312e-01 1.3182880190377301e+01 1.6768366367773016e+01 3 1 1
2825 1 3.4256679981369751e+00 4.8735029797367755e+00 1.6762940062194303e+01 -1 -2 0
955 1 1.4327346828803846e+00 6.3672631804365700e+00 1.7268737538965272e+01 0 1 1
6201 1 1.3870260872101361e+00 6.3225081030973982e+00 2.0172405532283143e+01 1 0 1
479 1 7.7699067488886175e+00 4.5422307734679777e+00 1.6846242131116799e+01 4 2 0
746 1 5.8016072210813006e+00 6.0537025617642737e+00 1.7800366100605817e+01 0 0 1
1193 1 5.7409597641794461e+00 5.4342892395216778e+00 2.0298395781526487e+01 -3 -2 0
1162 1 1.0457080194715692e+01 7.1080622412138359e+00 1.6786802466588483e+01 1 2 1
5887 1 1.0233850656903474e+01 4.7473585986542250e+00 1.7746291737756071e+01 4 2 1
2693 1 1.8025046286834858e+00 8.8563117938069222e+00 1.6715440811683671e+01 -3 1 1
2705 1 4.3701618662127943e+00 9.8129026395924122e+00 1.7782591580267550e+01 -2 -2 1
2577 1 6.5503358028554022e+00 8.3131939035543851e+00 1.6850447422108548e+01 -2 -2 1
858 1 8.8546910714387526e+00 9.2217049093894996e+00 1.7651787699318231e+01 0 -1 1
1866 1 8.9958102234203103e+00 1.1683613004974898e+01 1.6456086987315917e+01 -1 1 0
1755 1 1.0864785789544216e+00 1.0830323251538655e+01 2.3994658475503325e+01 0 -3 0
403 1 2.9382917848364198e+00 1.4039617215675660e+01 1.7817982562707584e+01 2 -1 0
2062 1 5.5040482246172873e-01 9.9483697506622415e-01 1.6905731455724041e+01 -1 3 0
1953 1 4.7376654047056270e+00 1.2651540679926715e+01 1.6977796409683105e+01 0 2 0
91 1 7.2677710447674544e+00 1.3335926168923530e+01 1.7550682950739581e+01 -1 2 0
2806 1 1.1491132091370629e+01 1.4952515786835214e+01 1.6522240461650235e+01 -2 1 0
3435 1 1.1374553789206631e+01 1.2416712667927021e+01 1.7390149516825058e+01 0 2 0
194 1 1.1706545965923169e+01 1.2296531615704822e+01 2.0260692840114753e+01 1 -1 1
4379 1 7.3913276541788751e+00 1.5931588759322677e+01 1.6654117811302665e+01 5 0 1
3508 1 9.4022479982169693e-01 3.7468162851640141e+00 2.0987399742978120e+01 3 -2 0
5545 1 3.0434758538582227e+00 1.4209932218285461e+01 2.0726502397066493e+01 -2 0 0
296 1 7.2896974123894811e+00 1.1316164446424692e+00 2.0231215179508492e+01 1 1 1
5264 1 5.4146898579057501e+00 2.5294438402755000e+00 2.3627924024915252e+01 1 1 0
1892 1 5.1988990391172161e+00 2.9565290599049407e+00 2.1125764688851991e+01 0 1 0
4382 1 1.0352168364617720e+01 1.8769942625599811e+00 2.1320683212397736e+01 1 0 1
5400 1 7.1313328436590906e+00 1.3011169586964245e+01 2.0459811389880336e+01 1 2 0
6178 1 1.2039511007452770e+01 1.5428313552749934e+01 1.3652191599613404e+01 -1 -1 1
5231 1 9.4796260770815017e+00 1.4092159637331635e+01 2.0961853308207875e+01 -2 1 0
84 1 3.8429909622180118e+00 6.8152201949098297e+00 2.1413426948479618e+01 1 0 0
1151 1 7.6968040104673481e+00 6.4592076956214788e+00 2.3904766484839371e+01 1 -1 1
3851 1 6.1707529894243267e+00 1.1709154688968713e+01 2.3950485758182790e+01 1 -1 0
5412 1 5.0640919271746805e+00 2.2341712797034954e-01 1.6870927696992247e+01 2 3 0
5274 1 7.9639061545099210e+00 6.3670187461296850e+00 2.1222987979090938e+01 0 2 0
32 1 1.0341615059209428e+01 4.6121570967705097e+00 2.0566617398528972e+01 -1 0 1
4475 1 2.2770450549181356e+00 1.1514921396870708e+01 2.1409208689970082e+01 -1 0 1
335 1 4.1351952361708140e+00 9.6750950788970496e+00 2.0769130039668450e+01 2 2 0
2571 1 5.6664857225081517e+00 1.4897214094057427e+01 2.1240925617792016e+01 3 -1 1
4264 1 7.7864787044825423e+00 1.5907690995309686e+01 1.3954390588748939e+01 2 -1 1
1798 1 7.5476822684139533e+00 7.9441387213077608e-01 2.3351153856488242e+01 0 2 0
427 1 2.6245193198984369e+00 5.9773825807140204e+00 2.3668870679625357e+01 2 0 0
1123 1 6.5865538957216483e+00 1.0430225420501067e+01 2.1393786513065987e+01 -3 3 1
5829 1 8.7417904940402043e+00 8.8711243361037528e+00 2.0241385975060155e+01 -1 3 0
4458 1 1.0963954164837213e+01 9.7451533725813295e+00 2.1257847762496450e+01 -1 1 1
2038 1 3.8366967423344933e-01 1.0575534085029892e+01 1.9951286072256710e+01 4 -2 0
16 1 1.5138008687497340e-01 1.0567132300797651e+01 1.7278350557950642e+01 0 -2 0
1825 1 1.1927528336145521e+01 3.6416703256866119e+00 1.4179318503381038e+01 -1 -2 0
777 1 1.2130799423772938e+01 3.4418380495033398e+00 1.6509679392184012e+01 0 -3 1
1138 1 1.0267085139570185e+01 4.8696095200631406e+00 2.3786301885659295e+01 -1 0 1
2880 1 6.6147393447149714e+00 1.4421879379770306e+01 2.3957731152301093e+01 1 -1 1
2648 1 9.7023139958873035e+00 2.1736499644230061e+00 2.4137013296546733e+01 1 -2 1
511 2 0.0000000000000000e+00 2.8417180249513345e+00 2.6782845260437465e+01 0 0 0
512 2 0.0000000000000000e+00 0.0000000000000000e+00 2.6782845260437465e+01 0 0 0
513 2 1.2305000000000001e+00 7.1042950623783474e-01 2.6782845260437465e+01 0 0 0
517 2 1.2305000000000001e+00 2.1312885187134998e+00 2.6782845260437465e+01 0 0 0
518 2 2.4610000000000003e+00 2.8417180249513345e+00 2.6782845260437465e+01 0 0 0
519 2 2.4610000000000003e+00 0.0000000000000000e+00 2.6782845260437465e+01 0 0 0
520 2 3.6915000000000004e+00 7.1042950623783474e-01 2.6782845260437465e+01 0 0 0
528 2 3.6914999999999996e+00 2.1312885187134998e+00 2.6782845260437465e+01 0 0 0
529 2 4.9220000000000006e+00 2.8417180249513332e+00 2.6782845260437465e+01 0 0 0
530 2 4.9220000000000006e+00 0.0000000000000000e+00 2.6782845260437465e+01 0 0 0
531 2 6.1524999999999999e+00 7.1042950623783407e-01 2.6782845260437465e+01 0 0 0
543 2 6.1524999999999999e+00 2.1312885187134989e+00 2.6782845260437465e+01 0 0 0
544 2 7.3829999999999991e+00 2.8417180249513345e+00 2.6782845260437465e+01 0 0 0
545 2 7.3829999999999991e+00 0.0000000000000000e+00 2.6782845260437465e+01 0 0 0
4524 1 1.1289866755502484e+01 1.2874932189730927e+01 2.4440435438922798e+01 1 -4 1
546 2 8.6134999999999984e+00 7.1042950623783407e-01 2.6782845260437465e+01 0 0 0
562 2 8.6134999999999984e+00 2.1312885187135002e+00 2.6782845260437465e+01 0 0 0
563 2 9.8440000000000012e+00 2.8417180249513332e+00 2.6782845260437465e+01 0 0 0
564 2 9.8440000000000012e+00 0.0000000000000000e+00 2.6782845260437465e+01 0 0 0
565 2 1.1074500000000002e+01 7.1042950623783330e-01 2.6782845260437465e+01 0 0 0
585 2 1.1074500000000002e+01 2.1312885187135002e+00 2.6782845260437465e+01 0 0 0
1522 2 9.8440000000000012e+00 1.5629449137232328e+01 3.3279154739565399e+01 0 0 0
514 2 0.0000000000000000e+00 7.1042950623783341e+00 2.6782845260437465e+01 0 0 0
515 2 0.0000000000000000e+00 4.2625770374269996e+00 2.6782845260437465e+01 0 0 0
516 2 1.2305000000000001e+00 4.9730065436648339e+00 2.6782845260437465e+01 0 0 0
524 2 1.2305000000000001e+00 6.3938655561404980e+00 2.6782845260437465e+01 0 0 0
525 2 2.4610000000000003e+00 7.1042950623783341e+00 2.6782845260437465e+01 0 0 0
526 2 2.4610000000000003e+00 4.2625770374269996e+00 2.6782845260437465e+01 0 0 0
527 2 3.6914999999999996e+00 4.9730065436648339e+00 2.6782845260437465e+01 0 0 0
539 2 3.6914999999999996e+00 6.3938655561404980e+00 2.6782845260437465e+01 0 0 0
540 2 4.9220000000000006e+00 7.1042950623783341e+00 2.6782845260437465e+01 0 0 0
541 2 4.9220000000000006e+00 4.2625770374269978e+00 2.6782845260437465e+01 0 0 0
542 2 6.1524999999999999e+00 4.9730065436648339e+00 2.6782845260437465e+01 0 0 0
558 2 6.1524999999999999e+00 6.3938655561404980e+00 2.6782845260437465e+01 0 0 0
559 2 7.3830000000000009e+00 7.1042950623783341e+00 2.6782845260437465e+01 0 0 0
560 2 7.3829999999999991e+00 4.2625770374269996e+00 2.6782845260437465e+01 0 0 0
561 2 8.6135000000000002e+00 4.9730065436648339e+00 2.6782845260437465e+01 0 0 0
581 2 8.6135000000000002e+00 6.3938655561404980e+00 2.6782845260437465e+01 0 0 0
582 2 9.8440000000000012e+00 7.1042950623783341e+00 2.6782845260437465e+01 0 0 0
583 2 9.8440000000000012e+00 4.2625770374270004e+00 2.6782845260437465e+01 0 0 0
584 2 1.1074500000000002e+01 4.9730065436648339e+00 2.6782845260437465e+01 0 0 0
605 2 1.1074500000000002e+01 6.3938655561404980e+00 2.6782845260437465e+01 0 0 0
1499 2 7.3829999999999991e+00 1.2787731112280996e+01 3.3279154739565399e+01 0 0 0
521 2 0.0000000000000000e+00 1.1366872099805333e+01 2.6782845260437465e+01 0 0 0
522 2 0.0000000000000000e+00 8.5251540748539991e+00 2.6782845260437465e+01 0 0 0
523 2 1.2305000000000001e+00 9.2355835810918343e+00 2.6782845260437465e+01 0 0 0
535 2 1.2305000000000001e+00 1.0656442593567498e+01 2.6782845260437465e+01 0 0 0
536 2 2.4610000000000003e+00 1.1366872099805333e+01 2.6782845260437465e+01 0 0 0
537 2 2.4610000000000003e+00 8.5251540748539991e+00 2.6782845260437465e+01 0 0 0
538 2 3.6915000000000004e+00 9.2355835810918343e+00 2.6782845260437465e+01 0 0 0
554 2 3.6914999999999996e+00 1.0656442593567499e+01 2.6782845260437465e+01 0 0 0
555 2 4.9220000000000006e+00 1.1366872099805333e+01 2.6782845260437465e+01 0 0 0
556 2 4.9220000000000006e+00 8.5251540748539991e+00 2.6782845260437465e+01 0 0 0
557 2 6.1524999999999999e+00 9.2355835810918343e+00 2.6782845260437465e+01 0 0 0
577 2 6.1524999999999999e+00 1.0656442593567499e+01 2.6782845260437465e+01 0 0 0
578 2 7.3829999999999991e+00 1.1366872099805333e+01 2.6782845260437465e+01 0 0 0
579 2 7.3830000000000009e+00 8.5251540748539991e+00 2.6782845260437465e+01 0 0 0
580 2 8.6134999999999984e+00 9.2355835810918343e+00 2.6782845260437465e+01 0 0 0
601 2 8.6134999999999984e+00 1.0656442593567498e+01 2.6782845260437465e+01 0 0 0
602 2 9.8440000000000012e+00 1.1366872099805333e+01 2.6782845260437465e+01 0 0 0
603 2 9.8440000000000012e+00 8.5251540748539956e+00 2.6782845260437465e+01 0 0 0
604 2 1.1074500000000002e+01 9.2355835810918343e+00 2.6782845260437465e+01 0 0 0
625 2 1.1074500000000002e+01 1.0656442593567498e+01 2.6782845260437465e+01 0 0 0
626 2 1.2304999999999998e+01 1.1366872099805333e+01 2.6782845260437465e+01 0 0 0
3378 1 1.1272632198459709e+01 1.2729945917033199e+01 3.5869104030900004e+01 3 0 0
532 2 0.0000000000000000e+00 1.5629449137232333e+01 2.6782845260437465e+01 0 0 0
533 2 0.0000000000000000e+00 1.2787731112280996e+01 2.6782845260437465e+01 0 0 0
534 2 1.2305000000000001e+00 1.3498160618518829e+01 2.6782845260437465e+01 0 0 0
550 2 1.2305000000000001e+00 1.4919019630994494e+01 2.6782845260437465e+01 0 0 0
551 2 2.4610000000000003e+00 1.5629449137232328e+01 2.6782845260437465e+01 0 0 0
552 2 2.4610000000000003e+00 1.2787731112280996e+01 2.6782845260437465e+01 0 0 0
553 2 3.6915000000000004e+00 1.3498160618518829e+01 2.6782845260437465e+01 0 0 0
573 2 3.6915000000000004e+00 1.4919019630994494e+01 2.6782845260437465e+01 0 0 0
574 2 4.9220000000000006e+00 1.5629449137232333e+01 2.6782845260437465e+01 0 0 0
575 2 4.9220000000000006e+00 1.2787731112280996e+01 2.6782845260437465e+01 0 0 0
576 2 6.1524999999999990e+00 1.3498160618518829e+01 2.6782845260437465e+01 0 0 0
597 2 6.1524999999999990e+00 1.4919019630994494e+01 2.6782845260437465e+01 0 0 0
598 2 7.3829999999999991e+00 1.5629449137232333e+01 2.6782845260437465e+01 0 0 0
599 2 7.3829999999999991e+00 1.2787731112280996e+01 2.6782845260437465e+01 0 0 0
600 2 8.6135000000000002e+00 1.3498160618518835e+01 2.6782845260437465e+01 0 0 0
621 2 8.6135000000000002e+00 1.4919019630994494e+01 2.6782845260437465e+01 0 0 0
622 2 9.8440000000000012e+00 1.5629449137232328e+01 2.6782845260437465e+01 0 0 0
623 2 9.8440000000000012e+00 1.2787731112280996e+01 2.6782845260437465e+01 0 0 0
624 2 1.1074500000000002e+01 1.3498160618518829e+01 2.6782845260437465e+01 0 0 0
642 2 1.1074500000000002e+01 1.4919019630994494e+01 2.6782845260437465e+01 0 0 0
1250 2 0.0000000000000000e+00 1.4208590124756650e+00 3.0030999999995078e+01 0 0 0
1251 2 0.0000000000000000e+00 0.0000000000000000e+00 3.0030999999995078e+01 0 0 0
1254 2 1.2305000000000001e+00 3.5521475311891644e+00 3.0030999999995078e+01 0 0 0
1255 2 1.2305000000000001e+00 2.1312885187134998e+00 3.0030999999995078e+01 0 0 0
1256 2 2.4610000000000003e+00 1.4208590124756650e+00 3.0030999999995078e+01 0 0 0
1257 2 2.4610000000000003e+00 0.0000000000000000e+00 3.0030999999995078e+01 0 0 0
1264 2 3.6914999999999996e+00 3.5521475311891644e+00 3.0030999999995078e+01 0 0 0
1265 2 3.6914999999999996e+00 2.1312885187134998e+00 3.0030999999995078e+01 0 0 0
1266 2 4.9220000000000006e+00 1.4208590124756650e+00 3.0030999999995078e+01 0 0 0
1267 2 4.9220000000000006e+00 0.0000000000000000e+00 3.0030999999995078e+01 0 0 0
1278 2 6.1524999999999999e+00 3.5521475311891644e+00 3.0030999999995078e+01 0 0 0
1279 2 6.1524999999999999e+00 2.1312885187134989e+00 3.0030999999995078e+01 0 0 0
1280 2 7.3829999999999991e+00 1.4208590124756659e+00 3.0030999999995078e+01 0 0 0
1281 2 7.3829999999999991e+00 0.0000000000000000e+00 3.0030999999995078e+01 0 0 0
1296 2 8.6134999999999984e+00 3.5521475311891657e+00 3.0030999999995078e+01 0 0 0
1297 2 8.6134999999999984e+00 2.1312885187135002e+00 3.0030999999995078e+01 0 0 0
1298 2 9.8440000000000012e+00 1.4208590124756659e+00 3.0030999999995078e+01 0 0 0
1299 2 9.8440000000000012e+00 0.0000000000000000e+00 3.0030999999995078e+01 0 0 0
1318 2 1.1074500000000002e+01 3.5521475311891644e+00 3.0030999999995078e+01 0 0 0
1319 2 1.1074500000000002e+01 2.1312885187135002e+00 3.0030999999995078e+01 0 0 0
1252 2 0.0000000000000000e+00 5.6834360499026637e+00 3.0030999999995078e+01 0 0 0
1253 2 0.0000000000000000e+00 4.2625770374269996e+00 3.0030999999995078e+01 0 0 0
1260 2 1.2305000000000001e+00 7.8147245686161639e+00 3.0030999999995078e+01 0 0 0
1261 2 1.2305000000000001e+00 6.3938655561404980e+00 3.0030999999995078e+01 0 0 0
1262 2 2.4610000000000003e+00 5.6834360499026637e+00 3.0030999999995078e+01 0 0 0
1263 2 2.4610000000000003e+00 4.2625770374269996e+00 3.0030999999995078e+01 0 0 0
1274 2 3.6914999999999996e+00 7.8147245686161639e+00 3.0030999999995078e+01 0 0 0
1275 2 3.6914999999999996e+00 6.3938655561404980e+00 3.0030999999995078e+01 0 0 0
1276 2 4.9220000000000006e+00 5.6834360499026637e+00 3.0030999999995078e+01 0 0 0
1277 2 4.9220000000000006e+00 4.2625770374269978e+00 3.0030999999995078e+01 0 0 0
1292 2 6.1524999999999999e+00 7.8147245686161639e+00 3.0030999999995078e+01 0 0 0
1293 2 6.1524999999999999e+00 6.3938655561404980e+00 3.0030999999995078e+01 0 0 0
1294 2 7.3829999999999991e+00 5.6834360499026637e+00 3.0030999999995078e+01 0 0 0
1295 2 7.3829999999999991e+00 4.2625770374269996e+00 3.0030999999995078e+01 0 0 0
1314 2 8.6135000000000002e+00 7.8147245686161639e+00 3.0030999999995078e+01 0 0 0
1315 2 8.6135000000000002e+00 6.3938655561404980e+00 3.0030999999995078e+01 0 0 0
1316 2 9.8440000000000012e+00 5.6834360499026637e+00 3.0030999999995078e+01 0 0 0
1317 2 9.8440000000000012e+00 4.2625770374270004e+00 3.0030999999995078e+01 0 0 0
1337 2 1.1074500000000002e+01 7.8147245686161639e+00 3.0030999999995078e+01 0 0 0
1338 2 1.1074500000000002e+01 6.3938655561404980e+00 3.0030999999995078e+01 0 0 0
1258 2 0.0000000000000000e+00 9.9460130873296642e+00 3.0030999999995078e+01 0 0 0
1259 2 0.0000000000000000e+00 8.5251540748539991e+00 3.0030999999995078e+01 0 0 0
1270 2 1.2305000000000001e+00 1.2077301606043163e+01 3.0030999999995078e+01 0 0 0
1271 2 1.2305000000000001e+00 1.0656442593567498e+01 3.0030999999995078e+01 0 0 0
1272 2 2.4610000000000003e+00 9.9460130873296642e+00 3.0030999999995078e+01 0 0 0
1273 2 2.4610000000000003e+00 8.5251540748539991e+00 3.0030999999995078e+01 0 0 0
1288 2 3.6914999999999996e+00 1.2077301606043163e+01 3.0030999999995078e+01 0 0 0
1289 2 3.6914999999999996e+00 1.0656442593567499e+01 3.0030999999995078e+01 0 0 0
1290 2 4.9220000000000006e+00 9.9460130873296642e+00 3.0030999999995078e+01 0 0 0
1291 2 4.9220000000000006e+00 8.5251540748539991e+00 3.0030999999995078e+01 0 0 0
1310 2 6.1524999999999999e+00 1.2077301606043163e+01 3.0030999999995078e+01 0 0 0
1311 2 6.1524999999999999e+00 1.0656442593567499e+01 3.0030999999995078e+01 0 0 0
1312 2 7.3830000000000009e+00 9.9460130873296642e+00 3.0030999999995078e+01 0 0 0
1313 2 7.3830000000000009e+00 8.5251540748539991e+00 3.0030999999995078e+01 0 0 0
1333 2 8.6135000000000002e+00 1.2077301606043163e+01 3.0030999999995078e+01 0 0 0
1334 2 8.6134999999999984e+00 1.0656442593567498e+01 3.0030999999995078e+01 0 0 0
1335 2 9.8440000000000012e+00 9.9460130873296642e+00 3.0030999999995078e+01 0 0 0
1336 2 9.8440000000000012e+00 8.5251540748539956e+00 3.0030999999995078e+01 0 0 0
1356 2 1.1074500000000002e+01 1.2077301606043163e+01 3.0030999999995078e+01 0 0 0
1357 2 1.1074500000000002e+01 1.0656442593567498e+01 3.0030999999995078e+01 0 0 0
1268 2 0.0000000000000000e+00 1.4208590124756663e+01 3.0030999999995078e+01 0 0 0
1269 2 0.0000000000000000e+00 1.2787731112280996e+01 3.0030999999995078e+01 0 0 0
1285 2 1.2305000000000001e+00 1.4919019630994494e+01 3.0030999999995078e+01 0 0 0
1286 2 2.4610000000000003e+00 1.4208590124756663e+01 3.0030999999995078e+01 0 0 0
1287 2 2.4610000000000003e+00 1.2787731112280996e+01 3.0030999999995078e+01 0 0 0
1307 2 3.6915000000000004e+00 1.4919019630994494e+01 3.0030999999995078e+01 0 0 0
1308 2 4.9220000000000006e+00 1.4208590124756663e+01 3.0030999999995078e+01 0 0 0
1309 2 4.9220000000000006e+00 1.2787731112280996e+01 3.0030999999995078e+01 0 0 0
1330 2 6.1524999999999990e+00 1.4919019630994494e+01 3.0030999999995078e+01 0 0 0
1331 2 7.3830000000000009e+00 1.4208590124756663e+01 3.0030999999995078e+01 0 0 0
1332 2 7.3829999999999991e+00 1.2787731112280996e+01 3.0030999999995078e+01 0 0 0
1375 2 1.2304999999999998e+01 1.4208590124756658e+01 3.0030999999995078e+01 0 0 0
1353 2 8.6135000000000002e+00 1.4919019630994494e+01 3.0030999999995078e+01 0 0 0
1354 2 9.8440000000000012e+00 1.4208590124756663e+01 3.0030999999995078e+01 0 0 0
1355 2 9.8440000000000012e+00 1.2787731112280996e+01 3.0030999999995078e+01 0 0 0
1374 2 1.1074500000000002e+01 1.4919019630994494e+01 3.0030999999995078e+01 0 0 0
1373 2 1.1074500000000002e+01 1.6339878643470161e+01 3.0030999999995078e+01 0 0 0
1411 2 0.0000000000000000e+00 2.8417180249513345e+00 3.3279154739565399e+01 0 0 0
1412 2 0.0000000000000000e+00 0.0000000000000000e+00 3.3279154739565399e+01 0 0 0
1413 2 1.2305000000000001e+00 7.1042950623783474e-01 3.3279154739565399e+01 0 0 0
1417 2 1.2305000000000001e+00 2.1312885187134998e+00 3.3279154739565399e+01 0 0 0
1418 2 2.4610000000000003e+00 2.8417180249513345e+00 3.3279154739565399e+01 0 0 0
1419 2 2.4610000000000003e+00 0.0000000000000000e+00 3.3279154739565399e+01 0 0 0
1420 2 3.6915000000000004e+00 7.1042950623783474e-01 3.3279154739565399e+01 0 0 0
1428 2 3.6914999999999996e+00 2.1312885187134998e+00 3.3279154739565399e+01 0 0 0
1523 2 9.8440000000000012e+00 1.2787731112280996e+01 3.3279154739565399e+01 0 0 0
1429 2 4.9220000000000006e+00 2.8417180249513332e+00 3.3279154739565399e+01 0 0 0
1430 2 4.9220000000000006e+00 0.0000000000000000e+00 3.3279154739565399e+01 0 0 0
1431 2 6.1524999999999999e+00 7.1042950623783407e-01 3.3279154739565399e+01 0 0 0
1443 2 6.1524999999999999e+00 2.1312885187134989e+00 3.3279154739565399e+01 0 0 0
1444 2 7.3829999999999991e+00 2.8417180249513345e+00 3.3279154739565399e+01 0 0 0
1445 2 7.3829999999999991e+00 0.0000000000000000e+00 3.3279154739565399e+01 0 0 0
1524 2 1.1074500000000002e+01 1.3498160618518829e+01 3.3279154739565399e+01 0 0 0
1446 2 8.6134999999999984e+00 7.1042950623783407e-01 3.3279154739565399e+01 0 0 0
1462 2 8.6134999999999984e+00 2.1312885187135002e+00 3.3279154739565399e+01 0 0 0
1463 2 9.8440000000000012e+00 2.8417180249513332e+00 3.3279154739565399e+01 0 0 0
1464 2 9.8440000000000012e+00 0.0000000000000000e+00 3.3279154739565399e+01 0 0 0
1465 2 1.1074500000000002e+01 7.1042950623783330e-01 3.3279154739565399e+01 0 0 0
1485 2 1.1074500000000002e+01 2.1312885187135002e+00 3.3279154739565399e+01 0 0 0
1414 2 0.0000000000000000e+00 7.1042950623783341e+00 3.3279154739565399e+01 0 0 0
1415 2 0.0000000000000000e+00 4.2625770374269996e+00 3.3279154739565399e+01 0 0 0
1416 2 1.2305000000000001e+00 4.9730065436648339e+00 3.3279154739565399e+01 0 0 0
1424 2 1.2305000000000001e+00 6.3938655561404980e+00 3.3279154739565399e+01 0 0 0
1425 2 2.4610000000000003e+00 7.1042950623783341e+00 3.3279154739565399e+01 0 0 0
1426 2 2.4610000000000003e+00 4.2625770374269996e+00 3.3279154739565399e+01 0 0 0
1427 2 3.6914999999999996e+00 4.9730065436648339e+00 3.3279154739565399e+01 0 0 0
1439 2 3.6914999999999996e+00 6.3938655561404980e+00 3.3279154739565399e+01 0 0 0
1542 2 1.1074500000000002e+01 1.4919019630994494e+01 3.3279154739565399e+01 0 0 0
1440 2 4.9220000000000006e+00 7.1042950623783341e+00 3.3279154739565399e+01 0 0 0
1441 2 4.9220000000000006e+00 4.2625770374269978e+00 3.3279154739565399e+01 0 0 0
1442 2 6.1524999999999999e+00 4.9730065436648339e+00 3.3279154739565399e+01 0 0 0
1458 2 6.1524999999999999e+00 6.3938655561404980e+00 3.3279154739565399e+01 0 0 0
1459 2 7.3830000000000009e+00 7.1042950623783341e+00 3.3279154739565399e+01 0 0 0