LAMMPS data file via write_data, version 16 Mar 2018, timestep = 100000

6736 atoms
2 atom types

3.1716130081964877e-01 4.8902838699179483e+01 xlo xhi
3.1587020514902164e-01 4.8703765725261228e+01 ylo yhi
3.4767146687679684e-01 5.9714328533124316e+01 zlo zhi

Masses

1 18.015
2 12.01

Atoms # atomic

6286 1 2.7276151830475217e+00 2.3857436728584403e+01 3.1491783695209530e+00 0 -2 1
156 1 4.2501043079282024e+00 9.9990185582112154e+00 1.9114560854472504e+00 1 0 0
2119 1 4.1947403637890499e+00 2.0017521730994069e+01 1.1959905732564636e+01 2 0 0
823 1 5.8681414830115113e+00 2.5992028374540093e+00 4.8632101794154652e+00 2 1 1
1117 1 9.4107948834964059e+00 8.2979786729893712e-01 2.4107586695958232e+00 -1 0 1
3383 1 8.2118549163217625e-01 1.3191085688524196e+00 3.4332390579064724e+00 1 2 0
5368 1 5.1428888157892905e+00 4.1245109355613669e+00 1.6497716119947594e+00 0 0 0
5409 1 6.3210814659964756e+00 8.5894094950422861e+00 3.3290559937323994e+00 2 0 0
6203 1 7.6866649713159054e+00 4.9412343462695718e+00 4.9800985333073813e+00 2 0 1
5801 1 5.9719040447352656e+00 1.8133145319383850e+01 6.9982560219887036e-01 0 1 1
4151 1 1.0506378008268911e+00 2.1981786447020038e+01 1.0927648148436694e+01 1 0 1
368 1 9.3134169318623776e+00 4.6211646285013410e+00 1.3668582567640128e+00 0 1 0
5382 1 4.5144724110543439e+00 7.7340667121893789e+00 5.0414891845500938e+00 1 1 0
6295 1 3.9329846753970172e+00 9.3779167866665993e+00 7.4120232736255165e+00 0 1 0
2867 1 8.2651570326787578e+00 1.0096046028271694e+01 1.8080006444762944e+00 0 1 1
1211 1 3.4331087803688320e+00 3.0611687126496121e+00 3.6970030191644008e+00 0 1 1
5918 1 1.1454133855217810e+01 1.1583974542234685e+01 3.0301041147691476e+00 1 0 0
4267 1 9.8155622282798234e+00 1.2490416393808639e+01 1.1779532298172342e+00 1 1 1
5155 1 2.2048213884870984e+00 1.0749608476816812e+01 5.7027881655532413e+00 1 2 0
4581 1 7.3816131466663562e+00 1.2764794252828210e+01 2.9454800873584492e+00 1 1 1
5314 1 2.2934781641391790e+00 5.5454716161826685e+00 3.9575356586330188e+00 1 0 1
3481 1 3.7392064813776100e+00 1.2049277514382711e+01 3.7256473041163063e+00 0 -1 0
4453 1 9.3460766695435531e+00 1.5006879337781074e+01 3.6540806823185452e+00 1 0 1
496 1 1.1814058966523072e+01 1.6112173579083770e+01 2.5231874806843808e+00 0 1 0
1105 1 6.0004956045661189e+00 1.6021955211183922e+01 2.6580518576462695e+00 1 -1 0
4437 1 1.1988008525055932e+01 2.0057191536266426e+01 1.1054184197284224e+01 1 0 1
1166 1 2.9582856031528877e+00 1.9801520834486713e+01 1.5976382411640480e+00 1 1 1
311 1 2.4741801238550591e+00 7.3002935307210326e-01 1.2037886478353725e+01 0 1 1
5142 1 6.3582249505878985e-01 1.5583290209672860e+00 9.9423442932726296e+00 2 1 1
3540 1 8.4803950952082818e+00 2.1177553969540742e+01 6.7534043641815025e+00 -1 0 1
822 1 1.0914819919098447e+01 2.8351223226235778e+00 3.0666981842752641e+00 -1 1 1
2866 1 1.1939242214630932e+01 1.8914813428338075e+01 1.9627163610150200e+00 0 0 1
744 1 1.8397224991966605e+00 1.3589267047163176e+01 2.2876002184658839e+00 2 0 0
2090 1 1.6825548509650334e+00 1.7577556708596238e+00 4.3214394861807254e-01 1 1 0
6127 1 8.9248657430704164e+00 1.6695160870021684e+01 1.0711341482165064e+00 -1 1 1
2056 1 3.1321701658685259e+00 1.6163812237125033e+01 2.9929721854922597e+00 -1 0 1
5526 1 4.3817621113467964e-01 8.1930252806191000e+00 7.2756621990571739e+00 1 1 0
308 1 4.4813545854872894e+00 2.1017843273096926e+00 7.0936406298516426e+00 1 1 0
390 1 6.5441527932026951e+00 1.4139019562397040e+01 1.1499564514398195e+01 0 0 0
144 1 1.1629864306663558e+01 3.3802365194812980e+00 5.7231237038277420e+00 0 0 0
4593 1 7.9897581316711426e+00 2.4795533618212211e+00 9.7658903489332651e+00 -1 0 1
2566 1 9.1698007651880413e+00 2.8043601855236595e+00 6.4585255952208289e+00 1 1 1
2852 1 6.0345941897994910e+00 8.5703099830449980e-01 8.6431245887439658e+00 -1 1 1
6100 1 3.8836306465455315e+00 4.7225636606940853e+00 7.7359879990205727e+00 1 1 1
2425 1 1.6775518117611457e+00 5.7398714289448991e+00 6.8269559449977635e+00 0 -1 1
5270 1 6.2173868011039461e+00 6.3262840041204447e+00 6.8280045262848388e+00 0 0 0
76 1 1.0719975558454232e+01 7.1617041029357349e+00 9.4635841410503918e+00 0 2 0
1891 1 1.1332060663443871e+01 7.3793084483219618e+00 6.4332886994018175e+00 1 0 1
2863 1 1.0096332733269575e+01 6.2800713752880464e+00 4.0987018745893185e+00 0 1 0
2906 1 7.9281403374617598e-01 1.7605075094384173e+01 2.1158569364690134e+00 0 1 1
1247 1 3.4840009171856794e+00 1.3150102729049953e+01 6.9260949191428081e+00 1 0 1
1821 1 7.6890390994064139e+00 1.0025150808356234e+01 5.3697553040649364e+00 0 -2 1
5225 1 6.9085190150634537e+00 8.9701425776849284e+00 7.6880958686657150e+00 1 -1 0
193 1 7.2113827591505126e+00 1.4657666969950188e+01 6.8801571122193019e+00 2 -1 0
2649 1 1.0164261668742149e+01 1.0659532114087716e+01 5.7690519721276363e+00 -1 0 0
2565 1 2.2224744215163796e+00 1.5399802237793596e+01 5.9111013364710319e+00 1 0 1
6256 1 5.1011230458546333e+00 1.6801797021668989e+01 5.9667799889999493e+00 1 -1 1
5810 1 6.1050328983046258e+00 1.2628485790977058e+01 5.6607003200457786e+00 1 0 1
2429 1 1.0715791034961343e+01 2.7113554989015718e+00 9.4583646160328581e+00 -1 0 0
3701 1 1.0842286630119284e+01 1.3258640449192477e+01 5.1161074210098976e+00 1 0 0
2558 1 8.8151474964300416e+00 1.8332604210584744e+01 6.7532946065404378e+00 1 0 1
2028 1 1.9150482460547740e+00 2.0209456867188454e+01 5.9790149464753179e+00 -1 0 0
3665 1 2.3922276403747875e+00 5.2479525393735216e-01 5.6952946175455468e+00 0 -1 0
1231 1 4.1389550100037305e+00 1.9141809274168526e+01 4.6281485588659024e+00 0 1 0
799 1 7.6948713209500612e+00 1.6944029072020570e+01 4.9660844938817972e+00 0 1 0
3440 1 6.8622234058099227e+00 6.0115097588184403e+00 2.2520653536409379e+00 -1 -1 0
4584 1 1.0514115549519406e+01 2.0275635447003804e+01 3.7799548484229177e+00 1 0 0
5570 1 1.1587004644608506e+01 1.8501628308536187e+01 6.2448649472193676e+00 1 2 0
5987 1 7.9628013852324813e+00 1.9331800259116477e+01 3.1713321861147006e+00 0 0 1
6124 1 5.1589056917996015e+00 2.2144577512174262e+01 6.9301570967966253e+00 1 0 1
6055 1 2.1500988726445174e+00 2.2705377153579533e+01 7.3142753003120351e+00 1 -1 1
4165 1 5.4434526338506313e+00 2.2772903293604664e+01 3.1142437345678333e+00 1 0 1
5472 1 6.1604029012885526e+00 2.1043230863298298e+01 4.7153370450713714e+00 1 0 0
4391 1 9.2230306886379800e+00 2.2771072800306815e+01 4.3040805684524699e+00 0 0 1
5239 1 5.3136021046438824e+00 2.1682931176888090e+01 8.0986483317353564e-01 1 1 1
4545 1 1.8079637058118885e+00 1.8055675310757103e+01 7.6674624113455518e+00 1 1 1
192 1 8.1864631175940819e+00 2.0011391567997912e+01 1.0843899388068222e+01 0 1 0
6237 1 4.9367618320824391e+00 1.2736381463343904e+00 1.1382893035867367e+01 1 0 0
4366 1 8.8690952841114594e+00 2.3969971959430449e+01 7.5610695169905040e-01 0 0 1
2098 1 7.9945362119245580e+00 2.0565100631451852e+01 4.0493969725359291e-01 2 -1 0
3690 1 1.1840864389063507e+01 1.8040234142473739e+01 9.2900169064511484e+00 0 0 0
2156 1 1.0279259702188078e+01 8.1552788165694157e+00 2.2409344861161093e+00 0 1 0
1003 1 6.5537813458218190e+00 4.8974420628567783e+00 1.0443729409343252e+01 1 0 1
5469 1 5.9669830779838700e+00 1.5374290557344219e+00 1.3272977165543320e+00 0 0 1
4614 1 7.8655882587390522e+00 7.2463156243683455e+00 9.7305394087544563e+00 0 0 1
1954 1 1.0130284896196963e+01 4.8398552748884054e+00 1.1257978501805050e+01 0 -1 0
3844 1 1.1833674813835387e+01 3.4467887470048247e-01 9.4692610631649519e+00 0 2 0
2739 1 2.5712271957270998e+00 8.3330050476628710e+00 9.2676920520708084e+00 0 1 1
5979 1 3.8796150333327208e+00 1.0403136757557089e+01 1.1017374855355822e+01 0 -1 1
5457 1 1.1163949789136296e+01 1.5125547209055892e+01 9.5540896232929580e+00 0 0 0
4459 1 7.6729143788074783e+00 9.4513391465330816e+00 1.2080495159492260e+01 0 1 1
1808 1 5.8535596625368536e+00 1.1505891649719262e+01 9.0356199492863922e+00 1 -1 0
3471 1 1.0420072235422072e+01 9.8193983435558039e+00 8.3201174791343782e+00 -1 -1 0
5334 1 1.0076546853102705e+01 2.1635010862412141e+01 1.0600191214981511e+01 1 0 0
3613 1 3.0709811656956458e+00 2.4475449336844886e+01 9.4778004696636771e+00 1 -1 0
6271 1 2.0826090034773248e+00 1.3105514214799689e+01 9.5940593530849352e+00 -1 0 1
3739 1 1.2323805564776970e+01 4.9087862843113834e+00 8.1333333580953120e+00 1 2 0
6293 1 3.0982289450531342e+00 1.6066143725544720e+01 9.4765355920982799e+00 1 0 1
248 1 5.5012177827704845e+00 1.4553033686923497e+01 9.1589205052209195e+00 1 0 0
2796 1 2.5242982690304649e+00 7.8580855347379162e+00 2.2480562063168241e+00 0 -1 1
2033 1 8.4305581275226533e+00 1.1667287557844650e+01 9.5514663386288934e+00 1 0 0
5216 1 1.2277896873190025e+01 2.1333840720159074e+01 7.1030787058021270e+00 0 -1 0
1776 1 3.3455578046318522e+00 2.0422242418959915e+01 9.0804549076100685e+00 2 0 0
6033 1 4.1113148782466098e+00 2.2981971710791683e+01 1.1648209211192137e+01 0 1 1
4587 1 5.2507269708613826e+00 1.8041443404567829e+01 8.7079844437936220e+00 0 -1 1
5841 1 7.8778623431936712e+00 1.7933521600792737e+01 9.3774629818092183e+00 0 1 0
4442 1 9.5120993807351137e+00 1.3708117153151205e+01 7.9170823977455598e+00 1 1 1
840 1 3.3959618213362370e+00 5.9711445431767229e+00 1.0192828797042621e+01 0 1 0
1919 1 8.6315381855994886e+00 1.5872275833232408e+01 1.0918803791677549e+01 3 1 0
5512 1 6.4334409624542461e+00 2.1901096147218844e+01 9.3430667698308305e+00 1 -1 0
4503 1 4.3367920957656436e-01 4.4409952620347939e+00 8.9127873759992653e+00 2 0 1
6171 1 1.0682388302191240e+01 1.2767558383772313e+01 1.1979024791498182e+01 1 -1 1
5372 1 1.0190170648080713e+01 2.2415860214381940e+01 8.0178464250528343e+00 1 0 0
3751 1 1.1764971370768679e+01 8.4541705490444290e+00 1.1533233379469516e+01 1 -1 0
5528 1 7.0740473635041505e+00 2.4162471090304237e+01 1.0011644195238262e+01 1 -1 0
4599 1 2.7476839244747437e+00 1.7514246536684475e+01 1.1831705875396304e+01 0 0 0
278 1 1.3668768409201988e+00 1.1136604269664005e+01 6.1734925528712825e-01 -1 0 0
3382 1 6.9103079346482366e-01 1.1239719061486561e+01 8.5009791954746241e+00 2 0 0
1947 1 1.2360768396085550e+01 2.9844089960596354e+00 6.7975685460689261e-01 1 0 0
1718 1 1.2440090206279832e+01 2.3280960950503445e+01 5.3276758985038244e+00 0 0 0
141 1 9.0001905367383361e-01 2.4362350622074171e+01 1.1641991992706984e+00 0 0 0
4177 1 1.2123815415208536e+01 1.6774122978811605e+00 1.2138446853904364e+01 0 1 1
1001 1 5.9383575157298152e+00 1.4034050312994067e+01 6.2717693537117059e-01 0 1 1
5342 1 1.0494504362006202e+01 2.1439435045003297e+01 4.2989972178498009e-01 -1 0 0
5479 1 6.9772851101907349e+00 3.3001743442920883e-01 3.9633470846540231e+00 1 0 0
158 1 3.3604543475265709e+00 2.3213466844041744e+01 1.5919922888006548e+01 0 0 0
897 1 1.0710241716985081e+00 2.1851861429852313e+01 2.3492211462121993e+01 0 -1 1
5499 1 5.3360910365444560e+00 3.8393387922419713e+00 1.2979055388866898e+01 -1 1 0
6114 1 1.9975335829891521e+00 1.0852358831141409e+00 1.4529078104447471e+01 0 1 1
6113 1 1.0866469277147637e+01 8.4340784213672249e-01 1.4664837601297926e+01 1 2 1
3773 1 2.6990338436685550e+00 1.2363566693946888e+01 1.2326908566886658e+01 1 -2 0
3604 1 3.4167453871743807e+00 5.4626223261448859e+00 1.3101648031594456e+01 0 1 1
1712 1 4.7267961511093928e+00 1.0394801427899267e+01 1.8053196759913995e+01 0 2 1
1912 1 7.1805081331031539e+00 7.0190410403877808e+00 1.6797431673197543e+01 0 1 0
114 1 4.8560823399312998e+00 6.9296799341740556e+00 1.5269405014428495e+01 1 -1 0
1745 1 1.1373608182246672e+01 5.3578726875652283e+00 1.5172253018066733e+01 1 2 1
978 1 8.3202543948112275e+00 6.0642581182218986e+00 1.4659880582196042e+01 0 1 1
174 1 5.2032734588974643e+00 9.2439307961921262e+00 1.3488512708928628e+01 3 0 0
3648 1 5.4675510699474357e+00 1.1496185535250191e+01 1.5195983812709894e+01 1 0 0
1053 1 7.4943650963543984e+00 9.6612619233264514e+00 1.6844046801304874e+01 -1 1 1
2889 1 9.8143428307713982e+00 9.5093035680124682e+00 1.5146183502086963e+01 1 1 1
1812 1 9.5216550816787144e+00 7.7392157857030242e+00 1.3029586679509647e+01 -1 0 0
5288 1 3.6710311080920928e+00 1.6685272810619942e+01 1.4239584011336584e+01 0 0 0
5100 1 1.0728547219441792e+01 1.9057370612337465e+01 1.3153754477553674e+01 -1 0 1
6148 1 7.6617677522403707e+00 1.7059686264778769e+01 1.4853670140176463e+01 0 -1 1
138 1 9.5093674170827480e+00 1.7859110564003888e+01 1.6854319062336948e+01 0 0 1
875 1 4.4484714884685088e+00 1.4211246676892852e+01 1.3488812648924030e+01 -1 1 1
4208 1 3.0638147684196460e+00 1.9608920550620408e+00 1.6885500714398447e+01 1 -1 1
5389 1 6.4121871016541068e+00 4.4594146383143507e-01 1.4137613782984271e+01 1 1 0
1804 1 1.0127637983497955e+01 1.1919899021208995e+01 1.4658651441853475e+01 1 0 0
4431 1 1.1749119753256819e+01 1.4969846742937719e+01 1.3286931493233190e+01 1 0 1
3845 1 1.5595218491199225e+00 2.0292184499149510e+01 1.3266796867743798e+01 0 0 0
3401 1 9.3930769211720282e+00 1.6592788746075673e+01 1.3239130203754641e+01 1 0 0
5503 1 1.0944839898580780e+00 3.7435816065582221e+00 1.2490174461607474e+01 2 1 0
3608 1 6.5602480338186604e+00 1.9905450765200161e+01 1.3185998817167906e+01 0 -1 0
219 1 3.5919437252107707e+00 5.7475220344327171e+00 2.3984463152333216e+01 1 1 0
17 1 7.9318892412693200e+00 1.2122225381244265e+01 1.2786416883324822e+01 -1 -1 0
1749 1 6.2914730041733105e+00 2.2588591353982093e+01 1.4476568021524566e+01 0 2 1
5477 1 7.5691629354499512e-01 1.7814751891523812e+01 1.8880587536988607e+01 -1 1 0
5558 1 1.0090188075074206e+01 1.8046420638088733e+01 2.2962603188521243e+01 0 0 0
3786 1 1.1797678493864026e+01 2.3019114815920915e+01 1.5653118779682567e+01 -1 0 0
5301 1 9.4727871201482241e+00 2.0704159863854944e+01 1.4350040331458493e+01 2 -1 0
161 1 8.9457052968827604e+00 1.4740194909608961e+00 1.2631170640901059e+01 0 0 0
5992 1 3.5908853451038261e+00 4.9714306834239075e+00 1.7211688922997016e+01 1 0 1
6160 1 7.4093900271259283e-01 6.3087928723279108e+00 1.4699105847422709e+01 1 0 1
1067 1 2.8536555081091017e+00 1.2183191741283251e+01 1.6042759394844410e+01 0 1 1
5344 1 6.1805880465468501e+00 4.8669389906373954e+00 2.3114784930670300e+01 1 1 0
345 1 1.0559003394247590e+01 3.0981030843320156e+00 1.6811393695161563e+01 0 0 0
3446 1 7.9405867970243778e+00 3.0383096712779043e+00 1.7867604757257581e+01 0 1 1
5330 1 2.3692903597940971e+00 7.2454886799626905e+00 1.9292517519771117e+01 0 0 0
1880 1 1.6504408425371422e+00 1.7091789635118900e+01 1.6361525703928116e+01 -1 0 1
277 1 3.4536412774890533e+00 8.5563131235727869e+00 1.6875352760788669e+01 0 0 0
1109 1 8.4748573681022652e+00 1.0411108372883460e+01 1.9494403912708790e+01 1 2 1
3688 1 5.8993228268008373e+00 3.1180605505660144e+00 1.5715918457000809e+01 1 0 1
3756 1 1.0738581906006878e+01 4.7176908807862645e+00 1.9264417068440409e+01 0 1 0
5252 1 8.2051809302457315e+00 3.8436333713731319e+00 1.3284760512789287e+01 1 -1 0
6288 1 1.9783233758505610e+00 1.3433082203738838e+01 2.0380406284946730e+01 0 1 0
4190 1 1.0307971295047516e+01 8.7929515861202230e+00 2.0249130500179326e+01 0 0 1
2871 1 9.0542528934966011e+00 1.2922380461387197e+01 1.8907449754592879e+01 0 2 1
206 1 1.1435568776854071e+01 9.2124066863309650e+00 1.7578441034421182e+01 1 0 0
3400 1 9.3267259836149563e+00 1.3856236963683854e+01 1.6545211526587359e+01 1 1 0
967 1 5.3092271693297430e+00 1.8314905890322517e+01 1.5120690836752642e+01 1 0 1
3710 1 6.9941178466632055e+00 1.4469471677755276e+01 1.5243988077652457e+01 0 2 0
1801 1 5.9659293230665638e+00 1.5170559879094922e+01 1.7949492731607751e+01 1 1 0
3476 1 5.0774841284677192e+00 1.7834972136366972e+01 1.9238470005336037e+01 1 0 0
1213 1 9.2948934122834004e+00 1.7032534136524127e+01 1.9774493430586450e+01 1 1 1
2608 1 1.1370481675913016e+01 1.5668164003318790e+01 1.6124402213367969e+01 -2 -1 1
270 1 6.4089712808635486e+00 9.5341099797400410e+00 2.3572494401568118e+01 1 0 0
3635 1 6.9019291962878626e-01 2.1551420389651270e+01 2.0606245231139173e+01 0 0 0
299 1 6.0970268407781845e+00 2.2580661239592889e+01 1.7327435740887616e+01 2 0 0
1797 1 5.0187485208966320e+00 1.9941527450402539e+01 1.7450487296474432e+01 0 1 1
4594 1 6.8759494697271801e+00 2.3687193757720305e+01 2.3165067612243064e+01 0 0 0
49 1 7.0705055918133897e-01 1.3999078147470188e+01 2.3885064568938784e+01 1 1 1
5497 1 2.0338364878366448e+00 2.3875167177042545e+01 1.8255827541405743e+01 0 -1 0
785 1 1.0107561644306518e+01 6.5486201630537559e+00 2.3247923995497491e+01 0 2 0
371 1 2.5919166491981049e+00 2.0449183202802161e+01 1.6336433713249892e+01 1 0 0
5444 1 4.6988336224246048e+00 2.3594920968822123e+01 1.9590617166860994e+01 1 0 0
2083 1 8.5728429030800992e+00 2.0708895455441038e+01 1.6927887479091531e+01 1 0 0
5520 1 7.6407195559548180e+00 2.3513595194576894e+01 2.0639815644892138e+01 1 0 0
6016 1 4.6076269381714132e+00 1.0434816170082848e+00 2.0597239926176922e+01 1 0 1
1149 1 1.1762233164569581e+01 8.9490265740589674e+00 2.2985556777717399e+01 0 2 1
2540 1 4.3006838260141427e+00 1.3105637674296531e+01 1.8979959929177490e+01 1 2 1
1957 1 7.6519437399309327e+00 3.0158998811486346e+00 2.0907993372697476e+01 0 1 0
1072 1 1.0546474073606447e+01 3.2562329881201140e+00 2.1383954988707693e+01 1 1 1
2667 1 1.2269770326305132e+01 1.8638573182350356e+01 1.7367119228548258e+01 -1 0 1
297 1 1.1952868819286657e+01 2.0970139603297653e+01 2.3714239306433107e+01 0 1 0
5077 1 1.8503668076528679e+00 1.5682473664578199e+01 2.1725853691098887e+01 0 0 0
4601 1 4.9101720477449423e-01 1.0816590823739640e+01 1.2898505658033702e+01 1 0 1
1828 1 2.4890622886612825e+00 4.8974393573566815e+00 2.1138710451416760e+01 -1 -2 0
1944 1 4.5302120909010046e+00 3.6489930803202295e+00 1.9638905560324211e+01 -1 1 0
1751 1 6.8956809761884106e+00 5.8876678555753967e+00 1.9476253110065912e+01 -1 1 0
440 1 8.9811439039852896e+00 6.5878950600467574e+00 2.0629737120881380e+01 0 0 0
1981 1 9.4443278145094656e+00 2.2995380784866498e+01 1.2776554799331702e+01 0 2 0
2011 1 1.1635884321718068e+01 2.1031549304801853e+01 1.7535971473758455e+01 0 0 0
4342 1 5.7286157040347359e+00 1.2743018932671529e+01 2.1080154435475730e+01 0 0 1
2020 1 3.3503321488571278e+00 9.2986816629284341e+00 2.0935120334220496e+01 1 2 0
2893 1 1.7514721101845612e+00 1.1192160459968374e+01 2.1674422871234079e+01 1 0 1
226 1 4.4224947239850074e+00 1.5444408640891071e+01 2.3594807497297708e+01 0 -1 1
1023 1 6.2213566141542365e-01 3.6417317353784568e+00 1.6844259473176834e+01 1 1 1
180 1 6.2726934546061646e+00 1.0166298789422623e+01 2.1171346832967117e+01 1 0 0
5390 1 6.8554368419181557e+00 2.0797511719669078e+01 2.3344157569419441e+01 0 0 0
5517 1 1.6135222334594330e+00 9.5483515619517494e+00 1.5735183469721930e+01 1 0 0
973 1 5.0860080069702640e+00 1.2807557267121709e+01 2.3686925010694697e+01 0 0 1
5846 1 1.0936584376273174e+01 2.3666035179209821e+01 2.3400425570420246e+01 1 0 1
5297 1 7.0458171681846604e+00 1.6596398935032468e+01 2.3634898990247965e+01 1 0 0
3649 1 2.8844884711773604e+00 1.8108415371218396e+01 2.0567192999731358e+01 0 0 0
289 1 1.1899239061204301e+00 1.4300246603037658e+01 1.6045124915911401e+01 0 -2 0
6042 1 7.5440043257813567e+00 1.4847495858862418e+01 2.0125305876248667e+01 1 0 1
2781 1 8.5357456502501758e+00 1.4451856737074911e+01 2.3200382694688187e+01 0 0 1
5519 1 1.1274842311333632e+01 1.2952292945506919e+01 2.2767247424222386e+01 1 0 0
2907 1 3.5523621770804210e+00 8.4866296130234229e+00 2.3495636543949193e+01 1 1 1
327 1 2.3529194300773093e+00 2.4150398429911526e+01 2.4083126557025690e+01 1 -1 0
5548 1 1.1572705101497354e+01 4.1650280336265117e+00 2.3957280859778564e+01 0 0 0
280 1 3.4692486705293319e+00 2.1256213536557716e+01 2.1211446634803838e+01 0 0 0
2158 1 7.5775376658998361e+00 1.8471856330776856e+01 2.1148604910768039e+01 0 0 0
5114 1 8.2011769315128653e+00 2.0909590706117587e+01 2.0013383322325833e+01 0 0 0
3827 1 1.1005601825215399e+01 2.0877483759019803e+01 2.0959532144195101e+01 -1 0 0
4137 1 1.1774960510272498e+01 1.8179141457856268e+01 2.0344566597017828e+01 0 0 1
1142 1 3.1659551264768413e+00 1.8341736898765237e+01 2.3585966009621959e+01 -1 0 1
5839 1 1.1605904579695805e+01 1.2863666427319469e+01 1.9834769361602437e+01 1 1 0
506 1 2.9185741800334903e+00 2.6349580547029521e+00 2.3525244334356561e+01 1 1 0
2665 1 7.5055996085272110e+00 7.0286122804269464e+00 2.3635472877803796e+01 2 1 1
354 1 3.8103959316684666e-01 2.0491724072914138e+01 1.8103590120324352e+01 1 -1 0
330 1 4.1323797870303025e-01 6.7531754756370441e+00 2.3282380115641232e+01 -1 0 0
939 1 7.8556683566214556e+00 3.4478576212553946e-01 2.3133055627205177e+01 1 -1 1
2760 1 1.0972197415137883e+01 1.5932406722161270e+01 2.4059498631079570e+01 1 -1 1
511 2 3.1716130081964877e-01 3.1209655976193296e+00 2.6759231815066656e+01 0 0 0
512 2 3.1716130081964877e-01 3.1587020514902164e-01 2.6759231815066656e+01 0 0 0
513 2 1.5318032357786464e+00 1.0171440532665685e+00 2.6759231815066656e+01 0 0 0
517 2 1.5318032357786464e+00 2.4196917495017898e+00 2.6759231815066656e+01 0 0 0
518 2 2.7464451707376440e+00 3.1209655976193296e+00 2.6759231815066656e+01 0 0 0
519 2 2.7464451707376440e+00 3.1587020514902164e-01 2.6759231815066656e+01 0 0 0
520 2 3.9610871056965609e+00 1.0171440532665685e+00 2.6759231815066656e+01 0 0 0
528 2 3.9610871056965609e+00 2.4196917495017898e+00 2.6759231815066656e+01 0 0 0
465 1 5.1471506204195971e-01 1.8919405674056772e+01 2.4220331792143561e+01 0 0 0
529 2 5.1757290406556393e+00 3.1209655976193296e+00 2.6759231815066656e+01 0 0 0
530 2 5.1757290406556393e+00 3.1587020514902164e-01 2.6759231815066656e+01 0 0 0
531 2 6.3903709756146263e+00 1.0171440532665685e+00 2.6759231815066656e+01 0 0 0
543 2 6.3903709756146263e+00 2.4196917495017898e+00 2.6759231815066656e+01 0 0 0
544 2 7.6050129105734730e+00 3.1209655976193296e+00 2.6759231815066656e+01 0 0 0
545 2 7.6050129105734730e+00 3.1587020514902164e-01 2.6759231815066656e+01 0 0 0
2656 1 1.1979929797919212e+01 4.8443625459439865e-01 3.5507715621811272e+01 0 0 -1
375 1 2.3957735125814139e+00 1.3166015167849471e+01 3.5709259894630037e+01 0 0 -1
546 2 8.8196548455326198e+00 1.0171440532665685e+00 2.6759231815066656e+01 0 0 0
562 2 8.8196548455326198e+00 2.4196917495017898e+00 2.6759231815066656e+01 0 0 0
563 2 1.0034296780491630e+01 3.1209655976193296e+00 2.6759231815066656e+01 0 0 0
564 2 1.0034296780491630e+01 3.1587020514902164e-01 2.6759231815066656e+01 0 0 0
565 2 1.1248938715450549e+01 1.0171440532665685e+00 2.6759231815066656e+01 0 0 0
585 2 1.1248938715450549e+01 2.4196917495017898e+00 2.6759231815066656e+01 0 0 0
586 2 1.2463580650409604e+01 3.1209655976193296e+00 2.6759231815066656e+01 0 0 0
587 2 1.2463580650409604e+01 3.1587020514902164e-01 2.6759231815066656e+01 0 0 0
514 2 3.1716130081964877e-01 7.3286086863249098e+00 2.6759231815066656e+01 0 0 0
515 2 3.1716130081964877e-01 4.5235132938545579e+00 2.6759231815066656e+01 0 0 0
516 2 1.5318032357786464e+00 5.2247871419721701e+00 2.6759231815066656e+01 0 0 0
524 2 1.5318032357786464e+00 6.6273348382073651e+00 2.6759231815066656e+01 0 0 0
525 2 2.7464451707376440e+00 7.3286086863249098e+00 2.6759231815066656e+01 0 0 0
526 2 2.7464451707376440e+00 4.5235132938545579e+00 2.6759231815066656e+01 0 0 0
527 2 3.9610871056965609e+00 5.2247871419721701e+00 2.6759231815066656e+01 0 0 0
539 2 3.9610871056965609e+00 6.6273348382073651e+00 2.6759231815066656e+01 0 0 0
540 2 5.1757290406556393e+00 7.3286086863249098e+00 2.6759231815066656e+01 0 0 0
541 2 5.1757290406556393e+00 4.5235132938545579e+00 2.6759231815066656e+01 0 0 0
542 2 6.3903709756146263e+00 5.2247871419721701e+00 2.6759231815066656e+01 0 0 0
558 2 6.3903709756146263e+00 6.6273348382073651e+00 2.6759231815066656e+01 0 0 0
559 2 7.6050129105734730e+00 7.3286086863249098e+00 2.6759231815066656e+01 0 0 0
560 2 7.6050129105734730e+00 4.5235132938545579e+00 2.6759231815066656e+01 0 0 0
561 2 8.8196548455326198e+00 5.2247871419721701e+00 2.6759231815066656e+01 0 0 0
581 2 8.8196548455326198e+00 6.6273348382073651e+00 2.6759231815066656e+01 0 0 0
582 2 1.0034296780491630e+01 7.3286086863249098e+00 2.6759231815066656e+01 0 0 0
583 2 1.0034296780491630e+01 4.5235132938545579e+00 2.6759231815066656e+01 0 0 0
584 2 1.1248938715450549e+01 5.2247871419721701e+00 2.6759231815066656e+01 0 0 0
605 2 1.1248938715450549e+01 6.6273348382073651e+00 2.6759231815066656e+01 0 0 0
606 2 1.2463580650409604e+01 7.3286086863249098e+00 2.6759231815066656e+01 0 0 0
607 2 1.2463580650409604e+01 4.5235132938545579e+00 2.6759231815066656e+01 0 0 0
521 2 3.1716130081964877e-01 1.1536251775030253e+01 2.6759231815066656e+01 0 0 0
522 2 3.1716130081964877e-01 8.7311563825600942e+00 2.6759231815066656e+01 0 0 0
523 2 1.5318032357786464e+00 9.4324302306775198e+00 2.6759231815066656e+01 0 0 0
535 2 1.5318032357786464e+00 1.0834977926912586e+01 2.6759231815066656e+01 0 0 0
536 2 2.7464451707376440e+00 1.1536251775030253e+01 2.6759231815066656e+01 0 0 0
537 2 2.7464451707376440e+00 8.7311563825600942e+00 2.6759231815066656e+01 0 0 0
538 2 3.9610871056965609e+00 9.4324302306775198e+00 2.6759231815066656e+01 0 0 0
554 2 3.9610871056965609e+00 1.0834977926912586e+01 2.6759231815066656e+01 0 0 0
555 2 5.1757290406556393e+00 1.1536251775030253e+01 2.6759231815066656e+01 0 0 0
556 2 5.1757290406556393e+00 8.7311563825600942e+00 2.6759231815066656e+01 0 0 0
557 2 6.3903709756146263e+00 9.4324302306775198e+00 2.6759231815066656e+01 0 0 0
577 2 6.3903709756146263e+00 1.0834977926912586e+01 2.6759231815066656e+01 0 0 0
578 2 7.6050129105734730e+00 1.1536251775030253e+01 2.6759231815066656e+01 0 0 0
579 2 7.6050129105734730e+00 8.7311563825600942e+00 2.6759231815066656e+01 0 0 0
4449 1 1.2358606904574836e+01 1.4987652935800044e+00 2.4487596931110922e+01 1 2 1
2006 1 1.0221198968841557e+01 1.0821246991813046e+01 2.4132825984864017e+01 0 0 0
580 2 8.8196548455326198e+00 9.4324302306775198e+00 2.6759231815066656e+01 0 0 0
601 2 8.8196548455326198e+00 1.0834977926912586e+01 2.6759231815066656e+01 0 0 0
602 2 1.0034296780491630e+01 1.1536251775030253e+01 2.6759231815066656e+01 0 0 0
603 2 1.0034296780491630e+01 8.7311563825600942e+00 2.6759231815066656e+01 0 0 0
604 2 1.1248938715450549e+01 9.4324302306775198e+00 2.6759231815066656e+01 0 0 0
625 2 1.1248938715450549e+01 1.0834977926912586e+01 2.6759231815066656e+01 0 0 0
626 2 1.2463580650409604e+01 1.1536251775030253e+01 2.6759231815066656e+01 0 0 0
627 2 1.2463580650409604e+01 8.7311563825600942e+00 2.6759231815066656e+01 0 0 0
1552 2 1.0034296780491630e+01 2.4159181041147054e+01 3.3302768184933697e+01 0 0 0
532 2 3.1716130081964877e-01 1.5743894863736102e+01 2.6759231815066656e+01 0 0 0
533 2 3.1716130081964877e-01 1.2938799471265709e+01 2.6759231815066656e+01 0 0 0
534 2 1.5318032357786464e+00 1.3640073319382942e+01 2.6759231815066656e+01 0 0 0
550 2 1.5318032357786464e+00 1.5042621015618709e+01 2.6759231815066656e+01 0 0 0
551 2 2.7464451707376440e+00 1.5743894863736102e+01 2.6759231815066656e+01 0 0 0
552 2 2.7464451707376440e+00 1.2938799471265709e+01 2.6759231815066656e+01 0 0 0
553 2 3.9610871056965609e+00 1.3640073319382942e+01 2.6759231815066656e+01 0 0 0
573 2 3.9610871056965609e+00 1.5042621015618709e+01 2.6759231815066656e+01 0 0 0
1551 2 8.8196548455326198e+00 2.3457907193029460e+01 3.3302768184933697e+01 0 0 0
574 2 5.1757290406556393e+00 1.5743894863736102e+01 2.6759231815066656e+01 0 0 0
575 2 5.1757290406556393e+00 1.2938799471265709e+01 2.6759231815066656e+01 0 0 0
576 2 6.3903709756146263e+00 1.3640073319382942e+01 2.6759231815066656e+01 0 0 0
597 2 6.3903709756146263e+00 1.5042621015618709e+01 2.6759231815066656e+01 0 0 0
598 2 7.6050129105734730e+00 1.5743894863736102e+01 2.6759231815066656e+01 0 0 0
599 2 7.6050129105734730e+00 1.2938799471265709e+01 2.6759231815066656e+01 0 0 0
600 2 8.8196548455326198e+00 1.3640073319382942e+01 2.6759231815066656e+01 0 0 0
621 2 8.8196548455326198e+00 1.5042621015618709e+01 2.6759231815066656e+01 0 0 0
622 2 1.0034296780491630e+01 1.5743894863736102e+01 2.6759231815066656e+01 0 0 0
623 2 1.0034296780491630e+01 1.2938799471265709e+01 2.6759231815066656e+01 0 0 0
624 2 1.1248938715450549e+01 1.3640073319382942e+01 2.6759231815066656e+01 0 0 0
642 2 1.1248938715450549e+01 1.5042621015618709e+01 2.6759231815066656e+01 0 0 0
643 2 1.2463580650409604e+01 1.5743894863736102e+01 2.6759231815066656e+01 0 0 0
644 2 1.2463580650409604e+01 1.2938799471265709e+01 2.6759231815066656e+01 0 0 0
547 2 3.1716130081964877e-01 1.9951537952441615e+01 2.6759231815066656e+01 0 0 0
548 2 3.1716130081964877e-01 1.7146442559971167e+01 2.6759231815066656e+01 0 0 0
549 2 1.5318032357786464e+00 1.7847716408088100e+01 2.6759231815066656e+01 0 0 0
569 2 1.5318032357786464e+00 1.9250264104323747e+01 2.6759231815066656e+01 0 0 0
570 2 2.7464451707376440e+00 1.9951537952441615e+01 2.6759231815066656e+01 0 0 0
571 2 2.7464451707376440e+00 1.7146442559971167e+01 2.6759231815066656e+01 0 0 0
572 2 3.9610871056965609e+00 1.7847716408088100e+01 2.6759231815066656e+01 0 0 0
593 2 3.9610871056965609e+00 1.9250264104323747e+01 2.6759231815066656e+01 0 0 0
594 2 5.1757290406556393e+00 1.9951537952441615e+01 2.6759231815066656e+01 0 0 0
595 2 5.1757290406556393e+00 1.7146442559971167e+01 2.6759231815066656e+01 0 0 0
596 2 6.3903709756146263e+00 1.7847716408088100e+01 2.6759231815066656e+01 0 0 0
617 2 6.3903709756146263e+00 1.9250264104323747e+01 2.6759231815066656e+01 0 0 0
618 2 7.6050129105734730e+00 1.9951537952441615e+01 2.6759231815066656e+01 0 0 0
619 2 7.6050129105734730e+00 1.7146442559971167e+01 2.6759231815066656e+01 0 0 0
620 2 8.8196548455326198e+00 1.7847716408088100e+01 2.6759231815066656e+01 0 0 0
638 2 8.8196548455326198e+00 1.9250264104323747e+01 2.6759231815066656e+01 0 0 0
639 2 1.0034296780491630e+01 1.9951537952441615e+01 2.6759231815066656e+01 0 0 0
640 2 1.0034296780491630e+01 1.7146442559971167e+01 2.6759231815066656e+01 0 0 0
641 2 1.1248938715450549e+01 1.7847716408088100e+01 2.6759231815066656e+01 0 0 0
655 2 1.1248938715450549e+01 1.9250264104323747e+01 2.6759231815066656e+01 0 0 0
657 2 1.2463580650409604e+01 1.7146442559971167e+01 2.6759231815066656e+01 0 0 0
1553 2 1.0034296780491630e+01 2.1354085648676151e+01 3.3302768184933697e+01 0 0 0