LAMMPS data file via write_data, version 29 Oct 2020, timestep = 300675

4500 atoms
1 atom types

0.0 49.22 xlo xhi
0.0 49.019635930410494 ylo yhi
1.9288520911236837 58.133147908876154 zlo zhi

Masses

1 18.015

Atoms # atomic

364 1 1.654672413607022 0.6943478101860721 4.554684951749925 0 0 0
482 1 6.321072461763581 0.4761938236482903 3.767525315090339 0 0 0
1993 1 16.58819232246861 0.1959803603491535 16.88030097609715 0 1 0
2155 1 13.5870773873581 2.554476071965511 3.4207236866422344 0 1 1
3677 1 24.2067781869501 2.789910408072897 15.840975041434675 0 0 0
309 1 18.1916630553106 2.99051839576699 3.384766460433945 0 0 0
2020 1 22.89444651039672 5.227883479955886 7.231304931996765 0 1 1
1323 1 1.6889265415052606 21.82095308660512 20.240175989088858 0 0 0
2056 1 18.738820040726885 7.134912627199152 4.396555226780734 0 1 1
2949 1 20.63229158414964 5.313620776584046 5.2337864196002375 0 0 0
4334 1 0.35840846635869145 0.9592193270782179 11.748402748592259 1 1 1
1086 1 0.34335991345600925 6.765569497640658 5.613703816638572 0 0 0
1492 1 1.081263972142558 8.128175589685691 3.355943940208797 0 0 0
4474 1 21.63030275564323 23.526972641491483 9.725409198259893 0 0 1
790 1 10.439734047749026 4.319881599403087 2.4310640217399357 0 0 1
725 1 13.025250125297733 7.631774025073154 4.056478447169013 0 0 0
1337 1 15.971617867534453 11.112542400850408 5.11782931146704 0 1 0
1018 1 19.94180579402444 9.150178779507204 2.8203213490170658 0 0 1
3759 1 4.282377746841224 9.040576636857633 7.010798661458234 1 0 0
128 1 17.96055760314937 11.327603494657156 19.778484480369773 0 0 0
3839 1 11.20320257183473 14.264616341532316 4.555645621691151 1 1 0
1246 1 12.96459433069114 12.244303875719554 3.875796952927822 0 0 0
3262 1 18.563621941275994 11.63377971281144 3.6628774640321033 0 0 1
1056 1 22.543287261398405 9.36769196928329 4.100774071740661 0 -1 1
2498 1 3.0663728547885865 5.403399636956611 2.1654258901265067 1 0 0
1773 1 1.1308278537986314 22.58955107278948 15.591592707323626 0 0 0
3079 1 4.823779881510022 12.757471447337531 3.346856557449475 1 0 1
945 1 8.125998807099673 13.586851443407161 4.6028126444594974 0 0 1
297 1 14.897605691941909 14.142064087136312 3.4850930096556056 0 0 0
3391 1 24.491740338727464 1.0376302243323934 8.843789947214026 0 1 1
2722 1 21.653768172981582 14.324538138476148 4.455594023664717 0 0 0
1522 1 24.374250134469122 13.095435981796053 4.466572236004188 0 1 0
4305 1 1.7878572987895256 16.331251470295967 4.983937091756714 1 0 1
3223 1 15.313984469235251 23.14503716478219 16.953104491876545 1 -1 1
1181 1 7.426142556687585 16.42382663940418 4.161846001343555 0 0 0
2221 1 10.134457653325754 16.826045784554534 4.326429670305125 1 0 0
2938 1 16.10082053261968 19.15759003378645 3.0940816156496167 0 0 1
351 1 18.33653128070854 16.557171919405057 5.658851286827386 0 0 0
2065 1 18.307015602929663 17.855139711056307 3.200586121067633 0 0 1
759 1 21.2168899519455 16.56566157578378 5.720322570982878 0 0 1
1025 1 21.819528328378077 19.045410672463166 4.610597793122968 0 0 1
2662 1 2.1590780984324933 18.897132647814225 3.7279921598589634 1 0 0
2431 1 23.900356725965114 15.295567245501697 7.683780722043274 0 0 0
3390 1 7.7218730123914625 19.675840740831823 5.170416376710271 0 0 0
1394 1 10.797387829048148 20.35257319473612 5.754300753133683 0 0 0
3481 1 13.71735285349949 22.359519855696647 7.919681185661302 1 1 0
4292 1 20.22087041081181 20.071779215633338 2.84558818835298 0 0 1
3012 1 14.776940325133479 5.376158574420687 3.365156405926775 0 0 1
888 1 20.994763734395683 15.13207459313765 2.0350412228044523 0 0 1
2721 1 0.7996005211568682 1.0090285988623275 18.50723717953845 1 0 0
2878 1 0.7572947868542341 8.172891625390275 9.396585052540752 1 0 1
3352 1 7.67234356661137 22.687032272291514 5.7608454649145 0 0 1
3725 1 0.8264008918811224 3.3135985091461913 7.079645674248845 1 1 0
2558 1 15.510017071379261 22.26891120425521 4.218327535108571 1 0 0
2098 1 5.690223218011431 24.41655167774169 7.5229438019770365 0 0 1
628 1 17.434824384557192 22.974914475633717 2.5147235771812295 0 0 0
1238 1 19.875942017610416 22.62155965182164 3.7309925821149874 0 0 0
2987 1 4.423573212466515 10.005763962432082 2.412213843182913 1 0 0
2248 1 5.206848504080782 1.4232400942004497 6.092683320627066 1 0 0
2089 1 3.014459138296409 3.1543973328790025 5.315127342317941 0 1 1
1013 1 7.060963520409198 3.2113442529917604 7.597869320654786 0 0 1
3606 1 12.0498608026724 2.148696595820526 8.006539444358586 1 1 0
1923 1 13.59675554218494 1.1339253831874923 5.863008151896123 0 1 1
379 1 16.7117520992764 0.8565142741078556 8.826690977050017 0 0 0
4061 1 0.67744609692454 15.53033216805882 18.36687718677741 1 0 0
3047 1 19.505305852351384 2.67312276320614 5.998072858786587 0 0 1
903 1 22.13108297219972 2.667027755130385 8.227770752770944 0 0 1
2684 1 3.4790008356000213 1.171582279913983 16.646651234683922 1 0 0
3389 1 5.410691721842 4.675613815721022 3.75076195446983 1 1 0
658 1 9.4261778813235 5.459247827566409 5.229711006426339 0 0 1
54 1 11.147629704030694 1.7846876736487347 2.1921217223539857 0 0 0
3529 1 10.502597621968421 6.251501938952138 7.609132411073373 1 1 0
3495 1 14.49267793216103 4.1929103413843585 6.254573848723628 1 0 0
2877 1 12.350830728862555 4.699154691331415 8.51403267918079 1 0 0
1244 1 16.55026359103164 5.4630574990458545 7.65656094369287 0 1 0
144 1 17.915237071470557 3.2637178096639503 8.430550906076364 0 0 0
1873 1 22.145051233441574 23.819311424861922 3.079391477837051 0 0 1
3241 1 3.5337925830895474 6.041129632542032 6.351952479601155 1 0 1
880 1 6.675687345177809 5.431381472253157 6.102758977591561 0 0 1
2242 1 2.955145082046388 9.938084656580202 9.077577856969803 1 0 0
2437 1 9.123678445159667 8.958389821230561 6.076477589159368 0 0 -1
1230 1 12.311182567234242 8.374009075829415 6.679126208319005 -1 0 0
2776 1 17.8274079626024 7.680433336912098 6.918068624980196 1 0 0
349 1 20.032910670257507 8.426256988270607 8.69291695036738 0 0 0
2348 1 4.9824521240817985 11.623895943000088 5.940808798646168 1 0 0
597 1 9.850744409390284 12.08401775637834 6.685565386349538 0 0 0
2346 1 12.784437855640558 11.217759289157542 6.523336288739562 1 0 0
265 1 16.03841246142986 9.686392154597192 7.597323922718372 0 0 0
217 1 20.15956520769887 12.554896331472037 5.711307564809916 0 0 0
2241 1 21.386315096253092 10.121650237196226 6.309602327757165 0 0 0
2956 1 3.129395167664706 1.0763663308150524 13.689140846741232 1 0 0
28 1 6.9838408921953254 12.822503436420522 7.376067355042274 0 0 0
3835 1 13.395900667080708 15.678192147966623 5.8904613778347965 1 1 1
3243 1 14.357192499510507 13.531657164458434 7.620542440629104 1 0 1
2204 1 16.533250135522366 14.153085928230196 5.836536750312166 0 1 1
2034 1 18.834824938127717 13.87404907607074 7.876803922171022 0 0 1
3036 1 0.468692941708296 10.851606450985825 4.496834048303957 1 0 1
3276 1 8.619659024534998 7.8096859326475965 3.3763172811829048 1 0 1
259 1 23.642298414964124 17.00716211493545 2.9399432691587037 0 0 0
3421 1 4.3254975986432225 15.546191200608957 4.331446809562873 1 0 0
343 1 6.932040841215743 17.53576715973596 6.55981238254891 0 -1 0
2782 1 11.481072198523933 17.87094337506521 6.986743090666196 0 0 0
1354 1 16.233960303603848 19.79649160770765 5.981194843707244 -1 0 0
254 1 17.398797081291384 17.4986762363321 8.16229253842845 0 0 0
314 1 21.195071881243724 15.505812641232636 8.381188243821539 0 0 0
2354 1 12.208853061559386 24.478036158853794 15.35437431440272 1 0 0
3065 1 2.9312905836026633 20.44485175183416 6.1871819379773925 1 0 1
1147 1 7.169566441750147 19.871360131155974 8.243823353488189 0 0 0
3225 1 13.69634268764516 19.818661061715805 7.495837043572633 1 0 1
2340 1 16.64451388198136 22.86006586520177 7.015540737502581 1 0 0
4361 1 19.85717845826035 19.4314231962992 9.54683197449154 0 1 1
1733 1 19.158484849114085 19.827555967203093 6.735481268811686 0 1 1
1953 1 22.300112630065602 21.39178232190136 6.5727860833666005 0 0 1
4023 1 4.645531332762577 22.501421704263816 5.359843137289662 1 0 0
2253 1 11.063202825561916 22.822182250228668 6.762177729490241 1 0 0
4243 1 0.3349838985730875 21.81618020080884 4.298030472766154 1 0 1
735 1 19.605367246023345 22.62754621962098 6.409352522326276 0 0 1
2061 1 11.388540010208652 17.8250054020389 2.064354586917285 0 1 1
1691 1 0.729950235138192 9.739574461359283 12.954870579891548 0 1 0
3203 1 9.243846420431703 1.8097285266453311 10.537074746358336 1 0 1
3951 1 9.181988868617115 1.5388524174431568 7.350395512969012 1 1 0
2860 1 12.83598838070624 1.1987169840298872 10.622246620827557 0 0 1
4254 1 15.437223338269314 1.8236689713450158 11.144148256749654 1 1 1
3174 1 20.35785722259021 1.498364847534964 11.56562800611272 0 0 1
1668 1 23.488952240206604 2.4191050299756274 11.36913627935491 0 1 0
2658 1 1.2280994771398819 1.0338951897366755 8.88786092276653 0 0 0
699 1 5.697299872746209 2.770258822460025 10.224742343595222 0 0 1
1190 1 3.6908234781831917 4.342594293222044 10.52660668092618 0 1 0
412 1 10.275060689704178 4.54214808557671 10.475817422524939 1 0 0
794 1 18.742503040884927 5.494788050436516 12.051184871529996 0 0 1
17 1 19.906022845275555 3.821700167726469 10.179500408929208 0 0 0
4268 1 1.700341655435288 5.532398965608591 8.695496824077845 1 1 1
863 1 7.943631062696515 6.316844755853507 9.66273521610845 0 0 1
3282 1 14.566100013114427 6.0452233301086595 9.531135233709165 1 0 1
912 1 14.001754829162248 8.62056219356083 8.887999483614067 0 0 0
4452 1 21.46196539723037 6.091646348239786 9.587754884495435 0 1 1
2236 1 23.89663302129677 7.206888742145357 11.229639940650125 0 0 0
3112 1 11.1177709190808 7.841193988815464 2.126580147315036 0 0 1
779 1 3.3866224284350954 12.367089429955827 8.115869278072381 0 0 1
1463 1 4.43985378284298 8.939392616233862 11.145850344861177 0 1 0
1301 1 6.938159645231629 8.046837030917098 7.630497461261401 0 1 0
3698 1 11.119991806867514 12.089953584932118 8.955893607172916 1 1 0
596 1 13.13308151575686 9.94834462470668 11.376032703234763 0 0 0
590 1 17.084476448090644 11.949824540586526 9.015953794221263 0 0 1
2540 1 19.114905993330243 10.725045409329475 10.065600791417522 0 0 0
2581 1 21.27239069880424 12.689638516931298 9.762525605635263 0 0 0
655 1 23.09549572182116 11.041318978004448 8.525005701375958 0 0 1
3563 1 3.538825786919045 14.820117050212566 9.587871661157765 1 1 0
490 1 7.5165455845171065 10.834042635122703 9.285732083359115 0 0 0
3809 1 12.056917931604017 14.458443021260923 10.022139159703505 1 1 1
2277 1 14.711309145236015 14.126580024628597 10.566647692331486 0 0 0
1365 1 17.22544875810418 15.30942412210581 9.70522859266503 0 0 0
3239 1 23.77597672162653 15.354556609729359 12.526949580925507 0 0 1
2500 1 0.32761293790335383 12.75596224435492 7.905756762673114 1 0 0
767 1 2.5892588803763568 17.24509588186025 8.607227161227117 0 0 1
641 1 6.146317233816129 15.501658424987909 10.44133995327268 0 0 0
743 1 7.870174741493906 15.7018900038263 8.359456400965538 0 0 1
2647 1 10.410809493135325 16.990917884911948 9.642307915454134 1 0 0
647 1 10.56596741459547 18.631469856581607 12.002538989652765 1 0 0
604 1 14.150490531598749 16.528140633809322 12.109866009663161 0 0 0
19 1 18.599940851932732 16.19121732164419 11.989466533571353 0 0 0
1292 1 20.824691015371652 17.207487325292824 10.50076031316941 0 0 0
900 1 4.137587786708488 17.98872562730118 6.4935390125310715 0 0 1
3175 1 4.708667037377863 20.31379480428222 8.572168504566706 1 0 1
3760 1 7.798397364783609 19.023287254969777 10.866266293271268 0 0 0
2960 1 13.338407744828805 19.51050739902439 11.218447629366617 1 0 0
138 1 15.846403852600014 19.431854931733362 9.577232843610657 0 0 0
3260 1 18.60376886260681 20.220256233590337 11.527110624638656 0 0 1
2723 1 24.215945256186316 23.223502173511623 6.435273320320812 1 0 1
2473 1 22.168984783599473 20.815097103686444 9.500475791656273 0 0 0
2595 1 0.6909840383015087 21.487584916496537 7.245398204054875 1 0 0
3970 1 1.4894113222843046 23.338879476552385 8.993925848904025 0 0 0
4320 1 23.704281864089722 6.572950030804269 17.926728238349497 0 1 0
741 1 0.6062088704388163 7.883207424251857 15.896971956977525 0 0 1
2972 1 8.862811522146192 22.441105789076804 8.409767484218836 1 0 0
2645 1 10.861147050935665 22.52593099826661 12.28527462194778 0 0 0
1984 1 11.120451856430384 21.159720027552808 9.737142385516854 0 0 1
2305 1 23.61954299311972 19.929116296724917 11.55809582516494 0 0 0
156 1 17.050607532626668 22.05515125085423 9.943573387072533 0 0 0
1510 1 19.233275894106782 24.029991611179014 11.23098672369506 0 0 0
149 1 1.9799240754636382 12.678859355971358 2.6912951388087323 0 0 0
760 1 24.48054096238885 10.882704728364407 2.7951629073583657 0 0 1
3530 1 10.666998881401579 10.735316340449865 20.079564020091052 0 1 0
4466 1 10.996017572319362 1.5731804216832106 12.730251881523113 1 1 1
1157 1 16.713142560116168 0.8504590058023498 13.914981457810036 0 1 0
1719 1 19.37873430709583 1.8117639466394975 14.129411398370332 0 1 0
3532 1 2.0133387032075665 3.662881056174121 12.66143738994095 1 1 0
3493 1 7.351364874237579 2.9526633390279167 12.472902789543369 1 1 0
58 1 6.786932477013656 5.521473847657526 13.396409211213316 0 0 0
1770 1 12.183654423886177 3.6554721771396994 14.001665012335325 0 0 0
270 1 14.930621604657583 3.403714235044225 13.984168197587135 0 0 0
2249 1 16.086556985258355 4.905635318399669 11.877323814132739 1 0 0
3250 1 19.960006163561747 4.280178762886864 14.238010665796082 0 0 1
2436 1 22.68836932109699 4.09958052785197 13.625264309737357 0 0 0
110 1 2.2020347204206447 5.803389191261826 14.524603044211565 0 0 0
753 1 5.394945407109609 6.519528597289035 10.94222262107627 0 1 1
2231 1 9.166012106149186 7.61794202376866 11.761395521957448 1 0 0
394 1 11.666136949563931 6.007200590227598 12.605543012146725 0 0 0
3625 1 13.263264742106614 8.101307266922836 13.297080421903273 0 0 0
2351 1 15.873005742998087 7.135473396850386 13.705641471724162 0 0 0
2372 1 19.932201097794685 8.326583103581582 12.036791355184032 0 0 0
2676 1 23.725484545047465 6.388952981718718 15.064913756647373 0 0 0
2482 1 22.387264721711954 8.345947018153877 13.737042120840538 0 0 0
728 1 3.396309855222925 10.109912406655576 13.682187425722717 0 0 1
141 1 6.74673421915621 10.634648056834823 12.225386341241443 0 -1 0
1285 1 4.776446846534778 12.691072077873477 12.95158243322287 0 0 0
3371 1 9.434274905978038 12.101546496973526 12.267415476768441 1 0 1
1493 1 10.16150473111326 9.878726332614278 10.327424466597815 0 1 0
496 1 15.271754738771167 11.595989423471458 11.603313495456709 0 0 0
139 1 18.164362350111208 11.647806350853582 12.398019879748869 0 0 0
175 1 17.682387392138846 8.93110520428131 13.673533367684618 0 1 0
1478 1 23.24888853437666 11.182329398133774 13.866559945948113 0 0 0
131 1 2.5504945387145628 14.097898993958259 11.885961687436566 0 0 0
696 1 7.262773720510688 14.106932219996903 12.63647361350453 0 0 0
1093 1 11.772178941769841 14.269012065474639 12.679226146592503 0 0 0
3269 1 19.57998305594995 14.260993286005357 13.600783201720793 0 0 0
2066 1 22.07451767864294 13.259237842919802 12.437611449299848 0 0 1
121 1 2.4032935898071845 16.742973727665348 12.25516061143862 1 0 0
3027 1 5.643113606353036 17.916944003167156 12.124563623980064 1 0 1
3892 1 5.892711015407477 18.001336516799917 15.099504468154688 1 1 0
2746 1 11.395762631869726 17.140444566733873 14.442096934553494 1 0 0
2269 1 14.462525912790356 16.929044941643834 14.999407290841692 0 0 0
3258 1 22.137481714867004 17.807419428857422 12.767709381672203 0 0 1
3436 1 24.198939609047716 17.061698201589216 15.245580853719568 1 1 0
2225 1 17.266416692495852 5.872230845211352 2.477406538322379 1 0 0
3426 1 3.7575916155477844 18.85867607150858 10.781659924777609 1 0 0
50 1 0.8918036881809499 22.535171411304454 11.528189654974268 0 0 0
1183 1 7.894324961319434 21.417028223053478 12.494683734538844 0 0 0
2590 1 11.352914757256281 20.75469265963132 14.41187049099004 0 0 0
1836 1 13.889781061310256 21.137019740735237 13.489392893193914 0 1 0
2553 1 16.64908949212121 18.209263185996832 12.622026626230676 1 0 0
1948 1 18.465059083215195 20.104637726842327 15.912831746011255 0 0 1
1956 1 20.589872030464967 20.48302860245412 13.575002216048627 0 0 0
3973 1 4.05116658065734 19.900304882000967 19.677416854036657 1 1 0
2030 1 3.9596044059413678 22.97166507735581 9.054834613711483 0 0 0
3966 1 5.244829627124698 22.24496756578579 11.566362096621997 0 1 0
2302 1 23.930137456207152 0.8798935917479952 4.745233556908767 0 0 0
1996 1 14.069361234938015 22.76417953430581 10.781356740856591 0 0 0
324 1 22.296520754079534 22.88046916535512 14.255890808140663 0 0 0
1385 1 15.08004945002206 19.198128531141624 19.676654982896153 0 0 0
2307 1 8.850850888733904 0.16272352367445214 16.835633014382605 1 0 0
2452 1 0.40027918438814664 15.69394207586128 7.311247798695211 1 0 0
3201 1 13.090548667352385 2.051061141406736 18.249006749812594 1 0 1
825 1 23.153746074555613 3.066935814552504 3.1512803324925223 0 0 1
2369 1 18.127061786501464 2.1909044797798902 18.462460252684753 0 0 0
3433 1 2.517616126088475 12.807520230627608 19.775463259238247 1 1 0
564 1 5.982050694154144 21.296166726206856 3.0380071360336456 0 0 1
4255 1 2.835128321381374 3.8413465149449513 16.168655223124826 1 1 1
1564 1 0.6470149632930124 5.105178190647352 17.684299894124656 1 0 0
89 1 5.550458277698853 4.214500786553379 15.65168403998755 1 0 0
2862 1 9.260466782266679 5.698144093449068 14.61281143246169 1 0 0
374 1 12.8400504672695 4.284363884466342 16.47189792852993 0 0 0
1739 1 17.41137371287544 4.692394651738821 17.31492319057902 0 0 0
2734 1 4.630699478717238 7.578144121697285 14.418533835172838 1 0 0
2743 1 7.6359718609808676 8.560871323640953 13.924751822515145 0 -1 0
3031 1 10.680134779166929 8.163451394190014 15.234638147032522 1 0 1
2316 1 13.777598760005505 7.471571197982422 17.701908212762156 0 0 0
2841 1 15.261983991661381 5.714596885691483 16.040730945570456 0 0 0
3293 1 19.54893772302524 6.09023849556396 16.355273707224644 0 0 0
90 1 19.968437528826502 8.884999590181993 15.669509184774 0 0 0
2156 1 23.974944524587283 7.262482869249685 5.252250023526961 0 0 1
1342 1 22.727543930891592 9.34826050406715 16.60820447819918 0 0 0
1936 1 5.353590210320509 10.913058162277986 15.952132012766457 0 1 1
2420 1 10.363545981469724 11.902966104241049 15.003048594532956 1 0 0
4209 1 12.611192673032543 10.46569322565858 14.885374189141167 1 1 1
3404 1 13.630511780272146 12.81878865567053 13.655201529852997 0 0 0
1797 1 14.356925793983413 10.060745387159788 16.977274561520765 0 1 1
2376 1 16.894856287761296 10.181061252656326 16.203402845485076 0 0 0
2317 1 8.345933705343942 10.53343009091565 16.111308427930016 0 0 0
4208 1 4.610555231736192 13.876447798300866 15.580639418250993 1 1 1
171 1 6.971220686069856 15.413806565659009 15.222508539537813 0 0 0
643 1 10.063674711565408 14.696708688098708 15.414189748196517 0 0 0
2808 1 15.458086321018191 14.26581075956193 15.198846495645467 0 0 0
3484 1 17.889926769911494 12.759549796469164 15.493533966700207 0 0 0
646 1 22.74166018205371 13.372172419746036 16.004226993512326 0 0 0
371 1 3.175640775415989 16.472566800205893 14.882780208963153 0 0 0
1567 1 9.069059703427959 18.65904567536875 17.836879255089467 0 1 0
1648 1 14.727431347092189 16.376047520614545 18.897188964796285 0 0 0
4312 1 20.74106701577785 18.661123706333708 16.398886158881822 0 0 1
4140 1 21.429497633091216 15.985598081684854 15.480760048449397 0 1 1
1091 1 11.538664363707538 20.491362547297275 2.8766542069541274 0 1 0
206 1 2.8986792452468118 20.874649567699745 12.233821857169167 0 0 0
983 1 4.571763981760082 19.483766414859318 16.96394094483902 0 0 0
4380 1 6.998090667650996 20.503544077979633 18.2261693990939 1 0 1
9 1 8.824321720762123 18.618533981028865 14.902144472202657 0 -1 0
3686 1 15.96248916635832 19.391714202289386 14.97760105600177 0 0 0
1480 1 12.88381507685403 17.40060289085907 17.129285179298385 0 0 0
4198 1 22.305098950873145 21.1016755918142 16.384384872248052 1 1 1
2833 1 24.22781083773978 17.653456427067148 6.436001985966941 0 0 1
1526 1 3.582405748811462 21.348744620673045 14.92618069287691 0 0 0
4455 1 8.12170620677862 21.584376134208814 15.431805583361578 1 0 1
2554 1 3.892096328240542 23.455001798179303 2.3262721230945105 1 -1 0
1026 1 14.46147383185955 23.470008099898127 14.257628498929757 0 0 0
3873 1 17.909434181172163 22.942874080687666 16.181094621323407 1 0 0
1121 1 19.892923070791895 24.275041295618077 18.11919802576821 -1 0 0
1065 1 22.078505752383567 22.776460989441453 18.730065672547944 0 0 1
4293 1 2.758302830027288 2.875404401065604 19.54362103482766 1 1 1
1150 1 6.468584749235061 1.619955318775711 16.223197186705136 0 1 0
204 1 15.612280734649081 8.698757518095452 3.4177237189385483 0 1 0
1850 1 0.724864242611464 11.035966667288927 17.662160680670294 0 1 0
116 1 10.30914862174097 1.8305293340506739 18.61731164317685 0 0 0
450 1 8.393941425820056 24.435286288482448 12.075043496098148 0 0 0
1223 1 10.615582081026085 22.542846335788877 16.46095130773537 0 0 0
345 1 20.59559177158874 1.2170768917750712 17.667763103214515 0 0 0
291 1 2.0588544969168163 13.491258809301968 16.834987204730908 1 0 0
1321 1 3.886128977704553 5.291800961376374 18.535182252166692 0 1 0
2513 1 7.84065118398031 2.709307092602671 20.062397980558202 1 0 0
905 1 6.952089677354471 4.494332383306459 18.17949953631308 0 0 1
1646 1 9.565594022569517 4.436619399037183 17.086673959776668 0 0 0
1922 1 22.843771779023445 3.1694852355464107 18.202605212155948 0 1 1
67 1 21.20607524661498 5.410807246871469 18.54424070165699 0 0 0
637 1 2.170559330586654 8.734145270597827 18.385342610206184 1 0 0
1084 1 4.936883239983779 8.083199679494271 17.00070084040955 0 1 0
2353 1 7.20093755629304 7.442926942162135 18.353751646675914 0 0 0
1912 1 0.5866250527670435 14.948695519826522 2.6320219244329843 0 0 1
1254 1 11.050005791378263 6.726387378711769 17.768339802466677 0 1 0
1350 1 21.550826103264164 0.8190995424267447 6.091472548704396 0 1 0
168 1 16.909858501660956 6.94538645521169 19.142135474803027 0 0 0
3237 1 0.2323698322135308 7.117569167483787 11.90843314616232 1 0 1
1588 1 23.537664789151734 8.864300995615086 20.166294091670252 0 1 0
2848 1 4.585554328282994 10.9149131595357 18.680407016978346 0 0 0
4396 1 7.471411697383849 11.503250064600126 19.088578062607308 1 1 1
2003 1 9.266151024228424 9.082937157184054 18.25452624052477 0 1 1
1129 1 12.326220420577327 12.31202412078517 18.569189533347057 -1 0 0
1610 1 11.15039762520025 23.44274609745445 19.584046383394533 0 0 0
854 1 14.918587942827598 11.469965931584893 19.67259736087137 0 0 1
3199 1 17.666868574213357 13.583947528254194 18.23200213774676 0 0 0
115 1 18.539156198952778 9.005613471442343 18.389682814148596 0 0 0
3039 1 21.40257784886588 9.875012678059703 18.992317876508725 0 0 1
3644 1 6.846986497778725 14.037691400088063 17.897805260300384 1 1 0
318 1 11.413404757098704 14.893605741634 17.729172555235106 0 0 0
4102 1 14.992731837716745 13.954783522052004 17.816343586111543 0 0 0
1206 1 20.215877730823987 15.208551273700198 18.243582480020297 0 0 0
4492 1 22.375228647196 5.8740655317327946 3.0966692356831707 0 0 1
2911 1 21.55679582520954 12.45330384977349 18.39829059316056 0 0 0
1207 1 1.9988305156365995 17.510650170162087 17.089901663031 0 0 0
390 1 8.91369412880815 15.802355153122159 18.402896143164718 0 0 0
577 1 13.036072970484392 22.7601373506642 2.4252555829408253 0 0 1
720 1 17.69641192332837 18.602364935394238 18.41451237827782 -1 0 0
392 1 17.527762288937062 16.109861009583735 19.925665943072072 0 0 0
85 1 21.432075619121353 17.88220985887274 19.027372921493683 0 0 0
322 1 2.0953236716322077 6.5560429087840735 20.28524408103232 0 0 0
88 1 18.643942870392625 24.03881373087908 20.47258465323867 0 0 0
4439 1 11.590849806472487 19.94903102704353 17.991633107364265 1 0 1
2632 1 12.747673519006142 21.134425447270548 20.03743367699371 1 0 0
3947 1 14.273856065077492 20.75108324805001 16.948316526945884 0 0 0
1088 1 19.48728545750989 19.59255255690123 20.34981633890278 0 0 0
2486 1 3.900571211059879 7.672897851323248 4.16901532275114 1 0 0
2979 1 24.129418975218172 24.41154813112797 10.507277811043066 0 0 0
3587 1 5.335721192504415 15.576826647624864 19.619668472993347 1 1 0
353 1 1.5048818959805894 20.49735600197676 17.643278979861886 0 0 0
20 1 9.097370698385692 24.434335125583218 4.5057477854706365 0 0 0
2545 1 8.559033800994971 23.180106986436265 18.76894887432697 1 0 0
2982 1 3.2031711882323473 17.25014668765635 19.680070139171054 1 0 0
4084 1 1.7600695536736206 24.204491911102558 18.953612450002936 1 0 0
1776 1 14.099355857246572 17.155968103668428 3.4112473206752374 0 0 1
3329 1 14.840466792927502 23.017407768229376 20.060292233425706 0 0 1
588 1 18.47211488008163 0.2920967122489905 2.658514523755394 0 0 0
901 1 24.08949603015837 22.55391037801433 12.377669973059229 0 0 1
3952 1 23.670503220273115 17.88678113111773 20.529281267085125 0 0 0
2637 1 5.392449060041802 1.5121566879524606 20.350305381914882 1 0 0
650 1 24.57501917174859 0.25623501140412336 16.25751779846646 0 0 0
598 1 5.650019679089909 23.222209878199163 15.623827588032576 0 -1 0
913 1 9.085494634646121 21.81229435295387 2.6439279670571447 0 0 1
1252 1 5.950659878127684 0.7547501731204221 13.607190459259522 0 1 0
677 1 17.868826620208086 24.173753354762937 13.808051476284792 0 0 0
2682 1 3.9198422830393165 0.2905143624733772 8.635325429430843 1 0 0
1943 1 15.241971030422487 0.7061679160091111 2.4663939031924675 0 1 1
2223 1 0.02608184864360065 18.03058899392438 11.665441290754613 1 0 0
2763 1 13.996066824922023 7.027485510430799 20.60226216407599 0 0 0
4289 1 11.290459496678476 11.17493511566111 1.9973048266967734 0 1 1
999 1 4.591408834665362 18.771549809036163 2.103463363184253 0 0 1
2460 1 8.4346324467697 18.543299841608782 20.654169491217605 1 0 0
1227 1 10.214010617048853 2.2697968974107816 29.054219319440545 -1 1 0
3856 1 5.192423219547962 2.0745055268090486 22.83178143651768 1 1 0
1251 1 8.48937412603392 3.377265866966289 22.68729147289099 0 1 0
3620 1 24.256101284866503 16.755814979930676 35.854213163235215 0 0 -1
4123 1 13.223865462021651 0.9856553876483367 23.38979485417161 0 1 0
546 1 22.216790909439297 1.7325527545637112 21.425542670107717 0 1 0
1924 1 0.5782394523361257 12.713346232223975 21.744595646646864 0 1 0
3275 1 11.11988005486892 3.5275620754569554 21.43941307969743 0 0 0
570 1 1.643223820493406 3.462411628661871 22.58941880909724 0 0 0
1715 1 11.460726576199285 4.019738332724238 38.91238618652219 0 1 0
2944 1 11.47703966896441 4.756205584434287 24.00325527454612 0 0 0
3480 1 14.229923099070623 4.646034718090642 22.39325163178328 0 1 0
600 1 19.666917105521836 0.9730127117648634 25.039495636611335 0 0 0
3953 1 16.937636857929245 4.639915557226232 23.41707681185672 0 1 0
3441 1 19.839930634893644 2.983586575512265 22.731561445419818 0 0 0
1543 1 17.283299126257532 2.322412796066402 21.31142973726703 0 0 0
2150 1 2.831431095005427 7.783169905815676 22.519737851321228 0 1 1
4097 1 6.2387294805964375 20.439144001686277 21.17198811888026 1 0 0
3767 1 9.30812127396692 8.310201476633464 21.866981434609745 1 1 0
1609 1 1.615108902490337 24.184166244791854 24.590163901471517 0 0 0
301 1 13.096812153149449 10.056616206384017 21.817131214217294 0 0 0
2820 1 17.55618632920174 6.990794236630754 21.929505114474026 0 0 0
2729 1 19.682730988459465 8.345899446168044 22.974282144592706 0 0 0
1189 1 20.695139581285037 1.1233451863370374 29.10037336057565 1 0 0
714 1 4.848579597676787 9.447072269966021 22.065162112940733 0 0 0
1634 1 9.013394665401444 12.545819083323751 21.66269431440053 0 0 0
483 1 10.99723324873846 11.901822540433523 23.845782117821685 0 0 0
442 1 16.0838746663849 11.73901701641436 22.510714125158614 0 0 0
1756 1 2.9541310068671107 23.284269229952947 22.373483311511837 0 0 0
1320 1 20.09700224567974 12.512352159405374 21.579956241151777 0 1 -1
3706 1 19.54114545802231 22.79814408281829 29.595979902876717 0 0 0
697 1 0.8532661818061243 7.761511172022025 26.642766694408742 1 0 0
2251 1 11.242249999309402 24.37770476795205 22.354877324301732 1 0 0
1639 1 3.380291155549252 19.448371043310306 38.73078415717948 0 0 0
2371 1 4.403854911413154 13.875204269548219 21.65563990411099 0 0 0
1605 1 6.792243355096752 16.63570944415138 21.797487433996974 0 1 0
1433 1 9.963360946860707 15.28486998756056 20.82889473262265 0 0 0
2761 1 12.902144398506577 14.78087629304378 20.86869074422713 0 -1 1
683 1 23.075647499455005 20.381663013215615 27.707739997853277 -1 0 0
2671 1 18.9251717225689 17.485268267373495 22.306585061626542 0 0 0
3730 1 23.184601689311943 13.419667299062564 20.88990112638719 0 0 0
4313 1 23.412729546490848 18.38073704543609 39.33419819405332 0 0 0
3936 1 5.002492932351465 17.92916345625265 23.095571204623948 1 0 0
3624 1 10.20561173058145 17.61659868879005 22.731471272723468 1 1 0
3558 1 12.521190366846652 16.13843466444674 23.222435492111014 0 0 0
212 1 15.711456311362813 15.305730451021711 21.927466240182714 1 0 0
1216 1 16.08907735318011 18.297739829314253 22.508439383841786 0 0 0
1092 1 22.3048125871903 23.19534630143845 28.011143893326782 0 0 -1
1665 1 22.384141416344946 24.39864428681534 37.770346697355755 0 0 0
508 1 10.809263307604475 0.4210181634445907 36.23928928675532 0 0 0
2758 1 4.153534338141699 20.630668876336063 23.399514115870375 0 0 0
2440 1 3.68093798757278 15.385238254993535 23.70188358644005 1 0 0
3646 1 11.769244656569564 20.08161703289598 22.335722813174463 1 0 0
3364 1 7.462806833319482 23.176967684079365 21.67948370225038 1 0 0
4260 1 17.44368825189224 21.775738929314173 23.956408240024597 1 0 1
3836 1 16.973769775834004 21.482227013321726 20.941539456674494 0 0 0
3681 1 22.195145813746603 22.377144191410245 23.46334649848245 1 0 0
572 1 24.09074855804432 18.182427580773794 23.238820054033525 0 0 0
2054 1 4.670175097146096 0.27794482570312107 26.217006813828434 0 1 1
3482 1 22.011286743879552 16.348562057056835 37.76608060642255 0 0 0
228 1 24.371381019535992 20.733417899172032 23.59611851071409 0 0 0
2872 1 9.717080059504825 22.105785189609513 22.924710301922413 1 0 1
841 1 13.907461977801509 24.12068473967697 22.212184147595785 0 0 0