LAMMPS data file via write_data, version 29 Oct 2020, timestep = 150000

6328 atoms
2 atom types

0.0 49.22 xlo xhi
0.0 49.019635930410494 ylo yhi
3.181154505225841 56.88084549477598 zlo zhi

Masses

1 18.015
2 12.01

Atoms # atomic

1708 1 2.9365908751654772 0.017482502996493565 20.70408031669355 0 1 0
6306 1 6.121271469452317 1.7207553314011512 6.170808105188839 1 1 1
113 1 0.2292967733550027 8.60477498943557 15.688232687727684 1 0 1
188 1 10.563078021353737 1.757852806259483 6.493273802931395 2 0 0
414 1 13.243978641925077 1.2927990455825444 5.384714237958464 0 0 0
3060 1 17.87271736702333 2.874101156435765 6.463922833213688 1 0 0
1832 1 6.370933530105424 23.931655813472123 15.694772307267082 0 -1 0
3449 1 0.47061562264914053 3.594086463904251 8.169383365613147 1 1 0
3119 1 14.843492224336552 10.692054105343031 19.005397211117874 0 1 0
2892 1 1.1876265568666302 6.328325529807546 8.827900896881243 1 0 1
1605 1 3.771612485387539 2.5757270061440196 4.7071710833140035 0 1 0
1807 1 6.249053824802729 4.61126784459441 4.645189644700368 0 1 0
2010 1 7.480164295189014 4.162555863417933 7.75555445712808 -1 0 1
1527 1 8.943387618459425 3.0475588793174797 4.919794060343739 1 0 1
367 1 14.031331347292452 3.8887241395875587 4.6512325468478295 1 -1 0
4498 1 16.732165775459407 5.03439730611504 5.196066003239282 0 0 1
1297 1 18.757270217705674 5.974179757856286 8.433999267924294 -1 0 1
318 1 23.30739170730354 13.765568170133099 9.42479006609108 0 -1 0
5070 1 0.8016018885582756 2.8708905321080107 5.532496589133697 1 0 1
1949 1 1.0950119764881199 2.691957693052739 20.272948647096435 0 0 0
3668 1 5.8809578129162645 10.959608640979301 3.898791715574809 1 0 0
3155 1 9.470302423436799 7.703015932516936 4.283705114039702 0 0 1
3290 1 14.370492137915342 10.29645437777607 6.34868386118936 1 0 0
223 1 12.273923490259975 5.910592508530685 5.0843888730487325 0 0 1
2013 1 16.559010421912863 6.869189866131287 7.108014702970559 0 1 0
60 1 9.446413677238347 22.406699912126328 4.367774618833898 0 1 1
5022 1 24.399476384573624 13.080194532586821 17.299479013817685 1 0 1
1513 1 7.183487282624713 24.370108728094017 20.176187496267275 1 -1 1
3489 1 12.348206707008451 11.952847121556413 19.600169110589654 1 0 0
3301 1 5.679611224887743 10.39953837956796 6.699544890185616 0 0 0
413 1 7.6355954588526505 4.411187500446734 19.709610348623592 0 0 0
4911 1 12.648369269331742 12.667886737237284 6.032131685115134 1 1 0
1689 1 23.398853437304677 0.15333688404871282 9.31878951952498 -1 0 1
4901 1 18.059810508065862 13.51002987366206 4.501395625641733 0 1 0
2107 1 18.118588791566744 9.07381779747861 6.011054754550912 0 0 1
4460 1 18.877772958363693 19.71561174024937 5.976194932533571 0 1 1
2997 1 20.211701497501437 7.463085856890577 4.839316687263832 0 0 0
1619 1 12.947974128447209 19.16834414598437 4.875835162039099 0 0 1
1435 1 20.826214355347247 0.5034259190970789 5.319849544497785 1 0 1
295 1 5.759736201610579 17.391393391837774 4.988323217323034 -1 0 0
2961 1 6.699780606364726 14.758565779726062 5.868133414252275 1 1 1
4478 1 14.490594461742603 14.11865286857363 4.498448617420253 1 0 0
1333 1 12.764365376991677 16.946279979950834 6.953139436453649 1 -1 1
2143 1 9.177522206720253 0.5618504391843043 3.375152343074989 1 1 1
1561 1 23.585978012076705 0.5207110742724195 18.96518784399766 1 1 1
3593 1 19.630699002840053 0.22426641820248677 14.78567464381921 -1 1 0
198 1 20.648970900230445 17.462983836341945 7.656891915668293 0 0 0
3690 1 1.4692273686329638 10.850519231039753 13.936056133664117 1 1 1
6015 1 1.8076754778649236 19.42157719795203 3.4134528558663826 0 0 1
4923 1 10.243564793981198 17.30413931404078 6.048281008532099 0 0 0
3280 1 14.646310336230428 0.5135634495250129 10.700107597159516 0 1 0
1612 1 22.837140621880778 8.580585017524973 4.219934246308362 -1 0 1
1346 1 23.61322418035558 21.755479656948932 13.081372187236951 1 0 1
2881 1 2.1633842092679796 1.006524989617445 11.761673472978053 1 0 1
1328 1 17.45440285104397 22.048915421478537 6.1766705521484955 0 -1 1
2817 1 21.081024711521003 20.716331463958724 4.434157669977296 0 0 1
5190 1 12.921703527897266 16.59910609164443 19.00136778184913 -1 1 0
1356 1 24.03890083561304 19.742769475470105 3.8966860167269712 0 0 1
1964 1 11.719154366387249 5.47045258077525 20.221220979610525 0 1 0
3383 1 7.243741893427594 23.238560814191796 5.951151213051762 1 2 0
2150 1 7.031622748876362 20.296001611138905 6.192247601503678 0 0 1
31 1 9.403041415049943 22.999507056552652 11.363197674662931 0 0 0
1968 1 4.502559860059509 1.2990162957890468 8.416320511457856 1 1 0
1311 1 10.465814884579382 21.999577808505688 7.060964864956839 0 1 1
1693 1 21.818026099598228 14.692833230333303 7.144917020098935 1 -1 0
1881 1 10.809803004920528 22.710933535470122 19.368533948065078 1 0 0
3114 1 14.818832172422981 24.043735094439178 4.358272443233286 0 1 0
2981 1 22.86838598975585 21.48449433701745 6.315198811599531 1 1 1
437 1 2.659022158896644 3.066003697090057 9.919876445132822 1 0 0
3363 1 6.421826799238113 1.0371889926630768 10.69254252062981 0 0 0
222 1 23.522513291073146 6.691823653096071 11.034916758238943 0 0 0
1931 1 0.5226016359620257 15.972999082584797 5.807290079853845 0 0 0
109 1 16.24804319065613 3.1215195269892644 9.20926512770464 0 0 1
549 1 16.051000406963496 0.6520300128813326 7.361938758665063 0 0 1
354 1 20.84675544395877 2.8426131238277397 7.238981591223284 1 1 0
5020 1 24.097944754038426 24.422405475161 8.904154412272057 1 0 1
1659 1 11.290128658414842 10.009331628079646 5.242534742807614 1 0 0
1772 1 7.367747674003818 3.505778180609882 10.363050052001874 0 1 0
3424 1 3.177613288094399 6.866081715744485 6.8570809472143655 1 -1 0
2990 1 10.354650325757705 3.95558357225615 8.41297300544422 0 0 1
434 1 11.915410506630687 6.184764681636559 7.833412608372363 0 0 0
3624 1 11.746700979113728 8.807859078474744 9.378267216714487 0 0 1
159 1 14.463959521187409 5.441282487525064 8.588164158388857 1 1 0
238 1 18.85676813173181 3.6648439557773105 9.693395681502569 -1 0 0
6193 1 21.26230142346687 5.6875259752469045 6.862026346087299 0 1 0
5072 1 23.1607320651407 4.533564588726362 9.136202899382504 0 0 1
3443 1 6.548590512775453 13.529460028277246 3.2198512503147034 1 0 0
1568 1 3.583898128006853 17.478158135676072 15.32432173254724 0 0 1
5180 1 1.6828355152707757 11.308555807536973 4.791202010843781 1 -1 1
4426 1 3.049244747716886 9.624529936714877 6.908800315378983 1 0 1
6267 1 5.730961243589 6.5210648304467345 7.70735106652685 1 0 1
138 1 10.004763080246297 9.613900041390197 7.458865294180763 0 0 1
2117 1 9.188067796723775 8.721414754785462 10.882964354759203 0 -1 0
6089 1 13.267419689971373 11.366607732431076 10.216868319265636 0 0 1
1353 1 15.955452677638936 9.763756742869262 8.571045433320121 1 0 1
1687 1 18.26039715378795 7.043062531104894 11.09175038508161 0 0 1
1872 1 23.15616604695979 5.802475617146657 4.691954032894758 0 0 0
2851 1 20.539266972124427 10.61160012619248 10.428839097323797 0 0 1
6039 1 24.358656119922376 8.844381939182894 9.418416367773489 0 0 1
5113 1 2.6673495674822467 14.00582149383438 5.114258808150823 1 -1 0
3689 1 1.393719293702931 10.433474315916584 9.535645352057118 -1 1 0
3221 1 6.0717011775211915 12.293161058637335 8.554936652438851 1 0 0
3104 1 7.556563491956623 8.24991268140766 6.559111225797231 0 0 1
1588 1 11.083280140529952 13.104001014388176 10.390226562844598 1 0 1
1827 1 8.941958000567938 12.026616236045138 8.375446523848966 0 0 0
345 1 17.832587259953428 13.28563138752758 7.206459560817114 1 0 0
5159 1 21.118511223448326 13.05422876428856 4.691724075052847 1 0 0
3346 1 20.700444318603704 13.660790377885549 10.923503363452987 -1 -1 0
1392 1 24.4290247938501 24.15077438771663 12.193775162965892 0 -1 1
6304 1 3.912844483909597 17.662355546273258 7.258503850652882 1 -1 0
541 1 1.436198372325277 17.461478066969583 7.878722360833322 0 0 1
1620 1 4.174558506101088 14.182487452907713 7.436229076816462 0 0 0
4594 1 7.858542858123281 15.631020315818894 10.0739094372134 0 1 0
448 1 9.076791558112534 14.885572658233896 7.535473703131669 0 0 1
429 1 11.853815059123773 14.586678319384692 7.999210814811197 0 0 0
5042 1 14.45949414601429 15.515134843248589 9.014384768912794 1 1 0
4660 1 16.01811765726208 15.442452722732105 6.550190406661525 0 0 1
6284 1 15.329671598986065 18.08571473035964 10.0511485945136 0 -1 1
5286 1 19.346948990406737 14.835103964511655 8.938675901540051 1 1 1
3474 1 22.748132690208095 11.5752429091342 6.784483269387384 -1 0 0
13 1 2.8568731625371293 21.169110499262107 5.647164796770243 0 0 0
243 1 2.24770616323997 2.0302861775308028 14.318634462418649 1 0 1
4528 1 8.527613171690785 18.51967249137349 4.301182915854429 0 -1 1
1472 1 5.502059786619628 17.356369513171366 9.923306070574167 0 1 0
3686 1 8.131626137891283 20.700618284945133 10.366969954861093 0 0 1
6072 1 9.126016007626014 19.60665106450164 7.876273401407387 1 1 1
2958 1 13.11788188554128 21.09146646861703 7.37248597333661 0 0 1
3711 1 17.157396076068316 17.64535613601347 5.012742746380081 1 0 1
5270 1 22.760049065031225 19.0848994679119 7.238165431858053 0 0 1
4735 1 18.29412257372424 23.16764114290053 16.836883439751993 0 -1 1
3565 1 20.864603902085662 17.878976102557107 11.219135350044239 1 0 0
365 1 22.847677752374594 20.020388490405725 10.679321429157199 -1 0 0
1825 1 0.6671080843606095 5.125508534344743 3.3965459261421214 0 1 0
2994 1 4.628281034342586 20.405534540145055 7.729082007302783 0 0 1
4744 1 20.07709540118557 22.514101839542352 12.510658817707343 0 0 1
5993 1 3.6659570643557897 22.241013532847454 10.385475113580728 1 -1 1
3407 1 15.626529587694355 5.179191527308301 19.505937948606345 0 -1 0
4579 1 10.344486332883127 23.983911033092017 9.149247260352855 1 0 0
4934 1 15.26206841508848 22.79388629929514 7.8652843520258475 0 0 1
5236 1 18.987806579957855 23.658664916357676 4.3139356348613775 0 0 0
3495 1 16.47185564113517 22.522474575079247 10.257498551365622 1 -1 0
6094 1 23.03412933910863 17.329204187972024 4.9194458316339436 0 0 0
1306 1 3.6137666111159237 5.813504431554951 4.004956013211772 0 0 1
2109 1 0.7048477922033719 20.756647189013716 10.969295441614673 0 0 1
325 1 1.3571676676394762 4.640873917509018 13.442174256495504 1 1 0
4940 1 5.14385644660055 0.8508369350403606 13.188062227534779 0 -1 0
5235 1 10.16248977776175 0.5039201188119986 11.52282070874939 1 2 1
2051 1 10.154056171723509 3.17834188386597 11.097626438994133 0 0 1
6241 1 15.726487408393236 3.140283152462395 12.151953132518106 0 -1 0
130 1 18.613195513248414 15.79630951109414 3.5732757883944104 0 -1 1
1332 1 21.688652544278295 23.3953386687702 8.131110268054357 -1 0 1
4656 1 19.806806826935606 1.9386289891807733 12.308227105763352 -1 1 1
2820 1 22.794508084166136 3.8417266857738213 12.347183764708936 0 -1 0
5285 1 1.4967418073383965 0.23484871883284975 5.028114611173217 0 1 1
1930 1 10.536777598159585 24.206473371859033 16.94146319089114 0 -1 1
5077 1 5.983528334783433 5.534622634387453 11.436879406646309 0 0 1
3422 1 6.509735158684785 7.9510535690438715 10.40054978659186 0 0 0
4639 1 6.696393838846218 7.514690039389888 14.492585523427913 -1 0 1
169 1 12.876932223891547 1.5914800232713975 15.055784745587834 2 1 1
3323 1 13.627769412705288 7.105200936778916 10.816513921374359 0 1 0
5032 1 14.355189844162389 3.9355378020900513 14.525677276864336 1 0 0
3008 1 18.042142986948125 4.518961876158516 12.300223665562186 1 0 0
1731 1 17.046726678952258 0.6822510953041714 13.165045897241383 0 0 0
37 1 20.95172330377555 7.708441218873507 9.722341148857433 0 0 1
15 1 23.30679256838322 22.86681521031752 15.578333454259475 -1 -1 1
3260 1 2.449880470259987 7.856193063520963 12.848913570980946 1 0 1
3183 1 8.991965499614388 11.134104726795055 11.248524772012866 1 0 1
1728 1 10.663149218285993 4.9234168755675825 13.102277817138114 0 1 1
4442 1 13.014958356462575 11.443601684382381 13.078417491345123 0 0 1
3531 1 15.921126895436768 8.469937327120624 11.149449725599009 0 1 0
1485 1 21.367547120218994 8.992298794282064 7.115472299801838 1 1 1
4552 1 19.080226470961662 11.717170409944394 19.728090325849546 1 -1 1
358 1 6.221182106755632 11.599579361169488 11.49344597819112 1 1 0
4470 1 3.1931693728928634 11.540535137794949 11.589647614353417 0 0 1
6244 1 5.675962494041996 13.820081189094507 14.965376512779498 1 0 1
3031 1 7.614466719698533 14.168365754568242 12.461085594044935 1 1 1
3152 1 10.307145672746605 14.324834465781578 13.053222597704726 0 1 1
6206 1 18.663703753137405 10.693645495783773 8.349974677620846 2 0 1
5142 1 15.619036063997013 12.596987006115562 9.232556365929863 2 1 1
1784 1 16.516301684290585 10.371791478811332 12.978917225960501 0 0 0
3514 1 22.82978355159128 10.973494313212502 15.905758685664507 1 0 0
321 1 19.202432881944304 10.3346827282421 12.997351344223587 0 0 0
307 1 23.116083521547086 11.177932040503554 10.467243357512203 0 0 0
4924 1 0.5618649987699316 7.99580490902899 10.518808722080328 1 1 1
1640 1 3.2077166552114194 14.128773348087638 10.192225202969585 0 -1 0
5054 1 7.220663513859016 16.72489009667203 13.894688380253648 0 0 1
1638 1 4.715786194331814 15.64752160561756 12.34680246701057 2 0 0
1667 1 11.625524550455486 16.086793589765318 11.152387776482568 0 0 0
3190 1 9.019675657134147 18.8523653125365 12.958173417764254 0 0 0
5100 1 21.474112678090552 15.51683014624806 12.818218656659507 1 1 0
4565 1 4.827307618132501 22.687522907599757 4.329797083949625 1 0 1
3321 1 1.7529293291456503 22.89908866962975 12.542802640840804 0 0 1
1787 1 4.349274215920136 18.337124547377698 12.960240717548539 1 0 0
484 1 5.32176547779511 20.135506521980535 10.92661878099807 0 1 1
3473 1 7.138855797169137 20.767662942420838 13.459458837351354 0 -1 0
1786 1 9.638312566273303 17.875609929648256 10.363788643934747 1 0 1
1652 1 13.457721893820034 21.026740766613294 11.092150851051493 0 0 0
4922 1 14.407715187892808 16.702119212215266 12.330211432460231 0 1 0
3089 1 18.388434626785426 17.375156331002973 10.02856145263233 1 0 1
3607 1 16.992617124254146 20.051574696673306 11.672593089450986 0 -1 0
4741 1 17.127855488211928 15.751234471652722 12.126553744592849 1 0 0
3608 1 18.666556917545627 18.490097448385455 15.007146668763175 1 1 0
336 1 18.699036021522293 20.014716109649623 8.795096307503194 -1 0 0
3510 1 19.45483073519949 19.7226784453698 12.75762647763579 1 0 0
6202 1 15.053937471785606 21.07567366361874 13.59944288964133 1 1 0
2985 1 11.36049737050262 21.176114550479046 12.876152750764506 0 0 0
3117 1 11.32324572418833 13.491939543595766 3.713181529866895 1 0 0
75 1 24.256938241416876 15.74655452764002 16.65274331002542 -1 1 0
3087 1 12.491728669331025 18.98827190931167 9.367473605197592 0 -1 0
3462 1 1.6852888658887273 18.23309453286823 12.109647043111714 1 0 0
1935 1 13.918157942927763 3.6572708254735726 20.808675464870614 0 0 0
544 1 22.324923074369405 1.5478804174036729 14.59338028772746 1 1 1
1350 1 20.718288135670466 21.667046924371643 9.783551255563902 0 -1 0
364 1 1.8908992874927604 3.1173397283910242 17.289032072855022 0 0 1
3191 1 1.9156515500898776 5.901863036013174 17.838978230009353 0 0 0
5064 1 0.9424843862413764 23.427171229224054 6.0370425765442866 1 0 0
2050 1 6.510499910361336 2.649429826455623 15.256346935800538 0 0 0
1861 1 24.05545055062668 11.912637606947433 19.981927917306745 0 0 1
4816 1 18.48817362565172 1.6981744499861167 3.9010702380616538 0 1 1
17 1 24.016214321681616 11.166040835240535 13.024560668397232 0 0 0
3456 1 23.937328840657518 4.486124075440428 15.506684716731709 -1 0 1
1778 1 3.4304840461594637 6.376693641414979 15.279237618949045 -1 1 0
4991 1 5.716489158142704 4.994098405680059 14.313307799919478 0 1 0
4483 1 10.603667967044842 3.0356408277215707 15.348968339892506 0 1 0
1862 1 13.17106270099308 6.418973087910158 13.4757589647852 0 1 0
6145 1 11.89676324203397 18.99308527250034 20.633840206269085 1 0 1
2144 1 13.376547029259333 7.182589212245077 16.411105990693038 0 -1 0
175 1 20.295059621533444 3.6865238778623057 19.81351829456535 1 0 0
2041 1 20.16120054557379 4.390615488810008 14.05790836467986 1 0 1
1791 1 22.465745078428306 6.640342688829462 13.860837185881548 1 1 0
5302 1 2.3150410900541636 9.948697780786581 17.656487273102414 1 1 1
4917 1 4.1637332914832115 7.853888829260607 17.76442185709089 0 0 0
4464 1 5.131925107133778 8.919596260139626 12.512240068734874 2 1 1
2932 1 7.308787837680079 7.821806479546577 17.092174999719717 0 0 1
4860 1 10.139822524122634 8.452234239190723 17.396066022371507 1 0 0
1751 1 9.089737233795317 7.30566089804636 13.20291314588612 0 1 0
1886 1 18.583729398159452 7.976196557021886 17.237816960839005 0 0 0
3579 1 18.343497508177318 4.403865872477641 16.23308093677649 0 0 0
4413 1 19.514503236626346 7.71066915036061 13.54664665900424 1 -1 1
1888 1 16.93176804533499 7.979833589807416 15.07270065148108 1 0 0
3439 1 18.49154751340669 24.137672322399116 10.654952904943531 0 1 0
1312 1 21.22869219657605 7.749640604122813 16.652645291676684 1 -1 1
3128 1 4.3744195722932 11.409043578006676 14.765150835912495 1 0 1
1422 1 3.4549888859109137 14.930668551000577 16.089342834863807 0 0 0
6021 1 2.6771074460935007 14.01768571496364 13.553119423828317 2 1 1
1973 1 10.831510028889802 15.758320129585798 15.39379830019761 0 0 1
128 1 14.28271549010933 13.883091198662473 13.558162481028777 -1 1 0
2827 1 10.28837466292348 11.225104445461788 13.794254444968884 1 0 0
3148 1 14.35905290350327 9.789525141930664 15.265218418300572 0 0 0
1257 1 20.089684832528206 11.941981738387828 14.974368727277477 0 0 1
2811 1 16.052240400510037 0.05401713222160178 4.494665615032806 0 1 1
3231 1 4.6217569267629495 18.030465608687376 19.783902489080333 0 0 1
5092 1 3.574873978403491 23.74602124616232 14.611736636470322 0 0 -1
5091 1 4.5827534600428175 10.906846505973672 19.523757025474346 1 -1 0
4625 1 22.798507137701232 20.450828082461808 17.100719452033406 -1 0 1
2973 1 15.30574588202703 8.222652160174459 20.602759995749043 1 0 1
1876 1 12.128715252267225 13.927538847838813 17.729522788637414 1 0 0
5059 1 16.298286945008357 13.066012394524519 11.685710643352666 0 1 0
6288 1 17.669354382993212 15.851141413239702 14.86171630867689 0 0 0
5078 1 20.13654902898042 14.809108825611096 15.387969583799187 1 1 1
394 1 0.02206960254646621 14.705797264734972 14.794378359433711 0 -1 0
4675 1 1.084215173014914 23.12000713566453 17.05276275180396 1 0 0
1903 1 3.8971018144706364 22.241172173170025 17.121492452254678 0 1 0
1488 1 6.342199726805178 18.80511791372134 15.98510336807233 1 0 1
3069 1 8.31682167925652 15.26305384300187 16.1781675239758 0 -1 1
3139 1 10.46832873710129 20.152879062331788 16.962297466104655 -1 0 1
3533 1 14.618209286301669 18.2094224635973 16.795762528327728 0 0 0
1641 1 9.34373583035742 22.140029818587514 15.152782891722536 0 0 1
2980 1 11.215147930658338 18.519725995977996 14.861406360731817 1 1 1
3319 1 16.788809089282804 20.466986442353416 15.884972744739283 0 0 0
1785 1 21.730705369319608 16.038188068801105 17.362567494001105 0 1 0
1752 1 16.968976301206258 0.8899573861949716 19.68238111521205 0 0 0
2822 1 0.753764018505322 17.34379776954723 15.403785662701432 1 0 0
5290 1 8.023870058647914 21.712967742694996 19.58287831273373 1 -1 1
3637 1 6.943427192517099 21.32444397287414 16.861055936053646 0 0 0
5104 1 22.047691791588807 5.426383981506762 18.16261375858302 0 1 0
52 1 13.319478648254226 22.670686807436965 15.969179429183246 0 0 1
320 1 17.581588266704806 23.09881656131431 13.943439637464689 0 1 0
3242 1 1.6013752906985548 22.144328349283803 8.545839314117336 1 0 0
6162 1 3.6892269651144667 1.3127887506699056 18.453211489700198 -1 1 1
3562 1 10.83611963344242 9.707523690855918 20.163303457215765 0 0 0
1775 1 11.170629437876041 0.004492931164242497 16.875688134272803 1 1 0
4621 1 8.887829249088401 1.4449856998533293 14.080857427074436 1 0 1
3563 1 1.2410928058229032 16.194916409396917 10.26631252860561 1 0 1
1324 1 15.228933350460904 2.2839800478833783 17.090702959513997 0 0 1
4804 1 15.809989758967928 5.615820690887843 16.78166283411965 -1 1 1
390 1 14.84643648466367 23.320484341429324 18.323256698865777 0 1 1
1615 1 5.9835516035371885 15.323338822012552 20.64871459101835 0 0 0
3718 1 0.04010216966515401 18.195860483093966 18.11754439961225 0 0 0
5313 1 4.635233829778152 23.273491478546553 19.69431911332686 0 1 0
2026 1 17.270193234286968 15.287198314218665 19.415704896590217 0 1 1
4990 1 6.8695210186545355 6.79859383636209 19.7593445561109 0 0 0
66 1 6.316502773465657 1.1989281896790975 17.66054852824428 0 0 1
3285 1 13.47072295816428 8.103355468298524 4.3324681880395595 1 0 0
1684 1 13.518248952504345 16.517751873949035 3.3464420354464184 1 0 1
2963 1 8.78253649932672 3.112082667784103 17.571594137790896 -1 0 1
4436 1 24.00171801152572 15.342939179196815 13.705147112119164 0 0 1
33 1 17.0469310441272 21.859123945311204 19.06539760106271 1 0 1
3380 1 10.639548940842747 20.099293645432393 3.509731460971778 1 -1 0
1994 1 19.965612929224008 1.996965425489893 17.400481358265132 -1 0 0
1982 1 3.0894763694187573 5.166422041468434 11.352828222049949 1 1 0
26 1 21.946801390987897 22.54789994215677 19.44196983479754 0 0 0
3345 1 4.9760035238083224 3.2380793499385887 20.43981233857621 -1 1 1
255 1 11.14447427339356 8.580964356842005 14.618599411086354 0 -1 0
1874 1 4.150354827344001 6.531784263015615 20.806470748929833 1 0 0
424 1 8.091689042105449 13.852405919996205 19.672597929448465 0 0 0
4532 1 22.779608086571315 2.568221953860966 17.263708817887412 0 1 1
3133 1 9.399363539373404 18.755153290626186 18.947862844563062 1 0 1
1424 1 18.84841691623583 10.839183736540216 17.354938376874784 0 0 1
2028 1 13.679852443938993 1.0248090792071864 19.13068128650631 0 1 0
335 1 1.7836974643286565 12.386678421942246 16.329643883413475 0 0 0
4500 1 0.7763198114069108 16.362964006493478 19.71822694785713 1 -1 1
4797 1 19.291601144662614 18.737722227782314 19.320061749507857 0 -1 0
2008 1 24.357122818840413 3.2015493974273994 5.238946061401286 1 1 0
1984 1 2.1305110179430646 14.166332759390064 18.85634041696523 0 2 1
3164 1 6.01437912213335 10.667659333027505 17.004482556372402 2 1 1
1504 1 7.80438516225901 12.691669145870627 17.14812729915934 0 2 0
6197 1 12.772799681077405 7.888815185703638 19.248997333311785 1 0 1
69 1 9.992954852664406 15.874877843957025 19.21527804544457 1 1 0
2044 1 21.42606375625739 15.466568671052796 20.001288538219715 0 1 1
326 1 4.005262756762326 19.33971123114993 17.45589050236827 0 0 1
1644 1 23.59172352988058 11.45390686111665 3.837305062255866 0 1 0
3412 1 19.267399403534974 16.648927269298767 21.037409914313983 0 0 1
3222 1 10.342856126207426 11.384648489201744 17.06642279851272 0 0 0
468 1 5.62948186462778 24.092440517197645 10.664366065810443 2 0 1
3269 1 15.810064027337033 0.09200791646652158 15.573670812772086 0 0 0
4742 1 16.01459160094703 11.749450066915255 16.801083029878917 1 -1 0
6327 1 14.623811184276834 13.897913273481594 16.61451238080202 -1 1 0
4668 1 7.074528523812436 1.1632108991223238 20.5919574726953 1 0 1
229 1 16.294948637948348 16.092415368820085 17.1204453062117 0 0 0
2798 1 17.842238936108572 7.784671382698155 19.726496257636736 0 1 1
4791 1 11.063465668965533 5.440625369801245 17.293058867524756 0 0 0
2802 1 20.667979122681018 18.349423825301972 16.905472387842156 0 -1 1
3657 1 21.61326410070661 2.1730817923431895 9.749800368107799 0 0 0
5320 1 1.3281726680524921 20.49943059544863 19.015709654968074 1 0 0
3386 1 22.820777930208187 9.33969376132921 18.453656066537548 0 0 0
34 1 7.156031253708119 16.930971497293974 18.269011567709086 1 -1 1
1425 1 16.21122827797552 9.505015043617364 4.039148045064925 0 1 0
3061 1 15.151477535426604 21.122165745465324 4.531740283720853 0 0 0
3302 1 13.763205732512226 18.76835524736974 14.419909379769047 1 0 1
3115 1 0.38897256271020286 9.729099602046688 19.6778038178194 1 0 1
5021 1 13.014523243118202 20.55938487323702 18.361009631529726 0 -1 1
1952 1 16.675371119198317 19.1198811038975 18.987207684074935 0 0 0
3045 1 22.982822407379164 1.103071608708166 3.3482028585439663 1 -1 0
5026 1 3.717422181034218 13.448027212020326 20.816144550713613 -1 0 1
3445 1 13.441719439760337 23.82412673499072 13.390501225596017 -1 0 0
3360 1 2.3726623329974372 22.3566927921849 20.69621281629273 0 1 0
4570 1 2.5407066233549607 24.236430185958376 3.397794597000065 0 -1 1
4809 1 9.910550366734835 1.1772928420616184 19.002984852711023 0 1 0
2854 1 20.53418630206018 24.430050414391076 18.093719705385784 1 0 1
242 1 24.108741055116283 23.548109603440082 20.960510108708185 0 -1 0
6098 1 7.366825071569723 23.869641822237732 12.991378345525089 0 0 1
2982 1 2.277851040259067 18.338203632513817 21.06121281333796 1 -1 1
4897 1 17.396742667504835 3.5782305318881784 20.766641114000823 0 0 1
5294 1 13.206347711025218 0.5340787943356272 8.180202436035497 -1 1 0
4853 1 20.70281386620814 20.609328117212865 21.01454580303125 -1 0 0
1746 1 24.394658287428104 0.7896246554003337 6.808481457758582 0 1 0
1768 1 0.05510774208080751 19.777029064699192 7.639500456880716 1 1 0
1828 1 21.434054439019636 12.695275446309031 20.73364632487035 0 0 0
3695 1 15.110122906311597 16.285184468230874 21.055486692553757 0 0 0
5079 1 14.093496797397231 24.16815256605219 20.9685179068266 0 -1 -1
24 1 16.54906388089763 12.932505370367355 20.026666861583333 0 -1 1
1704 1 11.3649546597001 2.0773370807273177 21.077408584097263 0 1 0
5956 1 1.6733952421518725 5.235880786443296 21.008418242931103 -1 1 1
5257 1 24.032204947000775 23.172369692010847 23.866445084706886 0 0 1
4866 1 9.484735163192063 4.308109386554466 22.03702505876153 -1 1 1
3320 1 18.115971765518335 23.09231591088165 21.519792685193753 1 -1 0
4837 1 24.256557101477895 7.229828690854658 24.563683999024438 0 1 0
5040 1 21.977956128482358 2.4754141120252364 21.599328928650493 0 -1 1
4846 1 24.239476207802202 0.9362413887623949 23.561677453411544 0 2 1
1549 1 23.32985234763746 9.79647726500527 23.263935183321934 0 1 1
6238 1 3.7905054106641796 14.381249464093127 23.488738156693543 1 0 1
5046 1 2.807929201782578 0.5804116152691623 23.898223645823563 1 1 1
4856 1 17.74500255424742 3.568820076823244 23.778812452056112 -1 0 0
5960 1 19.0450186320017 9.560053832791585 21.382681754040686 -1 1 1
1854 1 6.7334060274474234 11.055691469161848 21.929413752294717 0 0 0
5977 1 0.34798715095556654 16.181045553840786 35.3447510752036 0 0 0
1453 1 21.575212636149583 5.572570288268853 24.49052406819553 0 0 1
4803 1 19.351099898897377 6.048303274195042 21.447790071900393 1 0 0
3498 1 2.2204742846711296 3.40359163679759 24.349602220207224 0 0 0
2853 1 5.280177390468172 24.498121987308828 38.27279310183368 1 1 0
1910 1 4.6230468350522695 4.518498760740212 23.163562686496725 0 1 1
3352 1 7.311766169182778 3.6294802405105973 23.830668988444216 1 2 0
396 1 0.2455386083154169 5.044470922259694 23.731788076364865 0 0 0
4501 1 9.77252104903595 18.81024166788787 38.623780449592985 1 0 0
5165 1 10.751427941505103 1.4550668764614756 23.87602996041334 1 1 -1
189 1 9.564260282439626 24.2019252709919 36.71234724054217 -1 -1 -1
247 1 15.12773283899314 2.642393166448272 23.420518036225573 0 1 1
3440 1 18.96007935020434 5.978171068412118 23.861484707493776 0 1 1
6135 1 2.5433515849785207 14.922247919359986 36.09937360279489 0 1 0
3641 1 2.289267142781718 9.764754106771013 23.678501642193254 0 0 0
4885 1 4.1907753949128175 7.038923432157548 24.43463480172058 -1 1 1
4686 1 6.528738402054583 8.473614031222668 24.05816410740362 0 1 0
294 1 3.727213261606764 24.423067098606094 24.054302406319405 1 0 0
5984 1 10.23800925440374 12.107106388083233 24.0961141271951 0 0 0
4905 1 9.620528023843555 6.82624742461931 23.612677927552458 0 0 1
3194 1 12.595708950437684 3.4123754332996055 24.531295242362955 1 0 0
380 1 12.307546548459698 5.837940496888298 23.34992235650438 0 1 0
3454 1 17.347147043718056 8.198840015470541 24.404677886459766 1 0 0
3482 1 18.156205522816308 10.785226671259993 23.94545620273535 0 1 0
3347 1 20.968291515508398 11.634657446716226 23.544189495886055 0 0 0
1739 1 21.29401594992677 3.560829242352149 38.34070559981542 1 0 -1
5008 1 0.18081239612492547 13.715417301072156 23.212258038870328 1 -1 0
3068 1 20.76295655163818 24.188298883308967 21.414810517079328 0 -1 1
4779 1 6.79585946003936 11.349931758209303 24.52817676149703 0 0 1
389 1 8.04871734475874 14.091608814885323 24.33991609251719 0 -1 0
3714 1 15.938512453381371 15.165512181165907 38.47746491575442 1 -1 -1
3428 1 11.205980637403394 9.375483372253377 23.057286946807213 1 -1 0
5204 1 12.642839257802803 12.818587844083293 22.569273810245182 1 0 0
3267 1 14.994262913772706 7.542499272847498 23.105041899530026 0 0 1
1819 1 13.925656737483767 10.546902220829061 23.83578491499928 -1 0 0
4467 1 16.002769179159493 12.18052861025824 22.734819055653958 0 1 0
4981 1 3.4833328741812073 0.32133544760057514 36.33957505469444 1 1 -1
1681 1 22.069897706048106 16.38085041408111 23.741266458410713 -1 1 1
5148 1 16.2118051238988 24.406692128930413 24.591867943275346 0 0 0
5089 1 1.7335738134274268 15.535827388816731 24.655333897085494 0 0 0
176 1 6.246625588791579 15.979058754048115 23.18795671613468 0 0 0
1736 1 5.967083734747774 18.904911975417555 24.004124657285814 0 0 1
3583 1 10.074344221102258 14.985820258035012 22.180887957605158 0 0 1
3372 1 14.572925768078083 14.698672060473516 23.254069113724213 0 -1 0
1516 1 17.61105688750741 14.994102572831826 23.62228537428628 -1 0 1
4633 1 23.325272692909845 13.580140245771725 38.2011690235998 0 0 -1
3720 1 18.058807111970705 22.409806525310202 38.33206951655322 0 0 0
5983 1 20.892537906052734 19.170357986904587 24.08075498418095 0 0 1
1991 1 12.439979608317888 2.411213357902302 35.922350671722874 0 1 0
6324 1 1.2022135647337266 18.145201395229183 23.762697038375997 1 -1 0
1427 1 3.4849908069851625 19.51768871666244 24.522469690632775 1 -1 1
6234 1 22.396717264348624 1.2610296493967816 35.85291741959106 1 -1 0
127 1 8.578901177197151 17.72844366281759 21.918715992680536 0 -1 1
3227 1 12.063315845262608 15.946183004864489 24.058347117962818 0 0 1
5061 1 7.979115145691711 21.258438139456334 38.82866593234858 1 0 -1
1753 1 16.6803331255013 19.682644491685554 24.155817149596484 0 0 0
5106 1 18.76603872631366 17.672831544448353 23.759292301355618 1 0 0