
# read in water data
read_data data.ML_1atm_240K group water extra/atom/types 1
Reading data file ...
  orthogonal box = (0.0000000 0.0000000 1.9288521) to (49.220000 49.019636 58.133148)
  2 by 2 by 3 MPI processor grid
  reading atoms ...
  4500 atoms
  reading velocities ...
  4500 velocities
  read_data CPU = 0.018 seconds

# remove area for graphite
region substrate block 0 ${XDIM} 0 ${YDIM} ${Z_LO} ${Z_HI}
region substrate block 0 49.22 0 ${YDIM} ${Z_LO} ${Z_HI}
region substrate block 0 49.22 0 49.019635930410494 ${Z_LO} ${Z_HI}
region substrate block 0 49.22 0 49.019635930410494 25 ${Z_HI}
region substrate block 0 49.22 0 49.019635930410494 25 35.062
delete_atoms region substrate
Deleted 811 atoms, new total = 3689

# Insert substrate
read_data data.graphite add append shift 0.0 0.0 ${Z_LO} group graphite offset 1 0 0 0 0
read_data data.graphite add append shift 0.0 0.0 25 group graphite offset 1 0 0 0 0
Reading data file ...
  orthogonal box = (0.0000000 0.0000000 1.9288521) to (49.220000 49.019636 58.133148)
  2 by 2 by 3 MPI processor grid
  reading atoms ...
  2760 atoms
  reading velocities ...
  2760 velocities
  read_data CPU = 0.010 seconds


# Define potential
# CHECK ON THIS %%%%%%%%%%%%
#
pair_style sw
pair_coeff * * MLC_e.sw mW C


# Delete water and ice atoms that are overlapping
#
delete_atoms overlap 2.5 water graphite
System init for delete_atoms ...
Neighbor list info ...
  update every 1 steps, delay 10 steps, check yes
  max neighbors/atom: 2000, page size: 100000
  master list distance cutoff = 6.8872056
  ghost atom cutoff = 6.8872056
  binsize = 3.4436028, bins = 15 15 17
  2 neighbor lists, perpetual/occasional/extra = 1 1 0
  (1) command delete_atoms, occasional, copy from (2)
      attributes: full, newton on
      pair build: copy
      stencil: none
      bin: none
  (2) pair sw, perpetual
      attributes: full, newton on
      pair build: full/bin/atomonly
      stencil: full/bin/3d
      bin: standard
Deleted 121 atoms, new total = 6328

# set timestep
#
timestep 10.0

# Define output
#

compute 1 all msd
compute 2 water temp
compute        peratom water stress/atom NULL
compute        p water reduce sum c_peratom[1] c_peratom[2] c_peratom[3]
variable       water_press equal -(c_p[1]+c_p[2]+c_p[3])/(3*(vol-24277.055086535))

thermo 50
thermo_style custom step c_2 v_water_press vol etotal ke pe c_1[4]

# Neighbor lists
#
neigh_modify delay 0 every 1 check yes


# Fix graphite atoms in place
#
fix 1 graphite setforce 0.0 0.0 0.0
velocity graphite set 0.0 0.0 0.0


### Set fixes ###
#

# Run 0.25 ns equilibration of water in NPH ensemble
#
fix 2 water momentum 10 linear 1 1 1 rescale
fix 3 water nph z ${PRES} ${PRES} ${PCOUPL}
fix 3 water nph z 1 ${PRES} ${PCOUPL}
fix 3 water nph z 1 1 ${PCOUPL}
fix 3 water nph z 1 1 10000.0
fix 4 water temp/csvr ${TEMP} ${TEMP} ${TCOUPL} 837492
fix 4 water temp/csvr 240 ${TEMP} ${TCOUPL} 837492
fix 4 water temp/csvr 240 240 ${TCOUPL} 837492
fix 4 water temp/csvr 240 240 5000.0 837492

dump 	1 all atom 2000 nph.${NAME}.dump
dump 	1 all atom 2000 nph.ML_graphite_1atm_240K.dump
run 	25000
Neighbor list info ...
  update every 1 steps, delay 0 steps, check yes
  max neighbors/atom: 2000, page size: 100000
  master list distance cutoff = 6.8872056
  ghost atom cutoff = 6.8872056
  binsize = 3.4436028, bins = 15 15 17
  1 neighbor lists, perpetual/occasional/extra = 1 0 0
  (1) pair sw, perpetual
      attributes: full, newton on
      pair build: full/bin/atomonly
      stencil: full/bin/3d
      bin: standard
Per MPI rank memory allocation (min/avg/max) = 5.324 | 5.327 | 5.331 Mbytes
Step c_2 v_water_press Volume TotEng KinEng PotEng c_1[4] 
       0    239.82766   -840.77074    135606.72   -32967.293    2549.9794   -35517.272            0 
      50    251.18957   -1222.1045    135427.29   -32960.543    2670.7855   -35631.328   0.56375433 
     100    250.98949   -1417.4001    134746.61   -33001.911    2668.6582   -35670.569   0.95509296 
     150    255.71592   -681.71365     133752.4   -33022.267    2718.9121   -35741.179    1.3812038 
     200    249.99004   -358.49042    132963.86   -33036.077    2658.0314   -35694.108    1.7742856 
     250    252.81422   -560.70247     132446.2   -33053.186    2688.0597   -35741.246    2.1718908 
     300     257.0555   -149.52056    132003.47   -33058.252    2733.1553   -35791.407    2.5742075 
     350    255.23004   -336.50184    131614.41   -33038.909     2713.746   -35752.655    2.8673372 
     400    255.60686   -512.93928    131326.67   -33089.628    2717.7525   -35807.381    3.2097707 
     450    252.53799    -447.9796    131036.25   -33114.892    2685.1226   -35800.014    3.5496492 
     500    254.38304    11.381879    130716.62   -33138.299    2704.7403   -35843.039     3.842595 
     550    250.89452    -491.4355    130447.68   -33160.465    2667.6484   -35828.113    4.2551081 
     600    246.22841   -480.37672    130176.93    -33175.64    2618.0358   -35793.676    4.6442619 
     650    246.72918   -341.31435    129914.33   -33201.471    2623.3602   -35824.831    4.9603743 
     700      251.488   -69.532174    129691.42   -33196.636    2673.9586   -35870.594    5.3873961 
     750    252.98147   -49.910643    129538.66   -33224.567     2689.838   -35914.405    5.7928466 
     800    246.69916    112.80076    129479.89   -33228.691     2623.041   -35851.732    6.1503261 
     850    248.94679    256.35478    129490.69   -33247.243     2646.939   -35894.182    6.4878081 
     900    247.30877   -27.787383    129545.96    -33268.69    2629.5227   -35898.213    6.8055543 
     950    247.31803   -95.409129     129640.1   -33286.563    2629.6211   -35916.184    6.9763368 
    1000    248.48142   -234.49364    129744.05   -33274.005     2641.991   -35915.996    7.2761521 
    1050    244.06249   -42.741961     129821.8   -33295.137    2595.0065   -35890.144    7.5411418 
    1100    245.47886    227.88642    129878.39   -33287.845    2610.0661   -35897.911    7.8066124 
    1150     245.7681   -102.01301    129983.25   -33302.001    2613.1414   -35915.143    8.0704367 
    1200    249.00921   -276.59746     130046.4   -33329.206    2647.6027   -35976.808    8.2708685 
    1250    245.21705   -103.09497    130069.91   -33334.577    2607.2824    -35941.86    8.5458747 
    1300    240.42886   -396.79661    130049.92   -33359.217    2556.3718   -35915.589    8.9066095 
    1350    239.88469   -174.90132    129994.97   -33347.683    2550.5859   -35898.269    9.2290404 
    1400      247.982   -143.60546    129920.14   -33344.836    2636.6809   -35981.517    9.6076138 
    1450    241.89874   -288.50458    129819.48   -33338.504    2572.0003   -35910.504    9.9545552 
    1500    239.05756    46.118288    129643.41   -33377.159    2541.7913   -35918.951    10.204303 
    1550     245.4084   -117.44615    129447.67   -33357.666    2609.3169   -35966.983    10.546609 
    1600    237.92947    -287.8062     129304.2    -33363.19    2529.7968   -35892.987    10.795529 
    1650    239.79786   -142.59347    129170.26   -33375.024    2549.6626   -35924.686     11.07063 
    1700    242.62895   -256.04797    129065.29   -33390.103    2579.7643   -35969.867    11.391312 
    1750    240.99243    466.11122    128989.79    -33362.78    2562.3639   -35925.144    11.679911 
    1800    245.36058   -76.550424    128997.23    -33391.33    2608.8085   -36000.138    12.082463 
    1850    240.37212    -101.0903    129048.14   -33380.602    2555.7685    -35936.37    12.372006 
    1900    242.29801   -197.25578    129089.83   -33383.124    2576.2455   -35959.369    12.665706 
    1950    241.87059    -172.8541    129070.06   -33385.753    2571.7011   -35957.454    13.015665 
    2000    242.72826   -283.26652    129032.62   -33360.125    2580.8202   -35940.946    13.244372 
    2050     240.6601   -15.443012    128979.37   -33370.035    2558.8304   -35928.865    13.499745 
    2100    241.97163    236.00072    128967.07   -33380.814    2572.7753   -35953.589    13.821804 
    2150    247.35062    310.73782    128979.88   -33361.016    2629.9677   -35990.984    14.080648 
    2200    247.39113    223.26247    128970.75   -33353.895    2630.3985   -35984.294    14.204303 
    2250    245.42965    302.34404    128920.82   -33363.182    2609.5429   -35972.724    14.542509 
    2300    245.65018    20.213888    128875.92   -33369.868    2611.8877   -35981.755    14.837373 
    2350    240.75705    40.439308    128834.98   -33366.932    2559.8613   -35926.793    15.051353 
    2400    238.10639   -44.454088    128851.16    -33384.82     2531.678   -35916.498    15.214741 
    2450    243.29976    311.44809    128927.77   -33429.702    2586.8968   -36016.599    15.600335 
    2500    242.10513   -156.38223    129044.17   -33454.266    2574.1947    -36028.46    15.775298 
    2550    241.43083   -171.26395    129170.73   -33415.008    2567.0252   -35982.033    15.965683 
    2600    243.13972     23.34859    129279.16   -33433.006    2585.1951   -36018.201    16.188716 
    2650     243.7699   -224.80762    129371.26   -33451.701    2591.8955   -36043.596    16.358625 
    2700    244.42043   -160.61074    129409.87   -33451.692    2598.8123   -36050.505    16.561198 
    2750    237.79237   -422.26118    129355.96   -33438.588    2528.3391   -35966.927    16.809692 
    2800    238.44651   -214.16866    129187.49   -33463.859    2535.2943   -35999.153    16.967255 
    2850    240.11357   -14.806964    128996.64   -33461.553    2553.0194   -36014.572    17.449739 
    2900    241.17659   -244.43553    128846.71   -33464.661     2564.322   -36028.983    17.901041 
    2950    240.97853    275.96235    128703.09   -33472.425    2562.2161   -36034.641    18.215921 
    3000    238.07408   -182.66598    128620.11   -33487.705    2531.3344    -36019.04    18.512062 
    3050     240.9686    576.43772    128619.81   -33490.931    2562.1105   -36053.042     18.70302 
    3100    243.91987   -150.74683    128746.45   -33464.558    2593.4901   -36058.048    18.895802 
    3150     245.1882    62.695664    128926.47   -33454.395    2606.9757   -36061.371     18.98897 
    3200    243.61873    24.104046    129154.66   -33452.534    2590.2881   -36042.822    19.162882 
    3250    243.57014   -719.61114     129345.9   -33444.102    2589.7715   -36033.873    19.418427 
    3300    241.78217   -92.903354    129429.26   -33455.043    2570.7609   -36025.804    19.560193 
    3350    244.56931    -339.4163    129466.19   -33486.247    2600.3953   -36086.642    19.806974 
    3400    233.48342   -443.26104     129477.4   -33501.595     2482.524   -35984.119    20.236333 
    3450    238.81482    -172.2043    129473.59    -33534.36    2539.2104    -36073.57    20.517133 
    3500    241.70792   -261.25739    129417.17   -33544.929    2569.9714   -36114.901    20.796594 
    3550    240.14481   -180.74929    129268.44   -33546.679    2553.3515   -36100.031    21.298695 
    3600    239.15751    153.13025    129063.97   -33544.333     2542.854   -36087.187    21.490613 
    3650    243.71737   -24.636924    128947.46   -33534.411     2591.337   -36125.748    21.756865 
    3700    240.27809   -146.16979     128858.2   -33518.808    2554.7687   -36073.577    21.863358 
    3750    239.95174    145.64372    128745.27   -33470.101    2551.2987     -36021.4    22.054629 
    3800    241.70479   -60.457834    128664.28   -33476.949    2569.9381   -36046.887    22.386554 
    3850    239.21579   -250.21562    128586.09   -33450.349    2543.4737   -35993.823    22.719918 
    3900    241.00621   -143.05785    128495.36   -33447.737    2562.5104   -36010.247    22.937943 
    3950    241.96133   -27.223421    128425.67   -33451.099    2572.6658   -36023.765    23.320457 
    4000    238.00607    155.70886    128389.58    -33475.01    2530.6113   -36005.621    23.430528 
    4050    243.69936   -87.931233    128401.68   -33483.583    2591.1455   -36074.729    23.809565 
    4100    244.86293   -170.97516    128465.76   -33480.458    2603.5173   -36083.976    23.977891 
    4150     243.1838    73.970851    128584.58   -33506.365    2585.6638   -36092.029    24.279634 
    4200    240.90102    176.01816    128769.91   -33499.333    2561.3921   -36060.725    24.682818 
    4250    236.66947   -269.70277    129026.09     -33488.7    2516.3998     -36005.1    24.851159 
    4300    238.83417    43.547452    129251.25   -33483.708    2539.4161   -36023.124    25.151167 
    4350     235.8733   -253.45769    129430.93   -33487.257    2507.9345   -35995.192    25.484049 
    4400    243.11449    89.000182    129551.33   -33476.336    2584.9269   -36061.263    25.806105 
    4450    238.89795    200.51213       129661   -33477.713    2540.0943   -36017.807    25.862682 
    4500    239.69348   -310.45281    129780.04   -33479.309    2548.5527   -36027.862    26.139127 
    4550    240.11874   -19.959681    129820.02   -33473.645    2553.0744   -36026.719    26.434622 
    4600    237.29611   -427.12225    129810.81   -33467.641    2523.0626   -35990.704    26.667242 
    4650     241.3108   -105.00987    129765.79   -33453.167     2565.749   -36018.916    26.867132 
    4700    240.66281   -66.620917    129742.62   -33463.843    2558.8592   -36022.702    27.183511 
    4750    243.06836   -281.59514    129725.21   -33465.148    2584.4363   -36049.584     27.47167 
    4800    243.11914   -153.97492    129670.95   -33448.395    2584.9763   -36033.371     27.78087 
    4850    238.87694   -57.680061    129610.86   -33435.342    2539.8709   -35975.213    28.082961 
    4900    237.14563   -36.727283    129528.25   -33440.725    2521.4626   -35962.187    28.339395 
    4950    239.50245   -10.423608    129442.58   -33445.336    2546.5217   -35991.858    28.635053 
    5000    238.38013     141.3084    129428.79   -33456.819    2534.5885   -35991.407    28.998568 
    5050    242.22984   -117.77872    129477.48   -33472.176    2575.5207   -36047.697    29.185274 
    5100    242.20064   -39.540804    129526.43   -33467.205    2575.2103   -36042.415    29.343113 
    5150    242.05148   -261.90218    129533.55   -33479.452    2573.6243   -36053.076    29.521233 
    5200    241.52233   -113.69406    129525.14   -33464.023    2567.9981   -36032.021    29.726123 
    5250    243.43411    122.56689    129557.96   -33450.797    2588.3253   -36039.122    30.083594 
    5300    246.80783   -210.11838    129623.75    -33426.94    2624.1965   -36051.136    30.468665 
    5350    248.00986   -404.51814    129651.16   -33427.054    2636.9771   -36064.031    30.771163 
    5400    245.41091   -617.36837    129644.31   -33434.806    2609.3436   -36044.149    31.154796 
    5450    240.74773   -115.54056    129570.71   -33426.082    2559.7621   -35985.844    31.540141 
    5500     237.0599   -174.45742    129486.09   -33420.699    2520.5511    -35941.25    31.770463 
    5550    243.26899   -191.64906    129380.85   -33429.092    2586.5696   -36015.662     32.24601 
    5600    239.71512     87.14299    129305.28   -33409.952    2548.7828   -35958.735    32.547528 
    5650    239.49632   -162.43064    129264.14   -33405.994    2546.4565    -35952.45     32.96527 
    5700    242.55743   -462.15176    129207.07   -33385.523    2579.0038   -35964.527    33.309672 
    5750    247.16022    363.33607    129124.59   -33391.649    2627.9432   -36019.592    33.630221 
    5800    239.42259   -357.71522    129084.87   -33400.713    2545.6725   -35946.385    33.841061 
    5850    244.73728    144.99844    129041.74   -33410.072    2602.1812   -36012.254    34.130564 
    5900    240.59311    312.77045    129031.44   -33385.378    2558.1181   -35943.496    34.475813 
    5950    237.86518   -272.48314    129132.03   -33377.881    2529.1133   -35906.994    34.649159 
    6000    237.96086   -356.35464     129256.9   -33387.851    2530.1307   -35917.981    34.863278 
    6050    239.53286   -107.63985    129345.82    -33414.53     2546.845   -35961.375     35.20225 
    6100    238.86847   -185.12479    129388.78   -33408.428    2539.7808   -35948.209     35.40269 
    6150    244.63518   -850.06185    129305.57   -33389.372    2601.0957   -35990.467    35.640995 
    6200    240.99709   -420.04733       129092   -33375.768    2562.4135   -35938.182    35.992142 
    6250    244.77524   -41.526125    128840.57   -33353.851    2602.5848   -35956.436    36.222433 
    6300     238.8539    20.602969    128641.68   -33367.322    2539.6259   -35906.948    36.512722 
    6350    238.49691    135.38367    128535.87    -33374.41    2535.8302    -35910.24    36.772358 
    6400    239.27392   -37.615029    128492.46   -33339.838    2544.0918    -35883.93    36.983801 
    6450    241.45665   -181.94608    128479.59   -33346.917    2567.2998   -35914.217    37.285891 
    6500    237.90386   -8.3126749    128504.92    -33327.42    2529.5246   -35856.945    37.789159 
    6550    240.69141   -79.793998    128537.59   -33331.755    2559.1633   -35890.919    38.038281 
    6600    237.39491   -317.59455    128572.47   -33368.004    2524.1132   -35892.117    38.313913 
    6650    241.08066    281.99895    128611.35    -33394.54    2563.3021   -35957.842     38.54442 
    6700     237.7491    133.66202    128645.95   -33396.939    2527.8791   -35924.818    38.915419 
    6750     244.9581    79.267132    128707.39   -33416.095    2604.5291   -36020.624    39.163161 
    6800    241.64333   -18.100774    128753.02   -33409.601    2569.2847   -35978.886    39.429903 
    6850    245.63209   -96.885082    128765.78   -33430.675    2611.6954    -36042.37    39.946791 
    6900    239.29251    160.06805    128749.15   -33438.066    2544.2894   -35982.355    40.063322 
    6950    237.99568    398.70776    128813.95   -33426.888    2530.5008   -35957.388    40.292834 
    7000    238.04696    224.21889    128963.41   -33423.624    2531.0461    -35954.67    40.687253 
    7050     242.7345   -324.15858    129143.23   -33417.058    2580.8865   -35997.945    41.026495 
    7100    244.30594   -7.9040584    129333.08   -33395.023     2597.595   -35992.618    41.055155 
    7150    243.17544    -681.0605    129511.01   -33389.151    2585.5749   -35974.726    41.250084 
    7200    247.22096   -254.08515    129642.56    -33374.48    2628.5891   -36003.069    41.348676 
    7250    250.87215   -333.21422    129720.16   -33331.002    2667.4105   -35998.412    41.472789 
    7300    244.68282   -401.02337    129777.19   -33335.496    2601.6022   -35937.098    41.820908 
    7350    246.25391   -81.590913     129802.4   -33346.422    2618.3069   -35964.729    41.732037 
    7400    240.98148   -372.68162    129827.84   -33349.165    2562.2475   -35911.413    41.896602 
    7450    243.87143   -218.94878    129869.07   -33341.982     2592.975   -35934.957     41.99575 
    7500    242.65203    391.58518    129919.61   -33356.997    2580.0097   -35937.006    42.199883 
    7550    243.94127   -288.17985    130015.35   -33390.156    2593.7176   -35983.874    42.686861 
    7600    243.86305   -163.64696    130067.09   -33394.489    2592.8859   -35987.375    43.121347 
    7650     247.1137   -214.56429    130111.02   -33379.136    2627.4487   -36006.585    43.225963 
    7700    244.62818    -509.9258    130123.28   -33379.934    2601.0213   -35980.955    43.434992 
    7750     244.9876   -173.71814    130045.95   -33396.939    2604.8427   -36001.782    43.725959 
    7800    243.31225   -30.952336    129956.24   -33429.886    2587.0295   -36016.915    44.248208 
    7850    244.01069    -363.4033    129892.18   -33413.653    2594.4557   -36008.109    44.638116 
    7900    244.52075   -204.18942    129866.43   -33391.242     2599.879   -35991.121     44.89427 
    7950    243.67406   -230.23421     129874.4   -33399.735    2590.8765   -35990.612    45.237614 
    8000    240.78437   -365.45646    129911.25   -33405.491    2560.1517   -35965.643    45.296766 
    8050    242.92986    -548.3412    129917.94   -33414.676    2582.9638   -35997.639    45.510309 
    8100    244.94309   -105.81046    129885.01   -33439.864    2604.3695   -36044.234    45.639063 
    8150    242.72426    142.54419    129875.27    -33469.38    2580.7776   -36050.157    46.125378 
    8200    248.38471    71.278024    129939.38   -33451.468    2640.9627    -36092.43    46.664065 
    8250    240.32568    -368.7203    130078.17   -33451.886    2555.2747   -36007.161    47.042589 
    8300     236.2626   -473.60926    130207.54   -33441.298    2512.0738   -35953.372    47.112295 
    8350    242.37157   -531.39433    130253.79    -33476.26    2577.0277   -36053.288    47.334987 
    8400      241.217   -297.44732     130164.1   -33489.215    2564.7517   -36053.967    47.479539 
    8450    240.52216    -181.4885    130009.29   -33479.649    2557.3638   -36037.012    47.737173 
    8500    244.19254   -35.639382     129872.8   -33457.533    2596.3892   -36053.922    47.984706 
    8550    248.09373    287.49294    129788.28   -33437.729    2637.8688   -36075.598    48.340633 
    8600    248.34796    -422.3734    129743.69   -33435.793     2640.572   -36076.365    48.755994 
    8650    240.99862   -91.658245    129669.97   -33418.709    2562.4298   -35981.139    48.988817 
    8700    245.09171    16.859072    129582.83   -33399.189    2605.9497   -36005.139    49.011832 
    8750     246.1116    64.513187     129538.1   -33389.468    2616.7937   -36006.262    49.293588 
    8800     247.7456    301.89909    129562.62   -33383.606    2634.1673   -36017.773    49.456394 
    8850    250.17416    422.82905    129639.46   -33374.328    2659.9891   -36034.317    49.708023 
    8900    250.49239   -393.25663    129759.53   -33377.421    2663.3727   -36040.794    49.888778 
    8950    246.54099   -507.49861    129842.29   -33367.927    2621.3592   -35989.286      50.0261 
    9000    241.55708   -35.660954    129899.55   -33367.948    2568.3676   -35936.315    50.341602 
    9050    243.83874   -229.09766    129965.69   -33370.356    2592.6275   -35962.983    50.857128 
    9100    248.69723    57.565478       130019   -33377.195    2644.2856   -36021.481    50.880203 
    9150    244.89172    312.55071    130086.99   -33379.256    2603.8233   -35983.079    50.991681 
    9200    244.34447   -29.694842    130201.28   -33360.383    2598.0047   -35958.388    51.336643 
    9250    242.21973   -286.93296    130342.49   -33360.712    2575.4133   -35936.126    51.639981 
    9300    242.40548   -35.330734    130437.74   -33394.717    2577.3883   -35972.105    51.833736 
    9350    243.87054   -518.53987    130464.95   -33401.819    2592.9655   -35994.784    52.358107 
    9400    240.86249   -210.95297    130406.55    -33406.99    2560.9823   -35967.972    52.699831 
    9450    243.63995   -583.53449    130263.07   -33411.089    2590.5138   -36001.602    53.171654 
    9500    240.84592    -196.4088    130000.23    -33401.36    2560.8061   -35962.166    53.565386 
    9550    245.69736    -107.5915    129730.71   -33412.596    2612.3894   -36024.986    53.799113 
    9600    243.61104    101.40098    129566.22   -33400.706    2590.2064   -35990.912    54.155864 
    9650    239.08483    11.218059     129478.6    -33380.59    2542.0813   -35922.671    54.223813 
    9700    241.42654      -379.24    129442.04   -33385.186    2566.9796   -35952.165    54.448062 
    9750    237.46641   -252.76269    129433.74   -33416.307    2524.8733    -35941.18    54.724724 
    9800    238.47387   -289.79914    129416.42   -33413.468    2535.5852   -35949.053    55.147436 
    9850    240.76863   -119.72355    129364.93   -33410.624    2559.9843   -35970.608    55.624326 
    9900    240.15354   -137.48237    129290.24   -33391.348    2553.4444   -35944.792    55.814992 
    9950    241.75291    99.463097    129211.78   -33388.822    2570.4498   -35959.271    56.013188 
   10000     241.9494   -12.591647    129205.66   -33407.136     2572.539   -35979.675    56.343173 
   10050    243.88911   -60.698736    129262.24   -33396.771    2593.1631   -35989.934    56.828573 
   10100    243.26826   -300.61279     129305.2   -33412.757    2586.5618   -35999.319    57.185569 
   10150    241.99898    382.39525    129331.54   -33404.265    2573.0661   -35977.331    57.517217 
   10200    241.99392    214.18687    129396.48     -33418.6    2573.0124   -35991.613    57.800428 
   10250    245.09301   -274.79697    129467.06   -33393.379    2605.9635   -35999.343    58.001117 
   10300    240.50048    328.42503    129522.46   -33375.092    2557.1332   -35932.225    58.358628 
   10350    244.79464   -37.317453    129628.74    -33386.37    2602.7911   -35989.161    58.680366 
   10400    243.56267    -43.90248    129710.06   -33406.757    2589.6921   -35996.449    58.927008 
   10450     246.5967   -112.47606    129743.85   -33382.167    2621.9516   -36004.119    59.132304 
   10500    242.52514   -192.60093    129747.54   -33385.572    2578.6605   -35964.232    59.298974 
   10550    242.01884    -128.7031     129671.1   -33386.309    2573.2773   -35959.587    59.411173 
   10600    242.00754   -193.77286    129576.85   -33385.991    2573.1571   -35959.148    59.816255 
   10650    241.49959    299.17541    129459.95    -33407.96    2567.7564   -35975.716    59.970991 
   10700    237.80577   -87.866907    129341.08   -33426.618    2528.4817     -35955.1    59.790082 
   10750    245.28534    134.93325    129168.76    -33426.87    2608.0086   -36034.879    60.055042 
   10800    242.27302   -94.267345    128997.75    -33425.18    2575.9799    -36001.16     60.29782 
   10850    240.64711   -301.87405    128868.49   -33428.359    2558.6922   -35987.051    60.463626 
   10900     239.8713    242.40392    128768.16   -33429.721    2550.4435   -35980.164    60.499008 
   10950    241.23903   -318.51301    128734.14   -33444.255    2564.9859   -36009.241     60.93599 
   11000     237.4663    46.792305    128678.45   -33458.386    2524.8722   -35983.259    61.239966 
   11050    243.84286   -242.59397    128663.14   -33452.739    2592.6712   -36045.411    61.868883 
   11100    243.31253    68.681421    128646.44   -33484.608    2587.0326   -36071.641    62.193546 
   11150    239.40411    509.85948    128674.42   -33477.438    2545.4761   -36022.914    62.587583 
   11200    241.55409    115.74547    128794.12   -33471.819    2568.3358   -36040.154    62.911126 
   11250    242.77988   -65.127929    128931.89   -33475.662    2581.3691   -36057.031    63.259754 
   11300    235.71439    181.07652    129027.56   -33493.448    2506.2449   -35999.693    63.593079 
   11350    237.96725   -60.164046    129067.98   -33485.362    2530.1986    -36015.56    63.767611 
   11400    239.77021   -136.61279     129096.1    -33497.15    2549.3686   -36046.519    63.883191 
   11450    241.58657    58.191594    129113.76    -33483.27    2568.6812   -36051.951    64.234543 
   11500    235.23414   -347.73093    129103.36   -33442.265    2501.1386   -35943.403    64.462875 
   11550    250.03429    343.21719    129034.47   -33444.076    2658.5019   -36102.578    64.717182 
   11600    244.20698    34.249556    128969.34   -33466.641    2596.5427   -36063.184    65.312971 
   11650     242.7019    127.45562    128937.58   -33502.943      2580.54   -36083.483    65.721014 
   11700    241.64844    150.80993    128894.38   -33494.123     2569.339   -36063.462     66.07513 
   11750    239.01631   -127.84716     128842.8   -33518.836    2541.3527   -36060.189    66.261898 
   11800    240.64835   -547.98865    128724.47    -33540.63    2558.7054   -36099.335     66.44937 
   11850    237.09798     145.8085    128511.73   -33537.506     2520.956   -36058.462    66.553595 
   11900    241.81413    143.87376    128361.45   -33534.101    2571.1007   -36105.201    66.812119 
   11950    240.12779    122.32088    128272.88    -33524.64    2553.1705    -36077.81    67.009901 
   12000    236.37732    105.10892    128230.61   -33531.635    2513.2935   -36044.929     67.10428 
   12050    236.03488    288.54931    128274.46   -33549.085    2509.6525   -36058.738    67.168382 
   12100    237.90994   -8.7393168    128401.25   -33525.973    2529.5892   -36055.563     67.42288 
   12150     241.6746   -434.28517    128538.16   -33519.542    2569.6172   -36089.159    67.477458 
   12200    242.15477   -425.57663    128630.08   -33496.061    2574.7226   -36070.783    67.646773 
   12250    236.84233   -386.07436    128684.45   -33504.859    2518.2378   -36023.097    67.943904 
   12300    234.10112    11.611338     128708.4   -33467.336    2489.0917   -35956.428    68.139736 
   12350    234.91512   -598.33898    128723.79   -33485.791    2497.7466   -35983.537    68.541783 
   12400    239.42464    157.22528    128720.87   -33457.906    2545.6944     -36003.6    68.761126 
   12450    237.67193    47.589279    128760.19   -33457.938    2527.0585   -35984.997    69.001504 
   12500    239.26633     57.43387    128831.04    -33468.07    2544.0111   -36012.082    69.199642 
   12550    238.93294   -46.586784    128963.09    -33451.29    2540.4663   -35991.756    69.648891 
   12600     242.1768     170.6442    129089.34   -33473.564    2574.9568    -36048.52    70.026318 
   12650    240.58725   -187.54284    129174.42   -33461.924    2558.0558    -36019.98    70.224545 
   12700    240.71635    20.031161     129205.8   -33468.443    2559.4285   -36027.871    70.534717 
   12750    238.63591   -195.31027    129187.91   -33458.952    2537.3081    -35996.26    70.892394 
   12800    236.39838    -224.9254    129114.46   -33470.521    2513.5175   -35984.039    71.180328 
   12850     237.5087   -115.60305    128985.01   -33478.873     2525.323   -36004.196    71.425598 
   12900    234.79791   -395.20863    128832.07     -33479.8    2496.5004   -35976.301     71.92987 
   12950    236.91171   -89.845091    128593.28   -33477.108    2518.9755   -35996.084     72.36201 
   13000     239.5608   -33.100707    128378.22   -33454.535     2547.142   -36001.677    72.636623 
   13050    238.27883    66.575756     128303.8   -33427.214    2533.5115   -35960.725    72.904136 
   13100    235.57601    82.077015    128344.35   -33416.044    2504.7736   -35920.818    73.329883 
   13150    237.86189    18.064138     128431.5    -33437.44    2529.0783   -35966.518     73.65723 
   13200    240.33887    135.20772    128516.55   -33420.433    2555.4149   -35975.848    73.892033 
   13250    238.79423   -293.26212    128642.44   -33421.728    2538.9915    -35960.72    74.286807 
   13300    243.33101   -278.31922    128715.79   -33421.363     2587.229   -36008.592    74.526412 
   13350    240.52064   -147.30598    128723.93   -33406.493    2557.3476   -35963.841    74.877533 
   13400    245.81943   -325.56419    128675.47   -33422.202    2613.6872   -36035.889    75.355258 
   13450    241.91964   -183.29577    128572.32   -33404.363    2572.2225   -35976.585    75.677703 
   13500    244.45841    -98.14566    128482.81   -33423.199    2599.2162   -36022.415    75.853084 
   13550    243.89176   -56.382809    128419.39    -33406.26    2593.1912   -35999.451    76.188241 
   13600    240.70052    5.7048809    128351.27   -33419.056    2559.2602   -35978.316     76.15662 
   13650    241.06792   -8.3993751    128290.51    -33443.78    2563.1666   -36006.947    76.222368 
   13700    235.37635    177.16998     128206.4   -33442.506    2502.6507   -35945.157    76.091799 
   13750    239.84462    80.306997    128167.42   -33421.182    2550.1597   -35971.342    76.310187 
   13800    244.73706   -361.21837    128179.04   -33408.027    2602.1789   -36010.206    76.400488 
   13850    241.58403    397.01287    128204.75   -33407.881    2568.6542   -35976.535    76.566487 
   13900    240.70846    88.310855    128302.13       -33414    2559.3446   -35973.344    76.846582 
   13950    240.49822   -60.211999    128386.22   -33403.403    2557.1092   -35960.512    77.664925 
   14000    239.34666    142.24575    128467.88   -33420.834    2544.8652   -35965.699    78.118769 
   14050    240.25621    51.575801     128534.6   -33430.161     2554.536   -35984.697    78.342286 
   14100    244.25385   -64.343621    128607.94   -33416.364    2597.0411   -36013.405    78.628219 
   14150    243.29931   -298.70708     128693.5    -33434.23    2586.8919   -36021.122    78.827895 
   14200    245.83963    70.952895    128797.88    -33453.38     2613.902   -36067.282    78.909713 
   14250    241.68502     24.80979     128915.4   -33482.179    2569.7279   -36051.907    79.099127 
   14300    243.24455   -85.015148    129033.38   -33473.836    2586.3097   -36060.146    79.181734 
   14350    243.01281    1.2995823    129118.53   -33494.354    2583.8458     -36078.2    79.205807 
   14400    240.30338   -311.75109     129110.8   -33489.322    2555.0376    -36044.36    79.055512 
   14450    237.61424   -3.2199853    129042.06   -33477.545    2526.4452    -36003.99     79.55107 
   14500     240.9608    187.03925    128950.51   -33457.454    2562.0276   -36019.482    79.861155 
   14550    237.06971    63.675473    128918.94    -33481.91    2520.6554   -36002.565    80.166272 
   14600    240.09718   -105.89028    128918.94   -33476.319    2552.8451   -36029.164    80.373957 
   14650    235.45123    197.05495    128901.61   -33474.189    2503.4468   -35977.636    80.733747 
   14700    240.04909   -329.22762       128889    -33456.31    2552.3338   -36008.644    81.232245 
   14750    244.52886   -217.34828    128874.45   -33462.146    2599.9652   -36062.111    81.487836 
   14800    240.40937    219.02266    128857.99   -33455.811    2556.1645   -36011.976    81.566955 
   14850     238.4817   -9.7791412       128891   -33470.123    2535.6685   -36005.791    82.060552 
   14900    240.97103    295.66068    128965.63   -33468.935    2562.1364   -36031.072    82.576807 
   14950    243.85869   -9.8383042    129076.95   -33494.672    2592.8395   -36087.511    82.779002 
   15000    235.12256    314.76428    129237.91    -33516.19    2499.9523   -36016.142    82.913164 
   15050     234.2808      57.5388    129405.16   -33515.842    2491.0022   -36006.844    83.250792 
   15100    237.65114   -201.14543    129518.89   -33530.925    2526.8375   -36057.763    83.944854 
   15150    242.00186   -367.48016    129559.88   -33542.866    2573.0968   -36115.963    84.322435 
   15200    234.85691   -81.035236    129508.74   -33577.363    2497.1277   -36074.491    84.569259 
   15250    238.08392   -648.21367    129380.31    -33562.49    2531.4391   -36093.929    84.842747 
   15300     237.5022    154.86376    129211.26   -33558.859    2525.2539   -36084.113    85.238574 
   15350     237.3183    203.86517    129033.81   -33561.406    2523.2986   -36084.704    85.227592 
   15400    235.63712    401.18028    128942.06   -33583.598    2505.4233   -36089.021    85.682466 
   15450    234.19402   -334.16206    128982.76   -33645.722    2490.0795   -36135.801    85.874862 
   15500    230.24012    264.95824    129081.96   -33658.468    2448.0394   -36106.507     86.28522 
   15550    232.05747   -206.33553    129252.51   -33642.599    2467.3626   -36109.961    86.528772 
   15600    234.13584    161.41409    129403.85   -33619.796    2489.4609   -36109.257    86.930819 
   15650    234.64633   -817.65403    129528.04   -33580.629    2494.8887   -36075.518    87.220009 
   15700    241.73034   -271.25068     129527.4   -33557.148    2570.2098   -36127.358     87.41802 
   15750    236.16677    -480.7248    129426.52   -33548.086    2511.0549   -36059.141    87.551791 
   15800    238.40124    55.179237    129238.85   -33549.168     2534.813   -36083.981    87.869138 
   15850    235.57086    15.708341    129090.47   -33559.522    2504.7189   -36064.241     88.15861 
   15900    241.46126    364.43847    128981.08   -33552.422    2567.3488    -36119.77    88.593429 
   15950    241.59361    248.55753    128954.64   -33548.608     2568.756   -36117.364    89.023588 
   16000    243.69546    42.421562    129006.56    -33551.38    2591.1041   -36142.484    89.566879 
   16050    241.81478    322.69845    129112.26   -33552.805    2571.1076   -36123.913    89.738087 
   16100    245.87668   -114.47908    129274.63   -33559.467    2614.2959   -36173.763    90.069767 
   16150    237.90591   -373.84115    129443.85   -33546.098    2529.5464   -36075.644    90.647735 
   16200     243.0806   -356.14343    129577.88   -33503.478    2584.5665   -36088.045      90.8587 
   16250    240.97656   -409.59881    129629.24   -33513.837    2562.1952   -36076.033     91.14544 
   16300    245.03517    224.98846    129593.55   -33504.017    2605.3485   -36109.366     91.24632 
   16350    242.06078   -586.54975    129557.18   -33506.633    2573.7232   -36080.357    91.704733 
   16400    240.86601   -134.17654    129452.29   -33527.496    2561.0197   -36088.516    91.870955 
   16450    240.59163    156.86189    129345.66    -33514.96    2558.1024   -36073.063     91.93493 
   16500    236.49077    241.97183    129246.07   -33538.196    2514.4998   -36052.696    92.216135 
   16550    239.29009   -103.38175    129184.77   -33570.232    2544.2637   -36114.496    92.334928 
   16600    239.22809    637.11501     129159.3   -33575.897    2543.6045   -36119.501     92.49434 
   16650    243.50971   -324.73119    129234.26    -33587.83     2589.129   -36176.959    92.465117 
   16700    238.27403   -385.82696    129344.53   -33565.158    2533.4604   -36098.618    92.898085 
   16750    245.59397   -133.17763    129432.74   -33557.061    2611.2901   -36168.351     93.09666 
   16800    243.72078    195.14753    129514.38   -33534.937    2591.3733    -36126.31    93.178946 
   16850    241.54073   -230.16556    129580.02    -33529.26    2568.1938   -36097.454    93.268721 
   16900    240.62881   -264.09429     129598.7   -33544.653    2558.4977    -36103.15    93.650355 
   16950    243.17652   -145.74749    129612.04   -33543.092    2585.5863   -36128.679    93.831077 
   17000    241.02091   -288.83511    129628.93    -33562.34    2562.6667   -36125.006     94.10905 
   17050    243.54802    13.476198    129637.52   -33546.699    2589.5364   -36136.235    94.550734 
   17100    238.02906   -37.601101     129634.7   -33540.083    2530.8557   -36070.938    95.029245 
   17150    242.08347   -98.675617    129643.27   -33553.806    2573.9645    -36127.77    95.450669 
   17200    241.56097   -231.71987    129680.98   -33557.802     2568.409   -36126.211     95.51317 
   17250    244.29931   -275.09696     129725.9   -33571.496    2597.5245    -36169.02    95.802618 
   17300     244.7763   -118.68575    129738.51   -33582.336    2602.5961   -36184.932    96.162135 
   17350    237.42294     144.3434    129751.84   -33601.454    2524.4111   -36125.866    96.098628 
   17400    238.59492    3.4830258    129795.42   -33607.278    2536.8723    -36144.15    96.357393 
   17450    234.41632   -289.12392    129820.09   -33607.957    2492.4431     -36100.4     96.62599 
   17500    237.33908   -264.20266     129783.9   -33640.577    2523.5195   -36164.097    96.994808 
   17550     240.6369   -232.18487    129667.48   -33648.299    2558.5837   -36206.883    97.084583 
   17600     234.5851    241.57242    129519.52   -33639.513    2494.2377   -36133.751    97.233066 
   17650    233.12747    273.26361    129482.09   -33625.873    2478.7393   -36104.612    97.427895 
   17700    238.45487    55.995392    129483.98    -33626.04    2535.3832   -36161.423    97.771182 
   17750    234.26365    -64.30684    129556.17    -33656.62    2490.8198    -36147.44    97.689207 
   17800    232.29246   -326.32173    129677.54   -33649.316    2469.8611   -36119.177    97.906736 
   17850    237.08197    85.182593    129776.31   -33675.657    2520.7858   -36196.442     97.92085 
   17900    232.95605   -276.68148    129885.61   -33656.854    2476.9167   -36133.771    98.056385 
   17950    236.81852   -93.776466    129921.91   -33670.299    2517.9847   -36188.283     98.31617 
   18000    233.02961    302.75126    129927.49   -33676.816    2477.6988   -36154.515    98.737032 
   18050     239.9709   -11.210686    129961.59   -33692.575    2551.5024   -36244.077    98.868136 
   18100     235.1335   -58.603777    129976.35   -33690.266    2500.0686   -36190.335    99.143665 
   18150    233.85068   -289.41766    129967.42   -33688.153     2486.429   -36174.582    99.446541 
   18200    234.03888    290.74796    129944.94   -33698.461    2488.4299   -36186.891    99.915863 
   18250    230.73299    198.62709    129955.32    -33723.89    2453.2799    -36177.17    100.33138 
   18300    229.17377   -210.91647    130013.07   -33718.532    2436.7014   -36155.234    100.33204 
   18350    233.03012   -112.65561    130084.19   -33706.084    2477.7043   -36183.789    100.41167 
   18400    229.59954     44.78236    130188.46   -33712.366    2441.2285   -36153.595    100.60417 
   18450    235.06548   -148.13855    130329.53   -33713.588    2499.3453   -36212.933    100.67464 
   18500    238.00821   -312.25462    130430.71   -33691.726    2530.6341   -36222.361    100.83661 
   18550    236.51999   -467.09176    130476.14   -33676.817    2514.8105   -36191.627    101.11245 
   18600    234.38741   -682.32262    130454.82   -33666.868    2492.1357   -36159.004    101.15163 
   18650    231.66431   -288.42559    130320.69   -33653.948    2463.1822    -36117.13     101.2197 
   18700    237.19183    109.71799    130093.45   -33634.575    2521.9538   -36156.529    101.21746 
   18750    244.68684    185.99254    129887.02   -33605.133    2601.6449   -36206.778    101.48107 
   18800    240.14117   -373.09325    129743.56   -33601.091    2553.3128   -36154.404    101.40054 
   18850    238.98214   -41.365022    129651.64   -33598.824    2540.9894   -36139.813     101.5348 
   18900    236.51308    279.35138    129635.98   -33625.233     2514.737    -36139.97    101.70759 
   18950     238.6038    125.11197    129654.58   -33650.047    2536.9668   -36187.013    101.96264 
   19000    236.60803   -22.618663    129697.49   -33632.866    2515.7465   -36148.612     101.9912 
   19050    231.18051   -296.29939     129755.6   -33643.634    2458.0382   -36101.672    102.23379 
   19100    234.98932   -400.18943    129861.34   -33639.281    2498.5355   -36137.817    102.35895 
   19150    236.46237    -146.8541    129937.64   -33626.783    2514.1978   -36140.981     102.6433 
   19200    245.35337   -136.81944    129949.32   -33601.364    2608.7319   -36210.096    102.97729 
   19250     235.8349   -17.521098    129946.02   -33620.577    2507.5263   -36128.103    103.47233 
   19300    241.16968   -175.13893    129974.08   -33598.582    2564.2486   -36162.831    103.63286 
   19350    236.01977   -146.05585    129985.39   -33594.588    2509.4919   -36104.079    103.84427 
   19400     236.5749   -234.43758     129961.1    -33586.28    2515.3944   -36101.674    104.31096 
   19450    239.83019    121.36033    129876.25    -33588.25    2550.0063   -36138.257    104.23846 
   19500    238.21075   -172.44997    129762.71   -33601.087    2532.7875   -36133.875    104.73175 
   19550    233.50813     19.67138    129620.23   -33618.821    2482.7867   -36101.608    105.15612 
   19600    235.52809   -256.67197    129487.52   -33617.397    2504.2641   -36121.661    105.43354 
   19650    237.80282    49.872309    129351.81   -33599.878    2528.4503   -36128.329    105.38384 
   19700    236.53786     58.97494    129264.21   -33611.983    2515.0005   -36126.984    105.46887 
   19750    232.70189    31.258847    129225.74   -33593.749    2474.2143   -36067.963    105.59132 
   19800    235.30294    57.017494    129185.04   -33607.214    2501.8702   -36109.084    105.84268 
   19850    237.70761    392.13855    129157.47   -33596.301     2527.438   -36123.739    105.97833 
   19900    241.16591    149.38213    129179.81   -33584.963    2564.2085   -36149.172    106.08614 
   19950    241.32209   -536.24485    129217.01   -33583.269     2565.869   -36149.138    106.67065 
   20000    236.79578   -126.64736    129219.84   -33600.982    2517.7428   -36118.724    106.60116 
   20050     235.6954    212.47984     129197.8   -33615.237     2506.043    -36121.28    106.66402 
   20100    238.64879    130.87953    129201.66   -33624.104    2537.4451   -36161.549    106.60131 
   20150    236.06255   -232.18354    129219.56   -33634.029    2509.9468   -36143.976    106.89729 
   20200    234.89794   -175.59493    129189.57    -33621.38    2497.5639   -36118.943    107.01229 
   20250    236.93058    48.564335    129153.22   -33623.437    2519.1762   -36142.613    107.06668 
   20300    233.88969   -455.14373    129148.08   -33621.829    2486.8437   -36108.673    107.23855 
   20350    237.21557     40.28768     129153.3   -33596.215    2522.2062   -36118.421    107.76785 
   20400    237.46657   -6.5108591    129195.79    -33598.12    2524.8751   -36122.995    107.93185 
   20450    240.75855   -231.22729    129295.16   -33605.124    2559.8772   -36165.001    108.35334 
   20500    241.69943   -95.680969    129374.39   -33613.567    2569.8812   -36183.448    108.73795 
   20550    236.37144    24.337953    129468.53   -33605.002    2513.2311   -36118.233    109.17465 
   20600    237.60442   -521.13308    129564.71   -33592.992    2526.3408   -36119.333    109.26961 
   20650    239.58049   -11.112046    129565.14   -33607.396    2547.3514   -36154.747    109.52225 
   20700     237.1059    113.63958    129555.87    -33599.62    2521.0402    -36120.66    109.57311 
   20750      240.506    48.176481    129544.54    -33566.33     2557.192   -36123.522      109.936 
   20800    237.55918   -475.94169    129569.84   -33593.362    2525.8597   -36119.222     110.4494 
   20850    236.54177    55.672645     129610.3   -33573.768    2515.0421    -36088.81    110.73741 
   20900     240.3401   -343.16643     129663.3   -33567.114     2555.428   -36122.542    111.11938 
   20950    238.02185   -716.19461    129688.43   -33590.872    2530.7791   -36121.651    111.45979 
   21000    237.92892   -419.73236    129598.65    -33590.35     2529.791   -36120.141    111.54114 
   21050    231.79897    148.70055    129465.15   -33601.049     2464.614   -36065.663    112.06168 
   21100    238.20689   -505.82643    129357.24   -33592.558    2532.7466   -36125.304    112.43609 
   21150    236.77918    408.26284    129274.77   -33588.307    2517.5664   -36105.873    112.65083 
   21200    234.04775   -8.8096378    129252.53   -33572.864    2488.5243   -36061.388    113.01915 
   21250     238.9341   -47.053442     129291.9   -33582.984    2540.4787   -36123.463    113.30026 
   21300    238.33076   -419.01117    129373.36   -33573.683    2534.0636   -36107.747    113.49788 
   21350    232.23265   -246.69485    129422.36   -33566.288    2469.2251   -36035.513    113.52783 
   21400    241.23498    43.945312     129460.8   -33566.698    2564.9428   -36131.641     114.0855 
   21450    242.45979    -145.6274    129537.35   -33541.201    2577.9657   -36119.167    114.42298 
   21500    238.48308   -327.36035    129594.25   -33533.218    2535.6831   -36068.901    114.70521 
   21550    243.39764     33.36562    129622.09   -33522.529    2587.9375   -36110.466    115.20638 
   21600    241.32227   -158.47174    129605.32   -33518.569    2565.8709    -36084.44    115.92145 
   21650    240.66026   -339.66792    129589.12   -33492.837    2558.8321   -36051.669    116.38955 
   21700    242.16436    -297.9698     129566.8   -33480.488    2574.8246   -36055.312    116.51219 
   21750    243.83892   -146.97844    129572.57    -33488.49    2592.6294   -36081.119    116.97213 
   21800    240.26119   -270.99026    129610.76   -33472.309     2554.589   -36026.898    117.10163 
   21850    239.87764   -51.993447    129664.48   -33473.677    2550.5108   -36024.188    117.44309 
   21900    237.68534   -134.10785    129713.56   -33481.768    2527.2011   -36008.969    118.08777 
   21950    239.09934    249.19404    129794.82   -33494.833    2542.2356   -36037.068    118.26431 
   22000    239.97517   -47.028144    129934.13   -33482.093    2551.5478    -36033.64    118.90835 
   22050    243.47493   -599.24733    130074.88   -33475.117    2588.7593   -36063.876    119.23181 
   22100    240.27722   -748.14226    130169.07   -33465.645    2554.7595   -36020.405    119.66953 
   22150    241.53609   -39.174103    130159.81   -33460.506    2568.1444   -36028.651     120.1219 
   22200    241.09535   -630.90608     130116.1   -33437.373    2563.4582   -36000.831    120.31406 
   22250    241.50358    110.94214    130008.68   -33452.044    2567.7987   -36019.842    120.54755 
   22300    241.46411   -144.30427     129933.4    -33406.76    2567.3791   -35974.139    120.97507 
   22350    245.90191   -342.52518    129831.33   -33421.871    2614.5642   -36036.435    121.06454 
   22400    245.06355    33.281531    129663.72   -33422.436    2605.6503   -36028.087    121.32818 
   22450    244.18825    44.249779    129510.51   -33422.184    2596.3436   -36018.528    121.39368 
   22500    240.86846    55.739975    129427.59   -33416.963    2561.0458   -35978.009    121.66355 
   22550    242.93048    68.604168    129407.19   -33437.547    2582.9703   -36020.517     121.7779 
   22600    245.09724   -229.45188    129413.95   -33432.268    2606.0085   -36038.276    121.85028 
   22650    236.33004   -31.990099    129382.26   -33430.699    2512.7908    -35943.49    122.11184 
   22700    241.74385   -177.37732    129329.72   -33444.184    2570.3534   -36014.537     122.3566 
   22750    243.21912    142.17976    129274.52   -33477.303    2586.0393   -36063.342    122.97254 
   22800     238.9905   -157.79006     129258.8   -33472.673    2541.0783   -36013.752    123.37664 
   22850    240.99777   -296.64427    129271.99    -33477.08    2562.4207   -36039.501    123.68741 
   22900    239.73028   -388.00973    129306.85   -33483.356    2548.9441     -36032.3    124.39692 
   22950    237.86878    13.587354    129324.49   -33494.865    2529.1516   -36024.016    124.85561 
   23000    243.00582    -447.6618     129303.1   -33489.573    2583.7714   -36073.345    125.10232 
   23050    237.58329   -11.691702    129250.57   -33472.874    2526.1161    -35998.99    125.21572 
   23100    241.78245   -101.41235    129193.55   -33457.963    2570.7638   -36028.726    125.92439 
   23150    245.82062   -195.96262    129088.96   -33469.138    2613.6999   -36082.838    126.20215 
   23200    241.11077    213.91755    128979.57   -33479.217    2563.6222   -36042.839    126.32653 
   23250    240.51153   -106.11972    128944.22   -33480.925    2557.2507   -36038.176    127.01812 
   23300    243.84217    57.801475    128965.78   -33498.116    2592.6639    -36090.78    127.35662 
   23350    236.60758   -69.382168    129048.32   -33507.144    2515.7418   -36022.885    127.59037 
   23400    242.46081    13.429081     129120.6    -33491.64    2577.9766   -36069.617    127.73385 
   23450    240.89596   -411.28143    129160.83   -33510.993    2561.3382   -36072.331    127.82489 
   23500    236.44804    95.059363     129114.3   -33514.501    2514.0454   -36028.546    128.34646 
   23550    243.24483   -12.956986    129035.26   -33517.893    2586.3127   -36104.205    128.59425 
   23600    241.07946    475.20983    129004.47   -33513.229    2563.2892   -36076.519    128.67516 
   23650    241.33526   -87.595757    129040.29   -33485.807    2566.0091   -36051.816    128.89908 
   23700    243.06213   -162.77066    129049.52   -33471.256    2584.3701   -36055.626    128.97287 
   23750    239.07212   -474.33047    129056.71   -33460.498    2541.9462   -36002.444    129.10965 
   23800    240.10018   -464.70609    128969.19   -33454.793    2552.8771    -36007.67    129.17294 
   23850    245.44594   -178.42794    128789.18   -33466.188    2609.7161   -36075.904    129.36374 
   23900    239.02267    52.628306    128598.31   -33457.142    2541.4203   -35998.563    129.27668 
   23950    240.44529    309.20615    128474.97   -33484.947    2556.5465   -36041.494     129.4247 
   24000    239.28809    7.8989483    128426.94   -33484.118    2544.2425    -36028.36      129.661 
   24050    239.91407    7.3597077    128407.61    -33469.82    2550.8982   -36020.718    129.75959 
   24100    237.56475   -54.282858    128446.76   -33447.347     2525.919   -35973.266    129.88687 
   24150    238.34648    51.740992    128532.47   -33454.201    2534.2308   -35988.432    130.13441 
   24200    238.72741   -135.17883    128606.52   -33466.301    2538.2809   -36004.582    130.53965 
   24250    242.17783   -22.383739    128654.52   -33465.104    2574.9678   -36040.072    131.04792 
   24300    237.87772   -261.73521    128702.21    -33467.34    2529.2467   -35996.587    131.26825 
   24350    240.22066   -259.71158    128722.26    -33456.38    2554.1581   -36010.538    131.18281 
   24400     240.5521   -156.87005    128721.89   -33462.168    2557.6821    -36019.85    131.29454 
   24450    235.05683    144.14395    128686.02   -33470.609    2499.2534   -35969.862    131.67225 
   24500    238.18774   -60.386691    128642.25   -33470.074    2532.5429   -36002.617    131.88024 
   24550    233.71251   -57.832452    128643.64    -33468.59    2484.9598    -35953.55    132.28957 
   24600    237.37323   -70.190359    128647.17   -33449.025    2523.8826   -35972.908    132.32471 
   24650    236.44733   -164.91769    128648.98   -33427.004    2514.0379   -35941.042    132.32422 
   24700    241.68641   -370.71439    128589.76   -33404.879    2569.7427   -35974.621    132.81682 
   24750    237.61881   -464.23965    128466.55   -33369.482    2526.4938   -35895.976    132.86077 
   24800    236.11328    22.452793     128281.6   -33356.319    2510.4861   -35866.805    132.84027 
   24850    244.80577     5.593793    128131.14   -33326.678    2602.9095   -35929.587    133.14208 
   24900    244.38795    518.40029    128054.77   -33338.905     2598.467   -35937.372    133.56101 
   24950    243.63394    176.75229    128051.13    -33358.26    2590.4499    -35948.71    133.62945 
   25000    243.37804   -168.99905    128100.58   -33370.455     2587.729   -35958.184    134.07253 
   25050    239.73824    106.02638    128100.58   -33368.385    2549.0287   -35917.414    134.37206 
   25100    240.20178   -137.10353    128100.58   -33369.049    2553.9573   -35923.006    134.76085 
   25150    244.91435    128.43073    128100.58   -33369.621     2604.064   -35973.685    135.10064 
   25200    238.12977    30.584247    128100.58   -33369.109    2531.9266   -35901.035    135.53536 
   25250    244.90226   -147.06277    128100.58   -33370.923    2603.9354   -35974.858    135.92615 
   25300    240.13266   -289.51874    128100.58   -33369.724    2553.2223   -35922.946    136.14954 
   25350    239.37759   -136.37578    128100.58   -33369.795     2545.194   -35914.989    136.38383 
   25400    243.96371    65.762591    128100.58   -33371.305    2593.9562   -35965.262     136.5329 
   25450     245.7959   -95.054558    128100.58   -33370.056    2613.4371   -35983.493    136.82699 
   25500    245.09339    97.256384    128100.58   -33370.953    2605.9676    -35976.92    136.82814 
   25550    244.70125    -5.977598    128100.58   -33370.371    2601.7982   -35972.169    137.40513 
   25600     241.7314    196.14466    128100.58   -33369.096    2570.2211   -35939.317     137.9173 
   25650    239.44523    517.41846    128100.58   -33367.604    2545.9133   -35913.517    138.51129 
   25700    247.17365   -185.05514    128100.58   -33370.254    2628.0861    -35998.34    138.81978 
   25750      239.592    390.05692    128100.58   -33369.079    2547.4738   -35916.553     138.9453 
   25800    240.86116    86.800782    128100.58   -33369.324    2560.9682   -35930.292    139.19838 
   25850    243.05518    106.41117    128100.58   -33369.436    2584.2963   -35953.732    139.75195 
   25900    242.45255   -139.34926    128100.58   -33369.703    2577.8888   -35947.592    140.33362 
   25950    244.37304     187.1343    128100.58   -33370.172    2598.3084   -35968.481    140.25713 
   26000    245.69528     334.0814    128100.58   -33370.043    2612.3672    -35982.41    140.62542 
   26050    242.95232    251.69296    128100.58   -33369.808    2583.2025   -35953.011    140.98906 
   26100    242.73028    140.72192    128100.58   -33369.713    2580.8417   -35950.554    141.41328 
   26150    240.99234    605.65767    128100.58   -33368.953    2562.3629   -35931.316     141.9054 
   26200    242.97252   -56.692798    128100.58   -33369.391    2583.4174   -35952.809    142.73802 
   26250    237.53011    -274.5407    128100.58   -33367.981    2525.5506   -35893.531    143.19625 
   26300    239.71921    38.300174    128100.58   -33368.741    2548.8263   -35917.567    144.05631 
   26350    240.82246   -163.39324    128100.58    -33369.13    2560.5567   -35929.686    144.12832 
   26400    239.96732    26.774944    128100.58   -33369.348    2551.4644   -35920.813    144.64761 
   26450    240.78794   -94.200788    128100.58   -33369.869    2560.1897   -35930.058    145.66567 
   26500    242.76174    209.04881    128100.58   -33368.107    2581.1762   -35949.283    145.85119 
   26550    243.24875   -94.235732    128100.58   -33369.406    2586.3543    -35955.76    146.28006 
   26600    239.20593    43.621981    128100.58   -33367.729    2543.3689   -35911.097    146.76434 
   26650     240.4366    96.300819    128100.58   -33369.646     2556.454     -35926.1    147.30099 
   26700    244.63344   -226.51675    128100.58   -33369.158    2601.0771   -35970.235    147.98981 
   26750    242.25863   -105.77864    128100.58   -33368.028    2575.8268   -35943.855    148.25388 
   26800    242.01775   -611.44833    128100.58   -33369.416    2573.2657   -35942.682     148.7557 
   26850    241.36196     326.2275    128100.58   -33369.298    2566.2929   -35935.591    149.06534 
   26900    246.39005   -82.425305    128100.58   -33370.053    2619.7544   -35989.807     149.6735 
   26950    241.53949   -347.31803    128100.58   -33369.385    2568.1806   -35937.565    150.20271 
   27000    238.10251    308.02085    128100.58   -33367.829    2531.6367   -35899.466    150.56345 
   27050    240.27054      24.8796    128100.58   -33369.636    2554.6884   -35924.325    150.69008 
   27100    242.01884    -51.64456    128100.58   -33368.928    2573.2773   -35942.205    151.19897 
   27150    246.41964    406.30941    128100.58   -33370.954     2620.069   -35991.023    151.44382 
   27200    242.15005     -146.974    128100.58   -33368.439    2574.6723   -35943.111    151.62219 
   27250    245.76075    152.27235    128100.58   -33369.495    2613.0634   -35982.558     151.7721 
   27300    243.81756   -28.674293    128100.58   -33370.113    2592.4023   -35962.515    151.99891 
   27350    236.97165   -224.98077    128100.58   -33368.235    2519.6127   -35887.848    152.46809 
   27400    242.81285   -76.224548    128100.58   -33368.625    2581.7196   -35950.345    152.55283 
   27450    243.74368     99.25337    128100.58   -33369.266    2591.6168   -35960.882    153.09099 
   27500    241.36245   -97.103296    128100.58   -33370.014    2566.2982   -35936.312    153.28416 
   27550    242.83872     240.7161    128100.58   -33369.399    2581.9947   -35951.394    152.96277 
   27600    247.19809    8.0043058    128100.58   -33369.727    2628.3459   -35998.073    153.24002 
   27650    242.40223    206.81829    128100.58   -33368.682    2577.3537   -35946.036    153.34535 
   27700     241.3802    254.89296    128100.58   -33368.068     2566.487   -35934.555    153.27307 
   27750    243.04391    306.34338    128100.58   -33371.039    2584.1764   -35955.216    153.62025 
   27800    238.75484    516.80174    128100.58   -33367.633    2538.5727   -35906.206    154.08422 
   27850    242.67932    326.31356    128100.58   -33369.841    2580.2998   -35950.141    154.55194 
   27900    239.04747    107.25583    128100.58   -33368.224     2541.684   -35909.908    154.67335 
   27950    234.50575    269.35843    128100.58   -33368.565     2493.394   -35861.959    154.84243 
   28000    243.81595    308.24695    128100.58   -33369.978    2592.3851   -35962.363    155.19756 
   28050    241.85941    428.40696    128100.58   -33370.078    2571.5822    -35941.66    155.60115 
   28100    241.98768    348.98199    128100.58   -33368.668     2572.946   -35941.614     155.7187 
   28150    242.73075    390.88178    128100.58   -33368.989    2580.8467   -35949.836    155.96418 
   28200    247.07677    81.557867    128100.58   -33371.331     2627.056   -35998.387    155.96805 
   28250    248.38566    121.78418    128100.58   -33369.889    2640.9728   -36010.861    156.49577 
   28300    243.15122   -217.12704    128100.58   -33370.079    2585.3174   -35955.397    156.75096 
   28350    242.32989    121.59565    128100.58   -33369.765    2576.5845   -35946.349    156.87037 
   28400    246.68376    378.76363    128100.58   -33370.315    2622.8773   -35993.193    157.47748 
   28450    240.88283     448.5817    128100.58   -33369.521    2561.1986   -35930.719    157.49305 
   28500    245.82433   -24.221023    128100.58   -33370.319    2613.7393   -35984.058    157.47391 
   28550    241.17533    557.98087    128100.58    -33368.97    2564.3087   -35933.279    157.52331 
   28600    245.56775    354.53543    128100.58    -33371.05    2611.0112   -35982.061    157.88013 
   28650    242.14545    426.38311    128100.58   -33369.193    2574.6234   -35943.816    158.14128 
   28700    240.33882    9.8733417    128100.58   -33368.335    2555.4144   -35923.749    158.54542 
   28750    241.09182   -130.13585    128100.58   -33368.716    2563.4207   -35932.137    158.96673 
   28800    242.46817   -286.74051    128100.58   -33369.392    2578.0548   -35947.447    159.49708 
   28850    238.58836   -265.77789    128100.58   -33368.562    2536.8025   -35905.364    159.51211 
   28900    238.94503    41.011837    128100.58   -33369.026    2540.5949    -35909.62    160.00803 
   28950    241.00414    397.23533    128100.58   -33368.661    2562.4884   -35931.149    160.31526 
   29000    244.97601     -8.26492    128100.58   -33369.047    2604.7196   -35973.766    160.31939 
   29050    243.13881   -291.07906    128100.58   -33368.628    2585.1854   -35953.814    160.54474 
   29100    237.52286    20.871426    128100.58   -33367.375    2525.4735   -35892.849    160.41561 
   29150    244.57477   -234.08448    128100.58   -33369.329    2600.4533   -35969.782    160.82703 
   29200    241.11185   -146.96818    128100.58     -33368.7    2563.6337   -35932.333    161.11901 
   29250    240.93627    -180.0925    128100.58   -33369.693    2561.7668   -35931.459    161.48765 
   29300    239.48282   -41.828647    128100.58   -33368.951    2546.3129   -35915.264    161.84091 
   29350     238.8215   -133.00052    128100.58   -33368.724    2539.2814   -35908.006    162.71881 
   29400    241.17304    -192.3712    128100.58   -33369.014    2564.2843   -35933.299     162.6572 
   29450     244.9168    20.156135    128100.58   -33369.768      2604.09   -35973.858     163.1137 
   29500    239.45597    124.62568    128100.58   -33369.258    2546.0274   -35915.285    163.78142 
   29550    243.83465   -241.41213    128100.58   -33368.591     2592.584   -35961.175    164.27188 
   29600    242.56552   -102.76524    128100.58   -33369.189    2579.0899   -35948.279    164.83474 
   29650    248.94054    348.92708    128100.58   -33369.277    2646.8726   -36016.149    165.07459 
   29700    238.85968   -12.622024    128100.58   -33368.646    2539.6873   -35908.334    165.67215 
   29750    244.20326    407.50204    128100.58   -33369.888    2596.5032   -35966.391    165.90335 
   29800    241.36612    125.59985    128100.58   -33368.442    2566.3372   -35934.779    166.37196 
   29850    243.70834    211.82244    128100.58   -33370.143     2591.241   -35961.384     166.9207 
   29900    241.30248   -176.29062    128100.58   -33369.182    2565.6606   -35934.842    167.25038 
   29950    240.51299    642.34729    128100.58   -33369.253    2557.2663   -35926.519     167.8938 
   30000    245.57607   -207.01846    128100.58   -33369.213    2611.0997   -35980.313    168.43039 
   30050    238.90647    568.86308    128100.58   -33368.902    2540.1848   -35909.087    168.51942 
   30100    239.20288    172.74015    128100.58   -33367.889    2543.3364   -35911.225    169.11089 
   30150    240.40259   -113.59724    128100.58   -33369.531    2556.0924   -35925.624     169.8172 
   30200    243.99583    250.55518    128100.58   -33368.379    2594.2977   -35962.676    170.42972 
   30250    237.10089    66.448429    128100.58    -33368.53    2520.9869   -35889.517    170.66357 
   30300    243.90916    115.09618    128100.58     -33370.2    2593.3762   -35963.576    171.32526 
   30350    245.41346    123.93926    128100.58   -33371.027    2609.3708   -35980.398    171.96116 
   30400    244.91663   -253.61429    128100.58   -33368.554    2604.0882   -35972.642    172.24813 
   30450    240.29023    178.06645    128100.58    -33367.62    2554.8977   -35922.517    172.72834 
   30500     242.7927    177.53967    128100.58   -33369.379    2581.5054   -35950.884    173.05621 
   30550    246.13306    161.67735    128100.58   -33369.354    2617.0219   -35986.376    173.50487 
   30600    242.07375    388.74777    128100.58   -33369.661    2573.8611   -35943.522    174.08057 
   30650    241.21646   -30.492189    128100.58   -33369.371     2564.746   -35934.117    174.58107 
   30700    242.81275   -87.686347    128100.58   -33368.853    2581.7186   -35950.572    175.11462 
   30750     241.7683   -73.176821    128100.58   -33369.446    2570.6134   -35940.059    176.04184 
   30800    241.67925    595.25487    128100.58   -33367.831    2569.6666   -35937.497    176.45981 
   30850    239.22383    63.597213    128100.58   -33368.684    2543.5592   -35912.243    177.10929 
   30900    239.30616    238.45121    128100.58   -33368.761    2544.4346   -35913.196    177.22817 
   30950    242.58741    170.03917    128100.58    -33368.89    2579.3226   -35948.212    177.33637 
   31000    242.73081   -12.532421    128100.58   -33369.172    2580.8474   -35950.019    177.02854 
   31050    237.13353    141.28287    128100.58   -33367.488     2521.334   -35888.822    177.04665 
   31100    243.27463   -33.281676    128100.58   -33369.207    2586.6295   -35955.837    176.86053 
   31150     240.8502   -111.96891    128100.58   -33370.027    2560.8517   -35930.879    176.86068 
   31200    244.59109    184.55395    128100.58   -33370.114    2600.6269   -35970.741    177.00066 
   31250    242.41273     77.29405    128100.58   -33368.786    2577.4653   -35946.252    176.70531 
   31300    238.88707    -163.2594    128100.58   -33368.009    2539.9786   -35907.988    176.90613 
   31350    241.77247    684.06238    128100.58   -33368.684    2570.6577   -35939.341    177.15089 
   31400    239.71036    223.47048    128100.58   -33369.213    2548.7323   -35917.945    177.10379 
   31450    236.75321   -117.58214    128100.58   -33367.179    2517.2903   -35884.469    176.89656 
   31500     239.4694     129.7254    128100.58    -33368.12    2546.1702    -35914.29    177.00852 
   31550    242.75014    227.71666    128100.58   -33367.854    2581.0528   -35948.907    177.27433 
   31600    239.77683    398.57559    128100.58   -33369.049     2549.439   -35918.488    177.41475 
   31650    245.95082    186.48593    128100.58   -33369.013    2615.0842   -35984.097    177.26685 
   31700    236.29656    437.15404    128100.58   -33367.413    2512.4349   -35879.848    177.49255 
   31750     246.6376    539.18512    128100.58   -33369.463    2622.3865   -35991.849    177.59951 
   31800    243.14146     344.4976    128100.58   -33368.173    2585.2136   -35953.387    177.47105 
   31850    242.80584    195.66544    128100.58   -33368.438     2581.645   -35950.083    177.34047 
   31900    245.13138   -65.883576    128100.58   -33369.331    2606.3715   -35975.702    177.74957 
   31950     242.8935   -175.88507    128100.58   -33369.241    2582.5771   -35951.819    178.31427 
   32000    243.51195   -291.76011    128100.58   -33367.772    2589.1529   -35956.925    178.35748 
   32050    245.76339   -203.88276    128100.58   -33368.904    2613.0914   -35981.996     178.5844 
   32100    242.45844   -434.35264    128100.58   -33368.387    2577.9514   -35946.338    178.76671 
   32150    240.85074   -64.217265    128100.58   -33369.298    2560.8574   -35930.155    178.88019 
   32200    238.69237    124.76714    128100.58    -33368.62    2537.9084   -35906.529    179.57993 
   32250    241.20002    140.07117    128100.58   -33367.918    2564.5711   -35932.489    179.79567 
   32300    243.86917    -189.0485    128100.58   -33369.254     2592.951   -35962.205    179.72402 
   32350      243.804    10.809157    128100.58   -33368.121    2592.2581   -35960.379    179.75628 
   32400    241.60613    114.83233    128100.58   -33367.358    2568.8891   -35936.247    180.09823 
   32450    243.30817    225.76474    128100.58   -33369.121    2586.9861   -35956.107    180.36109 
   32500    243.40133    -80.68134    128100.58   -33368.943    2587.9767    -35956.92    180.40281 
   32550    237.72254    338.61664    128100.58   -33367.184    2527.5967   -35894.781    180.03651 
   32600    244.24147    42.405036    128100.58   -33369.414    2596.9096   -35966.323    180.02101 
   32650    242.76111     -27.2233    128100.58    -33368.44    2581.1695    -35949.61    179.98723 
   32700    245.18158    183.02236    128100.58   -33369.222    2606.9052   -35976.128    179.68194 
   32750    240.10947    21.532132    128100.58   -33367.207    2552.9759   -35920.183    179.94318 
   32800    241.81487   -192.11055    128100.58   -33369.291    2571.1086   -35940.399    179.26331 
   32850    244.19525   -138.62721    128100.58   -33369.286    2596.4181   -35965.704    179.41994 
   32900    244.93789    251.24975    128100.58   -33368.337    2604.3142   -35972.651    179.42997 
   32950    242.31628   -178.52656    128100.58   -33368.797    2576.4398   -35945.237    179.52683 
   33000    241.15636    478.11599    128100.58   -33368.083    2564.1069    -35932.19    180.10401 
   33050     245.8918    351.51634    128100.58   -33367.946    2614.4568   -35982.403    180.24885 
   33100    244.41394    201.29737    128100.58   -33369.505    2598.7433   -35968.249    180.88899 
   33150    244.89014   -192.71997    128100.58   -33369.418    2603.8065   -35973.224    181.53468 
   33200    245.53928    140.45766    128100.58   -33367.654    2610.7085   -35978.362    182.31934 
   33250    247.99713   -138.97273    128100.58   -33370.604    2636.8418   -36007.446     182.4956 
   33300    245.73147   -278.44575    128100.58   -33370.328     2612.752    -35983.08    182.84563 
   33350    245.50329    167.49586    128100.58   -33368.834    2610.3259   -35979.159    183.74384 
   33400     245.6739    50.225812    128100.58   -33368.412    2612.1399   -35980.551     184.4624 
   33450    242.34459    205.81456    128100.58   -33368.996    2576.7408   -35945.737    184.34116 
   33500    241.16226    6.9652476    128100.58   -33368.418    2564.1696   -35932.588    184.43517 
   33550    248.61121   -12.052308    128100.58   -33370.088     2643.371   -36013.459    184.86989 
   33600    242.33536    38.757568    128100.58    -33368.64    2576.6427   -35945.282     185.2779 
   33650    239.21849    222.69701    128100.58   -33367.727    2543.5025   -35911.229    186.07555 
   33700    244.15263   -57.978921    128100.58   -33368.815    2595.9649    -35964.78    186.44654 
   33750    238.36077    144.00185    128100.58   -33366.993    2534.3827   -35901.376    186.91006 
   33800    240.67809   -75.118269    128100.58   -33369.327    2559.0217   -35928.349    187.31732 
   33850    246.84673    413.69075    128100.58   -33369.724      2624.61   -35994.334    187.75588 
   33900    242.58723    80.082085    128100.58   -33367.375    2579.3207   -35946.696    187.84429 
   33950    240.91389    208.62652    128100.58   -33367.936    2561.5289   -35929.465    188.31742 
   34000    239.02456    120.33371    128100.58   -33367.453    2541.4405   -35908.893    188.43991 
   34050    242.96982    563.57671    128100.58    -33368.34    2583.3887   -35951.728    188.70035 
   34100    239.16077    389.73515    128100.58   -33367.645    2542.8888   -35910.534     189.1051 
   34150    240.32151   -33.622694    128100.58   -33368.428    2555.2304   -35923.659    189.39039 
   34200    243.71962   -44.781223    128100.58   -33368.692    2591.3609   -35960.053    189.80592 
   34250    243.23612    264.39469    128100.58   -33369.222    2586.2201   -35955.442    190.12651 
   34300     244.0707    376.11751    128100.58   -33369.133    2595.0937   -35964.227    190.44251 
   34350    243.72623    444.29644    128100.58   -33369.594    2591.4312   -35961.026    190.68474 
   34400    241.91748    615.69672    128100.58   -33368.718    2572.1996   -35940.918       191.29 
   34450     241.5643     255.9382    128100.58   -33368.478    2568.4444   -35936.922    191.62235 
   34500    244.44229    291.29872    128100.58   -33368.339    2599.0447   -35967.383    192.03258 
   34550    245.32259    558.94142    128100.58   -33368.698    2608.4046   -35977.103    192.35025 
   34600    244.07457    322.42422    128100.58    -33368.86     2595.135   -35963.995     193.2308 
   34650    241.83223    25.665951    128100.58   -33368.618    2571.2931   -35939.911    193.72575 
   34700    239.68557    46.387095    128100.58   -33367.439    2548.4687   -35915.908    194.00339 
   34750    243.14961    199.35377    128100.58   -33368.199    2585.3002   -35953.499    193.90984 
   34800    243.89906    159.25864    128100.58   -33368.899    2593.2688   -35962.168    194.06245 
   34850    244.49202    482.42588    128100.58   -33368.248    2599.5734   -35967.821    193.88478 
   34900    246.29379    89.023377    128100.58   -33369.276    2618.7309   -35988.007    194.32969 
   34950    245.12617   -120.70855    128100.58   -33367.728    2606.3161   -35974.044    194.94093 
   35000    244.74875   -145.70839    128100.58   -33369.176    2602.3032   -35971.479    195.49975 
   35050    243.81733    13.302133    128100.58   -33367.954    2592.3998   -35960.354      195.792 
   35100    244.94756   -190.86568    128100.58   -33368.481    2604.4171   -35972.898    196.31356 
   35150    242.07265    421.13868    128100.58   -33369.266    2573.8494   -35943.115    196.01753 
   35200    241.17584   -130.81572    128100.58   -33367.309    2564.3141   -35931.624    196.27393 
   35250    245.70949    71.704914    128100.58   -33368.435    2612.5183   -35980.953    196.17824 
   35300    241.12025    378.00303    128100.58   -33369.006     2563.723   -35932.729    196.35012 
   35350    240.05531   -402.38025    128100.58   -33368.652    2552.3999   -35921.052    196.85746 
   35400    244.00717    73.675583    128100.58   -33367.117    2594.4183   -35961.536    197.39753 
   35450    244.01251    328.81967    128100.58   -33369.214     2594.475   -35963.689    197.54192 
   35500    240.73747    57.578801    128100.58   -33367.431    2559.6531   -35927.084    197.66816 
   35550    242.85548    79.474212    128100.58   -33368.522    2582.1729   -35950.695    197.80806 
   35600     240.7386   -126.50737    128100.58   -33367.248    2559.6651   -35926.914    197.97441 
   35650     242.1213   -235.91138    128100.58   -33368.707    2574.3667   -35943.074    198.34896 
   35700    242.64067   -8.0944732    128100.58   -33370.005     2579.889   -35949.894    198.78329 
   35750     245.9629   -524.84847    128100.58   -33368.624    2615.2127   -35983.837    198.62222 
   35800    245.79352    -141.0174    128100.58   -33368.724    2613.4117   -35982.135     198.9398 
   35850    243.35294    50.403881    128100.58   -33368.887    2587.4621   -35956.349    199.64526 
   35900    244.36678    192.55187    128100.58    -33369.65    2598.2418   -35967.892    199.79817 
   35950    242.53358    128.94694    128100.58   -33367.672    2578.7502   -35946.422      199.848 
   36000    244.15832    170.75002    128100.58   -33369.075    2596.0255   -35965.101    199.85868 
   36050    242.70333    66.459899    128100.58   -33368.685    2580.5552    -35949.24     200.2004 
   36100    240.77156   -101.06307    128100.58   -33368.457    2560.0155   -35928.472    200.40955 
   36150    246.71595    -191.7122    128100.58   -33369.986    2623.2195   -35993.206    200.57897 
   36200    242.20691    280.96226    128100.58   -33368.386    2575.2769   -35943.663    201.17083 
   36250    240.28583    205.82706    128100.58   -33369.072    2554.8509   -35923.923    201.38087 
   36300    241.07725    44.874592    128100.58   -33368.266    2563.2658   -35931.532    201.82869 
   36350    242.77027   -55.958793    128100.58   -33368.114    2581.2669    -35949.38    202.21061 
   36400    241.94182    251.32565    128100.58    -33369.11    2572.4584   -35941.569    202.40956 
   36450    245.58534    -168.8925    128100.58   -33369.934    2611.1983   -35981.132    202.63793 
   36500    243.25458    105.38052    128100.58   -33369.429    2586.4164   -35955.845    203.04403 
   36550    240.65583   -29.251605    128100.58   -33368.641     2558.785   -35927.426    203.41574 
   36600    246.69926    199.77588    128100.58   -33369.469    2623.0421   -35992.511    203.75677 
   36650    247.24179   -120.38023    128100.58   -33369.821    2628.8105   -35998.631    204.45797 
   36700    247.02141   -41.761795    128100.58   -33370.493    2626.4674    -35996.96    204.97724 
   36750    243.50848   -129.61657    128100.58   -33368.911    2589.1159   -35958.027    205.11817 
   36800    241.78335   -13.238739    128100.58   -33368.682    2570.7735   -35939.455     205.5756 
   36850    243.69461   -169.41718    128100.58   -33368.617     2591.095   -35959.712    205.61339 
   36900    242.64212     87.30235    128100.58   -33368.615    2579.9043   -35948.519    206.07133 
   36950    241.93543    29.676054    128100.58   -33368.896    2572.3905   -35941.287    206.09057 
   37000     236.4878   -372.16924    128100.58   -33367.495    2514.4683   -35881.963    206.33652 
   37050    240.06141    -37.73967    128100.58   -33368.187    2552.4649   -35920.652    206.66346 
   37100    237.78881    60.315892    128100.58    -33367.07    2528.3013   -35895.372    206.75724 
   37150      238.453    -156.4279    128100.58   -33366.636    2535.3633       -35902    206.96603 
   37200      241.122    209.59687    128100.58   -33368.191    2563.7416   -35931.932     207.1038 
   37250    240.86934    -163.6946    128100.58   -33368.777    2561.0552   -35929.832    207.06545 
   37300     239.6809   -510.53925    128100.58   -33367.825     2548.419   -35916.244    207.40461 
   37350    237.52624   -61.825292    128100.58   -33367.975    2525.5095   -35893.485    207.51772 
   37400    240.90825   -563.11981    128100.58   -33368.417    2561.4689   -35929.885    207.92679 
   37450    239.83707    212.84157    128100.58    -33367.88    2550.0795    -35917.96    208.52485 
   37500    245.28734   -250.49154    128100.58   -33368.878    2608.0298   -35976.907    208.62831 
   37550    243.66253    222.60118    128100.58   -33368.265     2590.754   -35959.019    208.86975 
   37600    243.28353    33.961569    128100.58   -33369.833    2586.7242   -35956.557    208.91165 
   37650    242.62519    167.72671    128100.58   -33368.382    2579.7244   -35948.107     209.0185 
   37700      244.322    144.46288    128100.58   -33368.222    2597.7658   -35965.987    209.27845 
[...]
  140850    237.28081   -155.27384    129199.74   -33511.166       2522.9   -36034.066    694.27396 
  140900    242.05891   -53.108667    129266.44   -33507.718    2573.7034   -36081.422    694.68772 
  140950    240.71823   -483.89099    129320.91   -33502.333    2559.4485   -36061.782    695.01875 
  141000    233.37241    170.01585    129300.86   -33505.998    2481.3437   -35987.342    694.27359 
  141050    237.77374   -303.93905    129292.63   -33526.909     2528.141    -36055.05    695.65522 
  141100    237.31322    -247.7735    129238.24   -33501.414    2523.2446   -36024.658    696.50884 
  141150    241.87604   -58.990521    129153.49   -33487.305    2571.7589   -36059.064    696.55752 
  141200    237.78143   -486.58732    129087.89   -33486.978    2528.2228   -36015.201    696.73809 
  141250    237.76735   -157.45134     129038.1   -33480.132    2528.0731   -36008.205    697.70993 
  141300    238.03164   -327.60837    129005.29   -33473.376    2530.8832   -36004.259    697.76282 
  141350    237.55711     151.0848     129040.9   -33493.558    2525.8377   -36019.395    698.46362 
  141400    237.51368   -184.80715    129147.77   -33504.559     2525.376   -36029.935    699.09487 
  141450    239.71987    151.05935    129279.47   -33478.426    2548.8334    -36027.26    699.49853 
  141500    241.52115   -160.22742    129448.96   -33498.821    2567.9856   -36066.806    700.15414 
  141550    239.47793   -153.71515    129605.05    -33483.46     2546.261   -36029.721    700.73962 
  141600    241.21314     38.59498    129708.22   -33493.589    2564.7106     -36058.3    701.21868 
  141650    240.80672   -327.08554    129805.58   -33479.761    2560.3893    -36040.15    701.64611 
  141700     239.9974    52.551426    129806.43   -33498.101    2551.7843   -36049.886    701.91108 
  141750    244.62557   -201.55424    129743.53   -33482.504    2600.9935   -36083.497    702.36373 
  141800    239.00469   -173.72954    129602.03   -33484.265    2541.2292   -36025.494    703.00802 
  141850    243.18842    384.58493    129467.53   -33501.982    2585.7129   -36087.694    702.58385 
  141900    240.27652    157.26297    129435.16   -33485.556     2554.752   -36040.308    702.47461 
  141950    243.29793   -482.53151    129470.23   -33490.195    2586.8773   -36077.072    703.04817 
  142000    236.62543   -390.01199    129497.84   -33513.638    2515.9315    -36029.57    702.64966 
  142050     233.6052   -376.56008     129509.6   -33521.169    2483.8188   -36004.988    702.75179 
  142100    237.73397   -689.21559    129469.31   -33507.227    2527.7182   -36034.945    703.23096 
  142150    238.29224   -85.134961    129355.57    -33524.97     2533.654   -36058.624    702.58532 
  142200    238.68567    181.51693    129236.74   -33518.396    2537.8372   -36056.234    702.21609 
  142250    241.22649    188.91896    129101.66   -33513.083    2564.8525   -36077.935    702.38523 
  142300    241.25714    528.06646    128931.44   -33510.395    2565.1785   -36075.574    702.31074 
  142350    246.64661    68.096683    128869.29   -33489.659    2622.4823   -36112.141    703.07221 
  142400    241.70007    94.618584    128929.42    -33508.51     2569.888   -36078.398    704.04989 
  142450    243.14256   -79.757537    129084.28   -33510.094    2585.2253    -36095.32    703.80548 
  142500    238.92354    29.693024    129310.73   -33533.529    2540.3664   -36073.896     705.3724 
  142550    243.23963   -295.98667    129542.54   -33551.675    2586.2574   -36137.932    706.56813 
  142600     243.3137   -117.86636    129741.18   -33553.217     2587.045   -36140.262    706.85325 
  142650    242.54808   -416.80852    129912.42   -33535.563    2578.9044   -36114.468    708.10656 
  142700    242.25047     7.693723    130033.17   -33534.463    2575.7401   -36110.203    708.94157 
  142750     244.7755   -425.23808    130117.19   -33522.175    2602.5876   -36124.763    709.25766 
  142800    235.54991   -317.86523    130146.08   -33524.171     2504.496   -36028.667    709.70501 
  142850    240.20561    -504.8811    130119.57    -33502.03     2553.998   -36056.028    709.88102 
  142900    242.21845   -688.62372    130027.04    -33503.16    2575.3997   -36078.559     710.7288 
  142950     240.8613    5.7621515    129827.51    -33484.88    2560.9697    -36045.85    710.41187 
  143000    241.49672   -5.7943777    129596.63   -33457.188    2567.7259   -36024.914     710.5623 
  143050     239.5527   -184.18698    129414.54    -33444.15    2547.0559   -35991.206    710.50915 
  143100      242.374    402.10514    129264.69   -33454.625    2577.0535   -36031.679    709.44575 
  143150    241.94037    291.52908       129197   -33466.388    2572.4429   -36038.831     709.2856 
  143200    247.14116   -40.375266    129217.64   -33481.766    2627.7406   -36109.507    709.26598 
  143250    238.08067    152.73113    129328.17   -33488.647    2531.4045   -36020.052    709.65009 
  143300    238.26899    -459.3606    129485.98    -33478.09    2533.4068   -36011.497     711.1931 
  143350    240.35606   -87.881938    129629.52   -33484.596    2555.5977   -36040.194    710.56806 
  143400    245.99786   -236.94779    129772.15   -33472.923    2615.5844   -36088.507    711.38649 
  143450    240.33879   -328.82604    129876.21   -33475.752    2555.4141   -36031.166    711.45099 
  143500    243.07426   -68.616708    129919.31   -33475.603    2584.4991   -36060.102    711.93713 
  143550    242.22954   -522.27618    129897.74    -33461.46    2575.5175   -36036.978    711.63012 
  143600    242.17422   -677.60903    129792.45   -33450.428    2574.9293   -36025.358    711.28972 
  143650    242.52427    220.93334    129698.77   -33430.167    2578.6513   -36008.818    710.72238 
  143700    242.04733   -16.631642    129692.71   -33409.443    2573.5802   -35983.023    711.31478 
  143750    244.67929    -386.1317    129722.55    -33434.56    2601.5646   -36036.125     710.6138 
  143800    242.86615    232.77463    129705.73   -33454.514    2582.2864     -36036.8     709.9822 
  143850    242.65487   -300.05694    129673.91   -33449.441    2580.0399   -36029.481    710.44302 
  143900    238.39949   -192.37037    129583.88   -33459.374    2534.7943   -35994.168    710.24022 
  143950    248.03282   -20.081959    129472.41   -33449.904    2637.2212   -36087.125    710.56018 
  144000    241.96916    19.510164    129370.55   -33471.204     2572.749   -36043.953    710.83207 
  144050    240.89729    159.63634    129321.79    -33521.68    2561.3524   -36083.032    710.85088 
  144100    236.56708   -479.53539    129324.64   -33537.199    2515.3111    -36052.51    711.21298 
  144150    241.19109   -32.772899    129311.94   -33551.635    2564.4762   -36116.111    711.41212 
  144200    241.46057    180.59428    129381.52    -33544.98    2567.3415   -36112.322    711.35115 
  144250    238.73262   -254.98733     129536.9   -33515.816    2538.3364   -36054.153    712.05969 
  144300    234.46736   -565.64049    129676.81    -33511.72    2492.9858   -36004.706    712.68019 
  144350    236.18836   -501.28095    129682.83   -33523.749    2511.2844   -36035.033    713.57688 
  144400    233.29789   -165.78972    129550.79    -33530.06    2480.5514   -36010.612    713.24277 
  144450    236.12095   -37.941673    129401.82   -33520.349    2510.5677   -36030.916    713.16205 
  144500    237.35405   -262.34896    129278.05    -33526.73    2523.6787   -36050.409    712.98457 
  144550    239.21988   -42.949549    129134.61   -33526.135    2543.5172   -36069.652    712.95677 
  144600    237.69438    282.18827    129013.13   -33514.137    2527.2972   -36041.434    713.29311 
  144650    239.82008    48.190774    128962.19   -33520.488    2549.8988   -36070.386    714.14216 
  144700    236.62991    166.59751     129011.7   -33512.634    2515.9792   -36028.613     713.7525 
  144750    243.71156    175.30907    129116.46   -33537.601    2591.2752   -36128.876     714.1526 
  144800    242.33065   -20.469642    129251.39   -33567.075    2576.5926   -36143.668    713.73065 
  144850    243.67472   -78.796539    129407.39   -33572.889    2590.8835   -36163.773    713.53963 
  144900    238.72061   -176.88958       129556   -33583.952    2538.2087   -36122.161    714.96547 
  144950    242.57491   -112.21384    129663.09   -33563.982    2579.1897   -36143.172    714.87877 
  145000    241.13985   -92.817057    129687.95   -33605.046    2563.9313   -36168.977    715.55463 
  145050    240.37806    56.163514    129665.34   -33607.638    2555.8316    -36163.47    716.55386 
  145100    242.69678   -187.29498    129633.38    -33593.86    2580.4855   -36174.346    716.29616 
  145150    242.87497    -129.6475    129578.45   -33591.779    2582.3802   -36174.159    716.70574 
  145200    236.31019    30.257618    129495.19   -33577.956    2512.5798   -36090.536    716.42554 
  145250    237.82072   -97.497806    129398.64   -33596.408    2528.6406   -36125.048    716.75727 
  145300    240.90973   -105.69359    129303.49   -33604.542    2561.4847   -36166.027    717.27987 
  145350     236.7604   -173.13523    129229.18   -33615.737    2517.3667   -36133.103     717.4941 
  145400    240.73054   -69.627797    129163.36   -33593.919    2559.5794   -36153.498    717.17123 
  145450    239.73224   -225.48451    129129.08   -33588.011    2548.9649   -36136.976    717.56903 
  145500    237.54452   -113.15436    129119.67   -33584.369    2525.7038   -36110.073    717.82081 
  145550    241.52551   -271.43028    129141.93   -33558.981     2568.032   -36127.013    717.98764 
  145600    238.57323    44.320692    129206.85   -33566.076    2536.6416   -36102.717    717.55216 
  145650    237.77497   -257.94589    129312.32   -33552.539    2528.1541   -36080.693    717.84601 
  145700    239.69726    64.828106    129383.58   -33548.575    2548.5929   -36097.168    717.88674 
  145750    239.24636    52.308348    129481.97   -33546.153    2543.7987   -36089.952    718.33184 
  145800    235.94133    22.894359    129621.03    -33522.16    2508.6579   -36030.818    719.06073 
  145850    240.78886   -523.12912    129741.31   -33529.063    2560.1995   -36089.262     719.6458 
  145900    238.39812   -30.162975    129782.06    -33535.89    2534.7798    -36070.67    719.44136 
  145950     236.9519   -494.30807    129794.85   -33522.504    2519.4028   -36041.907    719.95663 
  146000    242.06689   -208.88417    129749.99   -33521.589    2573.7881   -36095.377    719.33904 
  146050    244.16152   -444.08256     129668.4    -33511.91    2596.0595   -36107.969     719.7502 
  146100    236.88988   -223.08908    129540.62   -33519.615    2518.7433   -36038.359     719.1796 
  146150    240.20328   -80.921113    129403.57   -33551.792    2553.9732   -36105.766    718.95643 
  146200     245.0502    235.60332       129292   -33548.275    2605.5084   -36153.783    718.68275 
  146250    240.71974    62.785349    129224.63   -33550.908    2559.4646   -36110.373     718.1383 
  146300    244.06005      3.63373    129189.86   -33534.749    2594.9805    -36129.73     718.0761 
  146350    238.72479     33.32561    129180.38   -33547.158    2538.2531   -36085.411    717.53683 
  146400     240.1767    29.180959    129248.45   -33547.633    2553.6906   -36101.324    718.10143 
  146450    240.12494     190.2776    129355.47   -33548.747    2553.1403   -36101.887    718.75287 
  146500    236.36462   -219.84726     129451.2   -33532.707    2513.1586   -36045.866    718.68826 
  146550    243.06444   -297.65465    129535.01   -33527.418    2584.3947   -36111.812    718.82654 
  146600    237.16087   -747.05509    129585.45   -33547.904    2521.6247   -36069.529    718.72876 
  146650    231.14188   -78.048519    129554.69   -33574.419    2457.6275   -36032.046    718.89469 
  146700    237.14715   -282.46262     129483.5   -33578.538    2521.4788   -36100.017    719.07598 
  146750    237.07273   -513.04865    129406.06   -33582.366    2520.6876   -36103.053    719.24223 
  146800    240.02814    191.69492       129324   -33603.424    2552.1111   -36155.535    719.47476 
  146850    237.55047    541.99385    129290.68   -33606.917    2525.7671   -36132.684     719.7522 
  146900    237.15735    76.345925    129358.06   -33590.754    2521.5872   -36112.342    720.73754 
  146950    234.66556    318.71566    129471.64   -33581.337    2495.0931    -36076.43      721.084 
  147000    235.59861    59.605464    129590.61    -33562.15    2505.0138   -36067.164    720.88296 
  147050    231.58602   -244.60373    129732.06   -33553.717    2462.3498   -36016.067    721.93274 
  147100    240.63647   -531.98386    129803.43   -33548.351    2558.5791    -36106.93     721.7194 
  147150    237.46079   -773.48866    129769.55   -33566.156    2524.8136   -36090.969    722.35637 
  147200    235.55336   -454.87578    129594.78   -33552.183    2504.5327   -36056.716    721.72059 
  147250    237.13906   -346.80395    129331.93   -33553.924    2521.3928   -36075.317    722.19532 
  147300    238.51915    323.36405    129060.47   -33525.932    2536.0667   -36061.999    721.60668 
  147350    240.54896   -72.834196    128911.31   -33521.093    2557.6487   -36078.742    720.93502 
  147400    242.14586    219.67424    128887.74   -33515.571    2574.6279   -36090.198    720.76933 
  147450    248.60565    346.75043     128983.8    -33491.17    2643.3119   -36134.482      721.363 
  147500    243.99561   -477.52541    129164.81   -33503.086    2594.2954   -36097.382    721.43768 
  147550    239.68636    -377.4956    129328.68   -33497.194     2548.477   -36045.671     722.3558 
  147600    243.44787   -448.35191    129450.07   -33499.866    2588.4715   -36088.337    722.54867 
  147650    241.95661   -589.18296    129472.19   -33471.232    2572.6156   -36043.847    722.48358 
  147700    242.13885   -266.74559    129369.75   -33482.681    2574.5533   -36057.234    722.04188 
  147750    242.67788   -457.89527    129217.12   -33483.922    2580.2846   -36064.207    721.60054 
  147800    243.24144    346.97056    129039.64   -33501.579    2586.2766   -36087.855    720.69013 
  147850    239.27741    190.23413    128928.34     -33506.4    2544.1289   -36050.529    720.94058 
  147900    241.74677    84.264483    128862.88   -33485.159    2570.3845   -36055.543    720.95714 
  147950    238.39901    291.60181    128813.97   -33501.299    2534.7892   -36036.088     720.6586 
  148000    238.60169    44.309769    128801.54   -33470.372    2536.9443   -36007.316    720.41171 
  148050    242.18345   -79.774179    128871.31   -33485.824    2575.0275   -36060.851    720.38651 
  148100    241.87217   -336.50148    128991.17   -33490.384    2571.7178   -36062.102    720.99262 
  148150     238.5393    -367.8035    129033.24   -33505.988    2536.2809   -36042.269    721.14928 
  148200    237.12596   -58.779637    128985.05   -33483.132    2521.2535   -36004.386    721.30697 
  148250    239.11281   -334.97685    128872.43   -33451.125    2542.3787   -35993.504    721.67742 
  148300    239.03211    -423.5326    128724.22   -33441.165    2541.5207   -35982.686    721.87612 
  148350     237.8593    280.07443    128590.76   -33420.452    2529.0507   -35949.503    721.85793 
  148400    241.79021    332.27409     128528.2   -33413.275    2570.8464   -35984.121    722.49984 
  148450     238.9329    212.45543    128546.83   -33442.971    2540.4659   -35983.437    722.97883 
  148500    238.22143   -63.029763    128608.82   -33464.564    2532.9011   -35997.465    723.02738 
  148550    243.10227    260.36285    128685.68   -33464.414     2584.797   -36049.211    723.61955 
  148600    235.68691    117.49477    128819.12   -33460.946    2505.9527   -35966.898    723.43988 
  148650    238.71444   -128.11016    128952.79   -33438.597     2538.143    -35976.74     724.4876 
  148700    240.92362   -232.03094    129007.77   -33422.197    2561.6323    -35983.83    724.40877 
  148750    241.72425   -3.4994859    128985.51   -33407.626     2570.145   -35977.771    725.76832 
  148800    240.51498    110.94764    128930.37   -33412.638    2557.2875   -35969.925    726.19015 
  148850    242.52704   -211.54517    128863.64   -33433.418    2578.6807   -36012.099    725.99956 
  148900    238.13217   -267.87598    128795.52   -33432.302    2531.9521   -35964.254    726.00888 
  148950    244.50806   -226.69267    128705.98   -33423.011    2599.7441   -36022.755    726.57257 
  149000    239.37656    393.40355     128620.8   -33420.736    2545.1831   -35965.919    727.08387 
  149050     243.4351   -20.798326    128589.86   -33443.631    2588.3358   -36031.967    727.59305 
  149100    239.55222    121.88654    128574.03   -33443.432    2547.0508   -35990.483    728.08044 
  149150    242.08097   -100.56769    128589.26   -33468.697    2573.9379   -36042.634    728.40742 
  149200    236.26853    138.51219    128613.66   -33491.398    2512.1369   -36003.534    728.59315 
  149250     238.6848    210.58278    128694.89   -33507.179    2537.8279   -36045.007    728.94763 
  149300    234.81282   -106.00862    128796.27    -33509.27    2496.6589   -36005.929    729.67476 
  149350    233.06328   -213.49035    128877.49     -33531.5    2478.0568   -36009.556    729.62811 
  149400    234.54566    -233.9276    128943.45   -33571.626    2493.8183   -36065.445    730.33508 
  149450    235.93621   -439.57881     129004.1   -33562.413    2508.6034   -36071.017    729.59526 
  149500    238.87041   -402.12575    129051.45   -33558.162    2539.8015   -36097.963    730.50234 
  149550    231.47629    98.696322    129053.43   -33567.242    2461.1831   -36028.425    730.50468 
  149600    237.10577   -1.0430318    129056.21   -33584.082    2521.0388   -36105.121    729.85955 
  149650    237.03283    142.03976     129100.4   -33547.845    2520.2633   -36068.108    729.85225 
  149700    241.27636   -72.966615    129171.82   -33537.743    2565.3828   -36103.126     730.6457 
  149750    238.69831    293.14929    129275.23   -33528.929    2537.9716     -36066.9    730.30467 
  149800    239.45228    119.70215    129416.02   -33539.744    2545.9882   -36085.732     730.7859 
  149850    237.53726   -466.63075    129560.64    -33565.91    2525.6267   -36091.537    731.67207 
  149900    239.57518   -296.23538    129628.91   -33552.796    2547.2949   -36100.091    731.45253 
  149950    238.66038   -318.59739    129621.89   -33542.004    2537.5683   -36079.572    732.08076 
  150000    238.74773   -296.52507    129563.74   -33544.353    2538.4971   -36082.851    732.40094 
Loop time of 384.622 on 12 procs for 100000 steps with 6328 atoms

Performance: 224.636 ns/day, 0.107 hours/ns, 259.996 timesteps/s
97.6% CPU use with 12 MPI tasks x no OpenMP threads

MPI task timing breakdown:
Section |  min time  |  avg time  |  max time  |%varavg| %total
---------------------------------------------------------------
Pair    | 70.743     | 138.54     | 276.02     | 775.7 | 36.02
Neigh   | 10.137     | 18.13      | 34.478     | 251.2 |  4.71
Comm    | 52.82      | 205.91     | 281.87     | 707.4 | 53.54
Output  | 0.584      | 0.59079    | 0.64226    |   2.0 |  0.15
Modify  | 17.98      | 18.392     | 18.867     |   7.4 |  4.78
Other   |            | 3.051      |            |       |  0.79

Nlocal:        527.333 ave         884 max         351 min
Histogram: 8 0 0 0 0 0 0 0 0 4
Nghost:        1717.33 ave        1951 max        1605 min
Histogram: 7 1 0 0 0 0 0 0 2 2
Neighs:        0.00000 ave           0 max           0 min
Histogram: 12 0 0 0 0 0 0 0 0 0
FullNghs:      45585.0 ave      107187 max       15530 min
Histogram: 8 0 0 0 0 0 0 0 0 4

Total # of neighbors = 547020
Ave neighs/atom = 86.444374
Neighbor list builds = 11780
Dangerous builds = 0


# Create data file for import to other simulations
#
write_data data.${NAME}
write_data data.ML_graphite_1atm_240K
System init for write_data ...


Total wall time: 0:09:45
