LAMMPS data file via write_data, version 16 Mar 2018, timestep = 6000000

6337 atoms
2 atom types

0.0000000000000000e+00 4.9219999999999999e+01 xlo xhi
0.0000000000000000e+00 4.9019635930410494e+01 ylo yhi
1.6233523400312073e+00 5.8438647659966030e+01 zlo zhi

Masses

1 18.015
2 12.01

Atoms # atomic

2850 1 3.0939518089675104e+00 7.8627531028143305e-01 2.5877947555259437e+00 -2 -1 1
1663 1 5.5640102159419937e+00 1.0538469013902349e+01 5.7072594968459844e+00 -2 -2 0
1869 1 2.2712027606253384e+00 5.3249509771307713e+00 2.2943867275575651e+00 0 0 0
1898 1 2.9665424968718161e+00 1.0705879792119106e+01 6.8632076241885400e+00 1 2 0
5118 1 6.2943428018457235e+00 8.0703351163316537e+00 1.7122970054922995e+00 -1 -1 0
5025 1 6.5759778012778272e+00 3.9277122450974296e+00 2.4007262278705146e+00 -2 1 0
4841 1 8.9348464176062432e+00 7.3976103917261984e+00 2.2930824842144095e+00 3 1 0
51 1 1.0089053744399268e+00 9.7843609110111185e+00 2.5564261985171193e+00 1 -3 0
93 1 8.4733995576814747e-01 9.3709311589938427e+00 5.5320672385334309e+00 2 -2 0
4536 1 5.3710084732876897e+00 1.0340415559002889e+01 3.0374953845320656e+00 1 1 1
4500 1 6.9554177884379840e+00 8.2117835406446087e+00 6.5410965328716930e+00 -2 3 1
2877 1 3.4513114566884058e+00 7.3622980273306615e-01 5.3015407292738939e+00 -1 2 1
4994 1 1.4629279361692757e+00 2.4695901957567838e+00 6.2417833299020540e+00 0 1 0
5321 1 6.8039811796951053e+00 4.0862869050326367e+00 5.2796776821179625e+00 -1 -1 1
4854 1 5.8310890159436646e+00 1.5849246096379559e+00 5.9258012452222362e+00 1 0 0
4426 1 2.3004614215558759e+00 4.9088791340833202e+00 5.2636305552247329e+00 -1 4 1
36 1 3.0861314615340443e+00 1.1352696295738976e+01 1.7409087570807629e+00 -1 3 1
3192 1 4.9369363280450829e+00 6.1259802051584362e+00 6.4237901014454648e+00 3 -3 0
128 1 9.2759463177576702e+00 4.9076451171045701e+00 6.1315267658560195e+00 1 4 0
3472 1 9.0423038749539977e+00 7.3507666434601182e+00 5.0770807035626788e+00 -2 -1 0
13 1 4.2735082143011027e-01 7.2521271764914754e+00 1.6338897103855694e+00 -1 -1 1
5285 1 1.7170304776075981e-01 6.7357703186211344e+00 6.3204115649254113e+00 0 0 0
3291 1 5.8314574857955357e+00 1.4015741134692234e+00 1.8455410063097930e+00 1 0 0
20 1 6.4180467103748748e+00 1.2538566939729474e+00 8.5294127535384483e+00 2 2 1
5128 1 1.1640802319906498e+00 2.8207938180726209e+00 2.0017093582372212e+00 2 -3 1
473 1 4.2035114415723660e+00 1.1746997563076956e+01 1.0670811991299948e+01 -2 -1 1
3687 1 6.2949791202207965e+00 9.9534927006139124e+00 1.4077005756217618e+01 -3 0 1
6011 1 1.1768194090012749e+00 8.4142175274026130e+00 1.3044308990249878e+01 0 -2 1
330 1 6.9674107624318671e+00 3.5516560343623835e+00 9.6962454750857106e+00 0 1 0
4 1 7.9006527719092598e-03 6.1723483492058184e+00 9.2446885302044333e+00 2 -1 1
2869 1 1.9458164573872301e+00 1.0877190158762753e+01 1.4067146583844956e+01 2 -2 1
1621 1 2.4388449190230710e+00 4.6267325941497255e+00 9.9057917371136064e+00 -1 1 0
2101 1 4.9588415551784921e+00 5.2478426427836435e+00 8.8812159894989016e+00 4 0 0
4998 1 3.4627951973936897e+00 2.3990141963179928e-01 1.2212156798630946e+01 0 -1 0
1585 1 5.7651031128487009e+00 7.5446740826782737e+00 9.8628969584466457e+00 0 -1 0
4617 1 1.1640035833492117e+00 8.4815236517035490e+00 1.0399115351128026e+01 4 1 1
4777 1 3.5974208845310316e+00 9.3456909173029956e+00 9.3633195635946080e+00 -1 1 0
5078 1 8.9736734924725905e+00 1.0844246747160527e+01 1.3182611657365486e+01 1 3 0
3442 1 3.8025224324189701e+00 4.1267937216762690e-01 9.3465589732574905e+00 2 1 0
5139 1 8.9073978085994909e+00 1.0464229312901329e+01 1.0544570239094661e+01 -2 -3 0
6297 1 4.3181482379559997e+00 2.5411065441838301e+00 1.3434472894463095e+01 4 0 1
1947 1 6.5552559453284376e+00 3.3459086656424164e+00 1.2396265321018276e+01 0 -1 0
1987 1 8.1593878933679758e+00 1.4891196132935252e+00 1.3452967310848718e+01 -2 2 0
4887 1 2.3861714227587911e+00 4.2126309967163413e+00 1.2590462274363581e+01 -3 3 0
3245 1 3.4575077781849819e+00 6.7435414644307139e+00 1.3678123799655149e+01 1 -2 0
3243 1 6.0442276089988578e+00 7.6334256000673539e+00 1.2697308296543373e+01 1 0 0
225 1 7.7776038051964749e+00 5.5851816152448786e+00 1.3528680020934328e+01 2 -2 1
5996 1 8.2777190814747286e+00 8.2392223781009246e+00 9.2465673471672467e+00 1 1 1
485 1 4.5535261242866376e+00 1.1568464546241282e+01 1.3320156594802821e+01 -1 -2 1
1861 1 6.7641859682594969e+00 1.1992202961564567e+01 9.6145753975400545e+00 0 2 0
5192 1 9.4862875718971367e+00 3.8540975934253412e+00 9.0894053514632311e+00 0 1 0
4936 1 1.7863417168601716e+00 2.2268670662026531e+00 8.8367419925306283e+00 2 1 0
3746 1 4.1903810331519669e+00 2.5790691875492326e+00 1.6384295233392010e+01 4 3 1
4709 1 6.2115209982810891e+00 9.8483492241768964e+00 2.1160751890636291e+01 0 1 1
3084 1 6.6986079571718271e+00 3.5120102798959478e+00 1.7272366697414562e+01 -3 0 1
1514 1 4.5761518662207452e+00 1.1864728348415227e+01 2.0493729969379643e+01 0 1 1
4895 1 2.3768512240214390e+00 4.5971224057208442e+00 1.7000391290105309e+01 -1 -1 0
2053 1 3.3099385475381529e+00 7.0725378901113025e+00 1.6369177844555313e+01 -1 4 1
3006 1 6.0697009333184493e+00 7.4754785872993477e+00 1.7298256807863744e+01 0 0 1
1484 1 8.0559271666067129e+00 5.6708176998973032e+00 1.6449029466883125e+01 1 1 0
3224 1 1.3061696888978165e+00 8.7186081306912087e+00 1.7502641906867350e+01 -1 -3 1
6010 1 1.9795289429528371e+00 1.1049647778014551e+01 1.6676427792109266e+01 1 -1 1
4838 1 4.5653263047230253e+00 1.2025453252368376e+01 1.7778584615450406e+01 0 1 0
5284 1 8.9068612852640694e+00 1.1039933527240157e+01 1.7758044916127503e+01 0 1 1
3699 1 6.4579192214566374e+00 1.0013192975077047e+01 1.6888988612718926e+01 2 -1 1
1566 1 8.8889420905280527e+00 1.0882280096825600e+01 2.0423604168327905e+01 0 1 1
1477 1 4.2715672459062812e+00 2.4264018638177953e+00 2.0331404322819200e+01 2 1 1
4595 1 6.8542349068523016e+00 2.8782418016628339e+00 2.0175353956184797e+01 0 0 0
2920 1 8.7736545690584027e+00 1.1778568924652253e+00 2.1239704581508914e+01 -1 -1 1
1719 1 2.4861577582175354e+00 4.2246661080199743e+00 1.9573033749746862e+01 2 -3 0
5174 1 2.9880682692286582e+00 6.6631884083231032e+00 2.0683476778263291e+01 2 -3 0
4880 1 7.5948923009184801e+00 5.3112903464971213e+00 2.1049453483059331e+01 0 3 0
4875 1 5.8127747642903937e+00 7.2170692096146887e+00 2.0104665293432365e+01 -1 0 1
3741 1 2.0466795559201296e+00 1.1107638804409206e+01 2.1383971944755555e+01 -1 -1 0
1972 1 1.0485411207779194e+00 8.6062658452731533e+00 2.0269901964084813e+01 -1 -2 1
2993 1 8.4887879946833156e+00 1.6292039502154831e+00 1.6187346880746052e+01 -1 1 0
2084 1 1.6673253817320586e+00 1.6052508095306159e+00 2.4213403541287445e+01 0 1 1
5302 1 4.0386195949142030e+00 2.4021501719265683e+00 2.3226723988606526e+01 -1 0 1
681 2 6.1524999999999999e+00 1.0656442593567499e+01 2.6759182635429784e+01 0 0 0
685 2 7.3830000000000009e+00 8.5251540748539991e+00 2.6759182635429784e+01 0 0 0
3067 1 8.7820637133938284e+00 1.1924718051739656e+00 2.3952449209230213e+01 2 -1 1
4649 1 6.1954973135271825e+00 5.5799281981150173e-01 2.4104397545390096e+01 0 0 1
2092 1 2.9665343880224508e+00 6.6573400439154931e+00 2.3479145120317135e+01 -1 2 0
94 1 5.8460578540790542e-01 5.8736031645530131e+00 2.4477774975606746e+01 2 1 1
5299 1 4.8394704108896667e+00 4.8306080183283955e+00 2.4352024038867423e+01 0 -2 1
6138 1 7.7178984467352647e+00 5.3396543630640911e+00 2.3883622250941624e+01 -1 -1 1
77 1 1.9399481651131545e+00 1.1013441039660623e+01 2.3815990922166389e+01 -2 -2 1
3703 1 3.5588159490944187e+00 8.9668514679062312e+00 2.4536377069534876e+01 5 -2 1
3682 1 8.3373626516035344e+00 7.9567410585306995e+00 2.4102436648823847e+01 0 3 0
6043 1 6.1228505467657603e+00 9.6014624643958708e+00 2.3960932871796473e+01 1 -2 1
554 2 0.0000000000000000e+00 2.8417180249513345e+00 2.6759182635429784e+01 0 0 0
556 2 0.0000000000000000e+00 0.0000000000000000e+00 2.6759182635429784e+01 0 0 0
558 2 1.2305000000000001e+00 7.1042950623783474e-01 2.6759182635429784e+01 0 0 0
565 2 1.2305000000000001e+00 2.1312885187134998e+00 2.6759182635429784e+01 0 0 0
567 2 2.4610000000000003e+00 2.8417180249513345e+00 2.6759182635429784e+01 0 0 0
569 2 2.4610000000000003e+00 0.0000000000000000e+00 2.6759182635429784e+01 0 0 0
571 2 3.6915000000000004e+00 7.1042950623783474e-01 2.6759182635429784e+01 0 0 0
586 2 3.6914999999999996e+00 2.1312885187134998e+00 2.6759182635429784e+01 0 0 0
588 2 4.9220000000000006e+00 2.8417180249513332e+00 2.6759182635429784e+01 0 0 0
590 2 4.9220000000000006e+00 0.0000000000000000e+00 2.6759182635429784e+01 0 0 0
592 2 6.1524999999999999e+00 7.1042950623783407e-01 2.6759182635429784e+01 0 0 0
615 2 6.1524999999999999e+00 2.1312885187134989e+00 2.6759182635429784e+01 0 0 0
617 2 7.3829999999999991e+00 2.8417180249513345e+00 2.6759182635429784e+01 0 0 0
619 2 7.3829999999999991e+00 0.0000000000000000e+00 2.6759182635429784e+01 0 0 0
621 2 8.6134999999999984e+00 7.1042950623783407e-01 2.6759182635429784e+01 0 0 0
652 2 8.6134999999999984e+00 2.1312885187135002e+00 2.6759182635429784e+01 0 0 0
561 2 0.0000000000000000e+00 4.2625770374269996e+00 2.6759182635429784e+01 0 0 0
563 2 1.2305000000000001e+00 4.9730065436648339e+00 2.6759182635429784e+01 0 0 0
578 2 1.2305000000000001e+00 6.3938655561404980e+00 2.6759182635429784e+01 0 0 0
582 2 2.4610000000000003e+00 4.2625770374269996e+00 2.6759182635429784e+01 0 0 0
584 2 3.6914999999999996e+00 4.9730065436648339e+00 2.6759182635429784e+01 0 0 0
607 2 3.6914999999999996e+00 6.3938655561404980e+00 2.6759182635429784e+01 0 0 0
559 2 0.0000000000000000e+00 7.1042950623783341e+00 2.6759182635429784e+01 0 0 0
580 2 2.4610000000000003e+00 7.1042950623783341e+00 2.6759182635429784e+01 0 0 0
611 2 4.9220000000000006e+00 4.2625770374269978e+00 2.6759182635429784e+01 0 0 0
613 2 6.1524999999999999e+00 4.9730065436648339e+00 2.6759182635429784e+01 0 0 0
644 2 6.1524999999999999e+00 6.3938655561404980e+00 2.6759182635429784e+01 0 0 0
648 2 7.3829999999999991e+00 4.2625770374269996e+00 2.6759182635429784e+01 0 0 0
650 2 8.6135000000000002e+00 4.9730065436648339e+00 2.6759182635429784e+01 0 0 0
689 2 8.6135000000000002e+00 6.3938655561404980e+00 2.6759182635429784e+01 0 0 0
609 2 4.9220000000000006e+00 7.1042950623783341e+00 2.6759182635429784e+01 0 0 0
646 2 7.3830000000000009e+00 7.1042950623783341e+00 2.6759182635429784e+01 0 0 0
574 2 0.0000000000000000e+00 8.5251540748539991e+00 2.6759182635429784e+01 0 0 0
576 2 1.2305000000000001e+00 9.2355835810918343e+00 2.6759182635429784e+01 0 0 0
603 2 2.4610000000000003e+00 8.5251540748539991e+00 2.6759182635429784e+01 0 0 0
605 2 3.6915000000000004e+00 9.2355835810918343e+00 2.6759182635429784e+01 0 0 0
572 2 0.0000000000000000e+00 1.1366872099805333e+01 2.6759182635429784e+01 0 0 0
599 2 1.2305000000000001e+00 1.0656442593567498e+01 2.6759182635429784e+01 0 0 0
601 2 2.4610000000000003e+00 1.1366872099805333e+01 2.6759182635429784e+01 0 0 0
636 2 3.6914999999999996e+00 1.0656442593567499e+01 2.6759182635429784e+01 0 0 0
687 2 8.6134999999999984e+00 9.2355835810918343e+00 2.6759182635429784e+01 0 0 0
728 2 8.6134999999999984e+00 1.0656442593567498e+01 2.6759182635429784e+01 0 0 0
640 2 4.9220000000000006e+00 8.5251540748539991e+00 2.6759182635429784e+01 0 0 0
683 2 7.3829999999999991e+00 1.1366872099805333e+01 2.6759182635429784e+01 0 0 0
638 2 4.9220000000000006e+00 1.1366872099805333e+01 2.6759182635429784e+01 0 0 0
642 2 6.1524999999999999e+00 9.2355835810918343e+00 2.6759182635429784e+01 0 0 0
555 2 0.0000000000000000e+00 1.4208590124756650e+00 3.0030999999998659e+01 0 0 0
557 2 0.0000000000000000e+00 0.0000000000000000e+00 3.0030999999998659e+01 0 0 0
566 2 1.2305000000000001e+00 2.1312885187134998e+00 3.0030999999998659e+01 0 0 0
568 2 2.4610000000000003e+00 1.4208590124756650e+00 3.0030999999998659e+01 0 0 0
570 2 2.4610000000000003e+00 0.0000000000000000e+00 3.0030999999998659e+01 0 0 0
587 2 3.6914999999999996e+00 2.1312885187134998e+00 3.0030999999998659e+01 0 0 0
564 2 1.2305000000000001e+00 3.5521475311891644e+00 3.0030999999998659e+01 0 0 0
585 2 3.6914999999999996e+00 3.5521475311891644e+00 3.0030999999998659e+01 0 0 0
883 2 0.0000000000000000e+00 2.8417180249513345e+00 3.3302817364560077e+01 0 0 0
884 2 0.0000000000000000e+00 0.0000000000000000e+00 3.3302817364560077e+01 0 0 0
885 2 1.2305000000000001e+00 7.1042950623783474e-01 3.3302817364560077e+01 0 0 0
889 2 1.2305000000000001e+00 2.1312885187134998e+00 3.3302817364560077e+01 0 0 0
890 2 2.4610000000000003e+00 2.8417180249513345e+00 3.3302817364560077e+01 0 0 0
891 2 2.4610000000000003e+00 0.0000000000000000e+00 3.3302817364560077e+01 0 0 0
892 2 3.6915000000000004e+00 7.1042950623783474e-01 3.3302817364560077e+01 0 0 0
900 2 3.6914999999999996e+00 2.1312885187134998e+00 3.3302817364560077e+01 0 0 0
589 2 4.9220000000000006e+00 1.4208590124756650e+00 3.0030999999998659e+01 0 0 0
591 2 4.9220000000000006e+00 0.0000000000000000e+00 3.0030999999998659e+01 0 0 0
616 2 6.1524999999999999e+00 2.1312885187134989e+00 3.0030999999998659e+01 0 0 0
618 2 7.3829999999999991e+00 1.4208590124756659e+00 3.0030999999998659e+01 0 0 0
620 2 7.3829999999999991e+00 0.0000000000000000e+00 3.0030999999998659e+01 0 0 0
653 2 8.6134999999999984e+00 2.1312885187135002e+00 3.0030999999998659e+01 0 0 0
614 2 6.1524999999999999e+00 3.5521475311891644e+00 3.0030999999998659e+01 0 0 0
651 2 8.6134999999999984e+00 3.5521475311891657e+00 3.0030999999998659e+01 0 0 0
901 2 4.9220000000000006e+00 2.8417180249513332e+00 3.3302817364560077e+01 0 0 0
902 2 4.9220000000000006e+00 0.0000000000000000e+00 3.3302817364560077e+01 0 0 0
903 2 6.1524999999999999e+00 7.1042950623783407e-01 3.3302817364560077e+01 0 0 0
915 2 6.1524999999999999e+00 2.1312885187134989e+00 3.3302817364560077e+01 0 0 0
916 2 7.3829999999999991e+00 2.8417180249513345e+00 3.3302817364560077e+01 0 0 0
917 2 7.3829999999999991e+00 0.0000000000000000e+00 3.3302817364560077e+01 0 0 0
918 2 8.6134999999999984e+00 7.1042950623783407e-01 3.3302817364560077e+01 0 0 0
934 2 8.6134999999999984e+00 2.1312885187135002e+00 3.3302817364560077e+01 0 0 0
560 2 0.0000000000000000e+00 5.6834360499026637e+00 3.0030999999998659e+01 0 0 0
562 2 0.0000000000000000e+00 4.2625770374269996e+00 3.0030999999998659e+01 0 0 0
579 2 1.2305000000000001e+00 6.3938655561404980e+00 3.0030999999998659e+01 0 0 0
581 2 2.4610000000000003e+00 5.6834360499026637e+00 3.0030999999998659e+01 0 0 0
583 2 2.4610000000000003e+00 4.2625770374269996e+00 3.0030999999998659e+01 0 0 0
608 2 3.6914999999999996e+00 6.3938655561404980e+00 3.0030999999998659e+01 0 0 0
577 2 1.2305000000000001e+00 7.8147245686161639e+00 3.0030999999998659e+01 0 0 0
606 2 3.6914999999999996e+00 7.8147245686161639e+00 3.0030999999998659e+01 0 0 0
887 2 0.0000000000000000e+00 4.2625770374269996e+00 3.3302817364560077e+01 0 0 0
888 2 1.2305000000000001e+00 4.9730065436648339e+00 3.3302817364560077e+01 0 0 0
896 2 1.2305000000000001e+00 6.3938655561404980e+00 3.3302817364560077e+01 0 0 0
898 2 2.4610000000000003e+00 4.2625770374269996e+00 3.3302817364560077e+01 0 0 0
899 2 3.6914999999999996e+00 4.9730065436648339e+00 3.3302817364560077e+01 0 0 0
911 2 3.6914999999999996e+00 6.3938655561404980e+00 3.3302817364560077e+01 0 0 0
886 2 0.0000000000000000e+00 7.1042950623783341e+00 3.3302817364560077e+01 0 0 0
897 2 2.4610000000000003e+00 7.1042950623783341e+00 3.3302817364560077e+01 0 0 0
610 2 4.9220000000000006e+00 5.6834360499026637e+00 3.0030999999998659e+01 0 0 0
612 2 4.9220000000000006e+00 4.2625770374269978e+00 3.0030999999998659e+01 0 0 0
645 2 6.1524999999999999e+00 6.3938655561404980e+00 3.0030999999998659e+01 0 0 0
647 2 7.3829999999999991e+00 5.6834360499026637e+00 3.0030999999998659e+01 0 0 0
649 2 7.3829999999999991e+00 4.2625770374269996e+00 3.0030999999998659e+01 0 0 0
690 2 8.6135000000000002e+00 6.3938655561404980e+00 3.0030999999998659e+01 0 0 0
643 2 6.1524999999999999e+00 7.8147245686161639e+00 3.0030999999998659e+01 0 0 0
688 2 8.6135000000000002e+00 7.8147245686161639e+00 3.0030999999998659e+01 0 0 0
913 2 4.9220000000000006e+00 4.2625770374269978e+00 3.3302817364560077e+01 0 0 0
914 2 6.1524999999999999e+00 4.9730065436648339e+00 3.3302817364560077e+01 0 0 0
930 2 6.1524999999999999e+00 6.3938655561404980e+00 3.3302817364560077e+01 0 0 0
932 2 7.3829999999999991e+00 4.2625770374269996e+00 3.3302817364560077e+01 0 0 0
933 2 8.6135000000000002e+00 4.9730065436648339e+00 3.3302817364560077e+01 0 0 0
953 2 8.6135000000000002e+00 6.3938655561404980e+00 3.3302817364560077e+01 0 0 0
912 2 4.9220000000000006e+00 7.1042950623783341e+00 3.3302817364560077e+01 0 0 0
931 2 7.3830000000000009e+00 7.1042950623783341e+00 3.3302817364560077e+01 0 0 0
573 2 0.0000000000000000e+00 9.9460130873296642e+00 3.0030999999998659e+01 0 0 0
575 2 0.0000000000000000e+00 8.5251540748539991e+00 3.0030999999998659e+01 0 0 0
602 2 2.4610000000000003e+00 9.9460130873296642e+00 3.0030999999998659e+01 0 0 0
604 2 2.4610000000000003e+00 8.5251540748539991e+00 3.0030999999998659e+01 0 0 0
598 2 1.2305000000000001e+00 1.2077301606043163e+01 3.0030999999998659e+01 0 0 0
600 2 1.2305000000000001e+00 1.0656442593567498e+01 3.0030999999998659e+01 0 0 0
635 2 3.6914999999999996e+00 1.2077301606043163e+01 3.0030999999998659e+01 0 0 0
637 2 3.6914999999999996e+00 1.0656442593567499e+01 3.0030999999998659e+01 0 0 0
894 2 0.0000000000000000e+00 8.5251540748539991e+00 3.3302817364560077e+01 0 0 0
895 2 1.2305000000000001e+00 9.2355835810918343e+00 3.3302817364560077e+01 0 0 0
909 2 2.4610000000000003e+00 8.5251540748539991e+00 3.3302817364560077e+01 0 0 0
910 2 3.6915000000000004e+00 9.2355835810918343e+00 3.3302817364560077e+01 0 0 0
893 2 0.0000000000000000e+00 1.1366872099805333e+01 3.3302817364560077e+01 0 0 0
907 2 1.2305000000000001e+00 1.0656442593567498e+01 3.3302817364560077e+01 0 0 0
908 2 2.4610000000000003e+00 1.1366872099805333e+01 3.3302817364560077e+01 0 0 0
926 2 3.6914999999999996e+00 1.0656442593567499e+01 3.3302817364560077e+01 0 0 0
639 2 4.9220000000000006e+00 9.9460130873296642e+00 3.0030999999998659e+01 0 0 0
641 2 4.9220000000000006e+00 8.5251540748539991e+00 3.0030999999998659e+01 0 0 0
684 2 7.3830000000000009e+00 9.9460130873296642e+00 3.0030999999998659e+01 0 0 0
686 2 7.3830000000000009e+00 8.5251540748539991e+00 3.0030999999998659e+01 0 0 0
680 2 6.1524999999999999e+00 1.2077301606043163e+01 3.0030999999998659e+01 0 0 0
682 2 6.1524999999999999e+00 1.0656442593567499e+01 3.0030999999998659e+01 0 0 0
727 2 8.6135000000000002e+00 1.2077301606043163e+01 3.0030999999998659e+01 0 0 0
729 2 8.6134999999999984e+00 1.0656442593567498e+01 3.0030999999998659e+01 0 0 0
928 2 4.9220000000000006e+00 8.5251540748539991e+00 3.3302817364560077e+01 0 0 0
929 2 6.1524999999999999e+00 9.2355835810918343e+00 3.3302817364560077e+01 0 0 0
951 2 7.3830000000000009e+00 8.5251540748539991e+00 3.3302817364560077e+01 0 0 0
952 2 8.6134999999999984e+00 9.2355835810918343e+00 3.3302817364560077e+01 0 0 0
927 2 4.9220000000000006e+00 1.1366872099805333e+01 3.3302817364560077e+01 0 0 0
949 2 6.1524999999999999e+00 1.0656442593567499e+01 3.3302817364560077e+01 0 0 0
950 2 7.3829999999999991e+00 1.1366872099805333e+01 3.3302817364560077e+01 0 0 0
973 2 8.6134999999999984e+00 1.0656442593567498e+01 3.3302817364560077e+01 0 0 0
74 1 6.7360869034875108e+00 1.0520557174943921e+01 3.5760397800856779e+01 -2 1 -1
1253 1 7.8678410779747232e-01 3.7396751649423940e+00 3.6846529616779108e+01 -1 0 0
3561 1 4.9733935363757329e+00 2.6933535798788233e-01 3.5944370897026758e+01 1 -1 0
6335 1 7.9684213561847477e+00 3.5765495747414362e+00 3.6043921607538337e+01 0 1 0
5227 1 9.4866017487384600e+00 1.0899430514946003e+01 3.6077934924459029e+01 0 1 -1
5131 1 4.7098692839302375e-02 1.3335604687063074e+00 3.5590841989808482e+01 -1 0 -1
2148 1 3.5073255177000910e+00 4.3130773446690682e+00 3.5826422259161376e+01 1 1 0
1790 1 5.5517962186403302e+00 2.6755058737031137e+00 3.7038443031078785e+01 0 1 -1
3132 1 8.3577184411651206e+00 5.9160505435727382e+00 3.6604808755696013e+01 2 2 0
1508 1 6.3150378302800352e+00 7.8191426940596527e+00 3.5872414132449350e+01 -1 2 0
2090 1 1.7710342961649590e+00 8.9493727750342895e+00 3.5819732893174347e+01 0 2 0
3107 1 2.1077687583725555e+00 1.1684684690826781e+01 3.6366956574346744e+01 -1 -2 -1
3100 1 9.6881852024792181e+00 1.4546522478961657e+00 3.6782777975202933e+01 2 0 0
2067 1 3.7974532742855978e+00 7.0333258058353723e+00 3.6411380466366765e+01 2 0 0
4714 1 9.4764941489493815e+00 1.9336318698277852e+00 3.9488568862343470e+01 -1 0 0
6017 1 5.2128367139861149e+00 2.7894796316477160e+00 3.9658585754585999e+01 3 3 0
2124 1 7.5996685015592371e+00 3.5944128722659801e+00 4.0323164964008200e+01 1 1 -1
3369 1 4.7325574265039689e+00 4.2821370288327686e-02 4.0207020691984269e+01 1 2 -1
5034 1 8.8700998667843556e-01 3.7577594347573471e+00 3.9666727166921135e+01 -1 1 -1
4800 1 3.7506732752467222e+00 7.3315257606777218e+00 3.9075384127175639e+01 2 0 0
2947 1 3.3247323454338740e+00 4.6546790641527478e+00 4.0049115796748950e+01 2 0 -1
76 1 8.4216891495618853e+00 6.2253547021411704e+00 3.9357637576893680e+01 0 -1 -1
4608 1 1.6569734975531221e+00 8.9932362203580141e+00 3.9984794729613938e+01 -1 -2 0
5190 1 1.5980490524753623e+00 1.1664076554898735e+01 3.8945917826376316e+01 3 0 -1
2887 1 6.2882364712220538e+00 8.1101032021879824e+00 3.9789408791337564e+01 0 0 0
4576 1 6.4726937009794243e+00 1.0468642652320748e+01 3.8346207041425586e+01 2 -1 0
3063 1 8.7740172389334123e+00 1.1101269167980197e+01 3.9698107613946647e+01 -1 4 0
535 1 5.9762532213893205e-01 1.1293308487172702e+00 4.3568690323352911e+01 1 3 0
2960 1 6.6999229097103488e+00 8.9495688710187622e+00 4.2344858220643999e+01 3 4 0
1516 1 8.1627894484443253e+00 2.7677796690646530e+00 4.2976905891376433e+01 1 -1 -1
1883 1 9.0304905558409709e-01 9.1978368565843240e+00 4.2701721896666001e+01 2 -3 -1
6208 1 8.1579877766650597e+00 1.1090403701556513e+01 4.2476572238519992e+01 1 3 0
3388 1 3.9185677425815437e+00 4.4117401183764153e+00 4.2887041417458292e+01 -1 2 -1
4766 1 1.9181878199133484e-01 1.1966483817736289e+00 4.0658894091284864e+01 2 5 -1
3087 1 3.6604835230860817e+00 1.8043391336554520e+00 4.3910010720038684e+01 1 2 -1
3608 1 7.2739063427325155e+00 3.4405909858820416e-01 4.4171660160109028e+01 1 1 -1
3180 1 8.3293860233059469e+00 7.0414506305946079e+00 4.3745453217643714e+01 1 2 0
2965 1 4.4281449329148748e+00 1.2019296289589478e+01 3.9217337021436691e+01 0 0 0
3437 1 3.1780344219284595e+00 1.0659387983954732e+01 4.3877895333096063e+01 -1 0 -1
6282 1 2.0917620042333835e+00 6.8435852594319613e-03 3.8939920784245686e+01 1 0 0
89 1 6.6736926161027608e+00 4.8208897222745088e+00 4.3928635475908933e+01 0 -1 0
1629 1 4.8077463733426482e+00 8.4987887621090668e+00 4.4231498749070226e+01 1 0 -1
1319 1 7.0522930602670153e-01 7.2342225632054369e+00 4.4168159108734457e+01 0 0 0
357 1 3.4324785547262535e+00 1.6749205262364388e+00 4.6850766193816526e+01 -2 3 -1
164 1 7.5556638108152319e+00 1.9874739240336911e-01 4.6941331830051539e+01 -2 1 -1
4427 1 6.0123450685436222e+00 2.1056167417250085e+00 4.8019769700935271e+01 2 0 0
3111 1 3.4463331041222083e+00 5.4923336990573972e+00 4.7547761830294206e+01 2 1 0
3274 1 3.2899737234189401e+00 6.2809935559894887e+00 4.4829880563476138e+01 -1 2 -1
1330 1 8.2793595020690276e+00 1.1658833619345881e+01 4.8964199475121362e+01 0 3 0
3225 1 6.1119392726780788e+00 4.5413293839798401e+00 4.6824277586324285e+01 0 2 -1
4442 1 8.2772771155748437e+00 8.0201572762275930e+00 4.6353276725286904e+01 3 1 0
3713 1 2.2818995951980030e+00 1.2040279487819873e+01 4.6317905234433510e+01 -1 1 0
3046 1 8.9600330871205180e-01 1.1621958749854343e+01 4.9142050310684766e+01 -1 2 -1
1862 1 5.8412477220507819e+00 1.1498269436599021e+01 4.7846775722359084e+01 2 2 -1
5164 1 5.7350904901937216e+00 9.0957692561199721e+00 4.6673178029983035e+01 -1 0 -1
5061 1 1.6323113135928096e+00 3.4233661857797419e+00 4.8275019615195902e+01 -2 1 -1
157 1 1.9496720419045190e+00 3.4661856569985647e+00 5.1146018187344893e+01 4 2 -1
4626 1 5.9694469333506186e+00 2.2401777805733367e+00 5.0974372005856623e+01 -2 2 -1
4517 1 9.7326776206707133e-01 8.7613120794647994e+00 4.8882678351030947e+01 -2 2 0
6231 1 8.4596745027186238e+00 5.4937732259160263e+00 4.8000492114946027e+01 6 -1 0
4946 1 8.4614472260884970e+00 5.8558482947770427e+00 5.0593670897583067e+01 1 3 -1
3681 1 3.7019925660098112e+00 8.2280636828171492e+00 4.8624765063137332e+01 -1 1 0
4550 1 4.5743728534407460e+00 8.7422290057930407e+00 5.1115710905596274e+01 5 1 0
6270 1 3.9548152011617459e+00 3.5434639932780141e+00 5.5020404497954132e+01 -1 1 0
2957 1 8.5486033790301441e+00 3.2860548319094436e+00 5.1896390132497828e+01 0 0 -1
4435 1 4.4488687976330210e+00 4.2029011437808883e+00 5.2290422643397520e+01 -2 0 0
6055 1 5.9060511598477712e+00 1.0724479437082383e+01 5.5165217973227030e+01 2 -1 0
1452 1 7.2570254112495003e-01 6.2676500919362821e-01 5.4558927593560753e+01 2 1 0
2907 1 8.3597148147771065e+00 2.4742186211579029e+00 5.4687202460436566e+01 1 0 0
112 1 7.7384435234112203e+00 9.1581337137459400e+00 5.6069064984833147e+01 0 -1 0
477 1 7.1313174236909189e+00 6.7979675369727159e+00 5.4783882005281328e+01 -2 -3 -1
3322 1 6.0311577399749341e+00 6.5239789157215640e+00 5.1760215197873634e+01 -2 0 0
367 1 1.9963817152529371e+00 1.1678556727629939e+01 5.2660065163761487e+01 -1 -1 -1
220 1 2.2061022271583166e+00 9.0567297189847444e+00 5.2560612517088089e+01 2 1 0
3395 1 5.7952569399645881e+00 1.0995773037506405e+01 5.2338798414256530e+01 3 0 -1
3453 1 8.3779799517017484e+00 1.1742773533662664e+01 5.1736843891050412e+01 3 0 -1
5983 1 4.8272054290695250e+00 5.7759076961669189e+00 5.8294441769027145e+01 -2 -1 -1
4982 1 1.4065681644108443e+00 2.9722034959016659e+00 5.5617310418204298e+01 1 3 -1
4569 1 5.9163637329779180e+00 1.6589464977701223e+00 5.5789283401405157e+01 -3 2 0
102 1 2.6671730010305632e+00 7.7544462338232529e+00 5.4808392461717105e+01 -1 2 -1
4822 1 4.4875336418999305e+00 6.0349725172121804e+00 5.5639839184789707e+01 0 0 0
2964 1 1.6721479424774455e+00 1.1860955090833237e+01 5.5398994307632449e+01 1 3 0
127 1 9.1570272490107865e+00 4.8128002294866157e+00 5.5545872748065378e+01 -2 -3 -1
4628 1 3.5680221310815043e+00 1.0061177969389266e+01 5.6186001931554188e+01 -1 -1 0
3629 1 1.1189559615172018e+00 8.4992190955824032e-01 5.1667624057001802e+01 2 2 0
4869 1 2.3879979226051165e-01 7.1976215012205271e+00 5.5752614213293583e+01 -1 -2 0
4779 1 9.0586693676643613e+00 4.8480318931163602e+00 5.8162908885627559e+01 1 1 0
6059 1 1.1628983749717032e-02 7.7841215463885938e+00 5.1404210333748409e+01 -3 1 -1
4848 1 2.3915394280442324e+00 1.4022144696940318e+01 2.5226343668369426e+00 0 -1 0
1846 1 3.4201901299921968e+00 2.1650860962138484e+01 7.2645827189198391e+00 0 2 0
3275 1 4.9545539390638869e+00 1.4559132141558127e+01 3.5427559995536795e+00 1 -1 0
234 1 8.8029943996527429e+00 1.3385975115016253e+01 3.1907493393286721e+00 -2 1 0
4523 1 9.4987398553666385e+00 1.6233068878663239e+01 2.7869787044311658e+00 0 -1 1
3297 1 2.9389818376123333e+00 1.9224545258999250e+01 3.8005093126351230e+00 0 1 0
3161 1 5.2432266530811711e-01 1.8643066435086237e+01 3.4304998467835732e+00 -1 0 1
4760 1 5.0492433142574455e+00 1.7242871580790126e+01 3.1095959863779790e+00 -2 0 1
255 1 7.6356407381077949e+00 1.8009263299126172e+01 3.5823894842893855e+00 1 -3 0
2015 1 6.3748632425397229e+00 1.2695301744633349e+01 2.0624792678497998e+00 0 -2 0
4584 1 3.4347507047399297e+00 2.1742927606793515e+01 3.1966337149956150e+00 2 -3 1
3543 1 1.8538020062575751e+00 2.3657289705009813e+01 4.6181306604303352e+00 0 0 1
3329 1 8.2066104203822849e+00 2.0700403441866221e+01 3.1712856663650086e+00 0 -1 0
1487 1 6.2066793174141432e+00 2.2471145774498964e+01 4.0149352904083635e+00 -1 -1 1
4914 1 2.4560109993662076e+00 1.3565120918184562e+01 7.2047585426528826e+00 0 2 0
3504 1 6.2504301898503059e+00 2.1909387816949696e+01 6.6839799965086248e+00 -1 3 0
1934 1 4.8480041047473446e+00 1.4591898585160328e+01 6.3003858252184068e+00 -1 0 0
5270 1 1.5250276386731219e+00 2.3687095237757383e+01 7.4028531695187940e+00 1 -1 1
5103 1 9.1480741089243391e+00 1.3351460117927017e+01 5.9551919496673058e+00 1 -2 0
236 1 2.9146036953124952e+00 1.9145369700769358e+01 6.4158261900865705e+00 3 0 0
110 1 3.3199847927981080e-01 1.8109828892989917e+01 7.1921469698248819e+00 0 0 0
1255 1 7.8956941435043664e+00 1.7616238514779418e+01 6.3237595551785439e+00 0 -3 0
1290 1 5.1048552126909632e+00 1.7281301221861973e+01 7.2352110692254561e+00 -1 2 1
2936 1 8.3013985293854962e+00 2.0251222560760588e+01 7.1484535222217085e+00 0 0 1
4591 1 6.6648211305025375e+00 1.2730409357694395e+01 6.9070764825262341e+00 2 0 1
348 1 6.8073316507566179e+00 2.4372253317662064e+01 7.8986761575012716e+00 0 0 0
1955 1 2.6647876651601785e+00 1.3664311576186803e+01 9.9848561860238849e+00 0 -2 0
1683 1 7.2320503307788782e+00 1.4774057253853011e+01 1.0412152525181028e+01 0 -3 0
117 1 2.6040209167856614e+00 2.3390456434498127e+01 1.3556064871791735e+01 2 0 1
2043 1 2.8789047036870365e+00 1.6336670444168085e+01 1.0632846169992618e+01 0 1 0
3341 1 1.1515287279611874e+00 1.8329229745811428e+01 9.8225422372749538e+00 0 2 1
3679 1 5.4313108051976275e+00 1.6904143170383687e+01 9.8854255807272775e+00 0 0 1
1887 1 5.8632127366597224e+00 1.9644073268801801e+01 1.0432334527554632e+01 0 1 0
1652 1 8.4872822918013302e+00 2.0318791930951182e+01 1.0046749250185979e+01 0 2 1
68 1 1.4428068373525564e+00 2.0823334893493403e+01 1.0922215390142641e+01 -3 0 1
6224 1 3.8447366808751076e+00 2.1771517924617683e+01 1.0074948149861441e+01 -2 0 1
2110 1 4.3578686006319129e+00 2.3982986973927236e+01 1.1247356028923486e+01 1 1 0
373 1 8.7314492098378764e+00 2.2227661281363140e+01 1.1559327525671657e+01 -3 -2 0
4816 1 5.4813896156446418e-01 1.5418837055753938e+01 1.3944731424317650e+01 2 2 0
179 1 4.6340696877140264e+00 1.4139174448969198e+01 1.4216250062792019e+01 1 2 0
6026 1 7.3511644234448044e+00 1.4902091626286962e+01 1.3021769188996631e+01 -1 -3 1
1942 1 9.4117476634057375e+00 1.3657252734217689e+01 1.4257792331602403e+01 0 0 0