LAMMPS data file via write_data, version 16 Mar 2018, timestep = 100000

6337 atoms
2 atom types

0.0000000000000000e+00 4.9219999999999999e+01 xlo xhi
0.0000000000000000e+00 4.9019635930410494e+01 ylo yhi
2.5332652674746967e+00 5.7528734732524327e+01 zlo zhi

Masses

1 18.015
2 12.01

Atoms # atomic

1543 1 9.3277421298813277e+00 2.8316267704683401e-02 4.2511493474031425e+00 0 0 1
290 1 6.3391906239069418e-01 1.5264806712579788e+00 5.9591911699054592e+00 0 1 1
1830 1 1.8130316472325874e+00 3.9400493265901080e+00 9.0124913731565002e+00 0 1 1
1542 1 7.4111265789860337e+00 2.0053596970467087e+00 6.4363426628807670e+00 0 0 1
1503 1 9.7203772625643692e-01 1.1015181247737200e+01 7.1379780539472746e+00 1 0 1
156 1 4.0759394919854639e+00 4.1902574136705235e+00 4.9433631443392638e+00 0 1 0
246 1 2.4049679723137967e+00 7.5633347143148857e+00 5.4569429933048834e+00 0 0 0
55 1 8.5818395924739708e+00 1.0127502875165838e+01 7.1059277469621609e+00 1 0 0
6327 1 5.9599309503451376e+00 4.7299215210420424e+00 7.3387950205179600e+00 1 1 1
352 1 7.9133276556648813e+00 3.6313361619770053e+00 3.5902278116590702e+00 0 0 1
1689 1 3.1472393224230850e+00 1.1794330422495268e+01 6.0232747703994605e+00 0 0 0
118 1 7.4177588983916927e+00 5.7753761393125673e+00 5.4782352967692738e+00 0 0 0
268 1 6.0119676540449136e+00 3.8473686920464745e-01 4.5109568227896499e+00 1 0 1
6257 1 7.1950582289432177e+00 8.5660027253542044e+00 4.7896721257476909e+00 0 0 1
1366 1 9.4753021271089750e+00 8.2383436984199072e+00 2.9723984101485614e+00 0 2 1
5122 1 3.3920608184503265e+00 2.5354234363329597e+00 7.2256940788797257e+00 1 1 0
3092 1 3.6026342747875701e+00 7.5414022110004408e+00 2.7745842790731641e+00 0 1 1
6149 1 4.7741865177406186e+00 9.3920434477535082e+00 6.1122193744226569e+00 -1 1 1
1776 1 6.1730314580271575e+00 1.0416301268493450e+01 8.3047522042798683e+00 1 0 1
257 1 5.1837971381986021e+00 9.8074791900450400e+00 2.8312774452624798e+00 0 1 0
1536 1 3.9295153563872516e+00 6.9796516481741211e+00 7.8704941942526565e+00 0 0 1
1483 1 3.3611040288038612e+00 1.1525425445208352e+01 3.2313484826187038e+00 -1 0 0
5237 1 9.4795879382522479e+00 1.1810140660090783e+01 4.8805717291578441e+00 1 0 0
4934 1 1.5961136295448283e-01 7.0279849866322208e-01 3.0746801818176244e+00 1 0 0
4603 1 1.0125087599468192e+00 4.3634704654457384e+00 5.6756992584488977e+00 1 1 1
1832 1 5.5176937317397909e+00 5.8810815222797599e+00 3.0156911256316352e+00 1 0 0
5076 1 5.5931759792379889e+00 2.0462119181424039e+00 8.8936231139688147e+00 1 0 1
4553 1 2.8352874787258835e+00 6.5873675827767397e-01 2.8549808851860661e+00 1 1 1
5104 1 2.7325955248508373e+00 4.3255824619528399e-01 1.4990521962629344e+01 1 1 0
6228 1 8.6353110198767009e+00 8.3362107906003668e+00 1.1414504491344521e+01 0 -1 1
5070 1 2.8873363449425664e+00 6.8567989268794003e+00 1.2972624169735859e+01 1 1 0
3130 1 5.0821683021923043e+00 8.0783055643376702e+00 1.2084504906070798e+01 -1 1 1
4484 1 6.9436795875609798e+00 5.8948413920676739e+00 1.1555476348776276e+01 0 1 1
5133 1 1.5795827667847031e+00 7.0627273128115080e+00 1.6155502718553151e+01 0 1 0
3430 1 3.8334213450495165e+00 1.0991624430644709e+01 1.5352617503906544e+01 0 0 0
2019 1 2.8136356039861603e+00 1.1259759990407339e+01 1.1299924143742839e+01 0 0 0
127 1 7.7322954473003200e+00 1.1355779189456452e+01 1.1460415390923341e+01 0 0 0
5131 1 4.8299769313775087e+00 2.1766379031957456e-01 1.0898492955917634e+01 0 1 0
333 1 6.3831715262211830e+00 1.0049452718295678e+01 1.3728528330878341e+01 0 -1 0
4964 1 5.3171562743813103e+00 3.9370933400269148e-01 1.5485477244424699e+01 1 0 0
354 1 8.7179982192801972e+00 1.0676077736394476e+00 9.5320588371084209e+00 -1 0 0
4544 1 6.5454860036921847e-01 2.3912342777222384e+00 1.5778166168585907e+01 1 0 1
4974 1 3.4568488721982309e+00 4.4157536221571467e+00 1.3600253114438644e+01 0 1 1
1372 1 4.8265152582462112e-01 8.1931972702914777e+00 1.3482702443240605e+01 1 1 1
2992 1 6.2640526362608799e+00 4.2955074903487649e+00 1.3448925845139140e+01 0 0 0
427 1 4.1447770847235645e+00 9.3086291712359568e+00 9.8667909639218756e+00 0 0 0
4917 1 1.5751219502204179e+00 1.0869496159437960e+01 1.3648811633378939e+01 1 0 0
2898 1 9.1611865034664479e+00 9.5106512646406802e+00 1.4635922038627905e+01 0 0 1
5158 1 1.9266333159045843e+00 6.8684703632966446e+00 1.0223705807154369e+01 0 0 0
175 1 8.9699678728261141e+00 1.2308288494370452e+00 1.2397716514257874e+01 -1 1 1
2864 1 6.1653050879985214e+00 1.3986892086065832e+00 1.2917192901421808e+01 0 1 0
6250 1 7.6395516873860139e+00 3.7846477408370554e+00 1.5611290121247707e+01 0 1 1
1310 1 3.3377128651449628e-01 1.1138631969651355e+01 9.9592037949401764e+00 0 0 1
3295 1 7.7379776459992415e+00 4.0752171747741235e+00 9.6827145450884728e+00 0 0 0
3599 1 8.3579186177200615e+00 1.1379802163422394e+00 1.8571027347003742e+01 0 0 0
89 1 1.4031079966823672e+00 1.1712112859414216e+01 1.8900385111699276e+01 0 0 1
4620 1 4.6796248106737437e+00 1.2075194502743245e+00 1.9541768527494611e+01 0 0 1
1791 1 8.4731693803143191e+00 9.9100842438967351e+00 1.9936077099760812e+01 0 1 1
1562 1 6.2823892924549511e+00 5.9315979422890814e+00 1.9480250500167926e+01 1 1 0
228 1 3.9519365400816975e+00 3.9492355464941502e+00 1.8824455445773552e+01 0 0 0
1600 1 3.8819796299921685e+00 8.7076601849015667e+00 1.6642211461235199e+01 0 0 1
1926 1 5.1840218998605359e+00 4.2853982430941500e+00 2.1906501644519413e+01 0 1 0
122 1 8.3197371807810239e+00 8.5647221904390687e+00 1.7289107813664611e+01 0 0 1
4811 1 6.7520477078242669e+00 1.0615916343593831e+01 2.2385865150658411e+01 0 0 0
2148 1 5.4613987512892566e+00 1.1266942020165438e+01 1.9911863634131905e+01 1 1 1
40 1 3.4838292876004955e+00 9.6052099068484704e+00 1.9123867401209292e+01 0 1 0
3274 1 4.5152368219240051e+00 9.1187005936807441e+00 2.2493796129985959e+01 1 0 0
4819 1 2.2351008509127333e+00 1.7643782375101567e+00 2.1135125862082244e+01 1 1 0
1982 1 5.7011623853251248e+00 1.5703924396379996e+00 2.2026045416443274e+01 1 1 0
88 1 8.5492999378950145e+00 1.2253621041407126e+00 2.1483451062642317e+01 0 0 0
5144 1 3.7635506889106525e+00 7.1201655458949791e+00 2.0576907267039100e+01 0 0 1
5114 1 1.5830637258385918e+00 4.8898937198071195e+00 2.0472611046685483e+01 0 0 0
1770 1 8.4359686964152818e+00 7.1599963697790328e+00 2.1116182893521977e+01 0 1 0
1905 1 6.7249040612985240e+00 3.0646819545763466e+00 1.8029242307082697e+01 0 0 0
1479 1 6.1084571081160597e+00 6.8666256107423598e+00 1.6595255648021869e+01 0 0 1
361 1 1.3836846128095290e+00 9.5381898319008371e+00 2.1389183091737205e+01 0 0 0
3429 1 7.6550408870725828e-01 1.9007175141947183e-01 1.9349995477955087e+01 1 0 0
3435 1 9.5438181775318274e+00 5.6294304058536451e+00 1.7109907168706425e+01 1 0 0
5233 1 2.8235871835061821e+00 4.1861915762649087e+00 1.6455325892463101e+01 1 1 1
6286 1 8.0800647634801628e+00 8.7660825574493675e+00 2.4044339541254544e+01 1 0 1
4667 1 7.7525954666050980e+00 2.9123594527092900e+00 2.4205662112567662e+01 0 1 1
3278 1 4.1356211297763430e+00 1.5516299739041826e+00 2.4311295253624660e+01 1 -1 1
3490 1 3.6459097455770610e+00 4.5289220709714462e+00 2.4540877202290805e+01 0 0 0
3516 1 1.2126616196495192e+00 5.2074805891458391e+00 2.3487716183317570e+01 0 0 0
4799 1 7.3428425605404426e+00 5.4708841751233219e+00 2.3499039745628224e+01 0 1 0
2015 1 5.2771347051026396e+00 7.0681475258003159e+00 2.4498979912838333e+01 1 0 0
638 2 4.9220000000000006e+00 1.1366872099805333e+01 2.6863980785282685e+01 0 0 0
3608 1 1.9305034787878956e+00 1.0000004346706566e+01 2.3873449248073840e+01 0 0 0
640 2 4.9220000000000006e+00 8.5251540748539991e+00 2.6863980785282685e+01 0 0 0
3248 1 1.4784681212895643e+00 1.0697757480636410e+00 2.3657267916342644e+01 1 0 0
728 2 8.6134999999999984e+00 1.0656442593567498e+01 2.6863980785282685e+01 0 0 0
554 2 0.0000000000000000e+00 2.8417180249513345e+00 2.6863980785282685e+01 0 0 0
556 2 0.0000000000000000e+00 0.0000000000000000e+00 2.6863980785282685e+01 0 0 0
558 2 1.2305000000000001e+00 7.1042950623783474e-01 2.6863980785282685e+01 0 0 0
565 2 1.2305000000000001e+00 2.1312885187134998e+00 2.6863980785282685e+01 0 0 0
567 2 2.4610000000000003e+00 2.8417180249513345e+00 2.6863980785282685e+01 0 0 0
569 2 2.4610000000000003e+00 0.0000000000000000e+00 2.6863980785282685e+01 0 0 0
571 2 3.6915000000000004e+00 7.1042950623783474e-01 2.6863980785282685e+01 0 0 0
586 2 3.6914999999999996e+00 2.1312885187134998e+00 2.6863980785282685e+01 0 0 0
588 2 4.9220000000000006e+00 2.8417180249513332e+00 2.6863980785282685e+01 0 0 0
590 2 4.9220000000000006e+00 0.0000000000000000e+00 2.6863980785282685e+01 0 0 0
592 2 6.1524999999999999e+00 7.1042950623783407e-01 2.6863980785282685e+01 0 0 0
615 2 6.1524999999999999e+00 2.1312885187134989e+00 2.6863980785282685e+01 0 0 0
617 2 7.3829999999999991e+00 2.8417180249513345e+00 2.6863980785282685e+01 0 0 0
619 2 7.3829999999999991e+00 0.0000000000000000e+00 2.6863980785282685e+01 0 0 0
621 2 8.6134999999999984e+00 7.1042950623783407e-01 2.6863980785282685e+01 0 0 0
652 2 8.6134999999999984e+00 2.1312885187135002e+00 2.6863980785282685e+01 0 0 0
561 2 0.0000000000000000e+00 4.2625770374269996e+00 2.6863980785282685e+01 0 0 0
563 2 1.2305000000000001e+00 4.9730065436648339e+00 2.6863980785282685e+01 0 0 0
578 2 1.2305000000000001e+00 6.3938655561404980e+00 2.6863980785282685e+01 0 0 0
582 2 2.4610000000000003e+00 4.2625770374269996e+00 2.6863980785282685e+01 0 0 0
584 2 3.6914999999999996e+00 4.9730065436648339e+00 2.6863980785282685e+01 0 0 0
607 2 3.6914999999999996e+00 6.3938655561404980e+00 2.6863980785282685e+01 0 0 0
559 2 0.0000000000000000e+00 7.1042950623783341e+00 2.6863980785282685e+01 0 0 0
580 2 2.4610000000000003e+00 7.1042950623783341e+00 2.6863980785282685e+01 0 0 0
611 2 4.9220000000000006e+00 4.2625770374269978e+00 2.6863980785282685e+01 0 0 0
613 2 6.1524999999999999e+00 4.9730065436648339e+00 2.6863980785282685e+01 0 0 0
644 2 6.1524999999999999e+00 6.3938655561404980e+00 2.6863980785282685e+01 0 0 0
648 2 7.3829999999999991e+00 4.2625770374269996e+00 2.6863980785282685e+01 0 0 0
650 2 8.6135000000000002e+00 4.9730065436648339e+00 2.6863980785282685e+01 0 0 0
689 2 8.6135000000000002e+00 6.3938655561404980e+00 2.6863980785282685e+01 0 0 0
609 2 4.9220000000000006e+00 7.1042950623783341e+00 2.6863980785282685e+01 0 0 0
646 2 7.3830000000000009e+00 7.1042950623783341e+00 2.6863980785282685e+01 0 0 0
574 2 0.0000000000000000e+00 8.5251540748539991e+00 2.6863980785282685e+01 0 0 0
576 2 1.2305000000000001e+00 9.2355835810918343e+00 2.6863980785282685e+01 0 0 0
603 2 2.4610000000000003e+00 8.5251540748539991e+00 2.6863980785282685e+01 0 0 0
605 2 3.6915000000000004e+00 9.2355835810918343e+00 2.6863980785282685e+01 0 0 0
572 2 0.0000000000000000e+00 1.1366872099805333e+01 2.6863980785282685e+01 0 0 0
599 2 1.2305000000000001e+00 1.0656442593567498e+01 2.6863980785282685e+01 0 0 0
601 2 2.4610000000000003e+00 1.1366872099805333e+01 2.6863980785282685e+01 0 0 0
636 2 3.6914999999999996e+00 1.0656442593567499e+01 2.6863980785282685e+01 0 0 0
685 2 7.3830000000000009e+00 8.5251540748539991e+00 2.6863980785282685e+01 0 0 0
681 2 6.1524999999999999e+00 1.0656442593567499e+01 2.6863980785282685e+01 0 0 0
642 2 6.1524999999999999e+00 9.2355835810918343e+00 2.6863980785282685e+01 0 0 0
687 2 8.6134999999999984e+00 9.2355835810918343e+00 2.6863980785282685e+01 0 0 0
683 2 7.3829999999999991e+00 1.1366872099805333e+01 2.6863980785282685e+01 0 0 0
30 1 3.8303388035243841e-01 7.5877546744790774e+00 2.4640417966884492e+01 0 0 0
555 2 0.0000000000000000e+00 1.4208590124756650e+00 3.0030999999999544e+01 0 0 0
557 2 0.0000000000000000e+00 0.0000000000000000e+00 3.0030999999999544e+01 0 0 0
566 2 1.2305000000000001e+00 2.1312885187134998e+00 3.0030999999999544e+01 0 0 0
568 2 2.4610000000000003e+00 1.4208590124756650e+00 3.0030999999999544e+01 0 0 0
570 2 2.4610000000000003e+00 0.0000000000000000e+00 3.0030999999999544e+01 0 0 0
587 2 3.6914999999999996e+00 2.1312885187134998e+00 3.0030999999999544e+01 0 0 0
564 2 1.2305000000000001e+00 3.5521475311891644e+00 3.0030999999999544e+01 0 0 0
585 2 3.6914999999999996e+00 3.5521475311891644e+00 3.0030999999999544e+01 0 0 0
883 2 0.0000000000000000e+00 2.8417180249513345e+00 3.3198019214713057e+01 0 0 0
884 2 0.0000000000000000e+00 0.0000000000000000e+00 3.3198019214713057e+01 0 0 0
885 2 1.2305000000000001e+00 7.1042950623783474e-01 3.3198019214713057e+01 0 0 0
889 2 1.2305000000000001e+00 2.1312885187134998e+00 3.3198019214713057e+01 0 0 0
890 2 2.4610000000000003e+00 2.8417180249513345e+00 3.3198019214713057e+01 0 0 0
891 2 2.4610000000000003e+00 0.0000000000000000e+00 3.3198019214713057e+01 0 0 0
892 2 3.6915000000000004e+00 7.1042950623783474e-01 3.3198019214713057e+01 0 0 0
900 2 3.6914999999999996e+00 2.1312885187134998e+00 3.3198019214713057e+01 0 0 0
589 2 4.9220000000000006e+00 1.4208590124756650e+00 3.0030999999999544e+01 0 0 0
591 2 4.9220000000000006e+00 0.0000000000000000e+00 3.0030999999999544e+01 0 0 0
616 2 6.1524999999999999e+00 2.1312885187134989e+00 3.0030999999999544e+01 0 0 0
618 2 7.3829999999999991e+00 1.4208590124756659e+00 3.0030999999999544e+01 0 0 0
620 2 7.3829999999999991e+00 0.0000000000000000e+00 3.0030999999999544e+01 0 0 0
653 2 8.6134999999999984e+00 2.1312885187135002e+00 3.0030999999999544e+01 0 0 0
614 2 6.1524999999999999e+00 3.5521475311891644e+00 3.0030999999999544e+01 0 0 0
651 2 8.6134999999999984e+00 3.5521475311891657e+00 3.0030999999999544e+01 0 0 0
901 2 4.9220000000000006e+00 2.8417180249513332e+00 3.3198019214713057e+01 0 0 0
902 2 4.9220000000000006e+00 0.0000000000000000e+00 3.3198019214713057e+01 0 0 0
903 2 6.1524999999999999e+00 7.1042950623783407e-01 3.3198019214713057e+01 0 0 0
915 2 6.1524999999999999e+00 2.1312885187134989e+00 3.3198019214713057e+01 0 0 0
916 2 7.3829999999999991e+00 2.8417180249513345e+00 3.3198019214713057e+01 0 0 0
917 2 7.3829999999999991e+00 0.0000000000000000e+00 3.3198019214713057e+01 0 0 0
918 2 8.6134999999999984e+00 7.1042950623783407e-01 3.3198019214713057e+01 0 0 0
934 2 8.6134999999999984e+00 2.1312885187135002e+00 3.3198019214713057e+01 0 0 0
560 2 0.0000000000000000e+00 5.6834360499026637e+00 3.0030999999999544e+01 0 0 0
562 2 0.0000000000000000e+00 4.2625770374269996e+00 3.0030999999999544e+01 0 0 0
579 2 1.2305000000000001e+00 6.3938655561404980e+00 3.0030999999999544e+01 0 0 0
581 2 2.4610000000000003e+00 5.6834360499026637e+00 3.0030999999999544e+01 0 0 0
583 2 2.4610000000000003e+00 4.2625770374269996e+00 3.0030999999999544e+01 0 0 0
608 2 3.6914999999999996e+00 6.3938655561404980e+00 3.0030999999999544e+01 0 0 0
577 2 1.2305000000000001e+00 7.8147245686161639e+00 3.0030999999999544e+01 0 0 0
606 2 3.6914999999999996e+00 7.8147245686161639e+00 3.0030999999999544e+01 0 0 0
887 2 0.0000000000000000e+00 4.2625770374269996e+00 3.3198019214713057e+01 0 0 0
888 2 1.2305000000000001e+00 4.9730065436648339e+00 3.3198019214713057e+01 0 0 0
896 2 1.2305000000000001e+00 6.3938655561404980e+00 3.3198019214713057e+01 0 0 0
898 2 2.4610000000000003e+00 4.2625770374269996e+00 3.3198019214713057e+01 0 0 0
899 2 3.6914999999999996e+00 4.9730065436648339e+00 3.3198019214713057e+01 0 0 0
911 2 3.6914999999999996e+00 6.3938655561404980e+00 3.3198019214713057e+01 0 0 0
886 2 0.0000000000000000e+00 7.1042950623783341e+00 3.3198019214713057e+01 0 0 0
897 2 2.4610000000000003e+00 7.1042950623783341e+00 3.3198019214713057e+01 0 0 0
610 2 4.9220000000000006e+00 5.6834360499026637e+00 3.0030999999999544e+01 0 0 0
612 2 4.9220000000000006e+00 4.2625770374269978e+00 3.0030999999999544e+01 0 0 0
645 2 6.1524999999999999e+00 6.3938655561404980e+00 3.0030999999999544e+01 0 0 0
647 2 7.3829999999999991e+00 5.6834360499026637e+00 3.0030999999999544e+01 0 0 0
649 2 7.3829999999999991e+00 4.2625770374269996e+00 3.0030999999999544e+01 0 0 0
690 2 8.6135000000000002e+00 6.3938655561404980e+00 3.0030999999999544e+01 0 0 0
643 2 6.1524999999999999e+00 7.8147245686161639e+00 3.0030999999999544e+01 0 0 0
688 2 8.6135000000000002e+00 7.8147245686161639e+00 3.0030999999999544e+01 0 0 0
913 2 4.9220000000000006e+00 4.2625770374269978e+00 3.3198019214713057e+01 0 0 0
914 2 6.1524999999999999e+00 4.9730065436648339e+00 3.3198019214713057e+01 0 0 0
930 2 6.1524999999999999e+00 6.3938655561404980e+00 3.3198019214713057e+01 0 0 0
932 2 7.3829999999999991e+00 4.2625770374269996e+00 3.3198019214713057e+01 0 0 0
933 2 8.6135000000000002e+00 4.9730065436648339e+00 3.3198019214713057e+01 0 0 0
953 2 8.6135000000000002e+00 6.3938655561404980e+00 3.3198019214713057e+01 0 0 0
912 2 4.9220000000000006e+00 7.1042950623783341e+00 3.3198019214713057e+01 0 0 0
931 2 7.3830000000000009e+00 7.1042950623783341e+00 3.3198019214713057e+01 0 0 0
573 2 0.0000000000000000e+00 9.9460130873296642e+00 3.0030999999999544e+01 0 0 0
575 2 0.0000000000000000e+00 8.5251540748539991e+00 3.0030999999999544e+01 0 0 0
602 2 2.4610000000000003e+00 9.9460130873296642e+00 3.0030999999999544e+01 0 0 0
604 2 2.4610000000000003e+00 8.5251540748539991e+00 3.0030999999999544e+01 0 0 0
598 2 1.2305000000000001e+00 1.2077301606043163e+01 3.0030999999999544e+01 0 0 0
600 2 1.2305000000000001e+00 1.0656442593567498e+01 3.0030999999999544e+01 0 0 0
635 2 3.6914999999999996e+00 1.2077301606043163e+01 3.0030999999999544e+01 0 0 0
637 2 3.6914999999999996e+00 1.0656442593567499e+01 3.0030999999999544e+01 0 0 0
894 2 0.0000000000000000e+00 8.5251540748539991e+00 3.3198019214713057e+01 0 0 0
895 2 1.2305000000000001e+00 9.2355835810918343e+00 3.3198019214713057e+01 0 0 0
909 2 2.4610000000000003e+00 8.5251540748539991e+00 3.3198019214713057e+01 0 0 0
910 2 3.6915000000000004e+00 9.2355835810918343e+00 3.3198019214713057e+01 0 0 0
893 2 0.0000000000000000e+00 1.1366872099805333e+01 3.3198019214713057e+01 0 0 0
907 2 1.2305000000000001e+00 1.0656442593567498e+01 3.3198019214713057e+01 0 0 0
908 2 2.4610000000000003e+00 1.1366872099805333e+01 3.3198019214713057e+01 0 0 0
926 2 3.6914999999999996e+00 1.0656442593567499e+01 3.3198019214713057e+01 0 0 0
639 2 4.9220000000000006e+00 9.9460130873296642e+00 3.0030999999999544e+01 0 0 0
641 2 4.9220000000000006e+00 8.5251540748539991e+00 3.0030999999999544e+01 0 0 0
684 2 7.3830000000000009e+00 9.9460130873296642e+00 3.0030999999999544e+01 0 0 0
686 2 7.3830000000000009e+00 8.5251540748539991e+00 3.0030999999999544e+01 0 0 0
680 2 6.1524999999999999e+00 1.2077301606043163e+01 3.0030999999999544e+01 0 0 0
682 2 6.1524999999999999e+00 1.0656442593567499e+01 3.0030999999999544e+01 0 0 0
727 2 8.6135000000000002e+00 1.2077301606043163e+01 3.0030999999999544e+01 0 0 0
729 2 8.6134999999999984e+00 1.0656442593567498e+01 3.0030999999999544e+01 0 0 0
928 2 4.9220000000000006e+00 8.5251540748539991e+00 3.3198019214713057e+01 0 0 0
929 2 6.1524999999999999e+00 9.2355835810918343e+00 3.3198019214713057e+01 0 0 0
951 2 7.3830000000000009e+00 8.5251540748539991e+00 3.3198019214713057e+01 0 0 0
952 2 8.6134999999999984e+00 9.2355835810918343e+00 3.3198019214713057e+01 0 0 0
927 2 4.9220000000000006e+00 1.1366872099805333e+01 3.3198019214713057e+01 0 0 0
949 2 6.1524999999999999e+00 1.0656442593567499e+01 3.3198019214713057e+01 0 0 0
950 2 7.3829999999999991e+00 1.1366872099805333e+01 3.3198019214713057e+01 0 0 0
973 2 8.6134999999999984e+00 1.0656442593567498e+01 3.3198019214713057e+01 0 0 0
6226 1 2.1861864416061647e+00 2.0918537878378825e+00 3.6093298979417277e+01 1 1 -1
1338 1 5.4219686471348467e+00 2.2453704891700719e+00 3.5651893668261756e+01 0 1 0
4512 1 8.4388280815000218e+00 2.5079079758916500e+00 3.6264083470050174e+01 0 0 0
4801 1 2.0798266208282068e+00 5.1739228026630837e+00 3.6306269471736201e+01 1 1 -1
3632 1 4.8164023071026438e+00 6.2943112806374319e+00 3.5670481988273444e+01 1 1 0
3656 1 6.1978893695804791e+00 1.1259348226866347e+01 3.6006365167557320e+01 1 0 0
5282 1 1.6275318110045831e+00 9.5886848437512846e+00 3.5373957064429980e+01 1 1 0
4432 1 4.1421638070808910e+00 8.9187035880700485e+00 3.6216777091324929e+01 1 1 0
4936 1 8.9795588683364436e+00 1.0334889393717521e+01 3.6035068831492268e+01 1 1 -1
4501 1 9.4707166066844319e+00 7.5644337751850586e+00 3.5829135967352023e+01 1 1 -1
4550 1 2.2984131935160441e+00 1.8451986328617358e+00 3.9506702544126902e+01 1 1 0
6067 1 4.9725851353722019e+00 2.8468579912602059e+00 3.8371714930487023e+01 1 1 0
6153 1 8.7848719184216968e+00 1.2815028295610744e+00 4.1357805986734441e+01 1 0 0
64 1 3.0233125427133092e+00 5.4018678764089998e+00 3.8936944931905686e+01 0 1 -1
2952 1 5.8187444932287553e+00 7.6069376594316305e+00 3.9916061984933691e+01 1 0 0
494 1 6.2025232998317454e+00 5.4355513732976641e+00 3.7984635035581256e+01 1 1 0
6111 1 3.6406841418102704e+00 8.8164096908698788e+00 3.9021434072186025e+01 1 1 0
4876 1 4.0937613786760938e+00 1.1430868426521192e+01 3.9865744785966221e+01 0 0 -1
1405 1 9.5612795269398525e+00 5.2190973331203150e-01 3.8557577101961840e+01 0 1 -1
2135 1 4.1066225767089577e+00 1.1443066713347489e+01 4.2587758223714623e+01 1 1 0
4994 1 6.5180344300538406e+00 1.1624387065624466e+01 3.8777644566199719e+01 1 1 -1
1327 1 6.1325120609420152e+00 1.2991806395547774e+00 4.1309241332140083e+01 1 1 0
6142 1 9.3999306421965070e+00 3.8800484899048659e+00 4.2366623089226373e+01 1 1 0
4487 1 8.6676945633573013e+00 5.3155818498737437e+00 3.7142482236132473e+01 1 0 0
2873 1 1.6370521505320577e+00 4.0680124065577195e+00 4.1055087459674340e+01 1 1 0
1452 1 3.6802298282619561e+00 4.9904667969797361e+00 4.2862713586416561e+01 0 0 0
5216 1 8.0905537176462072e+00 9.5931035732623702e+00 4.2790826651644522e+01 0 0 0
4494 1 5.5974904617559815e+00 6.9502569977546962e+00 4.3064574322443320e+01 1 0 -1
5057 1 7.8081694561169055e+00 9.5419439461265583e+00 3.9868901592820407e+01 0 0 -1
425 1 1.4468137497155207e+00 7.6382989099713345e+00 3.9986394316459482e+01 0 1 -1
6326 1 8.3864893947482289e-01 8.3912971387230488e+00 4.2714829760849199e+01 1 0 -1
3708 1 8.8534235252764510e+00 1.2148070986630147e+01 4.3688659710119687e+01 1 0 0
2132 1 6.6069243072560226e+00 1.7211498189378480e-01 3.8073457693605242e+01 1 1 0
2032 1 5.4204397920849079e+00 2.6905036818856218e+00 4.3531950745571535e+01 1 1 -1
1369 1 1.5931533832284892e+00 1.0876884353857236e+01 4.3246416669413286e+01 0 1 0
1481 1 9.6159245513810845e+00 5.3355031220848446e+00 3.9745098596208486e+01 1 1 -1
4977 1 2.0554242675349683e+00 2.6338740051140990e+00 4.6480629739452432e+01 1 1 -1
5218 1 6.1227597255851425e+00 3.6661828436794841e+00 4.6255745201398604e+01 0 1 -1
5119 1 7.5149580135660221e+00 5.0843228851133100e+00 4.4059051740536681e+01 1 0 -1
1610 1 8.1717579789817787e+00 2.0079766243433119e+00 4.7539009419019827e+01 0 0 0
4651 1 3.0798497347376017e+00 1.3248608150224905e+00 4.4190245745097862e+01 1 1 -1
4546 1 2.0047871130023802e+00 5.2218492686394384e+00 4.6983529742234801e+01 1 0 -1
3465 1 2.0561626659638774e+00 6.6064889956137245e+00 4.4235494935083317e+01 0 0 -1
1444 1 8.6828912436360390e+00 6.5090501948510635e+00 4.6335383690735696e+01 1 0 0
6005 1 4.0455089132907505e+00 9.1217315395588976e+00 5.0061645694955665e+01 0 0 0
3305 1 5.0332511790962648e+00 1.1404629001834401e+01 4.9385817146425971e+01 0 1 -1
4866 1 3.8719019246196171e+00 8.3361577612950288e+00 4.5592788591236825e+01 1 1 -1
3536 1 2.2354893686772086e+00 1.0732907430899033e+01 4.6015012474632066e+01 1 0 -1
5069 1 8.1287274942290058e+00 8.2867468910636077e+00 4.7972932575667507e+01 0 1 -1
6044 1 6.6857710486339244e+00 1.0947144505557924e+01 4.6965419323870485e+01 1 0 0
1882 1 5.8176656198744254e+00 9.7766645489069592e+00 4.4064543146198105e+01 1 0 -1
2909 1 8.6332405233639928e+00 3.1826001488706956e+00 5.0387364522650358e+01 1 1 0
3638 1 2.7791793480917826e+00 1.1180248283571732e+00 4.8770476557035110e+01 1 0 0
6079 1 7.0730916088895128e+00 4.2421443413346083e-02 4.9630329837144018e+01 1 1 0
4648 1 9.2061846557604845e+00 7.0705315807346469e+00 5.0118910136690367e+01 0 0 0
6316 1 4.5810437510005864e+00 4.8881301448984340e+00 4.8173600542458779e+01 1 0 -1
3033 1 5.1775174076204120e+00 7.6060570768853752e+00 4.7968350518782827e+01 0 1 0
3189 1 9.7443384969098474e+00 1.0870621830740397e+01 4.8020685015305133e+01 1 1 0
1994 1 9.6888547376875014e+00 8.1082447934279074e+00 4.4405493181585577e+01 1 1 0
4717 1 5.5857320527650245e-03 1.0434391981174928e+01 4.7194434317286486e+01 1 0 -1
3039 1 4.8204598067351634e-01 5.0376429667957394e+00 5.6082974577927772e+01 0 0 0
2878 1 1.9531679821948276e+00 2.9623058189740052e+00 5.4484879646770722e+01 1 0 0
1693 1 7.3507681849254878e+00 1.7450777577392864e+00 5.2365676834446148e+01 0 -1 -1
2964 1 1.2167465552679069e+00 2.0471833136611068e+00 5.0722320990620993e+01 1 0 0
4844 1 6.2169661256041318e+00 4.8133203295026625e+00 5.5385932149785667e+01 0 1 -1
6215 1 4.3198621717892456e+00 5.8711420806672860e+00 5.3719459591113576e+01 1 1 0
4894 1 2.4790130275986519e+00 7.4341551298497199e+00 5.5164070119551759e+01 1 1 0
1439 1 1.5118222527411944e+00 1.0023828220103288e+01 5.6109487952108928e+01 0 1 -1
6006 1 6.2783533640410942e+00 2.0064154806497405e+00 5.7250892671608270e+01 0 1 0
3506 1 5.4874640631466258e+00 7.7724591083839716e+00 5.1910890285037425e+01 0 0 -1
2903 1 8.9843352542526969e+00 9.2113274846134949e+00 5.2157234799202051e+01 0 0 0
1437 1 6.8276325473468900e+00 9.7826380501574768e+00 5.3751500310439575e+01 1 1 0
1570 1 5.8696453894016865e-01 7.3641135462065321e-01 5.3107957012726928e+01 0 0 0
179 1 2.5020052446302747e+00 4.3076336752678159e+00 5.1965489466145023e+01 1 1 -1
2875 1 7.0036674661079168e-01 6.1039276059356036e+00 5.1278065543749683e+01 0 1 -1
3534 1 8.6528173848542647e+00 4.5625176214169594e+00 5.4206863450866003e+01 0 0 -1
2945 1 9.5130892789024202e+00 1.1032163455537203e+01 5.7318226721180444e+01 1 0 -1
1324 1 7.0648889162410944e+00 1.1540505780278821e+01 5.6056911246363853e+01 0 -1 0
4766 1 9.7181333666266951e+00 2.8263540635065802e+00 5.6476246470640014e+01 0 1 -1
1946 1 5.1640323212563475e+00 2.3097141511353079e+00 5.4337303908036517e+01 1 1 -1
1621 1 7.5404354680062973e+00 5.5343971738636233e+00 5.1805895972440851e+01 0 1 -1
4870 1 1.2739438441387556e+00 9.0293898299640425e+00 5.0975107181471586e+01 1 0 -1
1748 1 4.7011865140494757e+00 1.1679590792905963e+00 5.0867954348089569e+01 0 0 -1
6152 1 3.2302040472778420e-01 9.4748520299517924e+00 5.3699799420937971e+01 0 1 0
147 1 3.3258536014906870e+00 3.1144972744973325e+00 5.7186666311571351e+01 0 0 -1
1876 1 8.7673235565278862e+00 1.1898933568360738e+01 5.0806071615633208e+01 0 1 -1
3281 1 4.8546415700825705e+00 3.8714823661201367e+00 5.0777125814622153e+01 1 1 0
1750 1 1.8451758748532914e+00 1.5468512327943815e+01 3.8252788564991080e+00 0 0 0
5188 1 3.5956736028224006e+00 1.4504114481073669e+01 6.5276980297677714e+00 1 1 0
2011 1 5.8683095074370621e+00 1.4759045108927657e+01 4.8118870031436334e+00 0 0 0
5196 1 8.7689454094279249e+00 1.4603561811571236e+01 5.3380365603757189e+00 1 0 0
4758 1 2.1821455829349254e+00 1.8202974314149071e+01 3.6350287361118276e+00 1 0 0
3481 1 1.6882170721371323e+00 2.0463262255186159e+01 5.3236701123854369e+00 0 0 0
3343 1 7.2796255654579474e+00 1.9895327551894823e+01 5.0510150395296147e+00 0 0 1
3162 1 5.7253067148164822e+00 1.7395001547706585e+01 8.8997373273966431e+00 1 0 1
335 1 2.2884027892789760e-01 1.7905674120735796e+01 6.4464272424099986e+00 1 0 0
1713 1 2.9552748149299206e+00 2.1842532788546393e+01 7.5498963426327679e+00 0 0 0
2881 1 4.8942868683195746e+00 1.7643384048410592e+01 4.0723082770132262e+00 0 0 1
1466 1 9.5644673833713654e+00 1.9745171856264811e+01 3.2567516790162214e+00 2 0 1
314 1 1.0431261956464675e+00 1.5471905183424722e+01 7.5833796843562293e+00 1 0 0
3352 1 7.0531881740316127e+00 1.7523265566808195e+01 6.4635374629908435e+00 1 0 0
165 1 4.8877045702565995e+00 1.4958099047646762e+01 8.8370179729444942e+00 1 0 0
3588 1 9.4907082290904015e+00 1.8084192878320597e+01 7.2748534184983118e+00 1 0 0
3681 1 3.8097586806795243e+00 2.3632563646022568e+01 5.5110732266529361e+00 1 0 1
216 1 6.1560399360467324e+00 2.1826992946932997e+01 7.2048775180673577e+00 1 -1 0
1526 1 3.6250045555418016e+00 2.2688022197216103e+01 2.5481066376249153e+00 0 1 1
5190 1 9.3002039296123407e+00 1.3878214282862224e+01 8.1496621060813759e+00 0 1 0
1250 1 8.9568356671715108e+00 2.0957515438017261e+01 7.6551424936162293e+00 2 0 1
1697 1 6.8667989784982835e+00 1.2970625133377236e+01 9.3148979672159413e+00 1 0 1
1441 1 6.1085054137135639e+00 2.1322819689137887e+01 2.7127275967753999e+00 1 0 0
6284 1 1.2995684640114291e-01 2.2598014589920965e+01 4.2634125537958054e+00 1 0 0
2999 1 1.6310560196880410e+00 2.3457547839457145e+01 9.2892941575138472e+00 1 1 1
510 1 3.5987260762631266e+00 1.4034015673997105e+01 1.1046897545789836e+01 0 0 0
3198 1 7.4472427552737877e+00 2.0209052270313212e+01 1.4411283582356599e+01 0 -1 0
5980 1 1.1765866862758869e+00 1.5353976120501605e+01 1.0368624292855086e+01 0 1 1
3179 1 8.3817469039315391e+00 1.4284590278262735e+01 1.2558675476687862e+01 0 1 1
3562 1 9.1213085266844274e-01 1.7802486452336630e+01 1.5691626297752169e+01 1 0 0
1458 1 1.9921028785935746e+00 1.7958117600027194e+01 1.1300508121887777e+01 1 1 1
238 1 4.0994760329420359e+00 1.9448304812645414e+01 1.2338773701877493e+01 0 1 0
3177 1 7.4068646636038755e+00 1.6807173804490066e+01 1.1221319441960564e+01 -1 1 0
288 1 8.2707022269893891e+00 1.9276607853903723e+01 1.1777312800985245e+01 0 0 0
5109 1 2.6124395858778064e+00 2.1929531708509874e+01 1.3243144877396693e+01 1 1 0
3329 1 8.1927848459341646e-01 2.3721927525697268e+01 1.5064918859082736e+01 1 0 0
21 1 3.0736925606062862e+00 1.9802459850632623e+01 1.5454675978365918e+01 2 0 1
5289 1 3.2098220886811473e+00 2.4394338596144859e+01 1.1491794060524523e+01 -1 0 0
1384 1 6.8848216238750073e+00 2.1302526847108311e+01 1.0183017251598535e+01 0 0 1
3185 1 4.9562727155434289e-01 2.2082158264751929e+01 1.1450892348490294e+01 0 0 1
11 1 6.0445402803147905e+00 2.3717561705499786e+01 1.1701612436758971e+01 0 1 0
467 1 4.3626303568192961e+00 1.5366689032352504e+01 1.3602788556868910e+01 0 -1 1
220 1 1.4783733421647820e+00 1.6211441786462682e+01 1.3557197250771249e+01 0 1 1