LAMMPS data file via write_data, version 16 Mar 2018, timestep = 8000000

6328 atoms
2 atom types

0.0000000000000000e+00 4.9219999999999999e+01 xlo xhi
0.0000000000000000e+00 4.9019635930410494e+01 ylo yhi
2.2549153105550559e+00 5.7807084689435840e+01 zlo zhi

Masses

1 18.015
2 12.01

Atoms # atomic

6012 1 1.4299967481309974e+00 3.0448731317852906e+00 3.5088511717324185e+00 1 2 1
289 1 1.2178981333237743e+01 2.2641487794474910e+00 7.2708075811937194e+00 1 2 1
1839 1 5.6737825059295153e+00 3.3640301423175440e+00 3.3275562380840831e+00 -1 3 0
6264 1 9.7485951263346120e+00 1.1051634192830761e+01 1.0709722694783922e+01 1 1 1
4788 1 1.0010794962633179e+01 3.3546390031071072e+00 3.4988371725051088e+00 -2 -2 0
1931 1 1.3851380217068721e+00 4.8938675839168205e-01 2.4435185136568487e+00 -1 -4 0
4553 1 3.0338433704028627e+00 7.0216458544165317e+00 3.1910723677559845e+00 -2 -1 0
4854 1 7.5573446044356611e+00 1.5077321485103285e+01 1.0460188582295153e+01 0 2 1
3318 1 7.8604559752228056e+00 7.6490655734179001e+00 3.2857010177046195e+00 3 0 0
6039 1 9.8689694010901992e+00 1.6150364203746239e+01 6.2443328162695018e+00 2 -1 1
3034 1 7.3320474724647422e+00 1.2526808507987878e+01 6.0136845578654894e+00 1 2 1
3107 1 9.2475836443896302e+00 1.6202221153658833e+01 3.4228187468202442e+00 1 0 0
4 1 1.2010387207059370e+01 1.2248770328106508e+01 6.4304130493140619e+00 1 3 1
1731 1 7.5997098219922696e+00 9.6788900640517408e+00 9.8189916079419035e+00 1 0 0
2992 1 7.5621462715331123e-01 1.3530238526933433e+01 9.8486946601418239e+00 0 -2 1
2981 1 2.9429261657359480e+00 1.2435116112081737e+01 3.4103246127314519e+00 -2 3 1
3044 1 3.2455511722940378e-01 1.6168259482652438e+01 3.4924951103331101e+00 2 -5 1
1479 1 7.3243877101498853e+00 1.2153769529925812e+01 3.2875205567941972e+00 3 4 1
1858 1 9.0507769264842908e-01 1.0924181553437208e+01 1.0587029798969613e+01 3 0 0
6036 1 1.1597644902348309e+01 1.4881820530335698e+01 2.5471743394138322e+00 -1 3 0
470 1 1.2046391539327498e+01 1.2401381820254857e+01 3.4006044698789601e+00 -5 0 0
2988 1 3.1639874060112421e+00 9.6225906605700526e+00 9.8714798126757124e+00 -4 2 1
2912 1 3.6621533078467068e+00 2.0613320083312887e+00 7.1043052738244468e+00 5 7 0
6006 1 1.3088866874720551e+00 3.5175782898160635e+00 6.2533982377141655e+00 2 1 1
118 1 5.7817027718292753e+00 3.6272971865775170e+00 5.9644348453937992e+00 -2 2 1
6256 1 7.7806846207672855e+00 2.0034725384912249e+00 7.2057505876868779e+00 1 3 0
167 1 9.8930764236917490e+00 3.3843762118257925e+00 6.1693756131566966e+00 1 -2 0
1909 1 2.9659440563641981e+00 1.5051372969909846e+01 1.0711832378202660e+01 0 3 1
1682 1 3.3082955840139738e+00 7.3571855079298807e+00 6.0813019186923807e+00 -2 1 0
1482 1 1.0355108424108186e+00 5.9976880343374335e+00 7.2597862179196779e+00 -3 -3 0
489 1 7.7830344340115500e+00 7.5312390212040992e+00 6.0220331555735092e+00 2 -1 1
2079 1 5.6955562357959524e+00 6.0147492157796405e+00 7.0281979263275618e+00 1 -1 1
4965 1 1.0085216681384837e+01 6.1165008376194887e+00 7.1116047244768952e+00 -1 -2 0
2106 1 9.7141025893171484e+00 1.3506483042229714e+01 9.7627424339852205e+00 -1 1 0
6147 1 4.1843904873394759e+00 9.7329559309436871e+00 7.0902185532375714e+00 1 -1 1
1299 1 3.0039706013164489e+00 1.2243898579559509e+01 6.0224101869858551e+00 -3 -2 1
6122 1 7.0673858419335760e+00 9.9472299965308064e+00 7.1401033887698180e+00 0 1 1
94 1 7.6493749294839508e-01 1.3497862707774553e+01 7.2225951203844101e+00 -3 -1 1
478 1 4.8635918423246496e+00 1.6226289330067587e+01 3.6947945436024918e+00 2 0 1
4644 1 5.0715696016379797e+00 1.3568589678504434e+01 7.1994740470804999e+00 -2 -1 0
2085 1 1.1988946986754904e+01 1.4730947909947316e+01 1.0417367426496602e+01 -1 -2 1
6209 1 5.1179567568791349e+00 1.3552396339085877e+01 9.8660551454378460e+00 1 2 0
5115 1 1.2121411874684913e+01 9.7978496257745640e+00 9.9513336398112457e+00 -1 1 0
1323 1 6.0489557599304415e+00 6.7471638873272444e-01 2.4517600406139173e+00 -1 -1 1
1277 1 9.7398253796261027e+00 1.3711784942994708e+01 7.1985352868638097e+00 0 1 1
1949 1 3.2173155286370130e+00 1.8610304760985059e+00 9.8835449111663607e+00 -3 4 0
1676 1 1.1652897235028221e+00 3.1039709066149168e+00 1.0881806949648254e+01 3 2 0
3445 1 7.8552445948268819e+00 1.7826853958049915e+00 9.9230404021301286e+00 -1 1 0
4580 1 5.5483769938677865e+00 3.0658218106085586e+00 1.0991701390179667e+01 -1 6 0
1907 1 9.9119012116255814e+00 3.5170410302192097e+00 1.1171427171771926e+01 4 -1 1
2871 1 5.2169502040246938e+00 1.1102367377001663e+01 1.0558227702215085e+01 -3 1 1
2846 1 1.0419679493521332e+00 5.9325753209401197e+00 9.9951426939271393e+00 -3 -2 1
3583 1 3.2770423900244960e+00 6.9533628781125074e+00 1.0830851113126906e+01 1 -2 1
1902 1 5.4879031317437930e+00 5.5810233820687145e+00 1.0037422553594146e+01 2 3 1
3492 1 7.7065570595058643e+00 6.9710671986187185e+00 1.0891328111916708e+01 -1 1 0
2050 1 1.0086133869246451e+01 5.8559829925166698e+00 1.0034962591694438e+01 0 1 0
1870 1 1.2130512060318800e+01 2.2972961066414070e+00 1.0058418380716606e+01 3 -1 0
505 1 1.2220055861416585e+01 7.1918288088739519e+00 1.0623905702592525e+01 2 0 1
1483 1 7.8412134450075310e+00 4.7866122040920320e+00 2.4444884419965791e+00 -2 2 1
5303 1 5.2864128939270394e+00 1.1235765839418534e+01 2.4062623352459540e+00 -2 -1 1
3642 1 2.6845164488343936e+00 1.5060132079520690e+01 2.6874819147497657e+00 1 3 0
1890 1 7.6446301000389614e+00 1.4996497129458714e+01 1.3155976908077687e+01 1 0 0
1554 1 9.3563983570359466e-01 1.1207914864222884e+01 1.3285213568802442e+01 1 1 1
6080 1 1.1834401739003753e+00 8.7192821359711203e+00 2.5122729041482783e+00 -2 0 0
305 1 4.7644312988132786e-01 1.6287778459148324e+01 6.2525242411448634e+00 2 -2 0
1801 1 1.0623205840687545e+01 7.1987784302544933e-01 2.4846717678158532e+00 -3 4 0
5305 1 1.1654632970373182e+01 1.4991149659498321e+01 1.3307556307542244e+01 -3 -2 1
123 1 7.0380658374753606e+00 1.4862517350476923e+01 2.4561429156943113e+00 -2 3 1
2112 1 5.4538308256948946e+00 8.4546890998021365e+00 2.6363476742899739e+00 1 -1 0
1647 1 4.9818702125298904e+00 1.6213696345193892e+01 6.3926118287993905e+00 -1 -4 0
1624 1 1.3557224634935883e+00 6.8336295296646321e-01 1.4349730715603378e+01 5 3 1
1334 1 3.5987824770749586e+00 1.4924833924724700e+01 2.4469483740972279e+01 2 -1 0
4537 1 5.5252204391708171e+00 8.6084398553421915e-01 1.4537219013660051e+01 -3 -2 0
4621 1 1.0717510021444834e+01 1.3963324651268641e+01 2.3915513904045866e+01 0 -4 1
3474 1 1.0304908392181774e+01 6.3445899623221402e-01 1.4610927313728679e+01 -3 3 0
1908 1 1.0059876161675778e+01 3.2888949425949932e+00 1.4063854936165159e+01 -2 -3 0
2848 1 3.3375509566213304e+00 4.8593531629809785e+00 1.4502867150836545e+01 0 -1 1
179 1 8.5032356402596943e+00 1.5254353491886894e+01 2.0887704768849058e+01 -2 3 0
4741 1 7.9024074969764495e+00 4.6179781908422957e+00 1.4763643365999391e+01 -2 2 0
3722 1 6.2605955171839547e+00 5.9577399210977795e+00 2.3840349280431152e+01 -1 0 0
5201 1 3.0508206609675614e+00 7.3073468637300740e+00 1.3579222807416370e+01 -2 -1 0
1551 1 7.5935288542400747e-01 8.5921966854863037e+00 1.4263171511730704e+01 2 5 1
3247 1 1.1017580624230177e+00 5.9302710061617265e+00 2.3870225184329207e+01 2 2 0
1951 1 5.1761702466342285e+00 8.8213224800124870e+00 1.4184396140064365e+01 1 1 0
4506 1 9.5358544731463031e+00 8.3645125923190040e+00 1.4581417176499729e+01 -2 4 1
3289 1 9.8891042816970010e-01 1.3711504821697424e+01 2.1037957978457502e+01 7 1 1
1703 1 2.9404679891931704e+00 1.2639895307830223e+01 1.4469865838754087e+01 1 -4 0
3115 1 3.7959245726126607e+00 1.8232768212913155e+00 2.4149092658232099e+01 -3 -2 1
2979 1 7.4359781261168090e+00 1.2608011857069151e+01 1.4454395956418786e+01 2 4 0
3153 1 2.9979164565496084e+00 1.5334555301683411e+01 1.3641806841755354e+01 -2 0 1
1304 1 1.1602135158040241e+01 1.2120015699370800e+01 1.6704200634741106e+01 3 3 1
1504 1 1.5359740787924057e+00 4.5424294005745552e-01 1.7013930448854296e+01 -1 4 0
3592 1 1.1846906962709043e+00 3.1577476578384305e+00 1.7968040595737612e+01 1 -1 0
199 1 5.7914374091275951e+00 6.5727670676606753e-01 1.7294530993064104e+01 -3 1 0
5277 1 5.6846170643131648e+00 2.9920142013377173e+00 1.8264351504503651e+01 3 0 0
1788 1 1.0414709153494242e+01 3.1375610552136907e-01 1.7410390120497816e+01 0 5 0
4714 1 1.0291638628844675e+01 3.0319270352544105e+00 1.8109552448572352e+01 0 -1 1
35 1 3.5006672137845047e+00 4.5117910180111913e+00 1.7116323341404943e+01 4 -1 0
1578 1 3.1366440922483418e+00 7.2403349392565541e+00 1.7784834052539253e+01 3 -5 0
6133 1 7.5992754715632911e+00 7.0345593300143401e+00 1.8325238023156231e+01 -4 2 1
1828 1 7.9242327879329180e+00 4.3525885290808946e+00 1.7467368058642265e+01 -1 5 0
5016 1 8.5786697115319210e+00 7.3971671122807434e+00 2.1018519194450423e+01 2 5 0
2966 1 9.0639326273644993e-01 8.6441848280872602e+00 1.7109145815593028e+01 3 -1 1
440 1 6.1561630021353830e-01 1.1137463185341666e+01 1.7832492311202159e+01 3 -2 0
1580 1 1.0408843650552801e+00 1.1153763645438499e+01 2.0218342225902258e+01 -1 -4 1
6190 1 5.3924538030087046e+00 8.2959227136119278e+00 1.7143059099772632e+01 -3 0 0
6057 1 5.3957768472304970e+00 1.0863856228684005e+01 1.7849203804210369e+01 2 3 1
386 1 9.6932195277165807e+00 8.3719441041443989e+00 1.7392860500199095e+01 -2 1 0
4943 1 9.4792684585451017e+00 1.1003331354881430e+01 1.8223154425601614e+01 3 -4 0
1899 1 1.1124733173320644e+01 1.1526882645580898e+01 2.1033096765905178e+01 0 1 0
1587 1 2.8806582443354722e+00 1.2409250199181631e+01 1.7195508558678821e+01 4 0 0
327 1 2.9569319316344433e+00 1.5329764689919639e+01 1.7558770356188429e+01 -3 -1 0
4543 1 1.1150806628955532e+01 1.1249011368798399e+01 2.3895570715570635e+01 5 2 1
3458 1 7.5108357050021910e+00 1.2502178386751364e+01 1.7241824753785728e+01 2 4 0
1922 1 7.1686591335233745e+00 1.5105755288410252e+01 1.8352046557064707e+01 0 2 0
33 1 1.1228191019419762e+01 1.4191096065170299e+01 2.0484355785463521e+01 -1 -1 1
6077 1 8.5392277375604966e+00 9.9727514761295257e+00 2.4108802237946165e+01 -3 1 1
4579 1 1.0371324577277272e+00 3.0022381271553065e+00 2.0525121104291081e+01 5 -3 0
3080 1 3.4471648262230090e+00 1.9649335256347100e+00 2.1413959981236811e+01 0 1 1
1812 1 1.1127230497906183e+01 3.2567405361887025e+00 2.3818089793514957e+01 2 1 0
198 1 6.0098995213446003e+00 1.3835138042493536e+01 2.1042985012948151e+01 0 0 0
5180 1 5.8710277689886894e+00 3.2051135872654495e+00 2.0876754351657805e+01 -1 0 1
6243 1 9.3823950458856089e+00 1.1072737640383080e+01 1.3482546966640564e+01 -2 1 0
3565 1 1.0893820525931334e+01 2.9863195027895433e+00 2.0940028135392421e+01 0 4 0
2938 1 8.1850214286673406e+00 1.8166652745885841e+00 2.1312367202040921e+01 4 -2 0
1416 1 9.4933841568843267e+00 1.5973052725946710e+01 1.6939275018360846e+01 4 1 1
550 1 9.1553846562406593e-01 1.3596145047857819e+01 2.3832752396871435e+01 0 3 1
3671 1 3.3601833316659531e+00 7.1663257332864179e+00 2.0618671581144600e+01 2 -3 0
1579 1 9.2695984922078944e-01 5.7900938430661135e+00 2.1213217148155724e+01 -1 0 1
1538 1 8.3664581008929453e+00 1.5136901031974343e+01 2.3574534575482087e+01 0 -1 1
4542 1 5.6052888258755740e+00 3.6345638325936558e+00 1.3663926809894869e+01 1 3 0
1485 1 5.2133119046459528e+00 1.1544119535756053e+01 1.3369066034137548e+01 2 1 1
322 1 5.9683191250712930e+00 6.1572424587189696e+00 2.1130233430883148e+01 -1 0 1
4599 1 1.1736388696885362e+01 1.2336351291738104e+01 1.4138103783006262e+01 1 -4 1
6032 1 1.1150269822600658e+01 6.0253476754896438e+00 2.1346250838230230e+01 4 2 1
3061 1 1.1468531561049857e+00 3.1520076475074439e+00 2.3747122251615696e+01 1 -3 0
1359 1 5.9742082578284936e+00 1.3842252564740557e+01 2.3844001053405179e+01 -3 1 0
3093 1 3.3839596806897267e+00 9.7999678567436916e+00 2.0906968831345768e+01 2 0 1
545 1 8.8283407463299657e+00 1.6761459957435747e+00 2.4151518673431202e+01 -4 -2 0
4570 1 3.6216965880619618e+00 9.9834813761549892e+00 2.3885892069592987e+01 2 2 1
3056 1 5.8627127963566128e+00 1.0995344867645136e+01 2.0372200754201135e+01 0 2 1
4614 1 1.1961093558139932e+01 7.3435996912965944e+00 1.3481008728770430e+01 0 2 0
5051 1 8.4939887111462440e+00 1.0338791868984117e+01 2.1249710846627941e+01 -1 1 0
4662 1 6.0694052273861878e+00 1.1066898410439771e+01 2.4268176585783412e+01 -3 -2 1
116 1 1.1612467082270895e+01 1.4695166254024944e+01 1.7790071624049620e+01 1 2 1
6236 1 1.1025215675673826e+01 6.0114718340276623e+00 2.4093051058782169e+01 2 3 1
4736 1 3.4485216344071854e+00 1.5237906859709682e+01 2.0300635918414091e+01 -1 -4 1
6228 1 7.2355167152444366e+00 6.9623485932736422e+00 1.3663018880237487e+01 3 -2 1
413 1 5.3997894747391024e+00 1.6286366953100114e+01 1.4187830141589467e+01 -1 1 0
4809 1 8.6486289407919781e+00 7.2464630573756983e+00 2.4134042168125319e+01 3 0 0
3233 1 6.4763353601571962e+00 3.2549383917684152e+00 2.4043410873659901e+01 0 2 1
381 1 1.1834193528160382e+01 6.7168094418959328e+00 1.8455380335139303e+01 -2 0 0
1979 1 9.9524778747968734e-01 1.0793604649481090e+01 2.4239410955677837e+01 -4 0 1
6240 1 3.7419415132350968e+00 7.1562116551191046e+00 2.3602532573520261e+01 -2 0 1
277 1 1.1919272040637374e+00 3.3390577759384077e+00 1.3522874474941402e+01 -3 1 0
552 2 0.0000000000000000e+00 2.8417180249513345e+00 2.6715915745566260e+01 0 0 0
554 2 0.0000000000000000e+00 0.0000000000000000e+00 2.6715915745566260e+01 0 0 0
556 2 1.2305000000000001e+00 7.1042950623783474e-01 2.6715915745566260e+01 0 0 0
563 2 1.2305000000000001e+00 2.1312885187134998e+00 2.6715915745566260e+01 0 0 0
565 2 2.4610000000000003e+00 2.8417180249513345e+00 2.6715915745566260e+01 0 0 0
567 2 2.4610000000000003e+00 0.0000000000000000e+00 2.6715915745566260e+01 0 0 0
569 2 3.6915000000000004e+00 7.1042950623783474e-01 2.6715915745566260e+01 0 0 0
584 2 3.6914999999999996e+00 2.1312885187134998e+00 2.6715915745566260e+01 0 0 0
586 2 4.9220000000000006e+00 2.8417180249513332e+00 2.6715915745566260e+01 0 0 0
588 2 4.9220000000000006e+00 0.0000000000000000e+00 2.6715915745566260e+01 0 0 0
590 2 6.1524999999999999e+00 7.1042950623783407e-01 2.6715915745566260e+01 0 0 0
613 2 6.1524999999999999e+00 2.1312885187134989e+00 2.6715915745566260e+01 0 0 0
615 2 7.3829999999999991e+00 2.8417180249513345e+00 2.6715915745566260e+01 0 0 0
617 2 7.3829999999999991e+00 0.0000000000000000e+00 2.6715915745566260e+01 0 0 0
619 2 8.6134999999999984e+00 7.1042950623783407e-01 2.6715915745566260e+01 0 0 0
650 2 8.6134999999999984e+00 2.1312885187135002e+00 2.6715915745566260e+01 0 0 0
652 2 9.8440000000000012e+00 2.8417180249513332e+00 2.6715915745566260e+01 0 0 0
654 2 9.8440000000000012e+00 0.0000000000000000e+00 2.6715915745566260e+01 0 0 0
656 2 1.1074500000000002e+01 7.1042950623783330e-01 2.6715915745566260e+01 0 0 0
695 2 1.1074500000000002e+01 2.1312885187135002e+00 2.6715915745566260e+01 0 0 0
559 2 0.0000000000000000e+00 4.2625770374269996e+00 2.6715915745566260e+01 0 0 0
561 2 1.2305000000000001e+00 4.9730065436648339e+00 2.6715915745566260e+01 0 0 0
576 2 1.2305000000000001e+00 6.3938655561404980e+00 2.6715915745566260e+01 0 0 0
580 2 2.4610000000000003e+00 4.2625770374269996e+00 2.6715915745566260e+01 0 0 0
582 2 3.6914999999999996e+00 4.9730065436648339e+00 2.6715915745566260e+01 0 0 0
605 2 3.6914999999999996e+00 6.3938655561404980e+00 2.6715915745566260e+01 0 0 0
557 2 0.0000000000000000e+00 7.1042950623783341e+00 2.6715915745566260e+01 0 0 0
578 2 2.4610000000000003e+00 7.1042950623783341e+00 2.6715915745566260e+01 0 0 0
609 2 4.9220000000000006e+00 4.2625770374269978e+00 2.6715915745566260e+01 0 0 0
611 2 6.1524999999999999e+00 4.9730065436648339e+00 2.6715915745566260e+01 0 0 0
642 2 6.1524999999999999e+00 6.3938655561404980e+00 2.6715915745566260e+01 0 0 0
646 2 7.3829999999999991e+00 4.2625770374269996e+00 2.6715915745566260e+01 0 0 0
607 2 4.9220000000000006e+00 7.1042950623783341e+00 2.6715915745566260e+01 0 0 0
644 2 7.3830000000000009e+00 7.1042950623783341e+00 2.6715915745566260e+01 0 0 0
648 2 8.6135000000000002e+00 4.9730065436648339e+00 2.6715915745566260e+01 0 0 0
687 2 8.6135000000000002e+00 6.3938655561404980e+00 2.6715915745566260e+01 0 0 0
691 2 9.8440000000000012e+00 4.2625770374270004e+00 2.6715915745566260e+01 0 0 0
693 2 1.1074500000000002e+01 4.9730065436648339e+00 2.6715915745566260e+01 0 0 0
734 2 1.1074500000000002e+01 6.3938655561404980e+00 2.6715915745566260e+01 0 0 0
689 2 9.8440000000000012e+00 7.1042950623783341e+00 2.6715915745566260e+01 0 0 0
572 2 0.0000000000000000e+00 8.5251540748539991e+00 2.6715915745566260e+01 0 0 0
574 2 1.2305000000000001e+00 9.2355835810918343e+00 2.6715915745566260e+01 0 0 0
601 2 2.4610000000000003e+00 8.5251540748539991e+00 2.6715915745566260e+01 0 0 0
603 2 3.6915000000000004e+00 9.2355835810918343e+00 2.6715915745566260e+01 0 0 0
570 2 0.0000000000000000e+00 1.1366872099805333e+01 2.6715915745566260e+01 0 0 0
597 2 1.2305000000000001e+00 1.0656442593567498e+01 2.6715915745566260e+01 0 0 0
599 2 2.4610000000000003e+00 1.1366872099805333e+01 2.6715915745566260e+01 0 0 0
634 2 3.6914999999999996e+00 1.0656442593567499e+01 2.6715915745566260e+01 0 0 0
638 2 4.9220000000000006e+00 8.5251540748539991e+00 2.6715915745566260e+01 0 0 0
640 2 6.1524999999999999e+00 9.2355835810918343e+00 2.6715915745566260e+01 0 0 0
683 2 7.3830000000000009e+00 8.5251540748539991e+00 2.6715915745566260e+01 0 0 0
636 2 4.9220000000000006e+00 1.1366872099805333e+01 2.6715915745566260e+01 0 0 0
679 2 6.1524999999999999e+00 1.0656442593567499e+01 2.6715915745566260e+01 0 0 0
681 2 7.3829999999999991e+00 1.1366872099805333e+01 2.6715915745566260e+01 0 0 0
685 2 8.6134999999999984e+00 9.2355835810918343e+00 2.6715915745566260e+01 0 0 0
730 2 9.8440000000000012e+00 8.5251540748539956e+00 2.6715915745566260e+01 0 0 0
732 2 1.1074500000000002e+01 9.2355835810918343e+00 2.6715915745566260e+01 0 0 0
726 2 8.6134999999999984e+00 1.0656442593567498e+01 2.6715915745566260e+01 0 0 0
728 2 9.8440000000000012e+00 1.1366872099805333e+01 2.6715915745566260e+01 0 0 0
773 2 1.1074500000000002e+01 1.0656442593567498e+01 2.6715915745566260e+01 0 0 0
775 2 1.2304999999999998e+01 1.1366872099805333e+01 2.6715915745566260e+01 0 0 0
593 2 0.0000000000000000e+00 1.2787731112280996e+01 2.6715915745566260e+01 0 0 0
595 2 1.2305000000000001e+00 1.3498160618518829e+01 2.6715915745566260e+01 0 0 0
630 2 2.4610000000000003e+00 1.2787731112280996e+01 2.6715915745566260e+01 0 0 0
632 2 3.6915000000000004e+00 1.3498160618518829e+01 2.6715915745566260e+01 0 0 0
591 2 0.0000000000000000e+00 1.5629449137232333e+01 2.6715915745566260e+01 0 0 0
626 2 1.2305000000000001e+00 1.4919019630994494e+01 2.6715915745566260e+01 0 0 0
628 2 2.4610000000000003e+00 1.5629449137232328e+01 2.6715915745566260e+01 0 0 0
671 2 3.6915000000000004e+00 1.4919019630994494e+01 2.6715915745566260e+01 0 0 0
675 2 4.9220000000000006e+00 1.2787731112280996e+01 2.6715915745566260e+01 0 0 0
677 2 6.1524999999999990e+00 1.3498160618518829e+01 2.6715915745566260e+01 0 0 0
722 2 7.3829999999999991e+00 1.2787731112280996e+01 2.6715915745566260e+01 0 0 0
673 2 4.9220000000000006e+00 1.5629449137232333e+01 2.6715915745566260e+01 0 0 0
718 2 6.1524999999999990e+00 1.4919019630994494e+01 2.6715915745566260e+01 0 0 0
720 2 7.3829999999999991e+00 1.5629449137232333e+01 2.6715915745566260e+01 0 0 0
724 2 8.6135000000000002e+00 1.3498160618518835e+01 2.6715915745566260e+01 0 0 0
769 2 9.8440000000000012e+00 1.2787731112280996e+01 2.6715915745566260e+01 0 0 0
771 2 1.1074500000000002e+01 1.3498160618518829e+01 2.6715915745566260e+01 0 0 0
765 2 8.6135000000000002e+00 1.4919019630994494e+01 2.6715915745566260e+01 0 0 0
767 2 9.8440000000000012e+00 1.5629449137232328e+01 2.6715915745566260e+01 0 0 0
807 2 1.1074500000000002e+01 1.4919019630994494e+01 2.6715915745566260e+01 0 0 0
553 2 0.0000000000000000e+00 1.4208590124756650e+00 3.0030999999995505e+01 0 0 0
555 2 0.0000000000000000e+00 0.0000000000000000e+00 3.0030999999995505e+01 0 0 0
564 2 1.2305000000000001e+00 2.1312885187134998e+00 3.0030999999995505e+01 0 0 0
566 2 2.4610000000000003e+00 1.4208590124756650e+00 3.0030999999995505e+01 0 0 0
568 2 2.4610000000000003e+00 0.0000000000000000e+00 3.0030999999995505e+01 0 0 0
585 2 3.6914999999999996e+00 2.1312885187134998e+00 3.0030999999995505e+01 0 0 0
562 2 1.2305000000000001e+00 3.5521475311891644e+00 3.0030999999995505e+01 0 0 0
583 2 3.6914999999999996e+00 3.5521475311891644e+00 3.0030999999995505e+01 0 0 0
587 2 4.9220000000000006e+00 1.4208590124756650e+00 3.0030999999995505e+01 0 0 0
589 2 4.9220000000000006e+00 0.0000000000000000e+00 3.0030999999995505e+01 0 0 0
614 2 6.1524999999999999e+00 2.1312885187134989e+00 3.0030999999995505e+01 0 0 0
616 2 7.3829999999999991e+00 1.4208590124756659e+00 3.0030999999995505e+01 0 0 0
618 2 7.3829999999999991e+00 0.0000000000000000e+00 3.0030999999995505e+01 0 0 0
612 2 6.1524999999999999e+00 3.5521475311891644e+00 3.0030999999995505e+01 0 0 0
651 2 8.6134999999999984e+00 2.1312885187135002e+00 3.0030999999995505e+01 0 0 0
653 2 9.8440000000000012e+00 1.4208590124756659e+00 3.0030999999995505e+01 0 0 0
655 2 9.8440000000000012e+00 0.0000000000000000e+00 3.0030999999995505e+01 0 0 0
696 2 1.1074500000000002e+01 2.1312885187135002e+00 3.0030999999995505e+01 0 0 0
649 2 8.6134999999999984e+00 3.5521475311891657e+00 3.0030999999995505e+01 0 0 0
694 2 1.1074500000000002e+01 3.5521475311891644e+00 3.0030999999995505e+01 0 0 0
558 2 0.0000000000000000e+00 5.6834360499026637e+00 3.0030999999995505e+01 0 0 0
560 2 0.0000000000000000e+00 4.2625770374269996e+00 3.0030999999995505e+01 0 0 0
577 2 1.2305000000000001e+00 6.3938655561404980e+00 3.0030999999995505e+01 0 0 0
579 2 2.4610000000000003e+00 5.6834360499026637e+00 3.0030999999995505e+01 0 0 0
581 2 2.4610000000000003e+00 4.2625770374269996e+00 3.0030999999995505e+01 0 0 0
606 2 3.6914999999999996e+00 6.3938655561404980e+00 3.0030999999995505e+01 0 0 0
575 2 1.2305000000000001e+00 7.8147245686161639e+00 3.0030999999995505e+01 0 0 0
604 2 3.6914999999999996e+00 7.8147245686161639e+00 3.0030999999995505e+01 0 0 0
608 2 4.9220000000000006e+00 5.6834360499026637e+00 3.0030999999995505e+01 0 0 0
610 2 4.9220000000000006e+00 4.2625770374269978e+00 3.0030999999995505e+01 0 0 0
643 2 6.1524999999999999e+00 6.3938655561404980e+00 3.0030999999995505e+01 0 0 0
645 2 7.3829999999999991e+00 5.6834360499026637e+00 3.0030999999995505e+01 0 0 0
647 2 7.3829999999999991e+00 4.2625770374269996e+00 3.0030999999995505e+01 0 0 0
641 2 6.1524999999999999e+00 7.8147245686161639e+00 3.0030999999995505e+01 0 0 0
688 2 8.6135000000000002e+00 6.3938655561404980e+00 3.0030999999995505e+01 0 0 0
690 2 9.8440000000000012e+00 5.6834360499026637e+00 3.0030999999995505e+01 0 0 0
692 2 9.8440000000000012e+00 4.2625770374270004e+00 3.0030999999995505e+01 0 0 0
735 2 1.1074500000000002e+01 6.3938655561404980e+00 3.0030999999995505e+01 0 0 0
686 2 8.6135000000000002e+00 7.8147245686161639e+00 3.0030999999995505e+01 0 0 0
733 2 1.1074500000000002e+01 7.8147245686161639e+00 3.0030999999995505e+01 0 0 0
571 2 0.0000000000000000e+00 9.9460130873296642e+00 3.0030999999995505e+01 0 0 0
573 2 0.0000000000000000e+00 8.5251540748539991e+00 3.0030999999995505e+01 0 0 0
600 2 2.4610000000000003e+00 9.9460130873296642e+00 3.0030999999995505e+01 0 0 0
602 2 2.4610000000000003e+00 8.5251540748539991e+00 3.0030999999995505e+01 0 0 0
596 2 1.2305000000000001e+00 1.2077301606043163e+01 3.0030999999995505e+01 0 0 0
598 2 1.2305000000000001e+00 1.0656442593567498e+01 3.0030999999995505e+01 0 0 0
633 2 3.6914999999999996e+00 1.2077301606043163e+01 3.0030999999995505e+01 0 0 0
635 2 3.6914999999999996e+00 1.0656442593567499e+01 3.0030999999995505e+01 0 0 0
637 2 4.9220000000000006e+00 9.9460130873296642e+00 3.0030999999995505e+01 0 0 0
639 2 4.9220000000000006e+00 8.5251540748539991e+00 3.0030999999995505e+01 0 0 0
682 2 7.3830000000000009e+00 9.9460130873296642e+00 3.0030999999995505e+01 0 0 0
684 2 7.3830000000000009e+00 8.5251540748539991e+00 3.0030999999995505e+01 0 0 0
678 2 6.1524999999999999e+00 1.2077301606043163e+01 3.0030999999995505e+01 0 0 0
680 2 6.1524999999999999e+00 1.0656442593567499e+01 3.0030999999995505e+01 0 0 0
729 2 9.8440000000000012e+00 9.9460130873296642e+00 3.0030999999995505e+01 0 0 0
731 2 9.8440000000000012e+00 8.5251540748539956e+00 3.0030999999995505e+01 0 0 0
725 2 8.6135000000000002e+00 1.2077301606043163e+01 3.0030999999995505e+01 0 0 0
727 2 8.6134999999999984e+00 1.0656442593567498e+01 3.0030999999995505e+01 0 0 0
772 2 1.1074500000000002e+01 1.2077301606043163e+01 3.0030999999995505e+01 0 0 0
774 2 1.1074500000000002e+01 1.0656442593567498e+01 3.0030999999995505e+01 0 0 0
594 2 0.0000000000000000e+00 1.2787731112280996e+01 3.0030999999995505e+01 0 0 0
631 2 2.4610000000000003e+00 1.2787731112280996e+01 3.0030999999995505e+01 0 0 0
592 2 0.0000000000000000e+00 1.4208590124756663e+01 3.0030999999995505e+01 0 0 0
627 2 1.2305000000000001e+00 1.4919019630994494e+01 3.0030999999995505e+01 0 0 0
629 2 2.4610000000000003e+00 1.4208590124756663e+01 3.0030999999995505e+01 0 0 0
672 2 3.6915000000000004e+00 1.4919019630994494e+01 3.0030999999995505e+01 0 0 0
676 2 4.9220000000000006e+00 1.2787731112280996e+01 3.0030999999995505e+01 0 0 0
723 2 7.3829999999999991e+00 1.2787731112280996e+01 3.0030999999995505e+01 0 0 0
674 2 4.9220000000000006e+00 1.4208590124756663e+01 3.0030999999995505e+01 0 0 0
719 2 6.1524999999999990e+00 1.4919019630994494e+01 3.0030999999995505e+01 0 0 0
721 2 7.3830000000000009e+00 1.4208590124756663e+01 3.0030999999995505e+01 0 0 0
770 2 9.8440000000000012e+00 1.2787731112280996e+01 3.0030999999995505e+01 0 0 0
766 2 8.6135000000000002e+00 1.4919019630994494e+01 3.0030999999995505e+01 0 0 0
768 2 9.8440000000000012e+00 1.4208590124756663e+01 3.0030999999995505e+01 0 0 0
806 2 1.1074500000000002e+01 1.6339878643470161e+01 3.0030999999995505e+01 0 0 0
808 2 1.1074500000000002e+01 1.4919019630994494e+01 3.0030999999995505e+01 0 0 0
810 2 1.2304999999999998e+01 1.4208590124756658e+01 3.0030999999995505e+01 0 0 0
881 2 0.0000000000000000e+00 2.8417180249513345e+00 3.3346084254435659e+01 0 0 0
882 2 0.0000000000000000e+00 0.0000000000000000e+00 3.3346084254435659e+01 0 0 0
883 2 1.2305000000000001e+00 7.1042950623783474e-01 3.3346084254435659e+01 0 0 0
887 2 1.2305000000000001e+00 2.1312885187134998e+00 3.3346084254435659e+01 0 0 0
888 2 2.4610000000000003e+00 2.8417180249513345e+00 3.3346084254435659e+01 0 0 0
889 2 2.4610000000000003e+00 0.0000000000000000e+00 3.3346084254435659e+01 0 0 0
890 2 3.6915000000000004e+00 7.1042950623783474e-01 3.3346084254435659e+01 0 0 0
898 2 3.6914999999999996e+00 2.1312885187134998e+00 3.3346084254435659e+01 0 0 0
970 2 8.6135000000000002e+00 1.3498160618518835e+01 3.3346084254435659e+01 0 0 0
899 2 4.9220000000000006e+00 2.8417180249513332e+00 3.3346084254435659e+01 0 0 0
900 2 4.9220000000000006e+00 0.0000000000000000e+00 3.3346084254435659e+01 0 0 0
901 2 6.1524999999999999e+00 7.1042950623783407e-01 3.3346084254435659e+01 0 0 0
913 2 6.1524999999999999e+00 2.1312885187134989e+00 3.3346084254435659e+01 0 0 0
914 2 7.3829999999999991e+00 2.8417180249513345e+00 3.3346084254435659e+01 0 0 0
915 2 7.3829999999999991e+00 0.0000000000000000e+00 3.3346084254435659e+01 0 0 0
916 2 8.6134999999999984e+00 7.1042950623783407e-01 3.3346084254435659e+01 0 0 0
932 2 8.6134999999999984e+00 2.1312885187135002e+00 3.3346084254435659e+01 0 0 0
933 2 9.8440000000000012e+00 2.8417180249513332e+00 3.3346084254435659e+01 0 0 0
934 2 9.8440000000000012e+00 0.0000000000000000e+00 3.3346084254435659e+01 0 0 0
935 2 1.1074500000000002e+01 7.1042950623783330e-01 3.3346084254435659e+01 0 0 0
955 2 1.1074500000000002e+01 2.1312885187135002e+00 3.3346084254435659e+01 0 0 0
885 2 0.0000000000000000e+00 4.2625770374269996e+00 3.3346084254435659e+01 0 0 0
886 2 1.2305000000000001e+00 4.9730065436648339e+00 3.3346084254435659e+01 0 0 0
894 2 1.2305000000000001e+00 6.3938655561404980e+00 3.3346084254435659e+01 0 0 0
896 2 2.4610000000000003e+00 4.2625770374269996e+00 3.3346084254435659e+01 0 0 0
897 2 3.6914999999999996e+00 4.9730065436648339e+00 3.3346084254435659e+01 0 0 0
909 2 3.6914999999999996e+00 6.3938655561404980e+00 3.3346084254435659e+01 0 0 0
884 2 0.0000000000000000e+00 7.1042950623783341e+00 3.3346084254435659e+01 0 0 0
895 2 2.4610000000000003e+00 7.1042950623783341e+00 3.3346084254435659e+01 0 0 0
911 2 4.9220000000000006e+00 4.2625770374269978e+00 3.3346084254435659e+01 0 0 0
912 2 6.1524999999999999e+00 4.9730065436648339e+00 3.3346084254435659e+01 0 0 0
928 2 6.1524999999999999e+00 6.3938655561404980e+00 3.3346084254435659e+01 0 0 0
930 2 7.3829999999999991e+00 4.2625770374269996e+00 3.3346084254435659e+01 0 0 0
910 2 4.9220000000000006e+00 7.1042950623783341e+00 3.3346084254435659e+01 0 0 0
929 2 7.3830000000000009e+00 7.1042950623783341e+00 3.3346084254435659e+01 0 0 0
931 2 8.6135000000000002e+00 4.9730065436648339e+00 3.3346084254435659e+01 0 0 0
951 2 8.6135000000000002e+00 6.3938655561404980e+00 3.3346084254435659e+01 0 0 0
953 2 9.8440000000000012e+00 4.2625770374270004e+00 3.3346084254435659e+01 0 0 0
954 2 1.1074500000000002e+01 4.9730065436648339e+00 3.3346084254435659e+01 0 0 0
975 2 1.1074500000000002e+01 6.3938655561404980e+00 3.3346084254435659e+01 0 0 0
952 2 9.8440000000000012e+00 7.1042950623783341e+00 3.3346084254435659e+01 0 0 0
892 2 0.0000000000000000e+00 8.5251540748539991e+00 3.3346084254435659e+01 0 0 0
893 2 1.2305000000000001e+00 9.2355835810918343e+00 3.3346084254435659e+01 0 0 0
907 2 2.4610000000000003e+00 8.5251540748539991e+00 3.3346084254435659e+01 0 0 0
908 2 3.6915000000000004e+00 9.2355835810918343e+00 3.3346084254435659e+01 0 0 0
891 2 0.0000000000000000e+00 1.1366872099805333e+01 3.3346084254435659e+01 0 0 0
905 2 1.2305000000000001e+00 1.0656442593567498e+01 3.3346084254435659e+01 0 0 0
906 2 2.4610000000000003e+00 1.1366872099805333e+01 3.3346084254435659e+01 0 0 0
924 2 3.6914999999999996e+00 1.0656442593567499e+01 3.3346084254435659e+01 0 0 0
926 2 4.9220000000000006e+00 8.5251540748539991e+00 3.3346084254435659e+01 0 0 0