LAMMPS data file via write_data, version 16 Mar 2018, timestep = 100000

6328 atoms
2 atom types

0.0000000000000000e+00 4.9219999999999999e+01 xlo xhi
0.0000000000000000e+00 4.9019635930410494e+01 ylo yhi
3.6011748030860744e+00 5.6460825196912609e+01 zlo zhi

Masses

1 18.015
2 12.01

Atoms # atomic

1662 1 3.7184920825192460e+00 6.2400768461422418e+00 6.9895536616043010e+00 1 1 0
318 1 3.3155247546426732e+00 3.0525118843554586e+00 6.6296906625617176e+00 1 0 0
5961 1 7.2673671629505847e+00 1.2677223734670700e+00 5.8215080468015117e+00 0 1 1
2897 1 1.1066950753950006e-01 1.3884951801950416e+01 8.1275925691978799e+00 0 0 1
4474 1 4.0325679557981248e-01 3.9461573343315077e+00 3.9414613023791092e+00 1 1 1
3259 1 4.2304082166280804e-01 1.1263782190499533e+01 6.9763119315808435e+00 0 0 1
2990 1 1.0915275916192169e+00 4.9039474443397282e+00 8.5810229213447791e+00 0 0 1
2989 1 9.7673737984561395e+00 2.4804321786656565e+00 5.7741801142501537e+00 0 0 0
3714 1 1.9583982924581373e+00 8.4094878965028261e+00 6.0356894754487964e+00 1 1 0
4887 1 3.5887227521311753e+00 1.0464626516488458e+01 5.5438895289488546e+00 -1 1 0
5994 1 5.4177836174385812e+00 5.4011925889706776e+00 4.9198751760688397e+00 -1 1 0
4762 1 5.9777470529176995e+00 2.8931161629368698e+00 3.8375223459617769e+00 1 1 0
3292 1 5.4775165377740693e+00 1.5559142708080026e+01 1.3910457686834102e+01 1 0 0
1952 1 1.0310005561887612e+01 7.1202852712643594e+00 5.3155431021322972e+00 0 0 0
5132 1 1.0289909884382611e+01 9.3940251456561761e+00 1.2636229483136841e+01 0 -1 1
6172 1 2.2438543647818054e+00 1.0061251181260708e+01 9.7631740011128265e+00 0 0 1
376 1 4.4388606535024255e+00 1.1240496850147350e+01 8.2853823982785642e+00 0 1 0
3290 1 2.5288425657542564e+00 1.3209502615320286e+01 5.7768784623379545e+00 0 0 0
3476 1 6.8588908594036200e+00 9.9186116747436230e+00 7.3467981148201300e+00 1 1 1
6268 1 2.2110732394752515e+00 2.3959795881220575e-01 6.4421907761927724e+00 2 1 0
4849 1 9.8030362999123586e+00 9.6934752104871134e+00 3.8631941382419717e+00 0 0 1
4643 1 5.7228177323251535e+00 1.3626348194151928e+01 6.8238924238431400e+00 2 0 1
354 1 6.9649459481633107e+00 9.8173433084444639e+00 4.2824989375751645e+00 1 0 0
24 1 7.7036539999446552e-01 1.5674761752561754e+01 1.2278361232844224e+01 0 -1 1
1512 1 9.8859312990155122e+00 1.4541022751911386e+01 5.4327353555931008e+00 0 1 1
2798 1 2.8935927926781049e+00 3.2297451994803650e+00 1.0235871214609515e+01 0 0 1
3417 1 1.1699802419414178e+01 5.9097803971599463e+00 8.1803390399216198e+00 0 2 0
3440 1 5.5076907641727342e+00 4.2808931112482691e+00 9.9908574536377284e+00 0 1 1
3072 1 8.6899921225472543e+00 4.9003938771500284e+00 4.7490517500531642e+00 1 0 0
5181 1 7.7998068472399309e+00 4.2331931726450316e+00 7.9987706296968515e+00 0 2 0
3001 1 1.0801342916369807e+01 3.2541170475355816e+00 8.4604735400500690e+00 0 0 0
6304 1 3.9279952083090652e+00 7.8448252734405912e+00 1.3686596929905612e+01 1 0 0
5028 1 1.0813555919430817e+00 6.0048503191318581e+00 1.1388626713231275e+01 0 0 0
3454 1 9.1412074926374345e+00 5.9624803631668239e+00 9.8424450577044809e+00 1 1 0
1291 1 5.0672070603520201e+00 6.7701407605585988e+00 9.3345715747929212e+00 0 0 1
2063 1 7.3609200234362877e+00 6.5099630303172269e+00 6.7713431268976887e+00 2 1 1
1873 1 1.0069673354331991e+01 8.4126836402634844e+00 7.9137368504819952e+00 0 1 0
3382 1 9.6947735832274251e+00 1.5393832993627854e+01 1.3778504981680539e+01 1 1 0
4531 1 1.1503013790469327e+01 4.1644109483416936e-01 4.8493762508722531e+00 0 1 1
1240 1 7.5094948206481273e+00 8.1497559051563115e+00 9.7678971985804033e+00 -1 1 0
5982 1 6.0488929111715874e+00 1.2302054385754699e+01 1.0899409207698953e+01 2 0 1
6140 1 9.2472658900205218e+00 1.1331620787282406e+01 8.2441076253818864e+00 1 1 1
1639 1 8.2136372513373637e+00 1.0846730495560314e+01 1.0823698632032123e+01 0 -1 0
3340 1 1.0572655103409070e+00 3.4463713148369082e+00 1.2526111535327567e+01 2 0 1
3212 1 3.0682388989525031e+00 1.3862162579089741e+01 1.1183080838917085e+01 2 0 0
6286 1 1.1243414921180401e+00 9.3319591136851727e+00 1.4126224068867584e+01 0 1 0
98 1 7.0996662829879016e+00 1.4547195948513796e+01 1.1939861022404754e+01 1 0 1
2040 1 3.2974635574849125e+00 1.4341337643891894e+01 8.3473285705182327e+00 1 1 0
1281 1 8.7792784933970953e+00 1.4058380694387232e+01 8.1134370205783739e+00 0 0 1
5131 1 8.4864969314855241e+00 1.3593813283311680e+00 9.3574439232354507e+00 0 1 1
2811 1 4.8104705765011211e+00 3.9172802592081770e+00 1.2836042849936552e+01 1 1 1
1920 1 1.4090388846954385e-01 1.6187942839590498e+01 6.4777983814406177e+00 1 0 1
2121 1 1.0333768500460826e+01 2.2354965338666783e+00 1.1852353745831522e+01 1 -1 1
5264 1 9.3920075708619901e+00 1.2748301394113520e+01 1.2705728166576048e+01 0 1 1
5177 1 1.1098069042051929e+01 1.4160806005663824e+01 9.5546242482861530e+00 1 0 0
4495 1 7.3184404600846777e+00 5.2640315187490634e+00 1.3336949699343110e+01 1 1 1
3565 1 7.7009873689931396e+00 8.0606478740207663e+00 1.2550603305460564e+01 1 1 0
6113 1 9.7962888507454942e+00 4.5534265832806042e+00 1.2869384484436939e+01 1 0 1
4736 1 5.6774086755323356e+00 1.2401922250008111e+01 4.2049235151299884e+00 1 0 1
1680 1 2.1451280081579562e+00 1.1323223120051217e+01 1.2242058521166699e+01 1 1 1
1443 1 1.0965384063716787e+01 1.6231244507664357e+01 1.1620463766890078e+01 0 0 1
1876 1 3.3069163481654504e+00 7.7262525758082079e+00 1.1027591934365228e+01 0 1 0
5097 1 4.8355125719705825e+00 1.1976235617424583e+01 1.3329927486589682e+01 0 1 0
4962 1 1.2022301781935637e+01 1.1865559222468210e+01 1.1288672339353358e+01 0 0 0
2948 1 5.6494797108557284e+00 2.1283412522322922e+00 8.1114780864868621e+00 1 0 0
4497 1 4.6189610857682615e+00 1.5631764482245881e+01 4.6134999383736544e+00 -1 0 1
1351 1 1.1176617589022802e+01 6.8326615479088577e+00 1.2137981365915739e+01 0 0 0
3124 1 1.1997051906208384e+01 9.4420871295401874e+00 9.5553749518383331e+00 0 0 1
5007 1 5.2964788377814944e+00 3.5182727459591945e-02 1.0002643442958451e+01 1 1 0
1647 1 1.7247473579471095e+00 1.5898566103910978e+01 4.4841744694282131e+00 0 0 0
3368 1 2.5056529228412172e+00 7.6093978903426229e-01 9.3712312462327709e+00 -1 1 0
2856 1 3.3184977380373977e+00 1.4368341314193431e+00 1.3589149018928920e+01 1 0 1
1399 1 3.1257735375117437e+00 2.3078022550107278e+00 3.8959490935842109e+00 -1 0 1
2864 1 1.2169839778996188e+01 1.1652061348832095e+01 7.7225276980959121e+00 0 0 1
384 1 1.2163187305482070e+01 1.0774499227325052e+01 4.9390199127658558e+00 0 0 0
3318 1 8.4035854503094889e+00 1.0716953698937927e-01 1.2318237010199624e+01 2 2 0
4485 1 6.8479314629124746e+00 1.6117789131442526e+00 1.3885503850246751e+01 1 1 1
284 1 1.2279078924750930e+01 1.3411463418271623e+01 4.2213263984128995e+00 0 0 1
1297 1 5.0716271043740910e+00 1.3852759102332568e+00 1.8015755703202309e+01 1 0 1
4479 1 1.0070832026508317e+01 1.5450810577364503e+01 1.8864300450290543e+01 1 -1 1
6187 1 7.3670181663661385e+00 1.1056340191012066e+00 1.6503238964144526e+01 1 1 0
1913 1 2.7138529494968728e+00 4.0674827642713538e+00 2.4060502473488324e+01 0 1 1
1910 1 3.6738822235346400e+00 5.3854892783299686e+00 1.4803219328418521e+01 0 1 1
147 1 6.1227438022000624e-01 1.0850612900206174e+01 1.6699110365668709e+01 0 0 1
4803 1 5.2700695002911440e+00 1.2731171081082664e+01 2.3270063726487205e+01 2 0 0
3007 1 4.7313950740604911e+00 5.9137540652751879e+00 1.7293496824101673e+01 0 1 1
3193 1 1.1728676321070377e+01 1.0501699965453847e+01 1.6082559737825033e+01 1 0 0
1331 1 8.9699053176652299e+00 3.4361222043790991e+00 1.7376258614176066e+01 1 0 0
11 1 7.3860140609969607e+00 5.6046602187562096e+00 1.6165666412829239e+01 2 1 1
1946 1 8.8833404154786741e+00 8.0310547870768350e+00 1.5478240714217579e+01 1 0 1
2909 1 1.0913840727085615e+01 3.1216914397372078e+00 1.5099098795337479e+01 1 0 0
1732 1 6.3435238356220214e-01 7.0531145629552339e-01 1.7824872926706643e+01 0 1 0
3346 1 3.6102814167950439e+00 1.0027488304189756e+01 1.5921678392158238e+01 0 0 0
5239 1 1.6048795579802346e+00 4.2951071469669344e+00 1.9146722029561555e+01 1 1 0
4843 1 1.0879254490825128e+01 8.1972204040584415e+00 1.7407785768811543e+01 1 1 0
2060 1 3.2941180221976154e+00 1.5234462180644703e+01 1.7531949502846075e+01 0 0 1
3129 1 5.0490601896772365e+00 1.3354932482068403e+01 1.5716047715582679e+01 0 0 1
3415 1 3.1252263298026568e+00 5.8757900868671420e-01 1.6596154900799633e+01 -1 0 0
4571 1 6.8178055011582366e+00 1.5272598193415961e+01 2.0437107398802926e+01 0 0 1
4646 1 2.1099054086750649e-01 7.9890450732124807e-01 2.4208801917279740e+01 0 -1 0
6158 1 2.5136782364334378e+00 1.5188505044499703e+01 2.4125343474064792e+01 0 1 1
4998 1 4.5004384432484041e+00 3.8658622813124390e+00 1.9249934759929744e+01 0 1 0
6228 1 8.9789819460701548e+00 4.5355886833212082e+00 1.9924272191111989e+01 1 1 1
289 1 1.1881056538670915e+00 4.9507530114060740e+00 1.4753828527284673e+01 1 0 1
4444 1 1.0368768716245306e+01 2.3365011436145373e+00 2.1231501805264877e+01 1 0 1
4815 1 1.7834467573895654e+00 7.6758711537954945e+00 2.1213451089433541e+01 0 0 0
4941 1 5.2254725047315933e+00 8.9917107202066280e+00 2.0691932554809846e+01 0 2 0
129 1 4.6385196788424254e+00 8.5462032006430082e+00 1.7993687622346144e+01 1 0 0
4876 1 3.4510695656022734e+00 1.2279203261146343e+01 1.8006986200280661e+01 -1 1 0
3223 1 7.3388855116604876e+00 9.5849595657627855e+00 1.7676975063282761e+01 0 0 1
3264 1 7.4283988446151827e+00 1.2207878856143072e+01 1.6792995918769023e+01 1 1 1
1785 1 8.0901453965111312e+00 1.2738640667670767e+01 1.9461860717906056e+01 0 1 0
3273 1 9.2112277235149853e-01 1.1298065364253361e+01 1.9631685044600427e+01 1 1 1
3387 1 9.6024389601206135e+00 9.3213701651084833e+00 1.9790308133429818e+01 0 0 0
3614 1 1.1700332884786157e+01 1.1086391061366164e+01 2.0281819258553416e+01 0 2 0
1308 1 9.2828559010042895e+00 1.1215700664037721e+01 1.4885981499914966e+01 0 -1 1
2015 1 4.7514261219812211e+00 1.2991462491292749e+01 2.0497183845210866e+01 0 1 0
4924 1 6.6172423140757664e+00 8.5996070603144386e+00 2.4379748993065476e+01 0 1 1
3628 1 1.1479837783983299e-01 3.5092762475918984e+00 1.6780685286794316e+01 0 1 0
1704 1 9.1638947932337533e+00 1.5882189033826171e+01 2.1539382322646013e+01 0 1 0
375 1 3.4497703100568683e-01 1.3741558033387429e+01 2.1014327705653326e+01 1 1 0
344 1 1.0213571990604899e+01 1.2920420754145423e+01 2.1398594728067533e+01 2 1 1
3324 1 1.1609716255898099e+00 2.8381786461688019e-01 2.0646952849710619e+01 0 1 0
6178 1 2.1496886634304064e+00 6.8310037819385672e+00 1.8748050980012831e+01 1 -1 0
1860 1 3.3210005196807657e+00 6.7833054727394835e+00 2.3910520106980336e+01 0 1 0
6093 1 8.0118285029934029e+00 4.1047026641398290e+00 2.3943883606359204e+01 0 1 1
4938 1 6.4791884447442332e+00 4.5629444101216396e+00 2.1305294825842239e+01 1 1 0
1815 1 1.0027792564951866e+01 2.3434876149183839e+00 2.3973570164886837e+01 1 1 0
4977 1 3.1155489339579105e+00 1.1064236758133319e+01 2.3859137247372040e+01 0 0 0
5192 1 1.1060338930519295e+01 8.0981214644375434e+00 2.4736708533211026e+01 1 0 0
1798 1 1.2524421281315929e+00 8.4858118614009079e+00 2.4439178036750960e+01 1 0 0
4642 1 1.0477035345721559e+01 1.3461649004544167e+01 1.6680767015800470e+01 1 1 1
1907 1 9.7613927017548363e+00 1.2545864833572049e+01 2.4174264602488705e+01 0 0 1
1846 1 5.5684804716050431e+00 7.0196124759343128e+00 2.2348402092199183e+01 1 1 0
5093 1 8.7105288116272970e+00 6.8221161228629068e+00 2.4200977656810952e+01 1 0 1
3335 1 9.6348880234406786e-01 1.2798918376238397e+01 2.3677097858516735e+01 1 0 0
1322 1 9.9576444325288129e+00 1.5215753972081911e+01 2.4297756936910304e+01 1 2 1
3452 1 9.5847558511909181e+00 6.8798428375111795e+00 2.1360640446421630e+01 1 0 1
6250 1 2.9201170059061918e+00 2.5665372656675709e+00 2.1416058300287958e+01 1 0 1
3161 1 2.8631756737756722e+00 1.0222502425916105e+01 2.1070682685761792e+01 1 1 1
2077 1 6.3345518459443451e+00 9.7977301351959536e+00 1.4567380019478724e+01 1 -1 -1
315 1 7.3322485584496500e+00 1.0642244718617496e+01 2.0835768957794855e+01 -1 1 1
1878 1 7.3057666733951390e+00 1.1315037218703178e+01 2.3814308787771999e+01 1 2 0
1455 1 2.5703934732648555e+00 1.5171305223509158e+01 2.0273624564790062e+01 0 1 1
1682 1 4.8779445608372241e+00 5.3506655047551654e-01 2.4557478722779120e+01 0 1 0
5095 1 5.7891307261414831e+00 2.0739135526058727e+00 2.2418759092780022e+01 -1 1 0
5178 1 5.2949298197919470e+00 1.5031169274294260e+01 2.4734916822838795e+01 1 0 0
2952 1 1.1700220198056277e+01 1.0981307520901339e+01 2.4481604902960267e+01 1 0 1
4778 1 1.1298877284939490e+01 4.7836360483450657e-01 1.4217255870026978e+01 0 1 0
552 2 0.0000000000000000e+00 2.8417180249513345e+00 2.6876592230248331e+01 0 0 0
554 2 0.0000000000000000e+00 0.0000000000000000e+00 2.6876592230248331e+01 0 0 0
556 2 1.2305000000000001e+00 7.1042950623783474e-01 2.6876592230248331e+01 0 0 0
563 2 1.2305000000000001e+00 2.1312885187134998e+00 2.6876592230248331e+01 0 0 0
565 2 2.4610000000000003e+00 2.8417180249513345e+00 2.6876592230248331e+01 0 0 0
567 2 2.4610000000000003e+00 0.0000000000000000e+00 2.6876592230248331e+01 0 0 0
569 2 3.6915000000000004e+00 7.1042950623783474e-01 2.6876592230248331e+01 0 0 0
584 2 3.6914999999999996e+00 2.1312885187134998e+00 2.6876592230248331e+01 0 0 0
586 2 4.9220000000000006e+00 2.8417180249513332e+00 2.6876592230248331e+01 0 0 0
588 2 4.9220000000000006e+00 0.0000000000000000e+00 2.6876592230248331e+01 0 0 0
590 2 6.1524999999999999e+00 7.1042950623783407e-01 2.6876592230248331e+01 0 0 0
613 2 6.1524999999999999e+00 2.1312885187134989e+00 2.6876592230248331e+01 0 0 0
615 2 7.3829999999999991e+00 2.8417180249513345e+00 2.6876592230248331e+01 0 0 0
617 2 7.3829999999999991e+00 0.0000000000000000e+00 2.6876592230248331e+01 0 0 0
619 2 8.6134999999999984e+00 7.1042950623783407e-01 2.6876592230248331e+01 0 0 0
650 2 8.6134999999999984e+00 2.1312885187135002e+00 2.6876592230248331e+01 0 0 0
652 2 9.8440000000000012e+00 2.8417180249513332e+00 2.6876592230248331e+01 0 0 0
654 2 9.8440000000000012e+00 0.0000000000000000e+00 2.6876592230248331e+01 0 0 0
656 2 1.1074500000000002e+01 7.1042950623783330e-01 2.6876592230248331e+01 0 0 0
695 2 1.1074500000000002e+01 2.1312885187135002e+00 2.6876592230248331e+01 0 0 0
559 2 0.0000000000000000e+00 4.2625770374269996e+00 2.6876592230248331e+01 0 0 0
561 2 1.2305000000000001e+00 4.9730065436648339e+00 2.6876592230248331e+01 0 0 0
576 2 1.2305000000000001e+00 6.3938655561404980e+00 2.6876592230248331e+01 0 0 0
580 2 2.4610000000000003e+00 4.2625770374269996e+00 2.6876592230248331e+01 0 0 0
582 2 3.6914999999999996e+00 4.9730065436648339e+00 2.6876592230248331e+01 0 0 0
605 2 3.6914999999999996e+00 6.3938655561404980e+00 2.6876592230248331e+01 0 0 0
557 2 0.0000000000000000e+00 7.1042950623783341e+00 2.6876592230248331e+01 0 0 0
578 2 2.4610000000000003e+00 7.1042950623783341e+00 2.6876592230248331e+01 0 0 0
609 2 4.9220000000000006e+00 4.2625770374269978e+00 2.6876592230248331e+01 0 0 0
611 2 6.1524999999999999e+00 4.9730065436648339e+00 2.6876592230248331e+01 0 0 0
642 2 6.1524999999999999e+00 6.3938655561404980e+00 2.6876592230248331e+01 0 0 0
646 2 7.3829999999999991e+00 4.2625770374269996e+00 2.6876592230248331e+01 0 0 0
607 2 4.9220000000000006e+00 7.1042950623783341e+00 2.6876592230248331e+01 0 0 0
644 2 7.3830000000000009e+00 7.1042950623783341e+00 2.6876592230248331e+01 0 0 0
648 2 8.6135000000000002e+00 4.9730065436648339e+00 2.6876592230248331e+01 0 0 0
687 2 8.6135000000000002e+00 6.3938655561404980e+00 2.6876592230248331e+01 0 0 0
691 2 9.8440000000000012e+00 4.2625770374270004e+00 2.6876592230248331e+01 0 0 0
693 2 1.1074500000000002e+01 4.9730065436648339e+00 2.6876592230248331e+01 0 0 0
734 2 1.1074500000000002e+01 6.3938655561404980e+00 2.6876592230248331e+01 0 0 0
689 2 9.8440000000000012e+00 7.1042950623783341e+00 2.6876592230248331e+01 0 0 0
572 2 0.0000000000000000e+00 8.5251540748539991e+00 2.6876592230248331e+01 0 0 0
574 2 1.2305000000000001e+00 9.2355835810918343e+00 2.6876592230248331e+01 0 0 0
601 2 2.4610000000000003e+00 8.5251540748539991e+00 2.6876592230248331e+01 0 0 0
603 2 3.6915000000000004e+00 9.2355835810918343e+00 2.6876592230248331e+01 0 0 0
570 2 0.0000000000000000e+00 1.1366872099805333e+01 2.6876592230248331e+01 0 0 0
597 2 1.2305000000000001e+00 1.0656442593567498e+01 2.6876592230248331e+01 0 0 0
599 2 2.4610000000000003e+00 1.1366872099805333e+01 2.6876592230248331e+01 0 0 0
634 2 3.6914999999999996e+00 1.0656442593567499e+01 2.6876592230248331e+01 0 0 0
638 2 4.9220000000000006e+00 8.5251540748539991e+00 2.6876592230248331e+01 0 0 0
640 2 6.1524999999999999e+00 9.2355835810918343e+00 2.6876592230248331e+01 0 0 0
683 2 7.3830000000000009e+00 8.5251540748539991e+00 2.6876592230248331e+01 0 0 0
636 2 4.9220000000000006e+00 1.1366872099805333e+01 2.6876592230248331e+01 0 0 0
679 2 6.1524999999999999e+00 1.0656442593567499e+01 2.6876592230248331e+01 0 0 0
681 2 7.3829999999999991e+00 1.1366872099805333e+01 2.6876592230248331e+01 0 0 0
685 2 8.6134999999999984e+00 9.2355835810918343e+00 2.6876592230248331e+01 0 0 0
730 2 9.8440000000000012e+00 8.5251540748539956e+00 2.6876592230248331e+01 0 0 0
732 2 1.1074500000000002e+01 9.2355835810918343e+00 2.6876592230248331e+01 0 0 0
726 2 8.6134999999999984e+00 1.0656442593567498e+01 2.6876592230248331e+01 0 0 0
728 2 9.8440000000000012e+00 1.1366872099805333e+01 2.6876592230248331e+01 0 0 0
773 2 1.1074500000000002e+01 1.0656442593567498e+01 2.6876592230248331e+01 0 0 0
775 2 1.2304999999999998e+01 1.1366872099805333e+01 2.6876592230248331e+01 0 0 0
992 2 9.8440000000000012e+00 1.5629449137232328e+01 3.3185407769748650e+01 0 0 0
593 2 0.0000000000000000e+00 1.2787731112280996e+01 2.6876592230248331e+01 0 0 0
595 2 1.2305000000000001e+00 1.3498160618518829e+01 2.6876592230248331e+01 0 0 0
630 2 2.4610000000000003e+00 1.2787731112280996e+01 2.6876592230248331e+01 0 0 0
632 2 3.6915000000000004e+00 1.3498160618518829e+01 2.6876592230248331e+01 0 0 0
591 2 0.0000000000000000e+00 1.5629449137232333e+01 2.6876592230248331e+01 0 0 0
626 2 1.2305000000000001e+00 1.4919019630994494e+01 2.6876592230248331e+01 0 0 0
628 2 2.4610000000000003e+00 1.5629449137232328e+01 2.6876592230248331e+01 0 0 0
671 2 3.6915000000000004e+00 1.4919019630994494e+01 2.6876592230248331e+01 0 0 0
675 2 4.9220000000000006e+00 1.2787731112280996e+01 2.6876592230248331e+01 0 0 0
677 2 6.1524999999999990e+00 1.3498160618518829e+01 2.6876592230248331e+01 0 0 0
722 2 7.3829999999999991e+00 1.2787731112280996e+01 2.6876592230248331e+01 0 0 0
673 2 4.9220000000000006e+00 1.5629449137232333e+01 2.6876592230248331e+01 0 0 0
718 2 6.1524999999999990e+00 1.4919019630994494e+01 2.6876592230248331e+01 0 0 0
720 2 7.3829999999999991e+00 1.5629449137232333e+01 2.6876592230248331e+01 0 0 0
724 2 8.6135000000000002e+00 1.3498160618518835e+01 2.6876592230248331e+01 0 0 0
769 2 9.8440000000000012e+00 1.2787731112280996e+01 2.6876592230248331e+01 0 0 0
771 2 1.1074500000000002e+01 1.3498160618518829e+01 2.6876592230248331e+01 0 0 0
765 2 8.6135000000000002e+00 1.4919019630994494e+01 2.6876592230248331e+01 0 0 0
767 2 9.8440000000000012e+00 1.5629449137232328e+01 2.6876592230248331e+01 0 0 0
807 2 1.1074500000000002e+01 1.4919019630994494e+01 2.6876592230248331e+01 0 0 0
553 2 0.0000000000000000e+00 1.4208590124756650e+00 3.0030999999999395e+01 0 0 0
555 2 0.0000000000000000e+00 0.0000000000000000e+00 3.0030999999999395e+01 0 0 0
564 2 1.2305000000000001e+00 2.1312885187134998e+00 3.0030999999999395e+01 0 0 0
566 2 2.4610000000000003e+00 1.4208590124756650e+00 3.0030999999999395e+01 0 0 0
568 2 2.4610000000000003e+00 0.0000000000000000e+00 3.0030999999999395e+01 0 0 0
585 2 3.6914999999999996e+00 2.1312885187134998e+00 3.0030999999999395e+01 0 0 0
562 2 1.2305000000000001e+00 3.5521475311891644e+00 3.0030999999999395e+01 0 0 0
583 2 3.6914999999999996e+00 3.5521475311891644e+00 3.0030999999999395e+01 0 0 0
587 2 4.9220000000000006e+00 1.4208590124756650e+00 3.0030999999999395e+01 0 0 0
589 2 4.9220000000000006e+00 0.0000000000000000e+00 3.0030999999999395e+01 0 0 0
614 2 6.1524999999999999e+00 2.1312885187134989e+00 3.0030999999999395e+01 0 0 0
616 2 7.3829999999999991e+00 1.4208590124756659e+00 3.0030999999999395e+01 0 0 0
618 2 7.3829999999999991e+00 0.0000000000000000e+00 3.0030999999999395e+01 0 0 0
612 2 6.1524999999999999e+00 3.5521475311891644e+00 3.0030999999999395e+01 0 0 0
651 2 8.6134999999999984e+00 2.1312885187135002e+00 3.0030999999999395e+01 0 0 0
653 2 9.8440000000000012e+00 1.4208590124756659e+00 3.0030999999999395e+01 0 0 0
655 2 9.8440000000000012e+00 0.0000000000000000e+00 3.0030999999999395e+01 0 0 0
696 2 1.1074500000000002e+01 2.1312885187135002e+00 3.0030999999999395e+01 0 0 0
649 2 8.6134999999999984e+00 3.5521475311891657e+00 3.0030999999999395e+01 0 0 0
694 2 1.1074500000000002e+01 3.5521475311891644e+00 3.0030999999999395e+01 0 0 0
558 2 0.0000000000000000e+00 5.6834360499026637e+00 3.0030999999999395e+01 0 0 0
560 2 0.0000000000000000e+00 4.2625770374269996e+00 3.0030999999999395e+01 0 0 0
577 2 1.2305000000000001e+00 6.3938655561404980e+00 3.0030999999999395e+01 0 0 0
579 2 2.4610000000000003e+00 5.6834360499026637e+00 3.0030999999999395e+01 0 0 0
581 2 2.4610000000000003e+00 4.2625770374269996e+00 3.0030999999999395e+01 0 0 0
606 2 3.6914999999999996e+00 6.3938655561404980e+00 3.0030999999999395e+01 0 0 0
575 2 1.2305000000000001e+00 7.8147245686161639e+00 3.0030999999999395e+01 0 0 0
604 2 3.6914999999999996e+00 7.8147245686161639e+00 3.0030999999999395e+01 0 0 0
608 2 4.9220000000000006e+00 5.6834360499026637e+00 3.0030999999999395e+01 0 0 0
610 2 4.9220000000000006e+00 4.2625770374269978e+00 3.0030999999999395e+01 0 0 0
643 2 6.1524999999999999e+00 6.3938655561404980e+00 3.0030999999999395e+01 0 0 0
645 2 7.3829999999999991e+00 5.6834360499026637e+00 3.0030999999999395e+01 0 0 0
647 2 7.3829999999999991e+00 4.2625770374269996e+00 3.0030999999999395e+01 0 0 0
641 2 6.1524999999999999e+00 7.8147245686161639e+00 3.0030999999999395e+01 0 0 0
688 2 8.6135000000000002e+00 6.3938655561404980e+00 3.0030999999999395e+01 0 0 0
690 2 9.8440000000000012e+00 5.6834360499026637e+00 3.0030999999999395e+01 0 0 0
692 2 9.8440000000000012e+00 4.2625770374270004e+00 3.0030999999999395e+01 0 0 0
735 2 1.1074500000000002e+01 6.3938655561404980e+00 3.0030999999999395e+01 0 0 0
686 2 8.6135000000000002e+00 7.8147245686161639e+00 3.0030999999999395e+01 0 0 0
733 2 1.1074500000000002e+01 7.8147245686161639e+00 3.0030999999999395e+01 0 0 0
571 2 0.0000000000000000e+00 9.9460130873296642e+00 3.0030999999999395e+01 0 0 0
573 2 0.0000000000000000e+00 8.5251540748539991e+00 3.0030999999999395e+01 0 0 0
600 2 2.4610000000000003e+00 9.9460130873296642e+00 3.0030999999999395e+01 0 0 0
602 2 2.4610000000000003e+00 8.5251540748539991e+00 3.0030999999999395e+01 0 0 0
596 2 1.2305000000000001e+00 1.2077301606043163e+01 3.0030999999999395e+01 0 0 0
598 2 1.2305000000000001e+00 1.0656442593567498e+01 3.0030999999999395e+01 0 0 0
633 2 3.6914999999999996e+00 1.2077301606043163e+01 3.0030999999999395e+01 0 0 0
635 2 3.6914999999999996e+00 1.0656442593567499e+01 3.0030999999999395e+01 0 0 0
637 2 4.9220000000000006e+00 9.9460130873296642e+00 3.0030999999999395e+01 0 0 0
639 2 4.9220000000000006e+00 8.5251540748539991e+00 3.0030999999999395e+01 0 0 0
682 2 7.3830000000000009e+00 9.9460130873296642e+00 3.0030999999999395e+01 0 0 0
684 2 7.3830000000000009e+00 8.5251540748539991e+00 3.0030999999999395e+01 0 0 0
678 2 6.1524999999999999e+00 1.2077301606043163e+01 3.0030999999999395e+01 0 0 0
680 2 6.1524999999999999e+00 1.0656442593567499e+01 3.0030999999999395e+01 0 0 0
729 2 9.8440000000000012e+00 9.9460130873296642e+00 3.0030999999999395e+01 0 0 0
731 2 9.8440000000000012e+00 8.5251540748539956e+00 3.0030999999999395e+01 0 0 0
725 2 8.6135000000000002e+00 1.2077301606043163e+01 3.0030999999999395e+01 0 0 0
727 2 8.6134999999999984e+00 1.0656442593567498e+01 3.0030999999999395e+01 0 0 0
772 2 1.1074500000000002e+01 1.2077301606043163e+01 3.0030999999999395e+01 0 0 0
774 2 1.1074500000000002e+01 1.0656442593567498e+01 3.0030999999999395e+01 0 0 0
594 2 0.0000000000000000e+00 1.2787731112280996e+01 3.0030999999999395e+01 0 0 0
631 2 2.4610000000000003e+00 1.2787731112280996e+01 3.0030999999999395e+01 0 0 0
592 2 0.0000000000000000e+00 1.4208590124756663e+01 3.0030999999999395e+01 0 0 0
627 2 1.2305000000000001e+00 1.4919019630994494e+01 3.0030999999999395e+01 0 0 0
629 2 2.4610000000000003e+00 1.4208590124756663e+01 3.0030999999999395e+01 0 0 0
672 2 3.6915000000000004e+00 1.4919019630994494e+01 3.0030999999999395e+01 0 0 0
676 2 4.9220000000000006e+00 1.2787731112280996e+01 3.0030999999999395e+01 0 0 0
723 2 7.3829999999999991e+00 1.2787731112280996e+01 3.0030999999999395e+01 0 0 0
674 2 4.9220000000000006e+00 1.4208590124756663e+01 3.0030999999999395e+01 0 0 0
719 2 6.1524999999999990e+00 1.4919019630994494e+01 3.0030999999999395e+01 0 0 0
721 2 7.3830000000000009e+00 1.4208590124756663e+01 3.0030999999999395e+01 0 0 0
770 2 9.8440000000000012e+00 1.2787731112280996e+01 3.0030999999999395e+01 0 0 0
766 2 8.6135000000000002e+00 1.4919019630994494e+01 3.0030999999999395e+01 0 0 0
768 2 9.8440000000000012e+00 1.4208590124756663e+01 3.0030999999999395e+01 0 0 0
806 2 1.1074500000000002e+01 1.6339878643470161e+01 3.0030999999999395e+01 0 0 0
808 2 1.1074500000000002e+01 1.4919019630994494e+01 3.0030999999999395e+01 0 0 0
810 2 1.2304999999999998e+01 1.4208590124756658e+01 3.0030999999999395e+01 0 0 0
881 2 0.0000000000000000e+00 2.8417180249513345e+00 3.3185407769748650e+01 0 0 0
882 2 0.0000000000000000e+00 0.0000000000000000e+00 3.3185407769748650e+01 0 0 0
883 2 1.2305000000000001e+00 7.1042950623783474e-01 3.3185407769748650e+01 0 0 0
887 2 1.2305000000000001e+00 2.1312885187134998e+00 3.3185407769748650e+01 0 0 0
888 2 2.4610000000000003e+00 2.8417180249513345e+00 3.3185407769748650e+01 0 0 0
889 2 2.4610000000000003e+00 0.0000000000000000e+00 3.3185407769748650e+01 0 0 0
890 2 3.6915000000000004e+00 7.1042950623783474e-01 3.3185407769748650e+01 0 0 0
898 2 3.6914999999999996e+00 2.1312885187134998e+00 3.3185407769748650e+01 0 0 0
899 2 4.9220000000000006e+00 2.8417180249513332e+00 3.3185407769748650e+01 0 0 0
900 2 4.9220000000000006e+00 0.0000000000000000e+00 3.3185407769748650e+01 0 0 0
901 2 6.1524999999999999e+00 7.1042950623783407e-01 3.3185407769748650e+01 0 0 0
913 2 6.1524999999999999e+00 2.1312885187134989e+00 3.3185407769748650e+01 0 0 0
914 2 7.3829999999999991e+00 2.8417180249513345e+00 3.3185407769748650e+01 0 0 0
915 2 7.3829999999999991e+00 0.0000000000000000e+00 3.3185407769748650e+01 0 0 0
916 2 8.6134999999999984e+00 7.1042950623783407e-01 3.3185407769748650e+01 0 0 0
932 2 8.6134999999999984e+00 2.1312885187135002e+00 3.3185407769748650e+01 0 0 0
933 2 9.8440000000000012e+00 2.8417180249513332e+00 3.3185407769748650e+01 0 0 0
934 2 9.8440000000000012e+00 0.0000000000000000e+00 3.3185407769748650e+01 0 0 0
935 2 1.1074500000000002e+01 7.1042950623783330e-01 3.3185407769748650e+01 0 0 0
955 2 1.1074500000000002e+01 2.1312885187135002e+00 3.3185407769748650e+01 0 0 0
885 2 0.0000000000000000e+00 4.2625770374269996e+00 3.3185407769748650e+01 0 0 0
886 2 1.2305000000000001e+00 4.9730065436648339e+00 3.3185407769748650e+01 0 0 0
894 2 1.2305000000000001e+00 6.3938655561404980e+00 3.3185407769748650e+01 0 0 0
896 2 2.4610000000000003e+00 4.2625770374269996e+00 3.3185407769748650e+01 0 0 0
897 2 3.6914999999999996e+00 4.9730065436648339e+00 3.3185407769748650e+01 0 0 0
909 2 3.6914999999999996e+00 6.3938655561404980e+00 3.3185407769748650e+01 0 0 0
884 2 0.0000000000000000e+00 7.1042950623783341e+00 3.3185407769748650e+01 0 0 0
895 2 2.4610000000000003e+00 7.1042950623783341e+00 3.3185407769748650e+01 0 0 0
911 2 4.9220000000000006e+00 4.2625770374269978e+00 3.3185407769748650e+01 0 0 0
912 2 6.1524999999999999e+00 4.9730065436648339e+00 3.3185407769748650e+01 0 0 0
928 2 6.1524999999999999e+00 6.3938655561404980e+00 3.3185407769748650e+01 0 0 0
930 2 7.3829999999999991e+00 4.2625770374269996e+00 3.3185407769748650e+01 0 0 0
910 2 4.9220000000000006e+00 7.1042950623783341e+00 3.3185407769748650e+01 0 0 0
929 2 7.3830000000000009e+00 7.1042950623783341e+00 3.3185407769748650e+01 0 0 0
931 2 8.6135000000000002e+00 4.9730065436648339e+00 3.3185407769748650e+01 0 0 0
951 2 8.6135000000000002e+00 6.3938655561404980e+00 3.3185407769748650e+01 0 0 0
953 2 9.8440000000000012e+00 4.2625770374270004e+00 3.3185407769748650e+01 0 0 0
954 2 1.1074500000000002e+01 4.9730065436648339e+00 3.3185407769748650e+01 0 0 0
975 2 1.1074500000000002e+01 6.3938655561404980e+00 3.3185407769748650e+01 0 0 0
952 2 9.8440000000000012e+00 7.1042950623783341e+00 3.3185407769748650e+01 0 0 0
892 2 0.0000000000000000e+00 8.5251540748539991e+00 3.3185407769748650e+01 0 0 0
893 2 1.2305000000000001e+00 9.2355835810918343e+00 3.3185407769748650e+01 0 0 0
907 2 2.4610000000000003e+00 8.5251540748539991e+00 3.3185407769748650e+01 0 0 0
908 2 3.6915000000000004e+00 9.2355835810918343e+00 3.3185407769748650e+01 0 0 0
891 2 0.0000000000000000e+00 1.1366872099805333e+01 3.3185407769748650e+01 0 0 0
905 2 1.2305000000000001e+00 1.0656442593567498e+01 3.3185407769748650e+01 0 0 0
906 2 2.4610000000000003e+00 1.1366872099805333e+01 3.3185407769748650e+01 0 0 0
924 2 3.6914999999999996e+00 1.0656442593567499e+01 3.3185407769748650e+01 0 0 0
926 2 4.9220000000000006e+00 8.5251540748539991e+00 3.3185407769748650e+01 0 0 0
927 2 6.1524999999999999e+00 9.2355835810918343e+00 3.3185407769748650e+01 0 0 0
949 2 7.3830000000000009e+00 8.5251540748539991e+00 3.3185407769748650e+01 0 0 0
925 2 4.9220000000000006e+00 1.1366872099805333e+01 3.3185407769748650e+01 0 0 0
947 2 6.1524999999999999e+00 1.0656442593567499e+01 3.3185407769748650e+01 0 0 0
948 2 7.3829999999999991e+00 1.1366872099805333e+01 3.3185407769748650e+01 0 0 0
950 2 8.6134999999999984e+00 9.2355835810918343e+00 3.3185407769748650e+01 0 0 0
973 2 9.8440000000000012e+00 8.5251540748539956e+00 3.3185407769748650e+01 0 0 0