LAMMPS data file via write_data, version 16 Mar 2018, timestep = 8000000

4537 atoms
2 atom types

0.0000000000000000e+00 4.9219999999999999e+01 xlo xhi
0.0000000000000000e+00 4.9019635930410494e+01 ylo yhi
7.1430107665710096e-01 3.3225698923334406e+01 zlo zhi

Masses

1 18.015
2 12.01

Atoms # atomic

96 2 0.0000000000000000e+00 2.8417180249513345e+00 2.4641620338915837e+00 0 0 0
98 2 0.0000000000000000e+00 0.0000000000000000e+00 2.4641620338915837e+00 0 0 0
100 2 1.2305000000000001e+00 7.1042950623783474e-01 2.4641620338915837e+00 0 0 0
107 2 1.2305000000000001e+00 2.1312885187134998e+00 2.4641620338915837e+00 0 0 0
109 2 2.4610000000000003e+00 2.8417180249513345e+00 2.4641620338915837e+00 0 0 0
111 2 2.4610000000000003e+00 0.0000000000000000e+00 2.4641620338915837e+00 0 0 0
113 2 3.6915000000000004e+00 7.1042950623783474e-01 2.4641620338915837e+00 0 0 0
128 2 3.6914999999999996e+00 2.1312885187134998e+00 2.4641620338915837e+00 0 0 0
130 2 4.9220000000000006e+00 2.8417180249513332e+00 2.4641620338915837e+00 0 0 0
132 2 4.9220000000000006e+00 0.0000000000000000e+00 2.4641620338915837e+00 0 0 0
134 2 6.1524999999999999e+00 7.1042950623783407e-01 2.4641620338915837e+00 0 0 0
157 2 6.1524999999999999e+00 2.1312885187134989e+00 2.4641620338915837e+00 0 0 0
159 2 7.3829999999999991e+00 2.8417180249513345e+00 2.4641620338915837e+00 0 0 0
161 2 7.3829999999999991e+00 0.0000000000000000e+00 2.4641620338915837e+00 0 0 0
163 2 8.6134999999999984e+00 7.1042950623783407e-01 2.4641620338915837e+00 0 0 0
194 2 8.6134999999999984e+00 2.1312885187135002e+00 2.4641620338915837e+00 0 0 0
196 2 9.8440000000000012e+00 2.8417180249513332e+00 2.4641620338915837e+00 0 0 0
198 2 9.8440000000000012e+00 0.0000000000000000e+00 2.4641620338915837e+00 0 0 0
200 2 1.1074500000000002e+01 7.1042950623783330e-01 2.4641620338915837e+00 0 0 0
239 2 1.1074500000000002e+01 2.1312885187135002e+00 2.4641620338915837e+00 0 0 0
103 2 0.0000000000000000e+00 4.2625770374269996e+00 2.4641620338915837e+00 0 0 0
105 2 1.2305000000000001e+00 4.9730065436648339e+00 2.4641620338915837e+00 0 0 0
120 2 1.2305000000000001e+00 6.3938655561404980e+00 2.4641620338915837e+00 0 0 0
124 2 2.4610000000000003e+00 4.2625770374269996e+00 2.4641620338915837e+00 0 0 0
126 2 3.6914999999999996e+00 4.9730065436648339e+00 2.4641620338915837e+00 0 0 0
149 2 3.6914999999999996e+00 6.3938655561404980e+00 2.4641620338915837e+00 0 0 0
101 2 0.0000000000000000e+00 7.1042950623783341e+00 2.4641620338915837e+00 0 0 0
122 2 2.4610000000000003e+00 7.1042950623783341e+00 2.4641620338915837e+00 0 0 0
153 2 4.9220000000000006e+00 4.2625770374269978e+00 2.4641620338915837e+00 0 0 0
155 2 6.1524999999999999e+00 4.9730065436648339e+00 2.4641620338915837e+00 0 0 0
186 2 6.1524999999999999e+00 6.3938655561404980e+00 2.4641620338915837e+00 0 0 0
190 2 7.3829999999999991e+00 4.2625770374269996e+00 2.4641620338915837e+00 0 0 0
151 2 4.9220000000000006e+00 7.1042950623783341e+00 2.4641620338915837e+00 0 0 0
188 2 7.3830000000000009e+00 7.1042950623783341e+00 2.4641620338915837e+00 0 0 0
192 2 8.6135000000000002e+00 4.9730065436648339e+00 2.4641620338915837e+00 0 0 0
231 2 8.6135000000000002e+00 6.3938655561404980e+00 2.4641620338915837e+00 0 0 0
235 2 9.8440000000000012e+00 4.2625770374270004e+00 2.4641620338915837e+00 0 0 0
237 2 1.1074500000000002e+01 4.9730065436648339e+00 2.4641620338915837e+00 0 0 0
278 2 1.1074500000000002e+01 6.3938655561404980e+00 2.4641620338915837e+00 0 0 0
233 2 9.8440000000000012e+00 7.1042950623783341e+00 2.4641620338915837e+00 0 0 0
116 2 0.0000000000000000e+00 8.5251540748539991e+00 2.4641620338915837e+00 0 0 0
118 2 1.2305000000000001e+00 9.2355835810918343e+00 2.4641620338915837e+00 0 0 0
145 2 2.4610000000000003e+00 8.5251540748539991e+00 2.4641620338915837e+00 0 0 0
147 2 3.6915000000000004e+00 9.2355835810918343e+00 2.4641620338915837e+00 0 0 0
114 2 0.0000000000000000e+00 1.1366872099805333e+01 2.4641620338915837e+00 0 0 0
141 2 1.2305000000000001e+00 1.0656442593567498e+01 2.4641620338915837e+00 0 0 0
143 2 2.4610000000000003e+00 1.1366872099805333e+01 2.4641620338915837e+00 0 0 0
178 2 3.6914999999999996e+00 1.0656442593567499e+01 2.4641620338915837e+00 0 0 0
182 2 4.9220000000000006e+00 8.5251540748539991e+00 2.4641620338915837e+00 0 0 0
184 2 6.1524999999999999e+00 9.2355835810918343e+00 2.4641620338915837e+00 0 0 0
227 2 7.3830000000000009e+00 8.5251540748539991e+00 2.4641620338915837e+00 0 0 0
180 2 4.9220000000000006e+00 1.1366872099805333e+01 2.4641620338915837e+00 0 0 0
223 2 6.1524999999999999e+00 1.0656442593567499e+01 2.4641620338915837e+00 0 0 0
225 2 7.3829999999999991e+00 1.1366872099805333e+01 2.4641620338915837e+00 0 0 0
229 2 8.6134999999999984e+00 9.2355835810918343e+00 2.4641620338915837e+00 0 0 0
274 2 9.8440000000000012e+00 8.5251540748539956e+00 2.4641620338915837e+00 0 0 0
276 2 1.1074500000000002e+01 9.2355835810918343e+00 2.4641620338915837e+00 0 0 0
270 2 8.6134999999999984e+00 1.0656442593567498e+01 2.4641620338915837e+00 0 0 0
272 2 9.8440000000000012e+00 1.1366872099805333e+01 2.4641620338915837e+00 0 0 0
317 2 1.1074500000000002e+01 1.0656442593567498e+01 2.4641620338915837e+00 0 0 0
319 2 1.2304999999999998e+01 1.1366872099805333e+01 2.4641620338915837e+00 0 0 0
97 2 0.0000000000000000e+00 1.4208590124756650e+00 5.6455247840580203e+00 0 0 0
99 2 0.0000000000000000e+00 0.0000000000000000e+00 5.6455247840580203e+00 0 0 0
108 2 1.2305000000000001e+00 2.1312885187134998e+00 5.6455247840580203e+00 0 0 0
110 2 2.4610000000000003e+00 1.4208590124756650e+00 5.6455247840580203e+00 0 0 0
112 2 2.4610000000000003e+00 0.0000000000000000e+00 5.6455247840580203e+00 0 0 0
129 2 3.6914999999999996e+00 2.1312885187134998e+00 5.6455247840580203e+00 0 0 0
425 2 0.0000000000000000e+00 2.8417180249513345e+00 8.8268875342267652e+00 0 0 0
426 2 0.0000000000000000e+00 0.0000000000000000e+00 8.8268875342267652e+00 0 0 0
427 2 1.2305000000000001e+00 7.1042950623783474e-01 8.8268875342267652e+00 0 0 0
431 2 1.2305000000000001e+00 2.1312885187134998e+00 8.8268875342267652e+00 0 0 0
432 2 2.4610000000000003e+00 2.8417180249513345e+00 8.8268875342267652e+00 0 0 0
433 2 2.4610000000000003e+00 0.0000000000000000e+00 8.8268875342267652e+00 0 0 0
434 2 3.6915000000000004e+00 7.1042950623783474e-01 8.8268875342267652e+00 0 0 0
442 2 3.6914999999999996e+00 2.1312885187134998e+00 8.8268875342267652e+00 0 0 0
106 2 1.2305000000000001e+00 3.5521475311891644e+00 5.6455247840580203e+00 0 0 0
127 2 3.6914999999999996e+00 3.5521475311891644e+00 5.6455247840580203e+00 0 0 0
131 2 4.9220000000000006e+00 1.4208590124756650e+00 5.6455247840580203e+00 0 0 0
133 2 4.9220000000000006e+00 0.0000000000000000e+00 5.6455247840580203e+00 0 0 0
158 2 6.1524999999999999e+00 2.1312885187134989e+00 5.6455247840580203e+00 0 0 0
160 2 7.3829999999999991e+00 1.4208590124756659e+00 5.6455247840580203e+00 0 0 0
162 2 7.3829999999999991e+00 0.0000000000000000e+00 5.6455247840580203e+00 0 0 0
443 2 4.9220000000000006e+00 2.8417180249513332e+00 8.8268875342267652e+00 0 0 0
444 2 4.9220000000000006e+00 0.0000000000000000e+00 8.8268875342267652e+00 0 0 0
445 2 6.1524999999999999e+00 7.1042950623783407e-01 8.8268875342267652e+00 0 0 0
457 2 6.1524999999999999e+00 2.1312885187134989e+00 8.8268875342267652e+00 0 0 0
458 2 7.3829999999999991e+00 2.8417180249513345e+00 8.8268875342267652e+00 0 0 0
459 2 7.3829999999999991e+00 0.0000000000000000e+00 8.8268875342267652e+00 0 0 0
156 2 6.1524999999999999e+00 3.5521475311891644e+00 5.6455247840580203e+00 0 0 0
195 2 8.6134999999999984e+00 2.1312885187135002e+00 5.6455247840580203e+00 0 0 0
197 2 9.8440000000000012e+00 1.4208590124756659e+00 5.6455247840580203e+00 0 0 0
199 2 9.8440000000000012e+00 0.0000000000000000e+00 5.6455247840580203e+00 0 0 0
240 2 1.1074500000000002e+01 2.1312885187135002e+00 5.6455247840580203e+00 0 0 0
460 2 8.6134999999999984e+00 7.1042950623783407e-01 8.8268875342267652e+00 0 0 0
476 2 8.6134999999999984e+00 2.1312885187135002e+00 8.8268875342267652e+00 0 0 0
477 2 9.8440000000000012e+00 2.8417180249513332e+00 8.8268875342267652e+00 0 0 0
478 2 9.8440000000000012e+00 0.0000000000000000e+00 8.8268875342267652e+00 0 0 0
479 2 1.1074500000000002e+01 7.1042950623783330e-01 8.8268875342267652e+00 0 0 0
499 2 1.1074500000000002e+01 2.1312885187135002e+00 8.8268875342267652e+00 0 0 0
193 2 8.6134999999999984e+00 3.5521475311891657e+00 5.6455247840580203e+00 0 0 0
238 2 1.1074500000000002e+01 3.5521475311891644e+00 5.6455247840580203e+00 0 0 0
102 2 0.0000000000000000e+00 5.6834360499026637e+00 5.6455247840580203e+00 0 0 0
104 2 0.0000000000000000e+00 4.2625770374269996e+00 5.6455247840580203e+00 0 0 0
121 2 1.2305000000000001e+00 6.3938655561404980e+00 5.6455247840580203e+00 0 0 0
123 2 2.4610000000000003e+00 5.6834360499026637e+00 5.6455247840580203e+00 0 0 0
125 2 2.4610000000000003e+00 4.2625770374269996e+00 5.6455247840580203e+00 0 0 0
150 2 3.6914999999999996e+00 6.3938655561404980e+00 5.6455247840580203e+00 0 0 0
429 2 0.0000000000000000e+00 4.2625770374269996e+00 8.8268875342267652e+00 0 0 0
430 2 1.2305000000000001e+00 4.9730065436648339e+00 8.8268875342267652e+00 0 0 0
438 2 1.2305000000000001e+00 6.3938655561404980e+00 8.8268875342267652e+00 0 0 0
440 2 2.4610000000000003e+00 4.2625770374269996e+00 8.8268875342267652e+00 0 0 0
441 2 3.6914999999999996e+00 4.9730065436648339e+00 8.8268875342267652e+00 0 0 0
453 2 3.6914999999999996e+00 6.3938655561404980e+00 8.8268875342267652e+00 0 0 0
119 2 1.2305000000000001e+00 7.8147245686161639e+00 5.6455247840580203e+00 0 0 0
148 2 3.6914999999999996e+00 7.8147245686161639e+00 5.6455247840580203e+00 0 0 0
428 2 0.0000000000000000e+00 7.1042950623783341e+00 8.8268875342267652e+00 0 0 0
439 2 2.4610000000000003e+00 7.1042950623783341e+00 8.8268875342267652e+00 0 0 0
152 2 4.9220000000000006e+00 5.6834360499026637e+00 5.6455247840580203e+00 0 0 0
154 2 4.9220000000000006e+00 4.2625770374269978e+00 5.6455247840580203e+00 0 0 0
187 2 6.1524999999999999e+00 6.3938655561404980e+00 5.6455247840580203e+00 0 0 0
189 2 7.3829999999999991e+00 5.6834360499026637e+00 5.6455247840580203e+00 0 0 0
191 2 7.3829999999999991e+00 4.2625770374269996e+00 5.6455247840580203e+00 0 0 0
455 2 4.9220000000000006e+00 4.2625770374269978e+00 8.8268875342267652e+00 0 0 0
456 2 6.1524999999999999e+00 4.9730065436648339e+00 8.8268875342267652e+00 0 0 0
472 2 6.1524999999999999e+00 6.3938655561404980e+00 8.8268875342267652e+00 0 0 0
474 2 7.3829999999999991e+00 4.2625770374269996e+00 8.8268875342267652e+00 0 0 0
185 2 6.1524999999999999e+00 7.8147245686161639e+00 5.6455247840580203e+00 0 0 0
454 2 4.9220000000000006e+00 7.1042950623783341e+00 8.8268875342267652e+00 0 0 0
473 2 7.3830000000000009e+00 7.1042950623783341e+00 8.8268875342267652e+00 0 0 0
232 2 8.6135000000000002e+00 6.3938655561404980e+00 5.6455247840580203e+00 0 0 0
234 2 9.8440000000000012e+00 5.6834360499026637e+00 5.6455247840580203e+00 0 0 0
236 2 9.8440000000000012e+00 4.2625770374270004e+00 5.6455247840580203e+00 0 0 0
279 2 1.1074500000000002e+01 6.3938655561404980e+00 5.6455247840580203e+00 0 0 0
475 2 8.6135000000000002e+00 4.9730065436648339e+00 8.8268875342267652e+00 0 0 0
495 2 8.6135000000000002e+00 6.3938655561404980e+00 8.8268875342267652e+00 0 0 0
497 2 9.8440000000000012e+00 4.2625770374270004e+00 8.8268875342267652e+00 0 0 0
498 2 1.1074500000000002e+01 4.9730065436648339e+00 8.8268875342267652e+00 0 0 0
519 2 1.1074500000000002e+01 6.3938655561404980e+00 8.8268875342267652e+00 0 0 0
230 2 8.6135000000000002e+00 7.8147245686161639e+00 5.6455247840580203e+00 0 0 0
277 2 1.1074500000000002e+01 7.8147245686161639e+00 5.6455247840580203e+00 0 0 0
496 2 9.8440000000000012e+00 7.1042950623783341e+00 8.8268875342267652e+00 0 0 0
115 2 0.0000000000000000e+00 9.9460130873296642e+00 5.6455247840580203e+00 0 0 0
117 2 0.0000000000000000e+00 8.5251540748539991e+00 5.6455247840580203e+00 0 0 0
144 2 2.4610000000000003e+00 9.9460130873296642e+00 5.6455247840580203e+00 0 0 0
146 2 2.4610000000000003e+00 8.5251540748539991e+00 5.6455247840580203e+00 0 0 0
436 2 0.0000000000000000e+00 8.5251540748539991e+00 8.8268875342267652e+00 0 0 0
437 2 1.2305000000000001e+00 9.2355835810918343e+00 8.8268875342267652e+00 0 0 0
451 2 2.4610000000000003e+00 8.5251540748539991e+00 8.8268875342267652e+00 0 0 0
452 2 3.6915000000000004e+00 9.2355835810918343e+00 8.8268875342267652e+00 0 0 0
140 2 1.2305000000000001e+00 1.2077301606043163e+01 5.6455247840580203e+00 0 0 0
142 2 1.2305000000000001e+00 1.0656442593567498e+01 5.6455247840580203e+00 0 0 0
177 2 3.6914999999999996e+00 1.2077301606043163e+01 5.6455247840580203e+00 0 0 0
179 2 3.6914999999999996e+00 1.0656442593567499e+01 5.6455247840580203e+00 0 0 0
435 2 0.0000000000000000e+00 1.1366872099805333e+01 8.8268875342267652e+00 0 0 0
449 2 1.2305000000000001e+00 1.0656442593567498e+01 8.8268875342267652e+00 0 0 0
450 2 2.4610000000000003e+00 1.1366872099805333e+01 8.8268875342267652e+00 0 0 0
468 2 3.6914999999999996e+00 1.0656442593567499e+01 8.8268875342267652e+00 0 0 0
181 2 4.9220000000000006e+00 9.9460130873296642e+00 5.6455247840580203e+00 0 0 0
183 2 4.9220000000000006e+00 8.5251540748539991e+00 5.6455247840580203e+00 0 0 0
226 2 7.3830000000000009e+00 9.9460130873296642e+00 5.6455247840580203e+00 0 0 0
228 2 7.3830000000000009e+00 8.5251540748539991e+00 5.6455247840580203e+00 0 0 0
470 2 4.9220000000000006e+00 8.5251540748539991e+00 8.8268875342267652e+00 0 0 0
471 2 6.1524999999999999e+00 9.2355835810918343e+00 8.8268875342267652e+00 0 0 0
493 2 7.3830000000000009e+00 8.5251540748539991e+00 8.8268875342267652e+00 0 0 0
222 2 6.1524999999999999e+00 1.2077301606043163e+01 5.6455247840580203e+00 0 0 0
224 2 6.1524999999999999e+00 1.0656442593567499e+01 5.6455247840580203e+00 0 0 0
469 2 4.9220000000000006e+00 1.1366872099805333e+01 8.8268875342267652e+00 0 0 0
491 2 6.1524999999999999e+00 1.0656442593567499e+01 8.8268875342267652e+00 0 0 0
492 2 7.3829999999999991e+00 1.1366872099805333e+01 8.8268875342267652e+00 0 0 0
273 2 9.8440000000000012e+00 9.9460130873296642e+00 5.6455247840580203e+00 0 0 0
275 2 9.8440000000000012e+00 8.5251540748539956e+00 5.6455247840580203e+00 0 0 0
494 2 8.6134999999999984e+00 9.2355835810918343e+00 8.8268875342267652e+00 0 0 0
517 2 9.8440000000000012e+00 8.5251540748539956e+00 8.8268875342267652e+00 0 0 0
518 2 1.1074500000000002e+01 9.2355835810918343e+00 8.8268875342267652e+00 0 0 0
269 2 8.6135000000000002e+00 1.2077301606043163e+01 5.6455247840580203e+00 0 0 0
271 2 8.6134999999999984e+00 1.0656442593567498e+01 5.6455247840580203e+00 0 0 0
316 2 1.1074500000000002e+01 1.2077301606043163e+01 5.6455247840580203e+00 0 0 0
318 2 1.1074500000000002e+01 1.0656442593567498e+01 5.6455247840580203e+00 0 0 0
515 2 8.6134999999999984e+00 1.0656442593567498e+01 8.8268875342267652e+00 0 0 0
516 2 9.8440000000000012e+00 1.1366872099805333e+01 8.8268875342267652e+00 0 0 0
539 2 1.1074500000000002e+01 1.0656442593567498e+01 8.8268875342267652e+00 0 0 0
540 2 1.2304999999999998e+01 1.1366872099805333e+01 8.8268875342267652e+00 0 0 0
678 1 2.6179636280462817e+00 2.1284777117108282e+00 1.0940815669459912e+01 2 -1 0
2926 1 4.7318974468334165e+00 4.6509295955960511e-01 1.1646465365288941e+01 -2 1 0
3760 1 7.2054027830170151e+00 1.1971606929704257e+00 1.1053128149372117e+01 0 1 -1
3135 1 6.1013572004957988e+00 8.6078854634731901e+00 1.4008290877612213e+01 -1 -2 0
847 1 8.6655224827430377e+00 9.3305187449384555e+00 1.5360802512978472e+01 1 2 0
3751 1 7.1482520069039412e-01 6.1003459843034307e+00 1.1585996045602451e+01 1 1 -1
4487 1 3.0052065886272761e+00 4.5474010396937317e+00 1.1671866241043384e+01 1 1 -1
2946 1 7.7696973071660427e+00 4.1763415784182101e+00 1.1225146042106529e+01 0 0 0
584 1 5.4154464655321277e+00 5.7057851667731452e+00 1.1301519305010244e+01 0 -1 0
28 1 1.0216341335512803e+01 5.2691504242956331e+00 1.1646893540186323e+01 0 0 1
3588 1 1.0731724161539109e+01 7.8585433956722266e+00 1.1945285067980549e+01 2 1 0
26 1 1.2096341705778049e+00 8.7853950947378490e+00 1.1768266192365958e+01 1 1 0
4361 1 3.6241902980108112e+00 1.0029233637617850e+01 1.1331952132753393e+01 0 1 1
3882 1 5.7571086352580823e+00 8.4532574497848056e+00 1.1417192030344591e+01 3 2 1
2154 1 8.4078328989124742e+00 9.3787820846032446e+00 1.1358314664826242e+01 1 1 -1
3074 1 2.9907189265425909e+00 2.1665519229557768e+00 1.5056133536025470e+01 0 2 0
24 1 3.8901772798843604e-01 8.7063865385431527e-01 1.1803038878113750e+01 2 0 0
3122 1 7.5634072299198429e+00 1.7930197633387768e+00 1.5255571269711320e+01 0 1 1
849 1 7.0221544154942594e-01 9.8063858540792526e-01 1.4447234674783946e+01 1 2 1
2825 1 1.0847882557251920e+00 8.8450738583099096e+00 1.4407537193152114e+01 0 2 0
2384 1 9.0222061240641371e-01 6.0403228065154417e+00 1.4653131193302025e+01 -1 1 0
21 1 3.4629001272900877e+00 4.8591373070252892e+00 1.4243782538648574e+01 1 1 0
2297 1 7.9177459621093176e+00 4.3023086910098556e+00 1.4119612270077374e+01 -2 2 0
1614 1 5.8363422364093616e+00 6.0251784651094482e+00 1.4918361723203695e+01 -1 -2 1
1623 1 1.0854366652251814e+01 7.9318645733240327e+00 1.4523081723060125e+01 2 -1 0
3826 1 1.0503961737639822e+01 5.0775463771388498e+00 1.5094942126877369e+01 -2 0 0
3756 1 3.9514466138304227e+00 9.9181969618751360e+00 1.4504638263988188e+01 2 2 0
3130 1 4.9759388417109109e+00 3.6413023488757018e-01 1.4604958404703458e+01 1 1 -1
2956 1 1.1870177405066627e+01 8.4241098524269387e-01 1.5325229470753280e+01 1 0 0
614 1 1.2007636289322230e+01 9.3711507315565623e-01 1.1544761764829072e+01 2 -2 0
2298 1 8.5530085567955698e+00 1.2059029014389941e+01 1.1912890713853640e+01 1 -1 0
3637 1 8.7429592616886325e+00 1.2044517623015437e+01 1.4476039065415303e+01 -2 1 0
4376 1 3.0516083307939188e+00 2.4643852399865858e+00 1.7736166333325880e+01 0 0 0
3716 1 8.9644843196046764e-01 3.7464624195379526e+00 1.8498577435968123e+01 2 0 0
622 1 5.4831520101538276e+00 3.0178612967450000e+00 1.9017462220793234e+01 -2 0 -1
3019 1 7.8700105147835000e+00 1.7970420641283100e+00 1.7931648484720302e+01 1 1 -1
3718 1 1.0200280121846495e+01 2.7248895263918187e+00 1.8808541315047187e+01 1 1 0
2966 1 1.6328720693334875e+00 1.1783751453305667e+01 2.0833397887301047e+01 -2 1 0
727 1 3.4565513702113555e+00 7.2371806611061595e+00 1.8202976668951337e+01 0 2 -1
3771 1 9.5447285274729365e-01 6.2802172786030956e+00 1.7515417047702179e+01 -1 0 -1
3879 1 3.5057485288937085e+00 7.2532181434984526e+00 2.1139169519983341e+01 -1 0 0
3863 1 5.6352077739166333e+00 5.5280054453460092e+00 1.7701067574680181e+01 1 -1 0
778 1 8.1504059068061103e+00 6.5851608233951717e+00 1.8441990382157645e+01 2 -1 -1
2903 1 1.0609055793532480e+01 5.3216223481102860e+00 1.7834267907465335e+01 -1 1 0
3112 1 1.0781635723704628e+01 1.0796310101683465e+01 2.1763585662269193e+01 -2 2 0
2274 1 1.7025625029371809e+00 1.1527927700708162e+01 1.8046066159796840e+01 0 -1 0
4445 1 4.0644730779013836e+00 9.8725939987037528e+00 1.7348805368957787e+01 1 2 0
2177 1 6.3665221713432132e+00 1.0971514619558853e+01 1.8479814546098105e+01 -2 0 0
3631 1 8.5019576459374235e+00 9.5130734026803534e+00 1.8151371300910355e+01 2 1 0
870 1 1.0889454497924644e+01 1.0743559643872359e+01 1.9114478397819717e+01 0 0 0
810 1 4.6545086757829263e-01 3.5266952938199343e+00 2.1186125792964280e+01 0 0 0
1384 1 1.0403347748393101e+01 8.0288093194140924e+00 2.1976599037081709e+01 0 0 0
3085 1 6.1567513786709274e+00 1.1271171670886899e+01 2.1100375986591267e+01 -1 0 0
3587 1 4.9983603718208354e+00 3.1335345185907171e+00 2.1677243736619722e+01 -4 0 0
76 1 5.7994762297360465e+00 8.6944403502169454e+00 2.2038344503790981e+01 -2 0 1
2276 1 4.9734851585062279e+00 2.8732587791384245e-01 2.4853874296701154e+01 2 -1 0
1378 1 3.6285333360203204e-01 6.7356467661771124e-01 2.2118628405146048e+01 1 -1 0
3626 1 1.1840689636050812e+00 8.9428609443126703e+00 2.1428085875730964e+01 -1 2 -1
2375 1 9.8441556423690297e+00 2.8470381655228714e+00 2.1581784049055674e+01 2 2 0
2261 1 9.6920943998050042e+00 3.6155559278336076e-03 2.4939927798772953e+01 -1 0 0
2090 1 2.8686624961865421e+00 4.6726133364161413e+00 2.2284119594334090e+01 0 -2 -1
2264 1 7.4197808405585342e+00 4.2897041077647344e+00 2.2376994574960133e+01 2 2 0
2315 1 7.7275443101423900e+00 6.8597537032919691e+00 2.1191042196337467e+01 1 2 1
4500 1 2.3821639879905362e-01 4.6456574693458075e-01 2.4661609365487791e+01 -2 1 -1
2287 1 5.7187836374514864e+00 8.7644812453388905e+00 2.4904104944356494e+01 -4 -2 0
2160 1 4.8628632418740301e+00 4.2568365647159651e-01 2.2178397641536144e+01 1 0 0
603 1 1.2095001999572272e+01 9.8372049870116529e-01 1.8109158621627401e+01 2 0 -1
3046 1 1.0931343583103834e+00 9.1216347390013812e+00 2.4375591404931317e+01 2 1 0
1345 1 7.6784936775852684e+00 4.2829934674602397e+00 2.5052313198806925e+01 -1 3 1
4315 1 9.3835547185249997e+00 5.4408235163808244e-02 2.2281006599456585e+01 0 1 0
3768 1 1.0115732418725194e+01 8.5532690841294414e+00 2.4673977717060609e+01 5 1 -1
779 1 1.2192123472774114e+01 3.7132676419489226e+00 2.2257200058506115e+01 -1 0 0
3809 1 1.2234118768187525e+01 4.0805115155833418e+00 2.4830661124823997e+01 0 -1 0
3724 1 2.9062642862106749e+00 4.9121026212793701e+00 2.5055525304485972e+01 1 -2 -1
2359 1 4.2420518606033547e-01 3.1680779227048466e+00 2.8190966805186104e+01 0 1 1
3040 1 4.4816793084792372e-01 3.2510642364272364e+00 2.5328978439865768e+01 3 2 0
1567 1 5.0542804584608776e+00 2.9441205481489834e+00 2.8175073722384099e+01 1 0 0
1379 1 5.2219627500194452e+00 2.9591696894957464e+00 2.5578878594763097e+01 0 1 0
2216 1 1.0125113296380796e+01 7.7352493707240697e+00 3.1969851752974346e+01 2 1 -1
2890 1 9.8826882248175707e+00 2.7509844239274890e+00 2.5573533446801289e+01 0 1 0
2291 1 9.9384915476024638e+00 2.5930950523668370e+00 2.8234926240781679e+01 2 0 0
2847 1 2.8988013547835392e+00 7.1993736529909409e+00 2.8555685941415689e+01 1 0 0
4513 1 3.2971950003271684e+00 7.5844396515213699e+00 2.5849382335489643e+01 1 1 -1
1604 1 2.7447413954050988e+00 4.1775210300339625e+00 2.9112093055607986e+01 0 -2 0
863 1 7.5772223776971339e+00 3.9267818705123516e+00 2.8773267323716190e+01 -1 -3 0
4424 1 5.5406588183286578e+00 8.3388845290200386e+00 2.8977075874182169e+01 -2 1 0
4515 1 8.0811716796726056e+00 6.9120577014879663e+00 2.5721560500708406e+01 0 -1 1
2871 1 7.8404111824473341e+00 6.7999031106866905e+00 2.8655847662907920e+01 -2 4 1
592 1 1.0301935221477475e+01 7.9188952083600759e+00 2.9164293411596066e+01 -1 0 1
3132 1 1.2050525200137955e+01 3.7510512180015154e+00 3.2144754786534797e+01 1 4 0
3584 1 8.1482858220478125e+00 1.2136746913743400e+01 3.1942253326602710e+01 -2 1 0
798 1 5.8577830770725958e+00 1.1060145725377550e+01 2.8466102725255293e+01 1 0 0
2995 1 1.0509532153889046e+01 1.0690131177881222e+01 2.8789879509934707e+01 -1 0 -1
3766 1 1.0367203480725664e+01 1.1301303481195593e+01 2.5691587590303278e+01 0 -1 0
2222 1 5.1613321375602199e+00 5.0972061010246861e-01 2.9151791469748495e+01 -3 -1 -1
4483 1 3.1102804714817955e-01 2.9146894624280772e-01 2.9083376291908021e+01 1 3 0
2977 1 5.5965732063209792e+00 1.0958766488926559e+01 3.2455861418232892e+01 0 0 -1
1351 1 1.4079083482171166e+00 1.1614693355632070e+01 2.5263430333716393e+01 1 2 0
2103 1 6.1472904439663667e-01 2.8995645157604999e+00 3.2467041465465115e+01 1 0 -1
2371 1 5.3053625340968775e+00 3.1991121344503539e+00 3.2814689270899478e+01 0 3 -1
2932 1 9.6190757611421187e+00 2.6687249467167762e+00 3.2618586326313462e+01 -2 -2 0
69 1 1.0538078769108704e+01 1.0525892243434580e+01 3.2376527988268435e+01 0 0 0
632 1 5.2629092421251933e+00 4.4184831216673709e-01 3.1961345209382518e+01 2 3 -1
2948 1 3.0429717149108702e+00 4.1962812950457957e+00 3.1834587303165449e+01 0 -1 0
3683 1 3.2748998733809671e+00 6.9770227537756275e+00 3.2403880861440726e+01 3 1 0
864 1 7.4908888136025098e+00 4.1083987065745022e+00 3.1445986641819761e+01 0 -2 1
4444 1 7.6903189122554334e+00 6.6538143540288930e+00 3.2444728158084352e+01 1 0 0
2884 1 5.5410120433837706e+00 8.2647670618858076e+00 3.1831349635173762e+01 1 3 0
3797 1 1.1296657717126140e+00 8.7754894576776934e+00 3.1971373094040374e+01 1 1 0
4462 1 1.2932179322252371e+00 1.1321635059354660e+01 2.8074509277701882e+01 0 0 -1
4332 1 1.3280992833016882e+00 1.1499862390441249e+01 3.2598376981692873e+01 0 2 0
3655 1 6.7683427165717291e-01 8.8089988128553909e+00 2.9246863356612259e+01 0 -2 0
586 1 3.4929377771795850e-01 2.8308621670099254e-01 3.1702543479227490e+01 1 -1 -1
3121 1 9.7850512256425564e+00 2.4205735847381504e-02 2.9275360446283461e+01 0 3 0
35 1 1.2119554654748022e+01 3.7880261329837621e+00 2.9210630652482109e+01 0 0 0
2170 1 5.9417873584758993e+00 1.1438474195661621e+01 2.5694049329669468e+01 0 -1 1
137 2 0.0000000000000000e+00 1.2787731112280996e+01 2.4641620338915837e+00 0 0 0
139 2 1.2305000000000001e+00 1.3498160618518829e+01 2.4641620338915837e+00 0 0 0
174 2 2.4610000000000003e+00 1.2787731112280996e+01 2.4641620338915837e+00 0 0 0
176 2 3.6915000000000004e+00 1.3498160618518829e+01 2.4641620338915837e+00 0 0 0
135 2 0.0000000000000000e+00 1.5629449137232333e+01 2.4641620338915837e+00 0 0 0
170 2 1.2305000000000001e+00 1.4919019630994494e+01 2.4641620338915837e+00 0 0 0
172 2 2.4610000000000003e+00 1.5629449137232328e+01 2.4641620338915837e+00 0 0 0
215 2 3.6915000000000004e+00 1.4919019630994494e+01 2.4641620338915837e+00 0 0 0
219 2 4.9220000000000006e+00 1.2787731112280996e+01 2.4641620338915837e+00 0 0 0
221 2 6.1524999999999990e+00 1.3498160618518829e+01 2.4641620338915837e+00 0 0 0
266 2 7.3829999999999991e+00 1.2787731112280996e+01 2.4641620338915837e+00 0 0 0
217 2 4.9220000000000006e+00 1.5629449137232333e+01 2.4641620338915837e+00 0 0 0
262 2 6.1524999999999990e+00 1.4919019630994494e+01 2.4641620338915837e+00 0 0 0
264 2 7.3829999999999991e+00 1.5629449137232333e+01 2.4641620338915837e+00 0 0 0
268 2 8.6135000000000002e+00 1.3498160618518835e+01 2.4641620338915837e+00 0 0 0
313 2 9.8440000000000012e+00 1.2787731112280996e+01 2.4641620338915837e+00 0 0 0
315 2 1.1074500000000002e+01 1.3498160618518829e+01 2.4641620338915837e+00 0 0 0
309 2 8.6135000000000002e+00 1.4919019630994494e+01 2.4641620338915837e+00 0 0 0
311 2 9.8440000000000012e+00 1.5629449137232328e+01 2.4641620338915837e+00 0 0 0
351 2 1.1074500000000002e+01 1.4919019630994494e+01 2.4641620338915837e+00 0 0 0
166 2 0.0000000000000000e+00 1.7050308149707998e+01 2.4641620338915837e+00 0 0 0
211 2 2.4610000000000003e+00 1.7050308149707998e+01 2.4641620338915837e+00 0 0 0
164 2 0.0000000000000000e+00 1.9892026174659328e+01 2.4641620338915837e+00 0 0 0
168 2 1.2305000000000001e+00 1.7760737655945832e+01 2.4641620338915837e+00 0 0 0
207 2 1.2305000000000001e+00 1.9181596668421495e+01 2.4641620338915837e+00 0 0 0
209 2 2.4610000000000003e+00 1.9892026174659328e+01 2.4641620338915837e+00 0 0 0
213 2 3.6914999999999996e+00 1.7760737655945832e+01 2.4641620338915837e+00 0 0 0
254 2 3.6914999999999996e+00 1.9181596668421495e+01 2.4641620338915837e+00 0 0 0
258 2 4.9220000000000006e+00 1.7050308149707998e+01 2.4641620338915837e+00 0 0 0
305 2 7.3830000000000009e+00 1.7050308149707998e+01 2.4641620338915837e+00 0 0 0
256 2 4.9220000000000006e+00 1.9892026174659328e+01 2.4641620338915837e+00 0 0 0
260 2 6.1524999999999999e+00 1.7760737655945832e+01 2.4641620338915837e+00 0 0 0
301 2 6.1524999999999999e+00 1.9181596668421495e+01 2.4641620338915837e+00 0 0 0
303 2 7.3829999999999991e+00 1.9892026174659328e+01 2.4641620338915837e+00 0 0 0
347 2 9.8440000000000012e+00 1.7050308149707998e+01 2.4641620338915837e+00 0 0 0
381 2 1.2304999999999998e+01 1.7050308149707998e+01 2.4641620338915837e+00 0 0 0
307 2 8.6134999999999984e+00 1.7760737655945832e+01 2.4641620338915837e+00 0 0 0
343 2 8.6135000000000002e+00 1.9181596668421495e+01 2.4641620338915837e+00 0 0 0
345 2 9.8440000000000012e+00 1.9892026174659335e+01 2.4641620338915837e+00 0 0 0
349 2 1.1074500000000002e+01 1.7760737655945835e+01 2.4641620338915837e+00 0 0 0
377 2 1.1074500000000002e+01 1.9181596668421495e+01 2.4641620338915837e+00 0 0 0
201 2 0.0000000000000000e+00 2.4154603212086325e+01 2.4641620338915837e+00 0 0 0
203 2 0.0000000000000000e+00 2.1312885187134999e+01 2.4641620338915837e+00 0 0 0
205 2 1.2304999999999993e+00 2.2023314693372832e+01 2.4641620338915837e+00 0 0 0
246 2 1.2304999999999993e+00 2.3444173705848499e+01 2.4641620338915837e+00 0 0 0
248 2 2.4610000000000003e+00 2.4154603212086325e+01 2.4641620338915837e+00 0 0 0
250 2 2.4610000000000003e+00 2.1312885187134995e+01 2.4641620338915837e+00 0 0 0
252 2 3.6914999999999996e+00 2.2023314693372832e+01 2.4641620338915837e+00 0 0 0
293 2 3.6915000000000004e+00 2.3444173705848499e+01 2.4641620338915837e+00 0 0 0
295 2 4.9220000000000006e+00 2.4154603212086325e+01 2.4641620338915837e+00 0 0 0
297 2 4.9220000000000006e+00 2.1312885187134995e+01 2.4641620338915837e+00 0 0 0
299 2 6.1524999999999990e+00 2.2023314693372832e+01 2.4641620338915837e+00 0 0 0
335 2 6.1524999999999999e+00 2.3444173705848499e+01 2.4641620338915837e+00 0 0 0
337 2 7.3830000000000009e+00 2.4154603212086336e+01 2.4641620338915837e+00 0 0 0
339 2 7.3829999999999991e+00 2.1312885187134999e+01 2.4641620338915837e+00 0 0 0
341 2 8.6135000000000002e+00 2.2023314693372832e+01 2.4641620338915837e+00 0 0 0
369 2 8.6134999999999984e+00 2.3444173705848499e+01 2.4641620338915837e+00 0 0 0
371 2 9.8440000000000012e+00 2.4154603212086336e+01 2.4641620338915837e+00 0 0 0
373 2 9.8440000000000012e+00 2.1312885187134999e+01 2.4641620338915837e+00 0 0 0
375 2 1.1074500000000002e+01 2.2023314693372832e+01 2.4641620338915837e+00 0 0 0
395 2 1.1074500000000002e+01 2.3444173705848499e+01 2.4641620338915837e+00 0 0 0
138 2 0.0000000000000000e+00 1.2787731112280996e+01 5.6455247840580203e+00 0 0 0
175 2 2.4610000000000003e+00 1.2787731112280996e+01 5.6455247840580203e+00 0 0 0
447 2 0.0000000000000000e+00 1.2787731112280996e+01 8.8268875342267652e+00 0 0 0
448 2 1.2305000000000001e+00 1.3498160618518829e+01 8.8268875342267652e+00 0 0 0
466 2 2.4610000000000003e+00 1.2787731112280996e+01 8.8268875342267652e+00 0 0 0