LAMMPS data file via write_data, version 16 Mar 2018, timestep = 8000000

6328 atoms
2 atom types

0.0000000000000000e+00 4.9219999999999999e+01 xlo xhi
0.0000000000000000e+00 4.9019635930410494e+01 ylo yhi
1.9505036622986545e+00 5.8111496337684954e+01 zlo zhi

Masses

1 18.015
2 12.01

Atoms # atomic

5025 1 1.3227941126489442e+00 2.7200146952022948e+00 2.8139990411198283e+00 -2 -3 0
3527 1 8.7438497710203755e-01 3.0828283202891043e+00 5.3741916547574373e+00 4 1 1
5079 1 5.4848907168241565e+00 2.2301438996513516e+00 2.7914938794115676e+00 -1 -2 -1
3475 1 5.0358981701550585e+00 2.2585389119546981e+00 5.6521899030620517e+00 0 -1 1
2003 1 9.5494358793861966e+00 1.2367763592104002e+00 2.7237104154571901e+00 2 -2 0
1846 1 9.4793469810730286e+00 1.6090053202939141e+00 5.5425862494174041e+00 -2 3 0
4999 1 4.1674657882912953e+00 6.3043037868374752e+00 1.9977086825256334e+00 1 1 0
6105 1 3.9449539340470001e+00 6.4540552413654391e+00 5.0105603760152366e+00 -2 0 0
6179 1 7.8048185203919189e+00 3.3039994300448239e+00 2.0182990834324812e+00 0 1 0
1652 1 8.1663060364825721e+00 5.8434214000586051e+00 2.5940936037073272e+00 0 2 0
5127 1 8.1884103264106134e+00 5.9360502230273058e+00 5.4955723377699393e+00 0 2 0
4873 1 2.3160258553656035e+00 1.1079499189038513e+01 5.3827932349982603e+00 1 -2 1
1815 1 2.4388163625952854e+00 1.0652349725501836e+01 2.7907632520165300e+00 3 -1 0
1722 1 6.7690997037502738e+00 1.0122765590901027e+01 2.8593410612791255e+00 0 1 1
5230 1 6.5637930316495865e+00 1.0164786081160917e+01 5.5438904367444026e+00 -1 1 0
4994 1 1.0965387506989599e+01 9.1226295158869686e+00 2.7280106442410048e+00 -1 1 1
3643 1 1.0989544116940996e+01 9.3019410679628542e+00 5.4842589219834021e+00 -2 1 1
5158 1 2.7342714799968517e+00 1.1232980895713569e+00 5.8506838763608728e+00 2 -1 1
4980 1 3.9085262700646162e-01 1.1609460533747143e-01 9.7921824485629205e+00 1 2 0
4488 1 1.2031853248618571e+01 1.9198159138890194e+00 1.0304512099749060e+01 3 1 0
2968 1 1.0024254184813236e+01 4.0439605331730721e+00 6.5278630107775477e+00 -2 3 1
3389 1 1.0051821461432551e+01 3.6813531027835151e+00 9.3472900143573838e+00 2 3 0
1395 1 1.5720313467450870e+00 5.6230593655526846e+00 6.1505895101951662e+00 0 2 1
1929 1 1.4355646308928200e+00 5.1405582280061042e+00 9.1665719922466984e+00 4 -5 0
3620 1 5.8555097793451099e+00 4.8712887104319016e+00 6.1437440706757540e+00 -1 4 1
4527 1 4.1320784424637864e+00 9.0298654178117257e+00 6.3331288141505606e+00 -1 0 1
283 1 4.1420573382325214e+00 9.2852446784910097e+00 8.8716144343601862e+00 -1 3 0
129 1 8.6296310714516906e+00 8.3814757975734278e+00 6.1869181323127007e+00 9 0 0
2797 1 8.4883990729945200e+00 8.4922580114332593e+00 8.8946211967047617e+00 2 0 1
4807 1 1.1412518525762588e+01 1.1948409598954820e+01 6.2216171655207857e+00 0 -3 -1
2091 1 2.9482645955137823e+00 1.1553611273067990e+00 8.7363748309969296e+00 0 -2 1
1669 1 3.4469333991524902e+00 3.4092316026560683e+00 9.9170179426289913e+00 3 0 0
3338 1 7.2921642715292299e+00 2.8576656775251230e+00 1.0027089734809325e+01 1 -1 0
3213 1 7.4012556174979203e+00 2.8648134183804053e+00 1.2731602712426202e+01 -3 -2 1
1661 1 1.1480244072463169e+01 1.1860484716867131e+01 1.3733257175017588e+01 -1 -2 1
297 1 1.7938808464061493e+00 7.8842549269213960e+00 9.9504477347335420e+00 1 -1 1
5129 1 5.9093100518352433e+00 4.7530439297380145e+00 8.7698246146690231e+00 6 4 1
5131 1 6.0567430547713190e+00 7.4683425854581200e+00 9.9058415216963791e+00 4 2 1
3142 1 1.0313511958529977e+01 6.3205797797721441e+00 9.8985022952499904e+00 0 -2 0
5980 1 4.8941531213488982e+00 1.1554730160514714e+01 9.9623961895504554e+00 -1 1 0
5078 1 9.6062952273092765e+00 1.0818061087611712e+01 1.0117196218314616e+01 1 0 1
6024 1 1.1661907574028165e+01 1.1660462609841664e+01 8.9828305544893841e+00 2 1 0
4823 1 3.1818265140409334e+00 3.6272465184401108e+00 1.2713174286827631e+01 1 0 1
2046 1 2.7293158238659667e+00 9.8733861420938873e-01 1.3611451189748481e+01 1 3 1
1315 1 9.0450278983161141e+00 1.0790789706545983e+01 1.2945870944971498e+01 -2 -3 1
1517 1 2.1784447886285768e-01 1.1973059938477807e+01 1.2773954676468495e+01 2 -2 1
4728 1 9.8476546180311733e+00 3.8120665948873618e+00 1.3409734532791767e+01 0 0 1
3381 1 1.9513327793045272e+00 7.7768712067328964e+00 1.2663790904078070e+01 0 0 0
5050 1 1.2031252146089637e+00 5.2914985226533480e+00 1.3614692050851854e+01 1 2 1
4575 1 5.9934865380780664e+00 7.3928254143956753e+00 1.2813131949898276e+01 -1 0 1
3607 1 5.6839576045519467e+00 4.7404603664979916e+00 1.3643532810591454e+01 -5 4 0
5120 1 1.0389273711574681e+01 6.3921258292037333e+00 1.2682066858428099e+01 3 3 0
2850 1 8.4957572409433801e+00 8.3125748608066345e+00 1.3847582285327702e+01 3 5 0
3143 1 4.1097435831157476e+00 9.2724764359622647e+00 1.3479450329804330e+01 -3 0 0
3492 1 4.8052096261147454e+00 1.1980281102148329e+01 1.2759586717425227e+01 0 -1 0
4881 1 6.8622016935463135e+00 3.2478105456109102e-01 6.4256915447657459e+00 0 2 0
2899 1 7.0679689339383502e+00 3.7114164770700298e-01 9.0737898565946544e+00 -1 -2 0
2004 1 7.1711686943813566e+00 1.5056755556115894e-01 1.3748409076464039e+01 2 3 1
3710 1 3.1697035736781365e-01 3.2976903252993983e-01 1.2704826161067137e+01 -1 -1 1
6053 1 5.2814904362740700e-01 1.2165772917950335e+01 1.0013035532827519e+01 -1 2 1
1693 1 1.1977772928552902e+01 2.0684092302640362e+00 1.3014942327124755e+01 -1 0 0
446 1 9.8004312888047327e+00 3.5601429537220595e+00 1.5883659357346883e+01 0 2 1
1346 1 6.1458541337656680e-01 2.8004961013915048e+00 1.7108191875734263e+01 1 0 1
3209 1 4.6978957924010087e+00 1.1810032384487190e+01 2.0784049688231271e+01 -3 -1 0
5277 1 5.0008251690263670e+00 1.9933674673612651e+00 1.7100649950754175e+01 0 4 0
726 2 8.6134999999999984e+00 1.0656442593567498e+01 2.6679584121684282e+01 0 0 0
143 1 9.2901849456819896e+00 1.0875319976554469e+00 1.6924482813906742e+01 0 0 0
1403 1 1.1523861872450329e+01 1.1742479519964053e+01 1.6685394266179827e+01 1 0 1
350 1 3.8175032380963176e+00 6.2402499524954695e+00 1.7104125572045987e+01 0 3 0
773 2 1.1074500000000002e+01 1.0656442593567498e+01 2.6679584121684282e+01 0 0 0
5148 1 8.2507449031261739e+00 5.4545710510188776e+00 1.6877087179663366e+01 -1 0 0
2894 1 5.6949760104432459e+00 4.5714334367403406e+00 1.6264305374548172e+01 1 -2 1
4546 1 4.5641250137746719e-01 1.0055872824123913e-01 2.3590642395767759e+01 0 1 1
685 2 8.6134999999999984e+00 9.2355835810918343e+00 2.6679584121684282e+01 0 0 0
448 1 2.2356117965800353e+00 1.0561355324636736e+01 1.7397494974655029e+01 -2 0 1
6015 1 6.7252572661403658e+00 9.8094421946413117e+00 1.6991747640903505e+01 3 3 1
728 2 9.8440000000000012e+00 1.1366872099805333e+01 2.6679584121684282e+01 0 0 0
1972 1 1.1124391930950127e+01 9.2059930124216809e+00 1.6895204704042847e+01 1 0 0
1801 1 8.7788465210322322e+00 8.1134682061935788e+00 1.6452182729392476e+01 0 4 0
1402 1 5.0038920232559569e-01 2.9763960622979528e+00 1.9704685505938556e+01 3 2 1
150 1 3.1630517893096286e+00 3.6057155844576032e+00 2.0976655199185714e+01 -1 1 1
1764 1 4.9752997157460470e+00 1.9682451116902611e+00 1.9698036105144602e+01 -2 2 0
3386 1 7.4942564638734632e+00 2.8885722898947970e+00 2.0335936240431739e+01 -1 -2 0
5118 1 4.1994959413928221e+00 8.9481081020496696e+00 1.6329648081063446e+01 -1 -1 0
6121 1 9.6683391076754752e+00 1.1891287883491388e+00 1.9547527732289275e+01 1 4 1
3566 1 3.9310435150569827e+00 6.2477095001273995e+00 1.9818840154978393e+01 2 2 0
4821 1 1.6675818999731549e+00 7.7992037726848915e+00 2.0570673137033399e+01 1 0 1
1887 1 6.3178447810167500e+00 7.3244417666869186e+00 2.0667200258323017e+01 1 0 0
4480 1 8.0031827471572967e+00 5.7669674115393228e+00 1.9631617890512388e+01 -3 0 1
227 1 1.0570344410476469e+01 6.5470162284438196e+00 2.0781086957101703e+01 0 -1 0
6051 1 2.1363656217761009e+00 1.0571923411913858e+01 2.0057852626052767e+01 0 -1 1
730 2 9.8440000000000012e+00 8.5251540748539956e+00 2.6679584121684282e+01 0 0 0
1825 1 1.2086910976611140e+01 2.3008185330760105e+00 2.0809502836980265e+01 1 -1 0
1541 1 6.7866880468616531e+00 9.8187486202759704e+00 1.9673187231045446e+01 2 0 0
1628 1 4.7082739696187090e+00 1.1651504966966723e+01 2.3644751018172716e+01 0 0 0
4528 1 1.0736647994418092e+01 9.1145745490739625e+00 1.9657671716888721e+01 -2 -2 1
6167 1 9.0071644988436166e+00 1.0784630623623135e+01 2.1016647677055477e+01 4 2 1
4483 1 3.3735144725807418e+00 3.7202632201454868e+00 2.3620998230513919e+01 -1 0 0
1786 1 1.1468231263820357e+00 2.5734161701882656e+00 2.4243160486347794e+01 2 -1 1
775 2 1.2304999999999998e+01 1.1366872099805333e+01 2.6679584121684282e+01 0 0 0
6315 1 5.2473383390910415e+00 1.9692619932390816e+00 2.4546860351447894e+01 -1 1 0
3485 1 7.6735123434979986e+00 2.5628834151148960e+00 2.3180195756380844e+01 2 0 0
3494 1 2.5341382227553906e+00 1.0802738434149102e+00 1.6411511498017347e+01 1 0 0
3691 1 9.4125337917748571e+00 1.0535786993477509e+00 2.4337317382705098e+01 5 0 1
6128 1 1.9226536967563985e+00 7.9079621070978652e+00 2.3351840931691036e+01 -1 1 0
1302 1 3.6399451050119476e+00 6.4386436966462295e+00 2.4310477905761836e+01 0 -1 1
2823 1 6.1582239546945896e+00 7.0268414583496472e+00 2.3592259121802872e+01 3 2 1
2914 1 8.2156843429886575e+00 5.1249170237390933e+00 2.4177255636377808e+01 5 -2 0
3572 1 1.0551043528064083e+01 6.6918862410948465e+00 2.3561647753680486e+01 -1 3 1
6177 1 2.4090306332060716e+00 1.0415994324417898e+01 2.4112829631885180e+01 2 1 1
3083 1 6.4605361398443488e+00 9.7525658770568011e+00 2.4440317393293338e+01 3 0 0
429 1 9.0087201173905971e+00 1.0811721788626615e+01 2.3876259045039738e+01 3 -3 0
3038 1 1.1277857107324364e+01 9.2709300655761027e+00 2.4343968813895813e+01 -3 1 1
552 2 0.0000000000000000e+00 2.8417180249513345e+00 2.6679584121684282e+01 0 0 0
554 2 0.0000000000000000e+00 0.0000000000000000e+00 2.6679584121684282e+01 0 0 0
556 2 1.2305000000000001e+00 7.1042950623783474e-01 2.6679584121684282e+01 0 0 0
563 2 1.2305000000000001e+00 2.1312885187134998e+00 2.6679584121684282e+01 0 0 0
565 2 2.4610000000000003e+00 2.8417180249513345e+00 2.6679584121684282e+01 0 0 0
567 2 2.4610000000000003e+00 0.0000000000000000e+00 2.6679584121684282e+01 0 0 0
569 2 3.6915000000000004e+00 7.1042950623783474e-01 2.6679584121684282e+01 0 0 0
584 2 3.6914999999999996e+00 2.1312885187134998e+00 2.6679584121684282e+01 0 0 0
586 2 4.9220000000000006e+00 2.8417180249513332e+00 2.6679584121684282e+01 0 0 0
588 2 4.9220000000000006e+00 0.0000000000000000e+00 2.6679584121684282e+01 0 0 0
590 2 6.1524999999999999e+00 7.1042950623783407e-01 2.6679584121684282e+01 0 0 0
613 2 6.1524999999999999e+00 2.1312885187134989e+00 2.6679584121684282e+01 0 0 0
615 2 7.3829999999999991e+00 2.8417180249513345e+00 2.6679584121684282e+01 0 0 0
617 2 7.3829999999999991e+00 0.0000000000000000e+00 2.6679584121684282e+01 0 0 0
619 2 8.6134999999999984e+00 7.1042950623783407e-01 2.6679584121684282e+01 0 0 0
650 2 8.6134999999999984e+00 2.1312885187135002e+00 2.6679584121684282e+01 0 0 0
652 2 9.8440000000000012e+00 2.8417180249513332e+00 2.6679584121684282e+01 0 0 0
654 2 9.8440000000000012e+00 0.0000000000000000e+00 2.6679584121684282e+01 0 0 0
656 2 1.1074500000000002e+01 7.1042950623783330e-01 2.6679584121684282e+01 0 0 0
695 2 1.1074500000000002e+01 2.1312885187135002e+00 2.6679584121684282e+01 0 0 0
559 2 0.0000000000000000e+00 4.2625770374269996e+00 2.6679584121684282e+01 0 0 0
561 2 1.2305000000000001e+00 4.9730065436648339e+00 2.6679584121684282e+01 0 0 0
576 2 1.2305000000000001e+00 6.3938655561404980e+00 2.6679584121684282e+01 0 0 0
580 2 2.4610000000000003e+00 4.2625770374269996e+00 2.6679584121684282e+01 0 0 0
582 2 3.6914999999999996e+00 4.9730065436648339e+00 2.6679584121684282e+01 0 0 0
605 2 3.6914999999999996e+00 6.3938655561404980e+00 2.6679584121684282e+01 0 0 0
557 2 0.0000000000000000e+00 7.1042950623783341e+00 2.6679584121684282e+01 0 0 0
578 2 2.4610000000000003e+00 7.1042950623783341e+00 2.6679584121684282e+01 0 0 0
609 2 4.9220000000000006e+00 4.2625770374269978e+00 2.6679584121684282e+01 0 0 0
611 2 6.1524999999999999e+00 4.9730065436648339e+00 2.6679584121684282e+01 0 0 0
642 2 6.1524999999999999e+00 6.3938655561404980e+00 2.6679584121684282e+01 0 0 0
646 2 7.3829999999999991e+00 4.2625770374269996e+00 2.6679584121684282e+01 0 0 0
607 2 4.9220000000000006e+00 7.1042950623783341e+00 2.6679584121684282e+01 0 0 0
644 2 7.3830000000000009e+00 7.1042950623783341e+00 2.6679584121684282e+01 0 0 0
648 2 8.6135000000000002e+00 4.9730065436648339e+00 2.6679584121684282e+01 0 0 0
687 2 8.6135000000000002e+00 6.3938655561404980e+00 2.6679584121684282e+01 0 0 0
691 2 9.8440000000000012e+00 4.2625770374270004e+00 2.6679584121684282e+01 0 0 0
693 2 1.1074500000000002e+01 4.9730065436648339e+00 2.6679584121684282e+01 0 0 0
734 2 1.1074500000000002e+01 6.3938655561404980e+00 2.6679584121684282e+01 0 0 0
689 2 9.8440000000000012e+00 7.1042950623783341e+00 2.6679584121684282e+01 0 0 0
603 2 3.6915000000000004e+00 9.2355835810918343e+00 2.6679584121684282e+01 0 0 0
601 2 2.4610000000000003e+00 8.5251540748539991e+00 2.6679584121684282e+01 0 0 0
572 2 0.0000000000000000e+00 8.5251540748539991e+00 2.6679584121684282e+01 0 0 0
574 2 1.2305000000000001e+00 9.2355835810918343e+00 2.6679584121684282e+01 0 0 0
570 2 0.0000000000000000e+00 1.1366872099805333e+01 2.6679584121684282e+01 0 0 0
597 2 1.2305000000000001e+00 1.0656442593567498e+01 2.6679584121684282e+01 0 0 0
599 2 2.4610000000000003e+00 1.1366872099805333e+01 2.6679584121684282e+01 0 0 0
634 2 3.6914999999999996e+00 1.0656442593567499e+01 2.6679584121684282e+01 0 0 0
679 2 6.1524999999999999e+00 1.0656442593567499e+01 2.6679584121684282e+01 0 0 0
681 2 7.3829999999999991e+00 1.1366872099805333e+01 2.6679584121684282e+01 0 0 0
636 2 4.9220000000000006e+00 1.1366872099805333e+01 2.6679584121684282e+01 0 0 0
640 2 6.1524999999999999e+00 9.2355835810918343e+00 2.6679584121684282e+01 0 0 0
638 2 4.9220000000000006e+00 8.5251540748539991e+00 2.6679584121684282e+01 0 0 0
683 2 7.3830000000000009e+00 8.5251540748539991e+00 2.6679584121684282e+01 0 0 0
732 2 1.1074500000000002e+01 9.2355835810918343e+00 2.6679584121684282e+01 0 0 0
192 1 1.2178156504744765e+01 4.7757811886292298e+00 1.7224428187589012e+01 1 2 0
3420 1 1.1406965023684117e+00 5.4120699268556143e+00 1.6401895360325472e+01 -1 -1 0
1625 1 1.1966644647085831e+01 2.1100132125331221e+00 2.3475182852165720e+01 -1 0 1
3719 1 8.8249688874786861e-02 3.6677269457793144e-01 2.0892559655457255e+01 -3 -1 0
553 2 0.0000000000000000e+00 1.4208590124756650e+00 3.0030999999991895e+01 0 0 0
555 2 0.0000000000000000e+00 0.0000000000000000e+00 3.0030999999991895e+01 0 0 0
564 2 1.2305000000000001e+00 2.1312885187134998e+00 3.0030999999991895e+01 0 0 0
566 2 2.4610000000000003e+00 1.4208590124756650e+00 3.0030999999991895e+01 0 0 0
568 2 2.4610000000000003e+00 0.0000000000000000e+00 3.0030999999991895e+01 0 0 0
585 2 3.6914999999999996e+00 2.1312885187134998e+00 3.0030999999991895e+01 0 0 0
562 2 1.2305000000000001e+00 3.5521475311891644e+00 3.0030999999991895e+01 0 0 0
583 2 3.6914999999999996e+00 3.5521475311891644e+00 3.0030999999991895e+01 0 0 0
881 2 0.0000000000000000e+00 2.8417180249513345e+00 3.3382415878294154e+01 0 0 0
882 2 0.0000000000000000e+00 0.0000000000000000e+00 3.3382415878294154e+01 0 0 0
883 2 1.2305000000000001e+00 7.1042950623783474e-01 3.3382415878294154e+01 0 0 0
887 2 1.2305000000000001e+00 2.1312885187134998e+00 3.3382415878294154e+01 0 0 0
888 2 2.4610000000000003e+00 2.8417180249513345e+00 3.3382415878294154e+01 0 0 0
889 2 2.4610000000000003e+00 0.0000000000000000e+00 3.3382415878294154e+01 0 0 0
890 2 3.6915000000000004e+00 7.1042950623783474e-01 3.3382415878294154e+01 0 0 0
898 2 3.6914999999999996e+00 2.1312885187134998e+00 3.3382415878294154e+01 0 0 0
587 2 4.9220000000000006e+00 1.4208590124756650e+00 3.0030999999991895e+01 0 0 0
589 2 4.9220000000000006e+00 0.0000000000000000e+00 3.0030999999991895e+01 0 0 0
614 2 6.1524999999999999e+00 2.1312885187134989e+00 3.0030999999991895e+01 0 0 0
616 2 7.3829999999999991e+00 1.4208590124756659e+00 3.0030999999991895e+01 0 0 0
618 2 7.3829999999999991e+00 0.0000000000000000e+00 3.0030999999991895e+01 0 0 0
612 2 6.1524999999999999e+00 3.5521475311891644e+00 3.0030999999991895e+01 0 0 0
899 2 4.9220000000000006e+00 2.8417180249513332e+00 3.3382415878294154e+01 0 0 0
900 2 4.9220000000000006e+00 0.0000000000000000e+00 3.3382415878294154e+01 0 0 0
901 2 6.1524999999999999e+00 7.1042950623783407e-01 3.3382415878294154e+01 0 0 0
913 2 6.1524999999999999e+00 2.1312885187134989e+00 3.3382415878294154e+01 0 0 0
914 2 7.3829999999999991e+00 2.8417180249513345e+00 3.3382415878294154e+01 0 0 0
915 2 7.3829999999999991e+00 0.0000000000000000e+00 3.3382415878294154e+01 0 0 0
651 2 8.6134999999999984e+00 2.1312885187135002e+00 3.0030999999991895e+01 0 0 0
653 2 9.8440000000000012e+00 1.4208590124756659e+00 3.0030999999991895e+01 0 0 0
655 2 9.8440000000000012e+00 0.0000000000000000e+00 3.0030999999991895e+01 0 0 0
696 2 1.1074500000000002e+01 2.1312885187135002e+00 3.0030999999991895e+01 0 0 0
649 2 8.6134999999999984e+00 3.5521475311891657e+00 3.0030999999991895e+01 0 0 0
694 2 1.1074500000000002e+01 3.5521475311891644e+00 3.0030999999991895e+01 0 0 0
916 2 8.6134999999999984e+00 7.1042950623783407e-01 3.3382415878294154e+01 0 0 0
932 2 8.6134999999999984e+00 2.1312885187135002e+00 3.3382415878294154e+01 0 0 0
933 2 9.8440000000000012e+00 2.8417180249513332e+00 3.3382415878294154e+01 0 0 0
934 2 9.8440000000000012e+00 0.0000000000000000e+00 3.3382415878294154e+01 0 0 0
935 2 1.1074500000000002e+01 7.1042950623783330e-01 3.3382415878294154e+01 0 0 0
955 2 1.1074500000000002e+01 2.1312885187135002e+00 3.3382415878294154e+01 0 0 0
558 2 0.0000000000000000e+00 5.6834360499026637e+00 3.0030999999991895e+01 0 0 0
560 2 0.0000000000000000e+00 4.2625770374269996e+00 3.0030999999991895e+01 0 0 0
577 2 1.2305000000000001e+00 6.3938655561404980e+00 3.0030999999991895e+01 0 0 0
579 2 2.4610000000000003e+00 5.6834360499026637e+00 3.0030999999991895e+01 0 0 0
581 2 2.4610000000000003e+00 4.2625770374269996e+00 3.0030999999991895e+01 0 0 0
606 2 3.6914999999999996e+00 6.3938655561404980e+00 3.0030999999991895e+01 0 0 0
575 2 1.2305000000000001e+00 7.8147245686161639e+00 3.0030999999991895e+01 0 0 0
604 2 3.6914999999999996e+00 7.8147245686161639e+00 3.0030999999991895e+01 0 0 0
885 2 0.0000000000000000e+00 4.2625770374269996e+00 3.3382415878294154e+01 0 0 0
886 2 1.2305000000000001e+00 4.9730065436648339e+00 3.3382415878294154e+01 0 0 0
894 2 1.2305000000000001e+00 6.3938655561404980e+00 3.3382415878294154e+01 0 0 0
896 2 2.4610000000000003e+00 4.2625770374269996e+00 3.3382415878294154e+01 0 0 0
897 2 3.6914999999999996e+00 4.9730065436648339e+00 3.3382415878294154e+01 0 0 0
909 2 3.6914999999999996e+00 6.3938655561404980e+00 3.3382415878294154e+01 0 0 0
884 2 0.0000000000000000e+00 7.1042950623783341e+00 3.3382415878294154e+01 0 0 0
895 2 2.4610000000000003e+00 7.1042950623783341e+00 3.3382415878294154e+01 0 0 0
608 2 4.9220000000000006e+00 5.6834360499026637e+00 3.0030999999991895e+01 0 0 0
610 2 4.9220000000000006e+00 4.2625770374269978e+00 3.0030999999991895e+01 0 0 0
643 2 6.1524999999999999e+00 6.3938655561404980e+00 3.0030999999991895e+01 0 0 0
645 2 7.3829999999999991e+00 5.6834360499026637e+00 3.0030999999991895e+01 0 0 0
647 2 7.3829999999999991e+00 4.2625770374269996e+00 3.0030999999991895e+01 0 0 0
641 2 6.1524999999999999e+00 7.8147245686161639e+00 3.0030999999991895e+01 0 0 0
911 2 4.9220000000000006e+00 4.2625770374269978e+00 3.3382415878294154e+01 0 0 0
912 2 6.1524999999999999e+00 4.9730065436648339e+00 3.3382415878294154e+01 0 0 0
928 2 6.1524999999999999e+00 6.3938655561404980e+00 3.3382415878294154e+01 0 0 0
930 2 7.3829999999999991e+00 4.2625770374269996e+00 3.3382415878294154e+01 0 0 0
910 2 4.9220000000000006e+00 7.1042950623783341e+00 3.3382415878294154e+01 0 0 0
929 2 7.3830000000000009e+00 7.1042950623783341e+00 3.3382415878294154e+01 0 0 0
688 2 8.6135000000000002e+00 6.3938655561404980e+00 3.0030999999991895e+01 0 0 0
690 2 9.8440000000000012e+00 5.6834360499026637e+00 3.0030999999991895e+01 0 0 0
692 2 9.8440000000000012e+00 4.2625770374270004e+00 3.0030999999991895e+01 0 0 0
735 2 1.1074500000000002e+01 6.3938655561404980e+00 3.0030999999991895e+01 0 0 0
686 2 8.6135000000000002e+00 7.8147245686161639e+00 3.0030999999991895e+01 0 0 0
733 2 1.1074500000000002e+01 7.8147245686161639e+00 3.0030999999991895e+01 0 0 0
931 2 8.6135000000000002e+00 4.9730065436648339e+00 3.3382415878294154e+01 0 0 0
951 2 8.6135000000000002e+00 6.3938655561404980e+00 3.3382415878294154e+01 0 0 0
953 2 9.8440000000000012e+00 4.2625770374270004e+00 3.3382415878294154e+01 0 0 0
954 2 1.1074500000000002e+01 4.9730065436648339e+00 3.3382415878294154e+01 0 0 0
975 2 1.1074500000000002e+01 6.3938655561404980e+00 3.3382415878294154e+01 0 0 0
952 2 9.8440000000000012e+00 7.1042950623783341e+00 3.3382415878294154e+01 0 0 0
571 2 0.0000000000000000e+00 9.9460130873296642e+00 3.0030999999991895e+01 0 0 0
573 2 0.0000000000000000e+00 8.5251540748539991e+00 3.0030999999991895e+01 0 0 0
600 2 2.4610000000000003e+00 9.9460130873296642e+00 3.0030999999991895e+01 0 0 0
602 2 2.4610000000000003e+00 8.5251540748539991e+00 3.0030999999991895e+01 0 0 0
596 2 1.2305000000000001e+00 1.2077301606043163e+01 3.0030999999991895e+01 0 0 0
598 2 1.2305000000000001e+00 1.0656442593567498e+01 3.0030999999991895e+01 0 0 0
633 2 3.6914999999999996e+00 1.2077301606043163e+01 3.0030999999991895e+01 0 0 0
635 2 3.6914999999999996e+00 1.0656442593567499e+01 3.0030999999991895e+01 0 0 0
892 2 0.0000000000000000e+00 8.5251540748539991e+00 3.3382415878294154e+01 0 0 0
893 2 1.2305000000000001e+00 9.2355835810918343e+00 3.3382415878294154e+01 0 0 0
907 2 2.4610000000000003e+00 8.5251540748539991e+00 3.3382415878294154e+01 0 0 0
908 2 3.6915000000000004e+00 9.2355835810918343e+00 3.3382415878294154e+01 0 0 0
891 2 0.0000000000000000e+00 1.1366872099805333e+01 3.3382415878294154e+01 0 0 0
905 2 1.2305000000000001e+00 1.0656442593567498e+01 3.3382415878294154e+01 0 0 0
906 2 2.4610000000000003e+00 1.1366872099805333e+01 3.3382415878294154e+01 0 0 0
924 2 3.6914999999999996e+00 1.0656442593567499e+01 3.3382415878294154e+01 0 0 0
637 2 4.9220000000000006e+00 9.9460130873296642e+00 3.0030999999991895e+01 0 0 0
639 2 4.9220000000000006e+00 8.5251540748539991e+00 3.0030999999991895e+01 0 0 0
682 2 7.3830000000000009e+00 9.9460130873296642e+00 3.0030999999991895e+01 0 0 0
684 2 7.3830000000000009e+00 8.5251540748539991e+00 3.0030999999991895e+01 0 0 0
678 2 6.1524999999999999e+00 1.2077301606043163e+01 3.0030999999991895e+01 0 0 0
680 2 6.1524999999999999e+00 1.0656442593567499e+01 3.0030999999991895e+01 0 0 0
926 2 4.9220000000000006e+00 8.5251540748539991e+00 3.3382415878294154e+01 0 0 0
927 2 6.1524999999999999e+00 9.2355835810918343e+00 3.3382415878294154e+01 0 0 0
949 2 7.3830000000000009e+00 8.5251540748539991e+00 3.3382415878294154e+01 0 0 0
925 2 4.9220000000000006e+00 1.1366872099805333e+01 3.3382415878294154e+01 0 0 0
947 2 6.1524999999999999e+00 1.0656442593567499e+01 3.3382415878294154e+01 0 0 0
948 2 7.3829999999999991e+00 1.1366872099805333e+01 3.3382415878294154e+01 0 0 0
729 2 9.8440000000000012e+00 9.9460130873296642e+00 3.0030999999991895e+01 0 0 0
731 2 9.8440000000000012e+00 8.5251540748539956e+00 3.0030999999991895e+01 0 0 0
725 2 8.6135000000000002e+00 1.2077301606043163e+01 3.0030999999991895e+01 0 0 0
727 2 8.6134999999999984e+00 1.0656442593567498e+01 3.0030999999991895e+01 0 0 0
772 2 1.1074500000000002e+01 1.2077301606043163e+01 3.0030999999991895e+01 0 0 0
774 2 1.1074500000000002e+01 1.0656442593567498e+01 3.0030999999991895e+01 0 0 0
950 2 8.6134999999999984e+00 9.2355835810918343e+00 3.3382415878294154e+01 0 0 0
973 2 9.8440000000000012e+00 8.5251540748539956e+00 3.3382415878294154e+01 0 0 0
974 2 1.1074500000000002e+01 9.2355835810918343e+00 3.3382415878294154e+01 0 0 0
971 2 8.6134999999999984e+00 1.0656442593567498e+01 3.3382415878294154e+01 0 0 0
972 2 9.8440000000000012e+00 1.1366872099805333e+01 3.3382415878294154e+01 0 0 0
995 2 1.1074500000000002e+01 1.0656442593567498e+01 3.3382415878294154e+01 0 0 0
996 2 1.2304999999999998e+01 1.1366872099805333e+01 3.3382415878294154e+01 0 0 0
1999 1 2.8448037048827306e+00 1.5698093334072003e+00 3.5788045910227865e+01 2 -3 -1
4939 1 3.3084929841683719e+00 4.2731176633568584e+00 3.6598157220399685e+01 2 -3 0
3440 1 7.4303637381904482e+00 7.3827340476732217e-01 3.5691980776160435e+01 0 2 0
3660 1 7.7104709460431486e+00 3.3054173816764849e+00 3.6614764490626442e+01 3 -2 0
3257 1 4.0910600794412231e+00 9.3371502880224444e+00 4.2855388987058191e+01 1 0 0
3362 1 1.1730845234230896e+01 2.1082760992536925e-01 3.5665180605483187e+01 4 1 -1
3558 1 1.3086368490956877e+00 5.9261519390353392e+00 3.5622744777372233e+01 4 2 -1
5991 1 1.8398318386746029e+00 8.3290816806488248e+00 3.6549180762641072e+01 0 0 -1
4453 1 5.8284219381441513e+00 4.8811398212280928e+00 3.5522630549251176e+01 2 -4 0
3405 1 6.1284761765507918e+00 7.3502391109747567e+00 3.6520609394063143e+01 1 0 0
5081 1 1.0154821758033659e+01 4.3950211452583421e+00 3.5672873238528709e+01 2 -2 -1
4962 1 1.0622590897935595e+01 6.9418786574167033e+00 3.6647965680552431e+01 -1 -1 -1
1698 1 4.4058242676302370e+00 9.5189796720467648e+00 3.5980397914457896e+01 -1 -1 -1
6227 1 4.8584709876403140e+00 1.1938158288133465e+01 3.6729268131179339e+01 0 0 0
1386 1 1.1833135029687925e+01 1.1769695136912128e+01 4.2999995131687442e+01 -2 -4 0
545 1 8.5421447470460325e+00 8.4937801032398799e+00 3.5808865474467794e+01 -1 -1 -1
1862 1 8.9949399242139592e+00 1.0933659288778136e+01 3.6631277340704457e+01 1 -1 -1
1871 1 1.0156233676786121e+01 4.5260125438565559e+00 4.2797921425002258e+01 -1 1 -1
2889 1 2.6197283691056796e+00 1.5180015594429848e+00 4.0451541233633776e+01 0 0 0
5126 1 3.1498802943673248e+00 4.0557889894582306e+00 3.9358843297782926e+01 0 0 -1
4739 1 7.1961318587446828e+00 3.3331158453588512e+00 3.9377771958710099e+01 0 1 0
53 1 6.7002676250130602e+00 1.0372338194751605e+00 4.0329294113025938e+01 0 1 -1
193 1 6.7789073045687296e+00 9.9521952547289594e+00 4.3820393949104499e+01 2 2 0
6269 1 1.1367155987384651e+01 1.2006854088910643e+01 4.0514011815118877e+01 2 -3 0
1703 1 1.7862132241608388e+00 8.1668067150657944e+00 3.9170925284603797e+01 0 2 -1
1379 1 1.1742901737803892e+00 5.6451806683862165e+00 4.0089823335908036e+01 1 -1 -1
3522 1 6.0962408331175313e+00 7.6240129000106531e+00 3.9245631799784604e+01 1 3 -1
5210 1 5.3208285964473525e+00 5.1408853440687272e+00 4.0209391231836634e+01 -1 1 -1
6101 1 9.7934062075990109e+00 4.2185605577065068e+00 4.0108097389613349e+01 2 1 -1
1674 1 1.0460036567505950e+01 6.9068008296518055e+00 3.9352141676510442e+01 1 -2 -1
6041 1 1.5450686429745941e-01 5.8995374185561467e-01 3.6500292073134815e+01 4 -1 0
1932 1 4.6794254499926033e+00 1.1884487209345359e+01 3.9652742827716608e+01 -1 2 -1
3165 1 4.0567050786104186e+00 9.3736644015720678e+00 4.0089870919278667e+01 0 2 0
5086 1 8.3485626649629445e+00 8.6752646460009810e+00 4.0079122608168461e+01 0 -2 0
1716 1 9.0510971521083334e+00 1.0973563067692430e+01 3.9275583714143607e+01 -2 -1 0
2989 1 1.1814074512657252e+01 1.6805551696646084e-01 4.2968613458860290e+01 1 -2 -1
4581 1 2.7904096474562170e+00 1.5905220669768041e+00 4.3141070805817165e+01 4 -4 -1
6323 1 8.7239933749707674e+00 8.3772563773265087e+00 4.2834684584940234e+01 -4 0 0
5054 1 7.1237471850642908e+00 6.3422664781748728e-01 4.3134526565301627e+01 -1 -4 0
4837 1 1.1432612470320782e+01 2.8266498692906106e-01 4.0259885130025310e+01 0 0 -1
5197 1 1.1977195175291149e+01 2.7582700102469975e+00 3.6425229954923324e+01 1 2 0
1240 1 1.6229510816035448e+00 5.6564206380246738e+00 4.3144354238628708e+01 -2 2 -1
5099 1 4.5341137950632282e-01 2.5700890940018911e-01 3.9301504080356153e+01 0 -3 -1
4522 1 5.6125939553342317e+00 5.2457627951846844e+00 4.2957447701644227e+01 -1 0 0
4964 1 8.1506184604511276e+00 6.0002021993825467e+00 4.3893500562035015e+01 2 0 0
6187 1 1.1936557516064511e+01 2.7094740715623900e+00 3.9128816650940806e+01 1 4 -1
3240 1 2.2379874588194122e+00 1.1258254222388734e+01 4.3996032581319980e+01 0 2 0
1267 1 1.1136236088595256e+01 9.1874960672263928e+00 4.3847638572805124e+01 1 0 0
1475 1 9.7544465331341961e+00 1.7707261590034460e+00 4.3653459210882289e+01 -3 4 0
4731 1 5.2592335003434547e+00 2.4839861164640205e+00 4.3923576909286865e+01 -5 1 -1
96 1 1.1135654870827885e+01 1.1930789701214282e+01 3.5633176945473167e+01 -1 0 0
6258 1 9.3640194778424157e-01 2.9350288642530984e+00 4.6913896419978997e+01 1 2 -1
2097 1 5.4880037053251396e+00 2.2168828081451828e+00 4.6824293945233350e+01 -1 1 0
3615 1 7.2470986499364933e+00 3.4160361774350684e-01 5.0580365032236074e+01 0 5 0
2829 1 9.6988749147077300e+00 1.8475594743921508e+00 4.6376950514875560e+01 -2 -1 0
4650 1 3.7671585130521397e+00 6.4520355325600356e+00 4.7063923581944792e+01 0 2 0
2120 1 1.4857295940580799e+00 5.4171650026325100e+00 4.7689771036887649e+01 5 1 -1
3520 1 8.2308468038463012e+00 5.7150946222399366e+00 4.6532619147299201e+01 1 -1 -1
52 1 1.1952368979922095e+01 2.5150773461239266e+00 5.5320312293776041e+01 -4 1 0
2991 1 2.6947707021322032e+00 1.0830211365214929e+01 4.6515873857493730e+01 1 -1 -1
5237 1 1.8995604572991238e+00 8.0073850628276535e+00 5.5487485766754290e+01 1 1 0
1369 1 6.9292036875684637e+00 1.0190841070930329e+01 4.7002824776256730e+01 0 -2 0
4615 1 4.5692258024237287e+00 1.1737484723215573e+01 5.5281598938039238e+01 -2 -1 -1
1880 1 1.1202455585349764e+01 9.1118970555684022e+00 4.6644629874072209e+01 -1 2 -1
3196 1 3.0430351968085252e+00 1.1235050905813078e+00 4.7695870281392303e+01 3 0 -1
3236 1 3.0299333678479905e+00 5.8233491982765251e-01 5.0372851427952952e+01 1 0 -1
3041 1 7.5412267707202840e+00 8.0535884182004747e-01 4.7870705162851777e+01 3 4 0
3027 1 6.4080158790564845e-01 2.7252553405401014e-01 5.8097429707783547e+01 -1 1 -1
2966 1 5.7343371995335424e-01 3.6455337064296495e-01 5.5280609055843570e+01 1 5 0