LAMMPS data file via write_data, version 16 Mar 2018, timestep = 100000

6328 atoms
2 atom types

0.0000000000000000e+00 4.9219999999999999e+01 xlo xhi
0.0000000000000000e+00 4.9019635930410494e+01 ylo yhi
3.5942450980305054e+00 5.6467754901967574e+01 zlo zhi

Masses

1 18.015
2 12.01

Atoms # atomic

4431 1 4.6627357465099388e+00 3.2200645958715541e+00 8.2999584146942773e+00 1 1 1
6173 1 1.9249503798125212e+00 3.6355706595558317e+00 7.9424548677252762e+00 1 1 1
1689 1 3.5461432650687857e-01 7.1106993762305306e+00 1.3678011269075164e+01 0 1 1
3520 1 9.3580013636820585e+00 7.0097430471482873e+00 1.6015723470927373e+01 0 1 0
1532 1 7.3650826652769785e+00 3.9279695030490132e+00 5.4575135407673168e+00 0 1 0
1853 1 9.4931295314983100e+00 1.4673273920056009e+00 5.4804362596941605e+00 1 -1 1
4537 1 2.8225611388398169e+00 1.5795190462184332e+00 1.0249875339405451e+01 -1 0 0
2140 1 4.1124692539036856e+00 1.2093559550635407e+01 1.3130918375200048e+01 1 1 1
3486 1 3.7663150274258799e+00 7.1770224576517938e+00 6.3641665323267933e+00 0 0 0
4986 1 5.6568198915918078e-01 5.5482783364946258e+00 1.6325135492139747e+01 0 0 1
4895 1 4.5027432058649319e+00 4.3201039041913996e+00 5.5527776767008863e+00 0 1 0
3692 1 6.8387331767880140e+00 7.6832455287380563e+00 6.5540616782001173e+00 1 1 1
1970 1 4.3503287931762396e+00 8.7342034811442701e+00 8.7392911120630057e+00 0 1 0
2003 1 1.1303971020777395e+01 7.3369396755815117e+00 6.1648705844844214e+00 0 -1 0
6022 1 8.5583021701673925e+00 5.3957727931031192e+00 7.4808613504017600e+00 0 1 0
1751 1 1.1278048093482404e+01 4.8513538471275908e+00 7.8592814501363648e+00 0 0 0
1513 1 6.2894682351206788e-01 9.8383453994081673e+00 5.4152609910290375e+00 1 1 1
193 1 3.7101533776429134e+00 1.1489811256588050e+01 6.6440635542879329e+00 1 0 1
205 1 1.0171658398302458e+01 7.4678902550825588e-01 1.2702409796703279e+01 0 -1 0
4504 1 6.6941229908105511e+00 1.0513021181767206e+01 1.5798958951425995e+01 0 0 1
1864 1 1.1786127312191558e+01 4.8011772059772966e+00 1.4249732671242825e+01 2 1 0
6085 1 8.1748014224839771e+00 1.0114814692348389e+01 6.9392806590261387e+00 1 1 1
5974 1 1.0101079227788137e+01 8.8394281728720792e+00 8.4285696523780018e+00 -1 0 1
373 1 1.4652410533681861e+00 6.5522009664721894e+00 8.2932536652394546e+00 1 0 0
6126 1 2.1164564361485589e+00 3.6822251600386293e+00 1.2003917326284345e+01 1 1 1
5008 1 7.8127255102939177e+00 3.2755750588060295e-01 1.1220292260208723e+01 0 1 0
4603 1 1.1674677793544827e+01 2.7839048338520227e+00 6.1428645363942076e+00 1 1 1
4514 1 6.6193114436836762e+00 1.4717764744038506e+00 6.5792053886826656e+00 1 0 1
1286 1 4.2597851977762922e+00 4.2311443979573848e-01 5.0937455682084538e+00 0 1 1
4789 1 8.9010090745576846e+00 1.2075256858067226e+01 1.4988247181840000e+01 1 0 0
1808 1 5.4270814046005960e+00 3.8009764936701629e+00 1.1076072550266424e+01 0 1 0
4929 1 3.0904241909383483e+00 6.0964621349852806e+00 1.0719074287260572e+01 0 1 0
4596 1 8.2212571819092251e+00 3.2172060618534766e+00 1.1432639081629642e+01 0 1 0
6280 1 5.6786308375412737e+00 6.1655429428813342e+00 9.2383763793012861e+00 1 0 1
1264 1 8.5664103891267764e+00 6.8887809328050418e+00 1.0270540175717311e+01 0 0 1
4959 1 1.0508283091282580e+01 4.8896819878696078e+00 1.0587576938629919e+01 0 1 0
146 1 1.5306970703765490e+00 1.1058612543459386e+01 1.2839375875894744e+01 1 -1 0
446 1 1.6165337797015928e+00 9.4785038840811993e+00 8.1160038478752661e+00 -1 1 1
1675 1 5.8868312252913899e+00 1.0938614157145356e+01 8.1942188100432212e+00 0 0 0
1405 1 3.5131787692174852e+00 9.1881577665207192e+00 4.7064720954488415e+00 0 0 1
2958 1 1.1911566863425863e+01 1.0011362800958242e+01 9.8240292908225300e+00 1 1 1
6068 1 9.5856048209116871e+00 8.9184725647800693e+00 1.1907954501846850e+01 0 1 1
1639 1 1.0507795658059045e+01 1.1489956882518010e+01 1.2498731168063204e+01 -1 -1 0
3572 1 4.1291925972365808e+00 1.1424506771485676e+01 1.6134378017250327e+01 0 1 1
3076 1 1.0953988153252821e+01 1.0209982342409369e+01 1.5572776701339972e+01 -1 1 0
4840 1 1.3954117250405138e+00 3.0269028885884892e+00 1.5964684780544365e+01 1 0 1
1818 1 1.6587838206776404e+00 7.6019424880166930e-01 6.1771868370641965e+00 1 0 0
5978 1 5.6954330541785039e+00 1.0914112949980275e+00 1.2816863955847912e+01 0 0 1
5077 1 8.9719772675771843e+00 2.1308155916570218e-01 1.5518147016305951e+01 0 0 1
3214 1 9.0246989933285811e+00 3.7185058369995407e+00 1.4174335834671604e+01 1 0 0
1461 1 1.2074732535282047e+00 3.6060900313424837e+00 5.1043116378629838e+00 0 -1 1
3142 1 6.9624480981181849e+00 8.9350442145073519e+00 1.3222834535836819e+01 1 0 0
5213 1 4.1469562758028111e+00 2.9919357208799977e+00 1.3984747396357749e+01 0 1 0
4564 1 5.2586505854455892e+00 5.1426601629887285e+00 1.5633837481057613e+01 0 0 0
6072 1 4.7979075862681340e+00 9.7995440286482918e+00 1.1599408537032273e+01 0 1 1
1961 1 7.4545577819489850e+00 6.0723727116605470e+00 1.4447378222618328e+01 0 1 0
4879 1 9.0894518869453940e+00 6.7651569111005978e+00 4.3193269226786057e+00 0 0 1
4952 1 1.1191397895793440e+01 7.5598807001752313e+00 1.3772880159171811e+01 -1 0 0
4796 1 1.1894571120609012e+01 2.9094239347445350e+00 1.2209985342969407e+01 0 0 1
2966 1 2.3748703608480173e+00 8.4734064220557670e+00 1.2197527386231981e+01 1 1 1
1595 1 8.5760720777627455e+00 9.6259655374772279e+00 4.1571508560072177e+00 1 -1 0
3196 1 2.8018300070603548e+00 8.8493820749341729e+00 1.5102420017425350e+01 1 1 0
3085 1 4.4017340465949246e+00 1.7203889787658122e+00 1.6640954336168562e+01 0 0 1
331 1 1.1118969455581460e+01 1.0714054100594920e+01 3.7836521486363885e+00 0 1 0
215 1 2.3946210411160962e-01 9.3123040472306560e+00 1.5957940234723132e+01 -1 0 0
4797 1 2.3201598843168196e+00 2.9477405371959104e+00 2.4140331955558882e+01 0 0 0
1619 1 1.7845442045493256e+00 1.6251004036771886e+00 1.8322896954587439e+01 1 -1 1
3376 1 7.8293690565485745e+00 8.9668276941597629e+00 1.7592738724191427e+01 0 1 1
5287 1 6.2203405905325662e+00 3.5411368671335719e+00 1.7841360633232661e+01 1 1 -1
4673 1 6.3937031738724039e+00 3.7376421248655203e+00 2.0533616444018616e+01 0 0 1
4858 1 1.7238702871117839e+00 1.0965735778796212e+01 1.7546608423997917e+01 0 1 0
6253 1 3.2189860249643171e-01 9.2786568007948578e+00 2.1435591351565392e+01 1 2 1
773 2 1.1074500000000002e+01 1.0656442593567498e+01 2.6875765167817082e+01 0 0 0
1460 1 3.4907938674126666e+00 6.7085743635221986e+00 1.9675696153070195e+01 1 1 1
3375 1 7.6762345872762587e+00 5.8834325913246022e-01 2.4401201332468432e+01 1 0 1
22 1 5.4380495532930206e+00 6.1748065439424380e+00 2.1665299324172160e+01 -1 0 0
3089 1 1.3650163534583974e+00 6.0174140936630582e+00 2.0903944051457099e+01 1 0 1
410 1 9.6784967950771659e+00 6.4333054526463220e+00 1.9954572355064332e+01 -1 -1 0
3126 1 1.0359479657940016e+01 5.0559882501942592e+00 1.7510433070149961e+01 0 0 0
81 1 9.0520561735625922e+00 3.8925598115299498e+00 2.1143295893312104e+01 1 -1 -1
253 1 8.5971795912772571e+00 2.9437357407923157e+00 1.7045104711003038e+01 0 -1 0
3427 1 3.1698322279481213e+00 6.6047228927758512e+00 1.6819884465393457e+01 1 0 1
775 2 1.2304999999999998e+01 1.1366872099805333e+01 2.6875765167817082e+01 0 0 0
3614 1 9.6685529046595704e+00 1.0628717391067417e+01 1.8423587007051495e+01 1 0 0
105 1 7.3504186015324420e+00 7.8151713811023127e+00 1.9971799520557241e+01 0 0 0
730 2 9.8440000000000012e+00 8.5251540748539956e+00 2.6875765167817082e+01 0 0 0
4488 1 1.2047050763133406e+01 7.5760171143641628e+00 2.1140484240943213e+01 0 1 0
1795 1 1.0467916960682498e+01 1.0045478346254123e+01 2.1172879490929503e+01 1 0 0
4450 1 2.1213144879386139e+00 2.9193419472089719e+00 2.1068987254332342e+01 0 2 1
728 2 9.8440000000000012e+00 1.1366872099805333e+01 2.6875765167817082e+01 0 0 0
252 1 1.4845881735504773e+00 5.9519941557627467e+00 2.3894538610420629e+01 1 0 0
3266 1 7.7792213838675721e+00 7.4060468200689533e-01 2.1371110192285197e+01 -1 0 1
5067 1 6.0401818244349057e+00 3.3438817530672860e+00 2.3724283918865893e+01 0 1 0
1587 1 4.4164704541170332e+00 5.3111396963109199e+00 2.4537536858598259e+01 2 0 0
1339 1 4.8530243121284915e+00 1.8323315071792416e+00 2.1489525617084055e+01 1 0 1
5200 1 8.8925360044633344e+00 4.2246368491255648e+00 2.3867441364079205e+01 -1 -1 0
4415 1 1.1513995901057458e+01 2.3586503712647060e+00 2.1725395564959335e+01 0 1 1
5038 1 1.1059222699224707e+01 2.5704119781858803e+00 2.4474172891543656e+01 0 0 0
685 2 8.6134999999999984e+00 9.2355835810918343e+00 2.6875765167817082e+01 0 0 0
3392 1 3.8655478871677595e+00 9.9810152654932711e+00 2.4119152040977966e+01 0 0 1
6263 1 1.1606039857740138e+00 9.0311480810165321e+00 2.4301549245710888e+01 0 1 1
3239 1 5.8912374366480380e+00 7.6722432835145682e+00 2.4375967506394236e+01 1 0 0
6109 1 8.0226995549921867e+00 9.6326535203634354e+00 2.4030535038937568e+01 0 1 1
6293 1 9.7782764298894218e+00 7.0797231307638899e+00 2.4259535526857913e+01 1 -1 0
113 1 6.0558014587557352e-01 1.1704685184046317e+01 2.3790203090755224e+01 1 0 1
1432 1 2.6587832434039758e+00 9.2871374255070034e+00 1.9770508938560489e+01 0 0 0
3043 1 4.5478075034159744e+00 7.7700318728482787e-01 2.4119926501303919e+01 1 0 1
537 1 4.8544934006422027e+00 1.0699609440151418e+01 2.1246282090630551e+01 0 1 1
292 1 7.5345940763848827e+00 9.9050064910360121e+00 2.1516975162655960e+01 1 0 0
2085 1 1.0065137360398925e+01 1.4610624521041977e+00 1.9443536911743699e+01 0 0 1
1954 1 1.0803290937068569e+01 1.0158376667801551e+01 2.4105474756317737e+01 0 0 0
552 2 0.0000000000000000e+00 2.8417180249513345e+00 2.6875765167817082e+01 0 0 0
554 2 0.0000000000000000e+00 0.0000000000000000e+00 2.6875765167817082e+01 0 0 0
556 2 1.2305000000000001e+00 7.1042950623783474e-01 2.6875765167817082e+01 0 0 0
563 2 1.2305000000000001e+00 2.1312885187134998e+00 2.6875765167817082e+01 0 0 0
565 2 2.4610000000000003e+00 2.8417180249513345e+00 2.6875765167817082e+01 0 0 0
567 2 2.4610000000000003e+00 0.0000000000000000e+00 2.6875765167817082e+01 0 0 0
569 2 3.6915000000000004e+00 7.1042950623783474e-01 2.6875765167817082e+01 0 0 0
584 2 3.6914999999999996e+00 2.1312885187134998e+00 2.6875765167817082e+01 0 0 0
586 2 4.9220000000000006e+00 2.8417180249513332e+00 2.6875765167817082e+01 0 0 0
588 2 4.9220000000000006e+00 0.0000000000000000e+00 2.6875765167817082e+01 0 0 0
590 2 6.1524999999999999e+00 7.1042950623783407e-01 2.6875765167817082e+01 0 0 0
613 2 6.1524999999999999e+00 2.1312885187134989e+00 2.6875765167817082e+01 0 0 0
615 2 7.3829999999999991e+00 2.8417180249513345e+00 2.6875765167817082e+01 0 0 0
617 2 7.3829999999999991e+00 0.0000000000000000e+00 2.6875765167817082e+01 0 0 0
619 2 8.6134999999999984e+00 7.1042950623783407e-01 2.6875765167817082e+01 0 0 0
650 2 8.6134999999999984e+00 2.1312885187135002e+00 2.6875765167817082e+01 0 0 0
652 2 9.8440000000000012e+00 2.8417180249513332e+00 2.6875765167817082e+01 0 0 0
654 2 9.8440000000000012e+00 0.0000000000000000e+00 2.6875765167817082e+01 0 0 0
656 2 1.1074500000000002e+01 7.1042950623783330e-01 2.6875765167817082e+01 0 0 0
695 2 1.1074500000000002e+01 2.1312885187135002e+00 2.6875765167817082e+01 0 0 0
559 2 0.0000000000000000e+00 4.2625770374269996e+00 2.6875765167817082e+01 0 0 0
561 2 1.2305000000000001e+00 4.9730065436648339e+00 2.6875765167817082e+01 0 0 0
576 2 1.2305000000000001e+00 6.3938655561404980e+00 2.6875765167817082e+01 0 0 0
580 2 2.4610000000000003e+00 4.2625770374269996e+00 2.6875765167817082e+01 0 0 0
582 2 3.6914999999999996e+00 4.9730065436648339e+00 2.6875765167817082e+01 0 0 0
605 2 3.6914999999999996e+00 6.3938655561404980e+00 2.6875765167817082e+01 0 0 0
557 2 0.0000000000000000e+00 7.1042950623783341e+00 2.6875765167817082e+01 0 0 0
578 2 2.4610000000000003e+00 7.1042950623783341e+00 2.6875765167817082e+01 0 0 0
609 2 4.9220000000000006e+00 4.2625770374269978e+00 2.6875765167817082e+01 0 0 0
611 2 6.1524999999999999e+00 4.9730065436648339e+00 2.6875765167817082e+01 0 0 0
642 2 6.1524999999999999e+00 6.3938655561404980e+00 2.6875765167817082e+01 0 0 0
646 2 7.3829999999999991e+00 4.2625770374269996e+00 2.6875765167817082e+01 0 0 0
607 2 4.9220000000000006e+00 7.1042950623783341e+00 2.6875765167817082e+01 0 0 0
644 2 7.3830000000000009e+00 7.1042950623783341e+00 2.6875765167817082e+01 0 0 0
648 2 8.6135000000000002e+00 4.9730065436648339e+00 2.6875765167817082e+01 0 0 0
687 2 8.6135000000000002e+00 6.3938655561404980e+00 2.6875765167817082e+01 0 0 0
691 2 9.8440000000000012e+00 4.2625770374270004e+00 2.6875765167817082e+01 0 0 0
693 2 1.1074500000000002e+01 4.9730065436648339e+00 2.6875765167817082e+01 0 0 0
734 2 1.1074500000000002e+01 6.3938655561404980e+00 2.6875765167817082e+01 0 0 0
689 2 9.8440000000000012e+00 7.1042950623783341e+00 2.6875765167817082e+01 0 0 0
572 2 0.0000000000000000e+00 8.5251540748539991e+00 2.6875765167817082e+01 0 0 0
574 2 1.2305000000000001e+00 9.2355835810918343e+00 2.6875765167817082e+01 0 0 0
601 2 2.4610000000000003e+00 8.5251540748539991e+00 2.6875765167817082e+01 0 0 0
603 2 3.6915000000000004e+00 9.2355835810918343e+00 2.6875765167817082e+01 0 0 0
570 2 0.0000000000000000e+00 1.1366872099805333e+01 2.6875765167817082e+01 0 0 0
597 2 1.2305000000000001e+00 1.0656442593567498e+01 2.6875765167817082e+01 0 0 0
599 2 2.4610000000000003e+00 1.1366872099805333e+01 2.6875765167817082e+01 0 0 0
634 2 3.6914999999999996e+00 1.0656442593567499e+01 2.6875765167817082e+01 0 0 0
681 2 7.3829999999999991e+00 1.1366872099805333e+01 2.6875765167817082e+01 0 0 0
638 2 4.9220000000000006e+00 8.5251540748539991e+00 2.6875765167817082e+01 0 0 0
683 2 7.3830000000000009e+00 8.5251540748539991e+00 2.6875765167817082e+01 0 0 0
636 2 4.9220000000000006e+00 1.1366872099805333e+01 2.6875765167817082e+01 0 0 0
679 2 6.1524999999999999e+00 1.0656442593567499e+01 2.6875765167817082e+01 0 0 0
640 2 6.1524999999999999e+00 9.2355835810918343e+00 2.6875765167817082e+01 0 0 0
726 2 8.6134999999999984e+00 1.0656442593567498e+01 2.6875765167817082e+01 0 0 0
732 2 1.1074500000000002e+01 9.2355835810918343e+00 2.6875765167817082e+01 0 0 0
553 2 0.0000000000000000e+00 1.4208590124756650e+00 3.0030999999999100e+01 0 0 0
555 2 0.0000000000000000e+00 0.0000000000000000e+00 3.0030999999999100e+01 0 0 0
564 2 1.2305000000000001e+00 2.1312885187134998e+00 3.0030999999999100e+01 0 0 0
566 2 2.4610000000000003e+00 1.4208590124756650e+00 3.0030999999999100e+01 0 0 0
568 2 2.4610000000000003e+00 0.0000000000000000e+00 3.0030999999999100e+01 0 0 0
585 2 3.6914999999999996e+00 2.1312885187134998e+00 3.0030999999999100e+01 0 0 0
562 2 1.2305000000000001e+00 3.5521475311891644e+00 3.0030999999999100e+01 0 0 0
583 2 3.6914999999999996e+00 3.5521475311891644e+00 3.0030999999999100e+01 0 0 0
881 2 0.0000000000000000e+00 2.8417180249513345e+00 3.3186234832178577e+01 0 0 0
882 2 0.0000000000000000e+00 0.0000000000000000e+00 3.3186234832178577e+01 0 0 0
883 2 1.2305000000000001e+00 7.1042950623783474e-01 3.3186234832178577e+01 0 0 0
887 2 1.2305000000000001e+00 2.1312885187134998e+00 3.3186234832178577e+01 0 0 0
888 2 2.4610000000000003e+00 2.8417180249513345e+00 3.3186234832178577e+01 0 0 0
889 2 2.4610000000000003e+00 0.0000000000000000e+00 3.3186234832178577e+01 0 0 0
890 2 3.6915000000000004e+00 7.1042950623783474e-01 3.3186234832178577e+01 0 0 0
898 2 3.6914999999999996e+00 2.1312885187134998e+00 3.3186234832178577e+01 0 0 0
587 2 4.9220000000000006e+00 1.4208590124756650e+00 3.0030999999999100e+01 0 0 0
589 2 4.9220000000000006e+00 0.0000000000000000e+00 3.0030999999999100e+01 0 0 0
614 2 6.1524999999999999e+00 2.1312885187134989e+00 3.0030999999999100e+01 0 0 0
616 2 7.3829999999999991e+00 1.4208590124756659e+00 3.0030999999999100e+01 0 0 0
618 2 7.3829999999999991e+00 0.0000000000000000e+00 3.0030999999999100e+01 0 0 0
612 2 6.1524999999999999e+00 3.5521475311891644e+00 3.0030999999999100e+01 0 0 0
899 2 4.9220000000000006e+00 2.8417180249513332e+00 3.3186234832178577e+01 0 0 0
900 2 4.9220000000000006e+00 0.0000000000000000e+00 3.3186234832178577e+01 0 0 0
901 2 6.1524999999999999e+00 7.1042950623783407e-01 3.3186234832178577e+01 0 0 0
913 2 6.1524999999999999e+00 2.1312885187134989e+00 3.3186234832178577e+01 0 0 0
914 2 7.3829999999999991e+00 2.8417180249513345e+00 3.3186234832178577e+01 0 0 0
915 2 7.3829999999999991e+00 0.0000000000000000e+00 3.3186234832178577e+01 0 0 0
651 2 8.6134999999999984e+00 2.1312885187135002e+00 3.0030999999999100e+01 0 0 0
653 2 9.8440000000000012e+00 1.4208590124756659e+00 3.0030999999999100e+01 0 0 0
655 2 9.8440000000000012e+00 0.0000000000000000e+00 3.0030999999999100e+01 0 0 0
696 2 1.1074500000000002e+01 2.1312885187135002e+00 3.0030999999999100e+01 0 0 0
649 2 8.6134999999999984e+00 3.5521475311891657e+00 3.0030999999999100e+01 0 0 0
694 2 1.1074500000000002e+01 3.5521475311891644e+00 3.0030999999999100e+01 0 0 0
916 2 8.6134999999999984e+00 7.1042950623783407e-01 3.3186234832178577e+01 0 0 0
932 2 8.6134999999999984e+00 2.1312885187135002e+00 3.3186234832178577e+01 0 0 0
933 2 9.8440000000000012e+00 2.8417180249513332e+00 3.3186234832178577e+01 0 0 0
934 2 9.8440000000000012e+00 0.0000000000000000e+00 3.3186234832178577e+01 0 0 0
935 2 1.1074500000000002e+01 7.1042950623783330e-01 3.3186234832178577e+01 0 0 0
955 2 1.1074500000000002e+01 2.1312885187135002e+00 3.3186234832178577e+01 0 0 0
558 2 0.0000000000000000e+00 5.6834360499026637e+00 3.0030999999999100e+01 0 0 0
560 2 0.0000000000000000e+00 4.2625770374269996e+00 3.0030999999999100e+01 0 0 0
577 2 1.2305000000000001e+00 6.3938655561404980e+00 3.0030999999999100e+01 0 0 0
579 2 2.4610000000000003e+00 5.6834360499026637e+00 3.0030999999999100e+01 0 0 0
581 2 2.4610000000000003e+00 4.2625770374269996e+00 3.0030999999999100e+01 0 0 0
606 2 3.6914999999999996e+00 6.3938655561404980e+00 3.0030999999999100e+01 0 0 0
575 2 1.2305000000000001e+00 7.8147245686161639e+00 3.0030999999999100e+01 0 0 0
604 2 3.6914999999999996e+00 7.8147245686161639e+00 3.0030999999999100e+01 0 0 0
885 2 0.0000000000000000e+00 4.2625770374269996e+00 3.3186234832178577e+01 0 0 0
886 2 1.2305000000000001e+00 4.9730065436648339e+00 3.3186234832178577e+01 0 0 0
894 2 1.2305000000000001e+00 6.3938655561404980e+00 3.3186234832178577e+01 0 0 0
896 2 2.4610000000000003e+00 4.2625770374269996e+00 3.3186234832178577e+01 0 0 0
897 2 3.6914999999999996e+00 4.9730065436648339e+00 3.3186234832178577e+01 0 0 0
909 2 3.6914999999999996e+00 6.3938655561404980e+00 3.3186234832178577e+01 0 0 0
884 2 0.0000000000000000e+00 7.1042950623783341e+00 3.3186234832178577e+01 0 0 0
895 2 2.4610000000000003e+00 7.1042950623783341e+00 3.3186234832178577e+01 0 0 0
608 2 4.9220000000000006e+00 5.6834360499026637e+00 3.0030999999999100e+01 0 0 0
610 2 4.9220000000000006e+00 4.2625770374269978e+00 3.0030999999999100e+01 0 0 0
643 2 6.1524999999999999e+00 6.3938655561404980e+00 3.0030999999999100e+01 0 0 0
645 2 7.3829999999999991e+00 5.6834360499026637e+00 3.0030999999999100e+01 0 0 0
647 2 7.3829999999999991e+00 4.2625770374269996e+00 3.0030999999999100e+01 0 0 0
641 2 6.1524999999999999e+00 7.8147245686161639e+00 3.0030999999999100e+01 0 0 0
911 2 4.9220000000000006e+00 4.2625770374269978e+00 3.3186234832178577e+01 0 0 0
912 2 6.1524999999999999e+00 4.9730065436648339e+00 3.3186234832178577e+01 0 0 0
928 2 6.1524999999999999e+00 6.3938655561404980e+00 3.3186234832178577e+01 0 0 0
930 2 7.3829999999999991e+00 4.2625770374269996e+00 3.3186234832178577e+01 0 0 0
910 2 4.9220000000000006e+00 7.1042950623783341e+00 3.3186234832178577e+01 0 0 0
929 2 7.3830000000000009e+00 7.1042950623783341e+00 3.3186234832178577e+01 0 0 0
688 2 8.6135000000000002e+00 6.3938655561404980e+00 3.0030999999999100e+01 0 0 0
690 2 9.8440000000000012e+00 5.6834360499026637e+00 3.0030999999999100e+01 0 0 0
692 2 9.8440000000000012e+00 4.2625770374270004e+00 3.0030999999999100e+01 0 0 0
735 2 1.1074500000000002e+01 6.3938655561404980e+00 3.0030999999999100e+01 0 0 0
686 2 8.6135000000000002e+00 7.8147245686161639e+00 3.0030999999999100e+01 0 0 0
733 2 1.1074500000000002e+01 7.8147245686161639e+00 3.0030999999999100e+01 0 0 0
931 2 8.6135000000000002e+00 4.9730065436648339e+00 3.3186234832178577e+01 0 0 0
951 2 8.6135000000000002e+00 6.3938655561404980e+00 3.3186234832178577e+01 0 0 0
953 2 9.8440000000000012e+00 4.2625770374270004e+00 3.3186234832178577e+01 0 0 0
954 2 1.1074500000000002e+01 4.9730065436648339e+00 3.3186234832178577e+01 0 0 0
975 2 1.1074500000000002e+01 6.3938655561404980e+00 3.3186234832178577e+01 0 0 0
952 2 9.8440000000000012e+00 7.1042950623783341e+00 3.3186234832178577e+01 0 0 0
571 2 0.0000000000000000e+00 9.9460130873296642e+00 3.0030999999999100e+01 0 0 0
573 2 0.0000000000000000e+00 8.5251540748539991e+00 3.0030999999999100e+01 0 0 0
600 2 2.4610000000000003e+00 9.9460130873296642e+00 3.0030999999999100e+01 0 0 0
602 2 2.4610000000000003e+00 8.5251540748539991e+00 3.0030999999999100e+01 0 0 0
596 2 1.2305000000000001e+00 1.2077301606043163e+01 3.0030999999999100e+01 0 0 0
598 2 1.2305000000000001e+00 1.0656442593567498e+01 3.0030999999999100e+01 0 0 0
633 2 3.6914999999999996e+00 1.2077301606043163e+01 3.0030999999999100e+01 0 0 0
635 2 3.6914999999999996e+00 1.0656442593567499e+01 3.0030999999999100e+01 0 0 0
892 2 0.0000000000000000e+00 8.5251540748539991e+00 3.3186234832178577e+01 0 0 0
893 2 1.2305000000000001e+00 9.2355835810918343e+00 3.3186234832178577e+01 0 0 0
907 2 2.4610000000000003e+00 8.5251540748539991e+00 3.3186234832178577e+01 0 0 0
908 2 3.6915000000000004e+00 9.2355835810918343e+00 3.3186234832178577e+01 0 0 0
891 2 0.0000000000000000e+00 1.1366872099805333e+01 3.3186234832178577e+01 0 0 0
905 2 1.2305000000000001e+00 1.0656442593567498e+01 3.3186234832178577e+01 0 0 0
906 2 2.4610000000000003e+00 1.1366872099805333e+01 3.3186234832178577e+01 0 0 0
924 2 3.6914999999999996e+00 1.0656442593567499e+01 3.3186234832178577e+01 0 0 0
637 2 4.9220000000000006e+00 9.9460130873296642e+00 3.0030999999999100e+01 0 0 0
639 2 4.9220000000000006e+00 8.5251540748539991e+00 3.0030999999999100e+01 0 0 0
682 2 7.3830000000000009e+00 9.9460130873296642e+00 3.0030999999999100e+01 0 0 0
684 2 7.3830000000000009e+00 8.5251540748539991e+00 3.0030999999999100e+01 0 0 0
678 2 6.1524999999999999e+00 1.2077301606043163e+01 3.0030999999999100e+01 0 0 0
680 2 6.1524999999999999e+00 1.0656442593567499e+01 3.0030999999999100e+01 0 0 0
926 2 4.9220000000000006e+00 8.5251540748539991e+00 3.3186234832178577e+01 0 0 0
927 2 6.1524999999999999e+00 9.2355835810918343e+00 3.3186234832178577e+01 0 0 0
949 2 7.3830000000000009e+00 8.5251540748539991e+00 3.3186234832178577e+01 0 0 0
925 2 4.9220000000000006e+00 1.1366872099805333e+01 3.3186234832178577e+01 0 0 0
947 2 6.1524999999999999e+00 1.0656442593567499e+01 3.3186234832178577e+01 0 0 0
948 2 7.3829999999999991e+00 1.1366872099805333e+01 3.3186234832178577e+01 0 0 0
729 2 9.8440000000000012e+00 9.9460130873296642e+00 3.0030999999999100e+01 0 0 0
731 2 9.8440000000000012e+00 8.5251540748539956e+00 3.0030999999999100e+01 0 0 0
725 2 8.6135000000000002e+00 1.2077301606043163e+01 3.0030999999999100e+01 0 0 0
727 2 8.6134999999999984e+00 1.0656442593567498e+01 3.0030999999999100e+01 0 0 0
772 2 1.1074500000000002e+01 1.2077301606043163e+01 3.0030999999999100e+01 0 0 0
774 2 1.1074500000000002e+01 1.0656442593567498e+01 3.0030999999999100e+01 0 0 0
950 2 8.6134999999999984e+00 9.2355835810918343e+00 3.3186234832178577e+01 0 0 0
973 2 9.8440000000000012e+00 8.5251540748539956e+00 3.3186234832178577e+01 0 0 0
974 2 1.1074500000000002e+01 9.2355835810918343e+00 3.3186234832178577e+01 0 0 0
971 2 8.6134999999999984e+00 1.0656442593567498e+01 3.3186234832178577e+01 0 0 0
972 2 9.8440000000000012e+00 1.1366872099805333e+01 3.3186234832178577e+01 0 0 0
995 2 1.1074500000000002e+01 1.0656442593567498e+01 3.3186234832178577e+01 0 0 0
996 2 1.2304999999999998e+01 1.1366872099805333e+01 3.3186234832178577e+01 0 0 0
5084 1 2.7787201464211604e+00 1.4118968638891625e+00 3.8521635341973251e+01 1 0 -1
3064 1 1.0432975995610498e+01 9.2187657365334399e+00 4.1034039680624836e+01 0 1 -1
5206 1 2.9578263453104325e+00 1.8227315463399747e+00 3.5972228193451095e+01 1 0 -1
4740 1 3.3472483067260073e+00 8.1702019368496597e+00 4.1144965138269043e+01 1 0 -1
3593 1 6.2466495487329849e+00 1.0598918694649306e+00 3.6004851311935276e+01 0 1 -1
6285 1 5.2179311061335136e+00 3.8600734522106759e+00 3.5777186698865989e+01 0 -1 0
1696 1 4.3248817819094476e-01 1.5647672705440205e+00 4.0094612953580885e+01 0 0 -1
1561 1 9.6364595109920952e+00 1.6634383256686480e+00 3.9475911288417805e+01 1 1 0
3177 1 1.1068097369579121e+01 3.5656485081782168e+00 3.5437924634285963e+01 1 1 -1
4850 1 5.4318763342090621e+00 6.8022923545356395e+00 3.5605506423614230e+01 0 -1 0
4589 1 2.0546684533385862e+00 6.4316898792509312e+00 3.6272103232919079e+01 0 1 -1
2846 1 8.3431222691291165e+00 4.7445581067095723e+00 3.5776187988349392e+01 0 0 0
5127 1 8.0097731171493560e+00 7.7967662249358911e+00 3.6059585192974680e+01 1 -1 -1
5318 1 5.5411983938478704e+00 1.0916514698647466e+01 3.5962526204542655e+01 0 1 -1
6023 1 1.0652117063983720e+01 7.0744230612089689e+00 3.8113648633129571e+01 0 0 0
4702 1 5.0847329202406231e+00 6.9854211995085258e+00 3.8627429998072955e+01 1 0 0
5192 1 3.5142531227553229e+00 9.2096274719121123e+00 3.5732045173909775e+01 2 0 -1
6324 1 1.1197220234946472e+00 1.0454488223762120e+01 3.5511310568640724e+01 1 -1 -1
1271 1 7.8252453975726324e+00 7.7510202247751545e+00 3.8822531147779472e+01 2 -1 0
3263 1 8.2482106717696713e+00 1.0548169178281215e+01 3.5421615127925449e+01 2 -1 -1
118 1 1.1416213548644466e+01 9.7185594347502171e+00 3.5861475080015282e+01 1 1 0
1841 1 1.2216173856338528e+01 9.3867280640512334e+00 3.8736583733471534e+01 -1 1 -1
3028 1 8.3579828751622642e+00 3.3358948390823233e+00 4.1760008876699409e+01 2 -1 -1
505 1 3.2592364467207955e+00 9.6589054068989864e+00 3.8697850390311096e+01 -1 1 0
236 1 1.7269843222752363e+00 1.3051600857844063e+00 4.2624303126827144e+01 -1 2 -1
1916 1 3.7981180911930132e+00 1.1106679381802371e+01 4.1515918050372520e+01 1 0 0
4705 1 8.2385085871250698e+00 1.0660340158560970e+01 3.9630421476775304e+01 0 0 0
4874 1 9.0369285102242802e+00 1.5609628365912487e+00 3.6591597082357758e+01 1 0 -1
1846 1 4.4916133095299458e+00 3.0872694131697660e+00 4.0102876923171024e+01 1 1 -1
6019 1 6.2492505854369691e+00 1.2480731975133295e+00 4.1213017106069550e+01 0 2 0
5143 1 1.1209579216208049e+01 3.4248042682068567e+00 4.2647137890658058e+01 0 1 -1
4891 1 1.7628421320150074e+00 6.6292118033239698e+00 3.9038875518358708e+01 1 0 0
2839 1 1.3151647523695493e+00 7.7124852671517345e+00 4.2945252081018495e+01 0 0 0
2135 1 5.4336216873470535e+00 6.5478760764465269e+00 4.2585722195380690e+01 1 1 0
2970 1 1.1077604226899815e+01 6.7168428142360366e+00 3.5476148301811904e+01 0 1 0
6286 1 2.7276009912930568e+00 5.0174056381871983e+00 4.1589386027597278e+01 0 1 -1
4438 1 6.1925030666919021e+00 4.4737380764448673e+00 3.8186593418766016e+01 0 0 0
4535 1 9.1195265043851048e+00 4.4628040033104739e+00 3.8960348261764672e+01 1 0 -1
3284 1 7.5809156754028102e+00 6.1865546461431533e+00 4.1378797671794004e+01 1 1 -1
1285 1 7.8091454982570729e-01 3.8454214468192522e+00 3.5672543895983182e+01 2 1 0
5012 1 1.2113836756386023e+01 5.3494391193750290e-01 4.2593771865926911e+01 0 0 -1
4506 1 7.7230640973187290e+00 1.0705549307412168e+01 4.2568123266165180e+01 1 0 0
1951 1 1.0209277073790564e+00 1.1303418768067308e+01 3.8607591721114865e+01 1 1 -1
3382 1 1.2200589501622053e+01 5.0072431022875188e+00 3.9608620580836700e+01 1 1 -1
434 1 1.1794239696166898e+01 7.1475937406765917e+00 4.1926938239718972e+01 1 1 -1
4468 1 5.7778087634871653e+00 1.1275235223978708e+01 3.8747068499324655e+01 1 1 0
1766 1 1.1482534290378728e+01 1.1656268923889064e+01 4.2230791469766224e+01 -1 -1 -1
1382 1 1.1567651656876721e+00 1.1392113280910650e+01 4.2524568824883168e+01 0 0 0
3162 1 4.2592693827335202e+00 4.3581716366160395e+00 4.6988363774943480e+01 -1 1 -1
6144 1 5.9003987276797050e+00 4.2581203820519103e-01 4.5753935984520325e+01 1 0 -1
3524 1 4.7691042760765860e+00 1.7151984854568800e+00 4.8107037413115037e+01 0 0 0
448 1 5.7663785213689833e-01 2.3321973150880919e+00 4.7751111140895830e+01 0 1 0
6018 1 8.7382270669565436e+00 1.7228584756089207e-01 5.0651811766089558e+01 0 0 0
4841 1 8.7834146070866321e+00 3.7148954388838362e+00 4.4892156404794164e+01 0 0 0
1882 1 6.0458096434240973e+00 2.3527377461955519e+00 4.3845132554736843e+01 1 0 -1
4786 1 1.2442443343984262e+00 5.1700018458142107e+00 4.5847167470397153e+01 1 0 -1
6100 1 7.7373379303515684e+00 6.1709883789505158e+00 4.7800118048005693e+01 0 1 0
3615 1 6.3660062684223684e+00 5.4120216768051428e+00 4.5387130385568035e+01 1 0 0
2006 1 8.2211388851921168e+00 9.2506568705509586e+00 4.7478540538428931e+01 0 0 -1
6134 1 1.9506806778470538e+00 1.2238942313606222e+01 5.4646051608693149e+01 1 0 0
3601 1 1.1775674538113307e+01 4.8616882135503676e+00 4.5160069448574177e+01 1 1 -1
4566 1 1.1339274384093667e+01 5.1758361241332880e+00 4.9243831980776832e+01 -1 -1 0
3110 1 2.5073730370918401e+00 7.6674616511250830e+00 4.5418602732446502e+01 0 -1 -1
1544 1 1.1468898360515619e+01 2.0612508443515822e+00 5.4874525168194459e+01 1 0 0
3618 1 5.0994564467724457e+00 8.2591254186802594e+00 4.5087644518185776e+01 0 0 -1
5997 1 1.9370534575872839e-01 8.3201262717276183e+00 5.1769945004374328e+01 1 0 0
218 1 5.2356715915407364e+00 1.0848051548276901e+01 4.3890666286492895e+01 1 -1 -1
3577 1 3.3355669676333708e+00 3.4171025754159037e+00 4.4229773052994169e+01 1 0 -1
272 1 1.0478343347645241e+01 6.5363067078752897e+00 4.6948507755825844e+01 1 0 -1
401 1 1.0772394151141871e+01 1.0442340814614335e+01 4.5712382260757998e+01 0 1 -1
5955 1 4.2376268778778536e+00 4.5236510522198836e+00 5.2036628093279887e+01 -1 0 0
5970 1 4.5375013139045102e+00 8.0580223209044233e-01 5.0821264308846558e+01 1 0 -1
4443 1 1.0197869438354768e+01 1.5710840900528227e+00 4.6552325059116860e+01 0 -1 0
3613 1 7.5727176384207704e+00 2.9857223321231494e+00 4.7929963807232923e+01 0 2 0
5966 1 1.0187017171512922e+01 4.7874090752398049e+00 5.1850597773763269e+01 1 1 0