LAMMPS data file via write_data, version 16 Mar 2018, timestep = 100000

6736 atoms
2 atom types

0.0000000000000000e+00 4.9219999999999999e+01 xlo xhi
0.0000000000000000e+00 4.9019635930410494e+01 ylo yhi
8.8539393354579587e-01 5.9176606066453829e+01 zlo zhi

Masses

1 18.015
2 12.01

Atoms # atomic

6133 1 2.3367039699444052e+00 2.8133391752624628e+00 5.4591424111401619e+00 2 1 1
3725 1 9.6776233789825383e+00 1.1807920207379222e+01 9.6390313622206349e+00 1 0 0
4164 1 1.1008872964648143e+01 1.0176995592635999e+01 7.8325751698913999e+00 0 0 0
3678 1 5.5651004960193733e+00 3.0946303064591514e+00 5.0707746203071009e+00 1 -1 0
5097 1 5.4557070358924609e+00 3.7134928582945999e+00 2.0328525046377894e+00 1 0 0
4473 1 8.1433472861924283e+00 6.8831492597512902e+00 1.5767844474504069e+00 -1 2 0
4487 1 7.4987838418122097e+00 1.2578386743029955e+00 4.3792220027914883e+00 2 0 1
194 1 7.9099709860224534e+00 2.5884509950996133e+00 2.1809992764698816e+00 1 1 1
3446 1 2.3922943821450464e+00 1.1270970850532654e+01 9.0187604853634351e+00 0 1 1
4383 1 2.2826619639424464e+00 7.7039209423188293e+00 3.5916088215777981e+00 1 1 1
3572 1 1.3158318535459053e+00 3.8204255522264114e+00 1.2768176247936864e+00 1 1 0
5371 1 5.1434756806757900e+00 6.1934272062973035e+00 4.9079569804601535e+00 2 1 0
1236 1 5.2673336956698629e+00 6.6157681102813815e+00 2.0700649414172396e+00 -1 1 1
5863 1 9.5094369111523793e+00 4.8020995652304608e+00 3.4947421932435856e+00 0 1 1
822 1 3.1059148903729550e-01 5.7829119818890717e-03 6.0271826043079937e+00 -1 1 1
5400 1 1.0456881026256710e+01 5.5617389227137304e+00 1.4596389995148378e+01 1 1 0
503 1 7.9446744217957832e+00 8.5654014210067828e+00 1.0771321643762969e+01 -1 0 0
1815 1 3.5394506183541421e+00 1.0358907064778224e+01 5.2646080228965237e+00 -1 0 0
2446 1 9.5746546061923232e-01 5.4251879359334705e+00 9.6272667833929368e+00 1 1 1
2173 1 9.9554928934264275e+00 1.6216393511367533e+00 5.8356245147671713e+00 0 0 0
4437 1 1.0944911357437528e+01 8.2150319588676037e+00 3.5331818792088665e+00 1 0 1
5153 1 4.7100525533000539e+00 1.0019128231920192e+01 1.0022129355692195e+00 -1 0 0
2540 1 5.0293958429800876e+00 1.1933453340082703e+01 9.0418081593994213e+00 1 2 1
6250 1 2.7311986146701883e-01 2.4203020938096560e+00 3.5937985973550699e+00 1 -1 1
5875 1 1.0373122657597433e+01 1.6170377238916149e+00 1.4922500434298579e+01 1 2 1
2151 1 1.1587975988619522e+01 2.7745624574737087e+00 4.1077278566435300e+00 -1 0 0
5234 1 1.7085884105494360e+00 1.3828050519070851e+00 8.1236354640280055e+00 0 0 0
4451 1 1.0777647365505766e+01 7.7918751015392553e+00 1.1303494221670855e+01 0 2 1
6196 1 8.9047257273234575e+00 1.1325785589989493e+01 1.2513122890598064e+01 -1 1 1
1110 1 6.9898303510588917e+00 1.8530539526175374e+00 9.0382239446976520e+00 1 0 1
3808 1 5.0620015318889529e+00 1.6270604654906846e+00 7.5843685161720575e+00 0 0 0
5435 1 1.0402311363799162e+00 2.3643167463529888e+00 1.1839622228181966e+01 0 0 0
3593 1 8.7131692106195828e+00 3.4050229354388004e+00 8.2336001213500971e+00 0 0 0
4193 1 1.1166760209088791e+01 2.1314145618628166e+00 9.0612202177420578e+00 1 2 1
5232 1 8.4506716080387090e+00 9.6106355276235433e+00 2.6090828936350450e+00 1 0 1
5304 1 4.9238116752961654e+00 8.7967233821829360e+00 1.4372224684062163e+01 1 1 0
2596 1 3.0503327423464537e+00 5.4892079553683635e+00 7.8981242930083226e+00 0 0 1
2896 1 1.0477906107388435e+01 9.5199535715021177e+00 1.3816593296918638e+01 0 0 1
445 1 3.6664740807109251e+00 3.0413404761002729e+00 9.1368510438324595e+00 0 0 0
5859 1 5.3772368055568629e+00 8.1781812813169221e+00 6.9169579030865638e+00 1 2 1
6187 1 7.9037397280749975e+00 4.6318682447002324e+00 5.9296816037146574e+00 0 1 1
1024 1 1.0315892339789006e+01 7.2730010025733209e+00 8.1378417683910094e+00 -1 0 1
3739 1 8.8841796655514553e+00 7.3713817448295966e+00 5.9290437601540606e+00 1 2 0
6185 1 8.5497691961806854e+00 5.5366963048214135e+00 9.9910003526493210e+00 1 1 1
753 1 1.1634881915006567e+01 3.0246977627621994e+00 1.1427350640473863e+01 0 0 1
4434 1 2.3512592240073951e+00 8.7790439836672061e+00 7.6213435003806662e+00 1 -2 1
5129 1 1.1699380284622148e+01 1.4296584588949128e+00 1.6545010084322085e+00 1 1 1
1199 1 7.8352224891945461e+00 9.8977136509406378e+00 5.9930318252570460e+00 1 0 0
5349 1 7.1292967217076999e+00 1.0502634025453466e+01 8.7830839456745178e+00 2 -1 0
507 1 3.1801155543772186e+00 7.9033349324946300e+00 1.0501402076958646e+01 0 0 0
5495 1 9.7494185176884962e-01 1.0704805960207366e+01 3.8561905609196301e+00 -1 2 0
67 1 6.5262009792526499e+00 1.1088402928636061e+01 1.3720239628276854e+01 0 1 1
3592 1 2.0191696484522579e+00 5.5447846906420519e+00 5.4526995261803100e+00 2 0 0
752 1 1.4641454327162320e+00 1.0309207941290655e+01 1.1251920803974590e+01 0 1 1
4412 1 1.1152683876880488e+01 1.0790821991689851e+01 5.1435096269070160e+00 1 0 1
5166 1 3.5247850763566140e+00 2.9597848492676051e+00 1.1737055914178519e+01 0 1 1
2198 1 7.5558786626190138e+00 2.6465246499637272e+00 1.1918975845851870e+01 1 1 0
745 1 5.1622726647576851e+00 1.3868207778930866e+00 1.3178078972967711e+01 0 0 1
390 1 8.7993701246124658e+00 7.8142745935361848e+00 1.4988312461608572e+01 0 0 0
4536 1 9.6678867350877997e+00 1.0958573774344182e+00 1.2180533680884214e+01 0 -1 1
1067 1 5.7733653098979181e+00 9.0815659589337727e+00 3.6473485978769653e+00 0 1 1
2112 1 1.0782211763121352e+00 6.0148703687251608e+00 1.2265381383181658e+01 1 -1 0
2520 1 3.8860378484683324e+00 5.1856335831983493e+00 1.3217671378594614e+01 1 1 0
5328 1 5.6416885777617036e+00 6.1839106035779468e+00 8.8661186742433173e+00 1 0 0
3531 1 7.7673563981678022e+00 5.1117814356210518e+00 1.2926369170657347e+01 0 0 0
3634 1 5.3665811813582431e+00 7.3436765308603213e+00 1.2079921353291672e+01 0 0 0
1949 1 2.3080873578007877e+00 8.6514233732544703e+00 1.3742760769664107e+01 0 0 0
6245 1 1.1904757966020517e+01 5.5147301121041590e+00 1.2395428195947204e+01 0 1 1
5143 1 6.6145931753522689e+00 5.2520037139665430e+00 1.5284779535563612e+01 1 1 0
1895 1 2.5767249777789885e+00 1.1168797849197251e+01 1.5369128119399981e+01 -1 1 0
917 1 3.3556510850463357e+00 2.0781423335556255e+00 1.6966306023550601e+01 -1 1 1
3614 1 6.6601394404340395e+00 1.4985802438154847e+00 2.0760327451176131e+01 1 1 0
2102 1 7.8433851871249942e+00 5.6924363387375250e+00 2.1314836757302579e+01 0 1 0
3764 1 7.6338103473821493e+00 4.0293327292215171e+00 1.7465454015148708e+01 1 -1 0
5465 1 1.1951511592416644e+01 9.9653440658186376e+00 1.7888856493622562e+01 2 -1 0
604 2 1.1074500000000002e+01 9.2355835810918343e+00 2.6818500884463838e+01 0 0 0
2927 1 7.6209496774726948e-01 7.8997943686520760e+00 1.5662669100237480e+01 2 2 1
4265 1 4.0291303167886108e+00 6.4658013484081742e+00 1.8017546381021003e+01 1 0 1
626 2 1.2304999999999998e+01 1.1366872099805333e+01 2.6818500884463838e+01 0 0 0
185 1 5.8168669861564659e+00 7.5292743506630488e+00 1.6443938718074911e+01 0 -1 0
625 2 1.1074500000000002e+01 1.0656442593567498e+01 2.6818500884463838e+01 0 0 0
1149 1 5.6384260851481507e+00 4.8849718568990523e+00 1.9430717419393449e+01 0 2 1
6071 1 1.6386471961627191e+00 3.5309674716453534e+00 2.4093125930787224e+01 0 1 1
4578 1 1.0358684905825315e+01 4.2612569237967142e+00 1.8841684423210371e+01 1 1 1
405 1 5.0925840291651714e-01 5.8279378917765989e-01 2.3343962213586689e+01 1 1 0
602 2 9.8440000000000012e+00 1.1366872099805333e+01 2.6818500884463838e+01 0 0 0
1891 1 2.1116540521698610e+00 8.9479142019091302e+00 1.7695785480373985e+01 1 0 1
4596 1 1.3879695012113868e+00 2.7568162426605997e-01 2.0694263059945392e+01 1 0 1
993 1 4.1249904067917633e+00 1.1054627381917665e+01 1.8294337407322026e+01 0 1 1
2527 1 2.2112083653400685e+00 2.4179023064721381e+00 1.9502128880132702e+01 -1 1 1
980 1 8.0716075351332943e+00 8.2531768685599296e+00 1.8282725585811576e+01 1 -1 1
2773 1 6.9501044673851595e+00 9.0491296509829553e+00 2.0588780122488000e+01 1 1 1
1799 1 2.4743855959966997e-02 8.4179368517920228e+00 2.3391849596371816e+01 0 0 1
6219 1 6.6773110264354738e+00 1.5468279411264079e+00 2.4256299589805305e+01 1 1 1
5996 1 8.4154375484741308e+00 7.0388390263818434e-01 1.6420981621336431e+01 2 1 1
580 2 8.6134999999999984e+00 9.2355835810918343e+00 2.6818500884463838e+01 0 0 0
2058 1 6.9786375606895057e-01 5.0712418279085991e+00 1.5970469546815044e+01 1 1 0
5887 1 1.4118842145916790e+00 5.2575507833546604e+00 1.8603181572460937e+01 0 -1 1
3766 1 8.8579476986044998e+00 3.0948579263074261e+00 2.1183313574448011e+01 -1 0 0
937 1 4.0015121687604989e+00 8.9850020454322976e-01 2.3597460115855945e+01 1 0 1
246 1 9.3986284955818480e+00 2.8602967557429411e+00 2.3804444938278777e+01 -1 0 0
601 2 8.6134999999999984e+00 1.0656442593567498e+01 2.6818500884463838e+01 0 0 0
5540 1 4.2374633308102103e+00 3.3501160322026129e+00 2.1153930598400905e+01 2 2 0
3565 1 2.8986628020536744e+00 7.6138977638940588e+00 2.3338845485845102e+01 -1 1 0
3378 1 3.7302054972439271e+00 4.9939444458774283e+00 2.3173777445309184e+01 2 0 1
3812 1 8.1926440541030576e+00 6.3105194685552659e+00 2.3875892481749972e+01 1 0 0
932 1 1.0221576862952679e+01 6.7175965835687137e+00 1.9645430536114890e+01 0 1 1
4455 1 6.3709288667340820e+00 4.2633297882720491e+00 2.4155466173522115e+01 0 0 1
6079 1 6.0233987487971881e+00 1.8404645575132137e+00 1.7841055862436395e+01 1 1 1
5160 1 3.3607465762256661e+00 4.3007887376140310e+00 1.5737388135891564e+01 1 2 1
4294 1 1.1677117012989658e+01 4.3519588011328647e+00 2.3408071286973033e+01 0 -1 1
4336 1 1.0842172599416214e+01 8.1266105728435512e-01 2.0194169693522188e+01 -1 0 1
3705 1 1.1849559537854777e+01 3.7176792235908569e+00 1.6292300074218787e+01 2 1 0
4133 1 3.5930646283365890e+00 1.0244630706722921e+01 2.3127897961384306e+01 0 1 1
3665 1 2.3870506178617537e+00 7.5696024017036381e+00 2.0587305235960734e+01 0 -1 0
255 1 4.4189029300093781e+00 9.5676355763278522e+00 2.0567174765976588e+01 1 0 0
4232 1 6.0532583244948430e+00 1.1139328475257475e+01 2.4406974809799856e+01 0 1 1
265 1 7.7748598902608430e+00 9.5083427566291601e+00 2.3278349942010816e+01 0 0 0
1025 1 1.0345075835652946e+01 9.8006548794971842e+00 2.4220664032891595e+01 1 0 1
3449 1 1.0989056080791668e+01 7.0310381984370318e+00 2.4189131237363544e+01 0 1 0
3753 1 8.0785470174901484e+00 1.1694728774003304e+01 1.9867990580058176e+01 2 0 0
511 2 0.0000000000000000e+00 2.8417180249513345e+00 2.6818500884463838e+01 0 0 0
512 2 0.0000000000000000e+00 0.0000000000000000e+00 2.6818500884463838e+01 0 0 0
513 2 1.2305000000000001e+00 7.1042950623783474e-01 2.6818500884463838e+01 0 0 0
517 2 1.2305000000000001e+00 2.1312885187134998e+00 2.6818500884463838e+01 0 0 0
518 2 2.4610000000000003e+00 2.8417180249513345e+00 2.6818500884463838e+01 0 0 0
519 2 2.4610000000000003e+00 0.0000000000000000e+00 2.6818500884463838e+01 0 0 0
520 2 3.6915000000000004e+00 7.1042950623783474e-01 2.6818500884463838e+01 0 0 0
528 2 3.6914999999999996e+00 2.1312885187134998e+00 2.6818500884463838e+01 0 0 0
529 2 4.9220000000000006e+00 2.8417180249513332e+00 2.6818500884463838e+01 0 0 0
530 2 4.9220000000000006e+00 0.0000000000000000e+00 2.6818500884463838e+01 0 0 0
531 2 6.1524999999999999e+00 7.1042950623783407e-01 2.6818500884463838e+01 0 0 0
543 2 6.1524999999999999e+00 2.1312885187134989e+00 2.6818500884463838e+01 0 0 0
544 2 7.3829999999999991e+00 2.8417180249513345e+00 2.6818500884463838e+01 0 0 0
545 2 7.3829999999999991e+00 0.0000000000000000e+00 2.6818500884463838e+01 0 0 0
546 2 8.6134999999999984e+00 7.1042950623783407e-01 2.6818500884463838e+01 0 0 0
562 2 8.6134999999999984e+00 2.1312885187135002e+00 2.6818500884463838e+01 0 0 0
563 2 9.8440000000000012e+00 2.8417180249513332e+00 2.6818500884463838e+01 0 0 0
564 2 9.8440000000000012e+00 0.0000000000000000e+00 2.6818500884463838e+01 0 0 0
565 2 1.1074500000000002e+01 7.1042950623783330e-01 2.6818500884463838e+01 0 0 0
585 2 1.1074500000000002e+01 2.1312885187135002e+00 2.6818500884463838e+01 0 0 0
514 2 0.0000000000000000e+00 7.1042950623783341e+00 2.6818500884463838e+01 0 0 0
515 2 0.0000000000000000e+00 4.2625770374269996e+00 2.6818500884463838e+01 0 0 0
516 2 1.2305000000000001e+00 4.9730065436648339e+00 2.6818500884463838e+01 0 0 0
524 2 1.2305000000000001e+00 6.3938655561404980e+00 2.6818500884463838e+01 0 0 0
525 2 2.4610000000000003e+00 7.1042950623783341e+00 2.6818500884463838e+01 0 0 0
526 2 2.4610000000000003e+00 4.2625770374269996e+00 2.6818500884463838e+01 0 0 0
527 2 3.6914999999999996e+00 4.9730065436648339e+00 2.6818500884463838e+01 0 0 0
539 2 3.6914999999999996e+00 6.3938655561404980e+00 2.6818500884463838e+01 0 0 0
540 2 4.9220000000000006e+00 7.1042950623783341e+00 2.6818500884463838e+01 0 0 0
541 2 4.9220000000000006e+00 4.2625770374269978e+00 2.6818500884463838e+01 0 0 0
542 2 6.1524999999999999e+00 4.9730065436648339e+00 2.6818500884463838e+01 0 0 0
558 2 6.1524999999999999e+00 6.3938655561404980e+00 2.6818500884463838e+01 0 0 0
559 2 7.3830000000000009e+00 7.1042950623783341e+00 2.6818500884463838e+01 0 0 0
560 2 7.3829999999999991e+00 4.2625770374269996e+00 2.6818500884463838e+01 0 0 0
561 2 8.6135000000000002e+00 4.9730065436648339e+00 2.6818500884463838e+01 0 0 0
581 2 8.6135000000000002e+00 6.3938655561404980e+00 2.6818500884463838e+01 0 0 0
582 2 9.8440000000000012e+00 7.1042950623783341e+00 2.6818500884463838e+01 0 0 0
583 2 9.8440000000000012e+00 4.2625770374270004e+00 2.6818500884463838e+01 0 0 0
584 2 1.1074500000000002e+01 4.9730065436648339e+00 2.6818500884463838e+01 0 0 0
605 2 1.1074500000000002e+01 6.3938655561404980e+00 2.6818500884463838e+01 0 0 0
521 2 0.0000000000000000e+00 1.1366872099805333e+01 2.6818500884463838e+01 0 0 0
522 2 0.0000000000000000e+00 8.5251540748539991e+00 2.6818500884463838e+01 0 0 0
523 2 1.2305000000000001e+00 9.2355835810918343e+00 2.6818500884463838e+01 0 0 0
535 2 1.2305000000000001e+00 1.0656442593567498e+01 2.6818500884463838e+01 0 0 0
536 2 2.4610000000000003e+00 1.1366872099805333e+01 2.6818500884463838e+01 0 0 0
537 2 2.4610000000000003e+00 8.5251540748539991e+00 2.6818500884463838e+01 0 0 0
538 2 3.6915000000000004e+00 9.2355835810918343e+00 2.6818500884463838e+01 0 0 0
554 2 3.6914999999999996e+00 1.0656442593567499e+01 2.6818500884463838e+01 0 0 0
579 2 7.3830000000000009e+00 8.5251540748539991e+00 2.6818500884463838e+01 0 0 0
557 2 6.1524999999999999e+00 9.2355835810918343e+00 2.6818500884463838e+01 0 0 0
577 2 6.1524999999999999e+00 1.0656442593567499e+01 2.6818500884463838e+01 0 0 0
578 2 7.3829999999999991e+00 1.1366872099805333e+01 2.6818500884463838e+01 0 0 0
555 2 4.9220000000000006e+00 1.1366872099805333e+01 2.6818500884463838e+01 0 0 0
556 2 4.9220000000000006e+00 8.5251540748539991e+00 2.6818500884463838e+01 0 0 0
603 2 9.8440000000000012e+00 8.5251540748539956e+00 2.6818500884463838e+01 0 0 0
4304 1 1.2548145285225545e+00 3.5199605583009985e-01 1.6275069597236648e+01 1 -1 0
768 1 1.0755833577000047e+01 1.1702847418569098e+01 1.9890093680234443e+01 0 0 1
1817 1 9.3056775310768778e+00 1.0583912107067155e+01 1.6895214735779625e+01 -1 0 1
313 1 6.2745434838383645e+00 1.2089937432276326e+01 1.6453335512258494e+01 0 1 0
2920 1 1.2229773944755522e+01 7.6164134993471064e+00 2.1752814478309233e+01 1 0 1
2559 1 1.0620588839460765e+01 1.7701675970890562e-02 2.3495383693555212e+01 1 1 1
4593 1 6.2594955604254809e-01 1.1988730097375782e+01 2.0004666845681516e+01 -1 0 1
5281 1 1.3445836378044536e+00 1.1841214339006886e+01 2.2677626569492812e+01 -1 0 0
1250 2 0.0000000000000000e+00 1.4208590124756650e+00 3.0030999999999977e+01 0 0 0
1251 2 0.0000000000000000e+00 0.0000000000000000e+00 3.0030999999999977e+01 0 0 0
1254 2 1.2305000000000001e+00 3.5521475311891644e+00 3.0030999999999977e+01 0 0 0
1255 2 1.2305000000000001e+00 2.1312885187134998e+00 3.0030999999999977e+01 0 0 0
1256 2 2.4610000000000003e+00 1.4208590124756650e+00 3.0030999999999977e+01 0 0 0
1257 2 2.4610000000000003e+00 0.0000000000000000e+00 3.0030999999999977e+01 0 0 0
1264 2 3.6914999999999996e+00 3.5521475311891644e+00 3.0030999999999977e+01 0 0 0
1265 2 3.6914999999999996e+00 2.1312885187134998e+00 3.0030999999999977e+01 0 0 0
1411 2 0.0000000000000000e+00 2.8417180249513345e+00 3.3243499115537446e+01 0 0 0
1412 2 0.0000000000000000e+00 0.0000000000000000e+00 3.3243499115537446e+01 0 0 0
1413 2 1.2305000000000001e+00 7.1042950623783474e-01 3.3243499115537446e+01 0 0 0
1417 2 1.2305000000000001e+00 2.1312885187134998e+00 3.3243499115537446e+01 0 0 0
1418 2 2.4610000000000003e+00 2.8417180249513345e+00 3.3243499115537446e+01 0 0 0
1419 2 2.4610000000000003e+00 0.0000000000000000e+00 3.3243499115537446e+01 0 0 0
1420 2 3.6915000000000004e+00 7.1042950623783474e-01 3.3243499115537446e+01 0 0 0
1428 2 3.6914999999999996e+00 2.1312885187134998e+00 3.3243499115537446e+01 0 0 0
1266 2 4.9220000000000006e+00 1.4208590124756650e+00 3.0030999999999977e+01 0 0 0
1267 2 4.9220000000000006e+00 0.0000000000000000e+00 3.0030999999999977e+01 0 0 0
1278 2 6.1524999999999999e+00 3.5521475311891644e+00 3.0030999999999977e+01 0 0 0
1279 2 6.1524999999999999e+00 2.1312885187134989e+00 3.0030999999999977e+01 0 0 0
1280 2 7.3829999999999991e+00 1.4208590124756659e+00 3.0030999999999977e+01 0 0 0
1281 2 7.3829999999999991e+00 0.0000000000000000e+00 3.0030999999999977e+01 0 0 0
1429 2 4.9220000000000006e+00 2.8417180249513332e+00 3.3243499115537446e+01 0 0 0
1430 2 4.9220000000000006e+00 0.0000000000000000e+00 3.3243499115537446e+01 0 0 0
1431 2 6.1524999999999999e+00 7.1042950623783407e-01 3.3243499115537446e+01 0 0 0
1443 2 6.1524999999999999e+00 2.1312885187134989e+00 3.3243499115537446e+01 0 0 0
1444 2 7.3829999999999991e+00 2.8417180249513345e+00 3.3243499115537446e+01 0 0 0
1445 2 7.3829999999999991e+00 0.0000000000000000e+00 3.3243499115537446e+01 0 0 0
1296 2 8.6134999999999984e+00 3.5521475311891657e+00 3.0030999999999977e+01 0 0 0
1297 2 8.6134999999999984e+00 2.1312885187135002e+00 3.0030999999999977e+01 0 0 0
1298 2 9.8440000000000012e+00 1.4208590124756659e+00 3.0030999999999977e+01 0 0 0
1299 2 9.8440000000000012e+00 0.0000000000000000e+00 3.0030999999999977e+01 0 0 0
1318 2 1.1074500000000002e+01 3.5521475311891644e+00 3.0030999999999977e+01 0 0 0
1319 2 1.1074500000000002e+01 2.1312885187135002e+00 3.0030999999999977e+01 0 0 0
1446 2 8.6134999999999984e+00 7.1042950623783407e-01 3.3243499115537446e+01 0 0 0
1462 2 8.6134999999999984e+00 2.1312885187135002e+00 3.3243499115537446e+01 0 0 0
1463 2 9.8440000000000012e+00 2.8417180249513332e+00 3.3243499115537446e+01 0 0 0
1464 2 9.8440000000000012e+00 0.0000000000000000e+00 3.3243499115537446e+01 0 0 0
1465 2 1.1074500000000002e+01 7.1042950623783330e-01 3.3243499115537446e+01 0 0 0
1485 2 1.1074500000000002e+01 2.1312885187135002e+00 3.3243499115537446e+01 0 0 0
1252 2 0.0000000000000000e+00 5.6834360499026637e+00 3.0030999999999977e+01 0 0 0
1253 2 0.0000000000000000e+00 4.2625770374269996e+00 3.0030999999999977e+01 0 0 0
1260 2 1.2305000000000001e+00 7.8147245686161639e+00 3.0030999999999977e+01 0 0 0
1261 2 1.2305000000000001e+00 6.3938655561404980e+00 3.0030999999999977e+01 0 0 0
1262 2 2.4610000000000003e+00 5.6834360499026637e+00 3.0030999999999977e+01 0 0 0
1263 2 2.4610000000000003e+00 4.2625770374269996e+00 3.0030999999999977e+01 0 0 0
1274 2 3.6914999999999996e+00 7.8147245686161639e+00 3.0030999999999977e+01 0 0 0
1275 2 3.6914999999999996e+00 6.3938655561404980e+00 3.0030999999999977e+01 0 0 0
1414 2 0.0000000000000000e+00 7.1042950623783341e+00 3.3243499115537446e+01 0 0 0
1415 2 0.0000000000000000e+00 4.2625770374269996e+00 3.3243499115537446e+01 0 0 0
1416 2 1.2305000000000001e+00 4.9730065436648339e+00 3.3243499115537446e+01 0 0 0
1424 2 1.2305000000000001e+00 6.3938655561404980e+00 3.3243499115537446e+01 0 0 0
1425 2 2.4610000000000003e+00 7.1042950623783341e+00 3.3243499115537446e+01 0 0 0
1426 2 2.4610000000000003e+00 4.2625770374269996e+00 3.3243499115537446e+01 0 0 0
1427 2 3.6914999999999996e+00 4.9730065436648339e+00 3.3243499115537446e+01 0 0 0
1439 2 3.6914999999999996e+00 6.3938655561404980e+00 3.3243499115537446e+01 0 0 0
1276 2 4.9220000000000006e+00 5.6834360499026637e+00 3.0030999999999977e+01 0 0 0
1277 2 4.9220000000000006e+00 4.2625770374269978e+00 3.0030999999999977e+01 0 0 0
1292 2 6.1524999999999999e+00 7.8147245686161639e+00 3.0030999999999977e+01 0 0 0
1293 2 6.1524999999999999e+00 6.3938655561404980e+00 3.0030999999999977e+01 0 0 0
1294 2 7.3829999999999991e+00 5.6834360499026637e+00 3.0030999999999977e+01 0 0 0
1295 2 7.3829999999999991e+00 4.2625770374269996e+00 3.0030999999999977e+01 0 0 0
1440 2 4.9220000000000006e+00 7.1042950623783341e+00 3.3243499115537446e+01 0 0 0
1441 2 4.9220000000000006e+00 4.2625770374269978e+00 3.3243499115537446e+01 0 0 0
1442 2 6.1524999999999999e+00 4.9730065436648339e+00 3.3243499115537446e+01 0 0 0
1458 2 6.1524999999999999e+00 6.3938655561404980e+00 3.3243499115537446e+01 0 0 0
1459 2 7.3830000000000009e+00 7.1042950623783341e+00 3.3243499115537446e+01 0 0 0
1460 2 7.3829999999999991e+00 4.2625770374269996e+00 3.3243499115537446e+01 0 0 0
1314 2 8.6135000000000002e+00 7.8147245686161639e+00 3.0030999999999977e+01 0 0 0
1315 2 8.6135000000000002e+00 6.3938655561404980e+00 3.0030999999999977e+01 0 0 0
1316 2 9.8440000000000012e+00 5.6834360499026637e+00 3.0030999999999977e+01 0 0 0
1317 2 9.8440000000000012e+00 4.2625770374270004e+00 3.0030999999999977e+01 0 0 0
1337 2 1.1074500000000002e+01 7.8147245686161639e+00 3.0030999999999977e+01 0 0 0
1338 2 1.1074500000000002e+01 6.3938655561404980e+00 3.0030999999999977e+01 0 0 0
1461 2 8.6135000000000002e+00 4.9730065436648339e+00 3.3243499115537446e+01 0 0 0
1481 2 8.6135000000000002e+00 6.3938655561404980e+00 3.3243499115537446e+01 0 0 0
1482 2 9.8440000000000012e+00 7.1042950623783341e+00 3.3243499115537446e+01 0 0 0
1483 2 9.8440000000000012e+00 4.2625770374270004e+00 3.3243499115537446e+01 0 0 0
1484 2 1.1074500000000002e+01 4.9730065436648339e+00 3.3243499115537446e+01 0 0 0
1505 2 1.1074500000000002e+01 6.3938655561404980e+00 3.3243499115537446e+01 0 0 0
1258 2 0.0000000000000000e+00 9.9460130873296642e+00 3.0030999999999977e+01 0 0 0
1259 2 0.0000000000000000e+00 8.5251540748539991e+00 3.0030999999999977e+01 0 0 0
1270 2 1.2305000000000001e+00 1.2077301606043163e+01 3.0030999999999977e+01 0 0 0
1271 2 1.2305000000000001e+00 1.0656442593567498e+01 3.0030999999999977e+01 0 0 0
1272 2 2.4610000000000003e+00 9.9460130873296642e+00 3.0030999999999977e+01 0 0 0
1273 2 2.4610000000000003e+00 8.5251540748539991e+00 3.0030999999999977e+01 0 0 0
1288 2 3.6914999999999996e+00 1.2077301606043163e+01 3.0030999999999977e+01 0 0 0
1289 2 3.6914999999999996e+00 1.0656442593567499e+01 3.0030999999999977e+01 0 0 0
1421 2 0.0000000000000000e+00 1.1366872099805333e+01 3.3243499115537446e+01 0 0 0
1422 2 0.0000000000000000e+00 8.5251540748539991e+00 3.3243499115537446e+01 0 0 0
1423 2 1.2305000000000001e+00 9.2355835810918343e+00 3.3243499115537446e+01 0 0 0
1435 2 1.2305000000000001e+00 1.0656442593567498e+01 3.3243499115537446e+01 0 0 0
1436 2 2.4610000000000003e+00 1.1366872099805333e+01 3.3243499115537446e+01 0 0 0
1437 2 2.4610000000000003e+00 8.5251540748539991e+00 3.3243499115537446e+01 0 0 0
1438 2 3.6915000000000004e+00 9.2355835810918343e+00 3.3243499115537446e+01 0 0 0
1454 2 3.6914999999999996e+00 1.0656442593567499e+01 3.3243499115537446e+01 0 0 0
1290 2 4.9220000000000006e+00 9.9460130873296642e+00 3.0030999999999977e+01 0 0 0
1291 2 4.9220000000000006e+00 8.5251540748539991e+00 3.0030999999999977e+01 0 0 0
1310 2 6.1524999999999999e+00 1.2077301606043163e+01 3.0030999999999977e+01 0 0 0
1311 2 6.1524999999999999e+00 1.0656442593567499e+01 3.0030999999999977e+01 0 0 0
1312 2 7.3830000000000009e+00 9.9460130873296642e+00 3.0030999999999977e+01 0 0 0
1313 2 7.3830000000000009e+00 8.5251540748539991e+00 3.0030999999999977e+01 0 0 0
1455 2 4.9220000000000006e+00 1.1366872099805333e+01 3.3243499115537446e+01 0 0 0
1456 2 4.9220000000000006e+00 8.5251540748539991e+00 3.3243499115537446e+01 0 0 0
1457 2 6.1524999999999999e+00 9.2355835810918343e+00 3.3243499115537446e+01 0 0 0
1477 2 6.1524999999999999e+00 1.0656442593567499e+01 3.3243499115537446e+01 0 0 0
1478 2 7.3829999999999991e+00 1.1366872099805333e+01 3.3243499115537446e+01 0 0 0
1479 2 7.3830000000000009e+00 8.5251540748539991e+00 3.3243499115537446e+01 0 0 0
1333 2 8.6135000000000002e+00 1.2077301606043163e+01 3.0030999999999977e+01 0 0 0
1334 2 8.6134999999999984e+00 1.0656442593567498e+01 3.0030999999999977e+01 0 0 0
1335 2 9.8440000000000012e+00 9.9460130873296642e+00 3.0030999999999977e+01 0 0 0
1336 2 9.8440000000000012e+00 8.5251540748539956e+00 3.0030999999999977e+01 0 0 0
1356 2 1.1074500000000002e+01 1.2077301606043163e+01 3.0030999999999977e+01 0 0 0
1357 2 1.1074500000000002e+01 1.0656442593567498e+01 3.0030999999999977e+01 0 0 0
1480 2 8.6134999999999984e+00 9.2355835810918343e+00 3.3243499115537446e+01 0 0 0
1501 2 8.6134999999999984e+00 1.0656442593567498e+01 3.3243499115537446e+01 0 0 0
1502 2 9.8440000000000012e+00 1.1366872099805333e+01 3.3243499115537446e+01 0 0 0
1503 2 9.8440000000000012e+00 8.5251540748539956e+00 3.3243499115537446e+01 0 0 0
1504 2 1.1074500000000002e+01 9.2355835810918343e+00 3.3243499115537446e+01 0 0 0
1525 2 1.1074500000000002e+01 1.0656442593567498e+01 3.3243499115537446e+01 0 0 0
1526 2 1.2304999999999998e+01 1.1366872099805333e+01 3.3243499115537446e+01 0 0 0
2571 1 1.9503323881092094e+00 2.6104165027711925e+00 3.5982621879088413e+01 1 0 0
4264 1 1.2659456989346718e+00 1.6944059973374075e+00 4.0299029474010055e+01 1 1 0
3528 1 5.0977631025213577e-01 5.9806323419934504e+00 3.6614462060360907e+01 0 0 -1
5218 1 6.6797788087558363e+00 1.7925583635625026e+00 3.5937830056762436e+01 0 0 -1
990 1 6.0133931239731941e+00 2.7741098355453122e+00 4.3742964215484022e+01 1 -1 -1
2561 1 1.3593741137588893e+00 4.2785414692107056e+00 4.1342983303510451e+01 1 1 0
502 1 1.1973300906800151e+01 2.7200275167177348e+00 3.5715048958059143e+01 1 -1 -1
2077 1 2.7943135347415984e+00 5.0214148880447835e+00 3.6541831408882686e+01 1 2 -1
5156 1 3.5140908274958695e+00 5.2944242047225805e+00 3.9093843922704920e+01 -1 1 -1
2778 1 4.0981513929529463e+00 1.4420383769713818e+00 3.6226888133713743e+01 0 1 -1
2795 1 6.1666378311184245e+00 4.2060598414470114e+00 3.9185950737066435e+01 0 1 0
965 1 7.2274093966256538e+00 4.3597652864212995e+00 3.6418276359867221e+01 -1 1 0
213 1 5.0467640568080041e+00 5.8027428940142878e+00 3.5561073793739880e+01 2 1 -1
4300 1 5.4532619163233704e+00 7.3704967375116057e+00 3.8924871559823970e+01 0 0 0
5397 1 1.0170263259843768e+01 4.4165881155917495e+00 3.6468920956990758e+01 2 0 -1
5927 1 1.0837854661579717e+01 7.0365564133837264e+00 3.6015161721468488e+01 0 0 0
4430 1 1.0974877676065081e+01 4.7730777969175433e+00 3.9535109914853052e+01 1 0 0
5250 1 1.2901092561416163e+00 1.0235770727141768e+01 3.8466689773611463e+01 1 0 -1
3675 1 1.6161473869362408e+00 1.0252977131749711e+01 3.6105503303781219e+01 0 0 -1
1784 1 1.0655771604166100e+01 9.2970929328060272e+00 4.2471742264640625e+01 2 1 -1
2606 1 5.8771708889308307e+00 8.3729994667388592e+00 3.6246229560881559e+01 2 0 0
3492 1 4.2987419968031819e+00 1.0558434810891601e+01 3.6115041137732305e+01 0 0 -1
1978 1 4.8621723659228335e+00 1.0013656070492598e+01 4.2170556405015319e+01 1 0 -1
6014 1 8.5342013331347157e+00 9.0632321154898730e+00 3.5966692234549086e+01 1 2 0
5440 1 1.1364471469264746e+01 7.3611993882964804e+00 3.8691019493332263e+01 1 1 -1
4425 1 9.8109100154709878e+00 8.8909652944055324e+00 4.0025002674090672e+01 0 -1 0
2138 1 9.7148783561081107e+00 1.1542552327665351e+01 3.6767399021507643e+01 2 1 -1
5420 1 3.9783591052865646e+00 9.6562048035514607e+00 3.9411164926137204e+01 0 2 -1
5572 1 2.8176876256780030e+00 1.4852607447433679e+00 4.2816757302751626e+01 1 1 -1
3657 1 7.4031406704251292e+00 7.5329620747632795e+00 4.0567778180552537e+01 1 -1 -1
1069 1 1.0147658127226924e+01 1.1539601294667628e+01 3.9734650979332216e+01 0 0 0
161 1 8.4643452360359674e+00 3.2517476949995689e+00 4.2982367707206535e+01 0 0 -1
6067 1 6.9728015952312612e+00 1.7571032518871619e+00 4.0432172715042455e+01 0 1 0
739 1 1.2040795241121916e+01 7.3832383477026586e-01 4.0917215716686869e+01 0 0 -1
1092 1 4.2077313990072179e-01 6.6725489164651808e-01 3.6978631161221401e+01 2 -1 0
1764 1 2.0987391505357511e+00 7.1438965581330303e+00 4.4100299780055977e+01 0 1 -1
1194 1 3.8916365578727246e+00 5.3253900115931740e+00 4.2479537323921349e+01 1 -1 0
4256 1 5.4522973568554294e+00 7.3134537069219308e+00 4.2447656225576409e+01 0 2 0
1068 1 9.1884124538255718e-01 3.5121415197543476e-01 4.4352500435175756e+01 0 1 0
457 1 8.5716473067237917e+00 4.9577646064460472e+00 4.0965938801990816e+01 0 0 -1
482 1 1.1849058347165252e+01 1.2035562681600830e+01 4.2746312112112406e+01 0 1 -1
758 1 5.0395977204031608e+00 4.3823285247157046e-01 4.1293520656811822e+01 0 1 -1
3624 1 9.6260373190664517e+00 7.6292263221469547e-01 4.2240406722348510e+01 1 0 -1
5939 1 1.6069838036838752e-01 1.1270995736128798e+01 4.2210185276441678e+01 1 1 0
5526 1 2.4631976871225447e+00 1.0351234536313116e+01 4.3710879990958190e+01 1 1 -1
6153 1 3.4576764659678281e+00 1.1914289182344366e-01 3.8846562874604672e+01 1 -1 0
336 1 6.9149587547780991e+00 1.2048939953199357e+01 4.2745428334013411e+01 -1 1 -1
244 1 5.6599296262152325e+00 1.2191456689314380e+01 3.8945569965137054e+01 1 1 -1
2815 1 1.1018471171428182e+01 2.9701165466453083e-01 3.6422639042698123e+01 -1 0 0
2197 1 6.1309925829320377e-02 6.5210754289474870e+00 3.9556602423056646e+01 0 0 -1
3448 1 3.1909443935711406e+00 2.7939614413129910e+00 4.7931467917035818e+01 1 2 -1
4367 1 3.5095341870180881e+00 4.2838808572903293e+00 4.5202040459531332e+01 1 1 0
2701 1 2.0456321453526735e-01 1.2604956979047348e+00 4.9251657530562042e+01 2 0 0
1044 1 1.0176161293836172e+01 8.4904663937167211e+00 5.6315897001464393e+01 0 0 0
6128 1 7.4028989209436311e+00 5.0459706672758760e+00 4.5751812640515823e+01 0 0 0
487 1 8.6010621322903216e+00 6.5626368580156544e+00 4.9533916909004674e+01 1 -1 -1
5430 1 6.7024547319493202e+00 7.8268393630297179e+00 4.4759435161061106e+01 1 1 -1