
# Create simulation box and atoms

read_data data.graphite_substrate
  orthogonal box = (0 0 -0.0398667) to (49.22 49.0196 60.1019)
  4 by 4 by 4 MPI processor grid
  reading atoms ...
  6736 atoms
  reading velocities ...
  6736 velocities
group water type 1
3976 atoms in group water
group graphite type 2
2760 atoms in group graphite

# Define potential

pair_style sw
pair_coeff * * mWC.sw mW C
Reading potential file mWC.sw with DATE: 2019-02-27


# Fix graphite atoms in place

fix 5 graphite setforce 0.0 0.0 0.0
velocity graphite set 0.0 0.0 0.0


# Equilibration of molecular water

# Add velocity/set timestep

velocity	    water create ${TEMP} ${SEED} rot yes dist gaussian
velocity	    water create 225 ${SEED} rot yes dist gaussian
velocity	    water create 225 3645 rot yes dist gaussian
timestep	    5.0

# Define output

compute			1 water msd
compute			3 water temp
thermo	    	50
thermo_style	custom step temp press vol etotal ke pe c_1[4] c_3

# Neighbor lists

neigh_modify    delay 0 every 1 check yes

# Set fixes

fix             1 water momentum 10 linear 1 1 1 rescale
fix             2 water nve
fix             3 water temp/csvr ${TEMP} ${TEMP} 500.0 ${SEED}
fix             3 water temp/csvr 225 ${TEMP} 500.0 ${SEED}
fix             3 water temp/csvr 225 225 500.0 ${SEED}
fix             3 water temp/csvr 225 225 500.0 3645
fix             4 water press/berendsen z ${PRES} ${PRES} 1000.0 modulus 20000
fix             4 water press/berendsen z 1 ${PRES} 1000.0 modulus 20000
fix             4 water press/berendsen z 1 1 1000.0 modulus 20000

# Run 0.5 ns equilibration

dump		    1 all atom 2000 ${DIR}/eq.${NAME}-${TEMP}.dump
dump		    1 all atom 2000 run_20/eq.${NAME}-${TEMP}.dump
dump		    1 all atom 2000 run_20/eq.het_freeze_20-${TEMP}.dump
dump		    1 all atom 2000 run_20/eq.het_freeze_20-225.dump

reset_timestep  0

run	            100000
Neighbor list info ...
  update every 1 steps, delay 0 steps, check yes
  max neighbors/atom: 2000, page size: 100000
  master list distance cutoff = 7.76
  ghost atom cutoff = 7.76
  binsize = 3.88, bins = 13 13 16
  1 neighbor lists, perpetual/occasional/extra = 1 0 0
  (1) pair sw, perpetual
      attributes: full, newton on
      pair build: full/bin/atomonly
      stencil: full/bin/3d
      bin: standard
Per MPI rank memory allocation (min/avg/max) = 4.084 | 4.203 | 4.509 Mbytes
Step Temp Press Volume TotEng KinEng PotEng c_1[4] c_3 
       0     132.7951   -1147.9579    145106.76   -36018.829     2665.962   -38684.791            0          225 
      50    170.59495   -732.37248    144633.24   -36377.646    3424.8226   -39802.468   0.83751075    289.04579 
     100    164.79041   -1036.1179    144238.48   -36752.881    3308.2919   -40061.173    1.8639676    279.21092 
     150    162.80208   -803.81643    143667.96   -37081.617    3268.3749   -40349.992    2.7669413    275.84202 
     200    158.58492   -993.66831    143255.92   -37360.982    3183.7122   -40544.694    3.5600767    268.69672 
     250    155.25521   -919.24844    142906.92   -37592.328    3116.8656   -40709.194    4.2872593    263.05505 
     300    152.81898   -845.10681    142569.23   -37814.328    3067.9565   -40882.284    4.9504521    258.92725 
     350    147.25206   -634.24463    142251.78   -37953.009    2956.1964   -40909.205    5.5645157      249.495 
     400    145.99324   -829.02443     141894.2   -38161.077    2930.9246   -41092.002    6.0455907    247.36213 
     450    144.14279   -745.25929    141533.57   -38318.551    2893.7755   -41212.326    6.6346203    244.22685 
     500    141.78587    -741.4588    141256.16   -38396.737    2846.4584   -41243.195    7.1975727    240.23341 
     550    140.56115   -632.18142    141038.16   -38512.611    2821.8712   -41334.482    7.6984679    238.15832 
     600     138.7011   -488.41009    140850.88    -38619.51    2784.5295    -41404.04    8.2036722    235.00678 
     650    139.75794   -311.99985    140682.71   -38688.557    2805.7463   -41494.303    8.6637275    236.79742 
     700    138.49002   -367.94823    140644.65   -38752.146    2780.2919   -41532.438    9.0500558    234.64913 
     750    137.50296   -231.83012    140520.39   -38818.536    2760.4759   -41579.012    9.3799912    232.97672 
     800     135.8694   -182.31864    140583.29   -38858.775    2727.6809   -41586.456    9.6618038    230.20891 
     850    137.11046   -301.52641     140570.3   -38870.882    2752.5962   -41623.478    10.051426    232.31169 
     900    135.47341   -427.56657    140525.67   -38872.602    2719.7311   -41592.333    10.468958    229.53797 
     950    135.50166   -183.76644    140472.04   -38873.837    2720.2982   -41594.135    10.886139    229.58583 
    1000    136.09803    -318.9561     140413.4   -38894.893    2732.2707   -41627.163    11.168732    230.59628 
    1050    136.51781   -346.90175    140260.12    -38902.41    2740.6981   -41643.108    11.585236    231.30753 
    1100    137.56535   -228.91933    140139.43   -38917.093    2761.7284   -41678.822    11.946772    233.08242 
    1150     139.4944    -270.7088    140136.08   -38927.812    2800.4554   -41728.268    12.332234    236.35088 
    1200    136.13947   -289.98817    140101.94   -38980.854    2733.1027   -41713.956    12.676503    230.66649 
    1250     138.0357   -84.891448    140150.49   -38999.999    2771.1711    -41771.17    12.854454    233.87936 
    1300    136.11803   -47.364374    140195.27   -39012.745    2732.6723   -41745.417    13.093071    230.63017 
    1350    136.24736   -119.62545    140199.73   -39034.216    2735.2687   -41769.485    13.380144     230.8493 
    1400    136.83011   -183.48925    140266.89   -39072.367    2746.9678   -41819.335     13.63494    231.83667 
    1450    135.07033   -22.746461     140333.7    -39045.09    2711.6389   -41756.729     13.87566    228.85501 
    1500    136.98987   -251.24573    140308.37   -39084.604    2750.1751   -41834.779    14.166039    232.10736 
    1550    134.27363   -416.72091     140258.6   -39154.665    2695.6446    -41850.31    14.403143    227.50513 
    1600    134.33872   -229.00222     140253.9   -39183.202    2696.9512   -41880.153    14.662721    227.61541 
    1650     131.8156   -269.91994    140164.73   -39251.901    2646.2979   -41898.198    14.942352     223.3404 
    1700    132.31959   -276.04896    140163.54   -39284.353    2656.4158   -41940.769    15.192104    224.19433 
    1750    130.18494   -137.02726    140192.28   -39265.372     2613.561   -41878.933    15.457146     220.5775 
    1800    133.36302   -224.77092    140225.81   -39233.688    2677.3635   -41911.051    15.787629    225.96226 
    1850    131.96095   -46.799239    140310.55   -39232.735    2649.2158   -41881.951    16.123491    223.58667 
    1900     131.0995   -297.66882    140357.37   -39268.199    2631.9215    -41900.12    16.339087    222.12707 
    1950    132.60744   -286.75415    140339.14   -39287.342    2662.1945   -41949.537    16.641775    224.68204 
    2000    132.42436     -323.772    140331.68   -39242.538     2658.519   -41901.057    17.139913    224.37183 
    2050    133.07035   -404.26462    140362.96   -39200.401    2671.4877   -41871.888    17.493171    225.46636 
    2100    131.37996   -228.95665    140392.07   -39239.752    2637.5519   -41877.304    17.731307    222.60226 
    2150    133.04944   -517.17046    140332.95   -39305.778     2671.068   -41976.846    18.005969    225.43093 
    2200    130.07637   -141.75157    140331.82   -39346.529    2611.3813    -41957.91    18.245629    220.39354 
    2250    131.08839   -91.683407       140451   -39371.537    2631.6984   -42003.236    18.403392    222.10825 
    2300    130.74019   -319.64484    140516.17   -39364.668    2624.7081   -41989.376    18.666022    221.51828 
    2350    132.70391   -255.33981    140488.14   -39335.547    2664.1312   -41999.678    18.858252    224.84549 
    2400    131.56826   -88.031424    140457.83   -39328.953    2641.3322   -41970.285    19.158194    222.92132 
    2450    131.00777    -237.9879    140451.34   -39362.732      2630.08   -41992.812    19.446136    221.97165 
    2500    132.75041   -171.61508    140553.76   -39309.237    2665.0648   -41974.302    19.613169    224.92428 
    2550    131.00523   -107.98381    140661.55   -39351.195    2630.0289   -41981.224    19.724665    221.96735 
    2600    132.64771   -366.40495    140619.33   -39358.655    2663.0029   -42021.658    20.014325    224.75026 
    2650    133.29429   -266.17047    140559.86   -39368.336    2675.9836    -42044.32    20.167498     225.8458 
    2700    133.39308   -219.86403    140491.03   -39333.123    2677.9669    -42011.09    20.510588    226.01318 
    2750    132.61472   -335.93659    140527.05   -39310.469    2662.3408    -41972.81    20.834103    224.69438 
    2800    131.67558   -92.887332    140519.12   -39297.874    2643.4867   -41941.361    21.105339    223.10315 
    2850     132.2308    -156.4867    140467.87   -39315.137    2654.6333   -41969.771    21.410682    224.04389 
    2900      134.068   -213.49064    140508.55   -39350.781    2691.5165   -42042.297    21.635626    227.15673 
    2950    134.44707   -378.45614    140390.52   -39390.067    2699.1266   -42089.193    22.066681      227.799 
    3000    135.18301   -163.98153    140334.92   -39372.559     2713.901    -42086.46     22.39657    229.04592 
    3050    132.72502   -10.501249    140269.69   -39408.317     2664.555   -42072.872    22.703108    224.88125 
    3100    132.33703   -33.822939    140339.04   -39389.043     2656.766   -42045.808    22.935955    224.22388 
    3150    134.18037   -147.37595    140380.55   -39418.051    2693.7724   -42111.823    23.041026    227.34713 
    3200    132.67689    -268.5703    140334.58   -39380.149    2663.5889   -42043.738    23.233303    224.79972 
    3250    131.28976    -43.18102    140382.33   -39441.854    2635.7412   -42077.595    23.597443    222.44944 
    3300    131.50904   -88.007603    140442.24   -39454.227    2640.1434    -42094.37    23.844044    222.82098 
    3350    131.64869   -240.40455    140431.34   -39396.327    2642.9469   -42039.273    24.205207    223.05759 
    3400    131.81458   -256.22303     140389.7   -39372.733    2646.2774    -42019.01    24.401279    223.33867 
    3450    131.08759   -120.11651    140464.21   -39369.723    2631.6824   -42001.406     24.57604    222.10689 
    3500    130.18695   -122.95383    140526.22     -39374.7    2613.6013   -41988.302     24.71704     220.5809 
    3550    133.56644   -195.43738    140512.77   -39342.612    2681.4472   -42024.059    24.840925    226.30691 
    3600    131.56459   -243.23688    140533.58   -39383.123    2641.2585   -42024.381    24.981195     222.9151 
    3650    132.84922   -119.72391    140639.64   -39354.766    2667.0485   -42021.814    25.168838     225.0917 
    3700    132.51751   -150.41519    140679.09    -39357.16    2660.3892   -42017.549    25.341362    224.52968 
    3750    133.18027   -111.41514    140709.83   -39325.031    2673.6946   -41998.726    25.399607    225.65261 
    3800    134.65964   -92.698722    140724.66   -39309.334    2703.3941   -42012.728    25.620857    228.15917 
    3850    136.14533  -0.73858625    140711.27   -39262.513    2733.2204   -41995.733    25.975754    230.67643 
    3900    135.95852   -286.69173    140725.98   -39285.805    2729.4701   -42015.275     26.24048    230.35991 
    3950    133.61582   -177.56908    140672.47   -39275.159    2682.4385   -41957.597    26.625825    226.39057 
    4000    138.80263   -478.74051    140647.19   -39259.975    2786.5677   -42046.542    26.938996    235.17879 
    4050    134.32559   -194.79223     140629.8   -39281.913    2696.6876   -41978.601    27.210096    227.59316 
    4100    134.25334   -247.44325    140630.06   -39311.331    2695.2373   -42006.568    27.448597    227.47076 
    4150    134.74285   -75.074166     140596.8   -39338.536    2705.0645   -42043.601    27.625413    228.30015 
    4200    135.49742   -221.06308    140645.97   -39350.844    2720.2132   -42071.057    27.733982    229.57866 
    4250    130.55883   -299.82556    140595.37   -39388.822    2621.0671   -42009.889    28.035734      221.211 
    4300    131.40487   -96.619834    140558.22   -39359.279    2638.0521   -41997.331    28.382201    222.64448 
    4350    132.50553   -199.51514    140543.51   -39350.537    2660.1486   -42010.685    28.617621    224.50936 
    4400    134.54154   -203.83329    140580.89   -39293.834    2701.0231   -41994.858    28.707867    227.95906 
    4450    133.70372   -2.1560829    140670.17   -39324.931    2684.2033   -42009.134    28.817127    226.53952 
    4500     133.0454   -66.172313    140755.44   -39350.711     2670.987   -42021.698    29.025678     225.4241 
    4550    132.37855   -300.31923    140795.95   -39371.752    2657.5994   -42029.351    29.176524    224.29422 
    4600    132.52228   -479.80741    140799.05   -39392.257     2660.485   -42052.742    29.467424    224.53776 
    4650    133.92655   -272.85525    140749.28   -39344.643    2688.6768    -42033.32    29.664327    226.91707 
    4700    133.75017   -400.91447    140729.06   -39362.564    2685.1358     -42047.7    29.921874    226.61822 
    4750    133.04286   -182.17622    140704.32     -39314.8    2670.9359   -41985.736    30.050807    225.41978 
    4800    133.87838   -1.2103258    140732.47   -39294.063    2687.7096   -41981.773    30.323034    226.83544 
    4850     130.0507   -324.17825    140716.49   -39295.965    2610.8661   -41906.831    30.641546    220.35006 
    4900    131.73072   -276.14725    140685.67   -39364.376    2644.5937    -42008.97    30.804219    223.19658 
    4950    132.35208   -157.12172    140700.88   -39338.828    2657.0679   -41995.896     30.89546    224.24936 
    5000     131.2562   -471.68688    140620.52   -39322.497    2635.0674   -41957.564    31.112358    222.39258 
    5050    130.05731    -323.9852    140571.24   -39303.407    2610.9988   -41914.406     31.41257    220.36126 
    5100    131.51767   -52.032976    140615.66   -39361.554    2640.3166   -42001.871    31.854984     222.8356 
    5150    133.04631   -272.01669    140690.39   -39397.149    2671.0052   -42068.154    32.053973    225.42563 
    5200    133.46944   -203.22179    140675.67    -39386.17    2679.4998    -42065.67    32.367203    226.14256 
    5250    131.13702   -154.46965    140741.54   -39357.972    2632.6749   -41990.647    32.555946    222.19066 
    5300    131.03227   -99.234744    140772.42   -39412.648    2630.5718    -42043.22    32.676962    222.01316 
    5350    133.67196   -101.45843    140795.93   -39388.577    2683.5655   -42072.142    32.890406    226.48569 
    5400    132.22644   -146.78228    140718.69   -39333.777    2654.5456   -41988.322    33.176549    224.03649 
    5450    134.58324    -98.29215    140762.37   -39315.601    2701.8603   -42017.461    33.455101    228.02972 
    5500    132.85965   -362.57558    140769.66   -39353.042    2667.2578     -42020.3    33.733749    225.10936 
    5550    132.34804   -28.131045    140762.74    -39437.29    2656.9869   -42094.277    33.915257    224.24253 
    5600    129.45166    -237.0959    140760.69   -39438.204    2598.8399   -42037.044    33.960934    219.33508 
    5650    130.47307   -356.88502     140840.5    -39429.83    2619.3454   -42049.176    34.037874    221.06568 
    5700    133.51348   -233.89018    140877.73   -39422.951    2680.3839   -42103.334      34.2245    226.21717 
    5750    132.12731   -131.21554    140939.17   -39453.213    2652.5556   -42105.769    34.431438    223.86854 
    5800    135.31322   -183.53899    141003.56   -39406.746    2716.5151   -42123.261    34.588296    229.26655 
    5850    130.71031   -137.35288    141044.62   -39417.538    2624.1082   -42041.646    34.919022    221.46765 
    5900    132.74614   -275.18907     141062.1   -39420.598    2664.9791   -42085.577     35.20229    224.91705 
    5950    131.45658   -166.10382    141091.74   -39388.713    2639.0901   -42027.803    35.688764    222.73209 
    6000    133.22171    -456.4073    141106.09   -39395.382    2674.5264   -42069.908     35.93768    225.72281 
    6050    133.38689   -204.15818    141093.67   -39362.595    2677.8425   -42040.438    36.077129    226.00269 
    6100    133.36412   -99.531263    141106.08   -39330.144    2677.3856    -42007.53    36.306268    225.96412 
    6150    135.22649     -218.016    141059.18   -39311.308    2714.7741   -42026.082    36.604723    229.11961 
    6200    132.71275    14.543734    141138.46   -39359.745    2664.3088   -42024.054    36.786797    224.86048 
    6250     134.8622   -227.55253    141100.77    -39342.47    2707.4606   -42049.931    36.961014    228.50237 
    6300    129.98066    -207.4148    141009.92   -39371.072      2609.46   -41980.532    37.061562    220.23139 
    6350    131.39428   -174.11948    140951.45   -39416.809    2637.8394   -42054.649    37.275991    222.62653 
    6400    130.87447   -130.25206    140907.87   -39434.305    2627.4038   -42061.709    37.462058    221.74579 
    6450    131.27675   -209.96297    140869.87   -39412.632      2635.48   -42048.112    37.797358     222.4274 
    6500    132.97354   -254.93645    140814.57   -39401.348    2669.5443   -42070.893    38.028235    225.30234 
    6550    130.09161   -70.765601    140851.83    -39386.65    2611.6873   -41998.337    38.395663    220.41936 
    6600    130.69104   -205.70976    140797.58   -39399.335    2623.7213   -42023.057    38.602014      221.435 
    6650    131.36547   -150.06125    140774.09   -39385.355    2637.2611   -42022.616    39.009626    222.57772 
    6700    130.72473    -199.6297    140817.52   -39406.101    2624.3977   -42030.499    39.292375    221.49209 
    6750    133.71309   -5.1771754    140806.74   -39434.308    2684.3914   -42118.699       39.467    226.55539 
    6800    132.96607   -273.70746    140907.15   -39399.157    2669.3943   -42068.551    39.666247    225.28968 
    6850    134.65687   -251.56997    140892.04   -39421.785    2703.3384   -42125.123    39.912699    228.15447 
    6900    133.04636    59.166644     140915.6   -39395.921    2671.0062   -42066.928    40.222604    225.42572 
    6950    133.23785   -64.246955    140996.22    -39334.41    2674.8505    -42009.26    40.435437    225.75017 
    7000    133.95685   -191.54137    140970.39   -39362.286    2689.2849   -42051.571     40.70568    226.96839 
    7050     133.7394   -238.95201    140944.11   -39359.912    2684.9195   -42044.831    40.918717    226.59996 
    7100    134.38006    -71.73828     140948.1    -39400.96    2697.7812   -42098.741    41.249237    227.68546 
    7150    133.48735    126.21638    141032.75    -39427.82    2679.8594   -42107.679    41.563464    226.17291 
    7200    131.86482   -37.536762    141085.53   -39447.271     2647.286   -42094.557    41.681085    223.42379 
    7250    134.62925    -225.8074    141061.51   -39405.086     2702.784    -42107.87    41.694618    228.10768 
    7300    134.49278   -239.68229    141084.48   -39356.005    2700.0443    -42056.05    41.709489    227.87645 
    7350    133.57076   -204.08449    141029.36   -39348.934    2681.5339   -42030.468    41.925776    226.31423 
    7400    132.38712   -330.06466    140971.67   -39367.857    2657.7715   -42025.629    42.203654    224.30874 
    7450    133.17624   -103.18758    140926.11   -39374.898    2673.6137   -42048.512    42.359748    225.64579 
    7500    133.30734   -201.80868    140864.11   -39352.926    2676.2456   -42029.171    42.630672    225.86791 
    7550    133.92433   -32.196615    140854.81   -39359.312    2688.6321   -42047.944     42.73706     226.9133 
    7600    135.13614   -99.830885    140847.65   -39361.405    2712.9602   -42074.365    42.933944    228.96652 
    7650    132.21248   -267.89176    140736.98   -39364.229    2654.2654   -42018.494     43.29177    224.01284 
    7700    131.89117   -136.85718    140728.53   -39382.854    2647.8149   -42030.669    43.505208    223.46843 
    7750    132.73954   -222.09274    140716.34   -39393.155    2664.8466   -42058.001    43.741603    224.90586 
    7800    132.73212   -116.17245     140768.7   -39373.668    2664.6976   -42038.365    43.936645    224.89329 
    7850    135.27947   -177.17119    140817.68   -39347.478    2715.8375   -42063.315    44.060483    229.20936 
    7900    132.15029   -218.16785    140796.92   -39352.154    2653.0169   -42005.171    44.274732    223.90747 
    7950    132.49271   -61.875466    140847.62   -39383.126    2659.8912   -42043.017     44.51473    224.48764 
    8000    131.54611   -245.27989    140807.61   -39388.728    2640.8876   -42029.616    44.928505    222.88379 
    8050    131.84275   -52.767413    140903.17   -39384.145    2646.8428   -42030.987      44.8822    223.38639 
    8100    134.34994   -351.61649    140935.84   -39379.152    2697.1767   -42076.329    45.082244    227.63443 
    8150    133.59688   -222.11145    140954.59   -39364.616    2682.0583   -42046.675    45.328423    226.35849 
    8200    132.27635   -152.76514    140990.54    -39451.54    2655.5477   -42107.088    45.288921    224.12106 
    8250    134.40678   -217.45794    141021.07    -39402.45    2698.3178   -42100.768    45.485807    227.73074 
    8300    132.11471   -346.30921    141023.88   -39388.753    2652.3027   -42041.056    45.744068    223.84719 
    8350    130.53482   -288.45377    141104.87   -39402.278    2620.5852   -42022.863    46.025249    221.17033 
    8400    133.87828    -329.7305    141133.27   -39383.224    2687.7076   -42070.932    46.294865    226.83527 
    8450    133.05633   -263.19321    141049.06    -39427.37    2671.2063   -42098.576    46.641575    225.44261 
    8500    136.42806   -202.68898    141014.51   -39402.699    2738.8964   -42141.595    47.021674    231.15547 
    8550    134.23404    31.402041     140941.7   -39406.854    2694.8498   -42101.704    47.344084    227.43805 
    8600    135.09006    -307.8304    140950.59   -39409.809     2712.035   -42121.844    47.484546    228.88843 
    8650    137.72352   -363.08832    140868.41   -39358.343    2764.9038   -42123.247    47.853178    233.35042 
    8700    131.08695   -414.83905    140720.56   -39394.679    2631.6696   -42026.349    48.085928    222.10581 
    8750    136.16768    -184.7903    140690.37   -39381.036    2733.6691   -42114.705    48.319736    230.71429 
    8800    133.36295    -193.0286     140676.8   -39433.718    2677.3621    -42111.08    48.359536    225.96214 
    8850    134.84209   -35.551238    140693.28    -39439.62    2707.0568   -42146.676    48.568183    228.46829 
    8900    133.25372   -81.505914    140738.25   -39425.206    2675.1691   -42100.375    48.697772    225.77705 
    8950    133.12925   -265.28849    140688.09   -39385.539    2672.6703   -42058.209    49.066902    225.56616 
    9000    131.31524   -418.57702    140629.32   -39448.751    2636.2527   -42085.004    49.364896    222.49261 
    9050    129.36597   -231.40987    140483.63   -39508.342    2597.1197   -42105.462    49.687331    219.18989 
    9100    130.55503   -144.94946    140514.89   -39505.618    2620.9909   -42126.609    49.905575    221.20456 
    9150    129.36911   -395.36211     140552.8   -39546.715    2597.1827   -42143.898    50.119733    219.19522 
    9200    131.60518    -374.5482    140458.21   -39534.988    2642.0735   -42177.062     50.26274    222.98388 
    9250    130.78816    -245.3859    140405.07   -39562.811     2625.671   -42188.482    50.440973    221.59955 
    9300    128.87576   -220.19675    140433.58   -39560.472    2587.2783    -42147.75    50.660866    218.35931 
    9350    130.98996   -246.52568     140355.1   -39552.021    2629.7224   -42181.744    50.846498    221.94148 
    9400    128.34361   -145.12819    140351.85   -39521.762     2576.595   -42098.357    51.134166    217.45767 
    9450    131.35595   -207.93184    140308.87   -39533.053      2637.07   -42170.123    51.438466     222.5616 
    9500    132.72232   -233.08141    140304.55   -39460.387    2664.5009   -42124.888    51.681971    224.87669 
    9550    130.35329    39.746572    140359.72   -39496.963    2616.9409   -42113.904    51.879793    220.86275 
    9600    130.57336    -161.1434    140346.88   -39534.019     2621.359   -42155.378    52.111854    221.23563 
    9650    132.85773   -95.912436    140394.24     -39521.9    2667.2194   -42189.119    52.400028    225.10612 
    9700    130.41508   -10.159942    140405.29   -39489.276    2618.1814   -42107.457    52.706065    220.96744 
    9750    133.22303   -228.22715    140435.97   -39430.125     2674.553   -42104.678    53.025455    225.72506 
    9800    132.10353    -260.1868     140429.4   -39444.742    2652.0783    -42096.82    53.241665    223.82825 
    9850    130.68274   -72.099461    140475.12   -39437.991    2623.5548   -42061.546    53.341681    221.42095 
    9900    131.07834   -67.335483    140510.59   -39449.281    2631.4966   -42080.778    53.570939    222.09122 
    9950    131.62241     -149.067    140526.84   -39468.228    2642.4194   -42110.647    53.736682    223.01307 
   10000     128.7883   -339.95833    140511.28   -39484.559    2585.5223   -42070.082    54.062498    218.21111 
   10050    131.64499   -67.657967    140560.99   -39473.458    2642.8726    -42116.33    54.149555    223.05132 
   10100    130.86341    1.7650642    140563.85   -39450.237    2627.1819   -42077.419    54.172658    221.72707 
   10150    131.41964   -157.08054    140632.97   -39476.576    2638.3486   -42114.924    54.166511     222.6695 
   10200    132.32937   -66.647323    140763.71   -39447.147    2656.6121   -42103.759    54.400397    224.21089 
   10250    131.21377   -163.66582     140855.3   -39449.577    2634.2155   -42083.793    54.649956    222.32068 
   10300    132.82888   -254.59462    140860.01   -39449.843    2666.6401   -42116.483    54.803946    225.05723 
   10350    132.29177   -201.74017    140851.14    -39479.79    2655.8572   -42135.648    54.992198    224.14718 
   10400    133.55565   -372.07212    140884.75   -39457.587    2681.2306   -42138.818      54.9916    226.28863 
   10450    130.62726   -145.39154    140907.84   -39477.202    2622.4409   -42099.643    55.193008    221.32693 
   10500    133.22489   -226.25928    140941.74   -39433.637    2674.5903   -42108.227     55.42491    225.72821 
   10550    131.78428   -258.38802    140947.15   -39469.115     2645.669   -42114.784    55.885661    223.28732 
   10600    134.09614   -270.25541    140995.11   -39431.517    2692.0814   -42123.599    56.398595     227.2044 
   10650    129.89241   -247.65461    140960.92   -39417.947    2607.6882   -42025.636    56.516562    220.08185 
   10700    132.17382   -285.81671    140984.25   -39385.507    2653.4893   -42038.996    56.871701    223.94734 
   10750    130.91058   -181.37205    140959.54   -39403.711    2628.1289    -42031.84    56.928555    221.80699 
   10800    136.97792   -378.18821    140936.98   -39362.498    2749.9353   -42112.433    57.090538    232.08712 
   10850    132.81995   -326.17287    140821.37   -39362.861    2666.4609   -42029.322    57.433584    225.04211 
   10900    133.98615   -179.35273    140763.73   -39379.948    2689.8732   -42069.821    57.731296    227.01804 
   10950    133.79426   -314.21248    140689.84   -39415.823    2686.0208   -42101.843    58.021751    226.69291 
   11000      133.499   -23.284431    140587.67   -39351.299    2680.0933   -42031.392     58.18628    226.19264 
   11050    132.99904   -211.89702     140616.8   -39352.801    2670.0562   -42022.857    58.348769    225.34554 
   11100    132.50959   -31.467643    140600.14   -39404.796    2660.2301   -42065.026     58.43903    224.51624 
   11150    132.94461    68.528158    140615.49   -39403.376    2668.9636   -42072.339    58.534187    225.25333 
   11200    134.16834   -4.4203299    140681.48   -39352.994    2693.5308   -42046.525    58.658461    227.32674 
   11250    133.41456   -262.61253    140660.56   -39296.735    2678.3981   -41975.133    58.822416    226.04958 
   11300    131.92361   -132.88462    140651.95   -39304.143    2648.4662   -41952.609    59.004383     223.5234 
   11350    134.14396   -342.63823    140615.05   -39318.735    2693.0414   -42011.777    59.304473    227.28543 
   11400    137.14886   -216.37066    140607.52   -39326.292     2753.367   -42079.659    59.493588    232.37675 
   11450    133.28971   -204.98376    140621.68   -39351.861    2675.8916   -42027.753    59.674816    225.83803 
   11500    136.19309   -218.29634    140582.82   -39312.766    2734.1791   -42046.945    59.986938    230.75734 
   11550    134.76655   -280.88922    140530.19   -39362.687    2705.5403   -42068.227    60.375062     228.3403 
   11600    131.65906   -210.96363    140540.36     -39383.5    2643.1551   -42026.655    60.588506    223.07516 
   11650    132.63902   -110.26433    140595.88   -39365.588    2662.8285   -42028.416    60.723194    224.73554 
   11700    131.46281   -189.80072    140625.92   -39384.414    2639.2153   -42023.629    60.845598    222.74266 
   11750    133.38689   -329.73511    140557.44   -39362.622    2677.8427   -42040.465    60.901771     226.0027 
   11800    131.14773   -166.39173    140550.43   -39423.084    2632.8898   -42055.974    60.931557    222.20879 
   11850    129.78364   -242.11232    140495.54   -39409.915    2605.5047    -42015.42    61.111564    219.89756 
   11900    130.93848   -261.08509    140516.06   -39397.313     2628.689   -42026.002     61.06076    221.85426 
   11950    132.80059   -277.55213    140557.72   -39367.594    2666.0721   -42033.666    61.227348    225.00929 
   12000    130.65565   -363.53106    140473.19   -39383.718    2623.0109   -42006.729    61.490549    221.37504 
   12050    131.31511   -273.60329    140403.94   -39353.996    2636.2501   -41990.246    61.661982     222.4924 
   12100    133.45726   -245.14638    140401.32   -39358.182    2679.2554   -42037.438     61.86845    226.12192 
   12150    134.10588   -134.56519    140471.19   -39318.265     2692.277   -42010.542    62.028854    227.22091 
   12200       134.29   -98.099512    140466.61   -39341.304    2695.9732   -42037.277     62.33797    227.53286 
   12250    135.94145   -33.361367    140545.01   -39270.944    2729.1273   -42000.072    62.767057    230.33098 
   12300     133.8404   -246.10118    140520.73   -39295.643    2686.9472    -41982.59    62.846904    226.77109 
   12350    134.01114   -208.75204    140511.66   -39289.631    2690.3749   -41980.006    63.044649    227.06039 
   12400    134.44877   -43.800014    140511.75   -39292.361    2699.1608   -41991.522    63.384629    227.80189 
   12450    133.62383    10.130314    140661.46   -39331.808    2682.5994   -42014.407    63.389273    226.40415 
   12500     136.1872   -60.884436    140833.23   -39295.889    2734.0609    -42029.95    63.530206    230.74737 
   12550    132.26194   -271.69487     140823.3   -39299.381    2655.2585    -41954.64    63.902405    224.09665 
   12600    132.50321   -184.54252    140780.94   -39299.574    2660.1022   -41959.676    64.178577    224.50545 
   12650    133.30151    -279.6745     140745.8   -39311.525    2676.1286   -41987.653    64.428024    225.85803 
   12700    132.47472   -383.35058    140681.81   -39303.787    2659.5302   -41963.317    64.920591    224.45717 
   12750    132.05915   -254.27891    140600.72   -39360.098    2651.1872   -42011.285    65.421661    223.75305 
   12800    133.65677   -220.81228    140461.19   -39369.187    2683.2606   -42052.447    65.583513    226.45996 
   12850    131.11902   -117.30844    140376.74   -39361.104    2632.3134   -41993.418    65.775064    222.16015 
   12900     131.9107   -221.24486    140365.16   -39348.974     2648.207   -41997.181    65.936476    223.50153 
   12950    134.20204   -125.71412    140365.14   -39312.925    2694.2074   -42007.132    66.180189    227.38383 
   13000    136.28024   -5.0846411    140352.59   -39286.906    2735.9288   -42022.835    66.459821    230.90501 
   13050    134.26974   -172.94574    140406.72   -39332.897    2695.5665   -42028.463    66.692092    227.49854 
   13100    134.34448   -95.786203    140472.04   -39343.523    2697.0669    -42040.59    66.974337    227.62517 
   13150    138.07235    -198.1974    140504.11   -39333.826    2771.9067   -42105.733    67.173582    233.94145 
   13200    131.60585   -161.58559    140554.89   -39340.003    2642.0869    -41982.09     67.58247    222.98501 
   13250    132.71853   -125.72729    140597.99   -39343.213    2664.4248   -42007.638    67.951505    224.87026 
   13300    132.48171   -212.71717    140660.91   -39367.586    2659.6705   -42027.257    67.908369    224.46902 
   13350    132.49569   -223.48836    140681.75   -39421.353    2659.9511   -42081.304    68.055769     224.4927 
   13400    132.31905   -207.45672     140649.5   -39361.497    2656.4049   -42017.902    68.428803    224.19341 
   13450    134.07577   -55.249691    140678.75   -39323.826    2691.6724   -42015.498    68.773499    227.16989 
   13500      133.445   -77.911341    140675.43   -39373.322    2679.0092   -42052.332    69.112433    226.10115 
   13550    132.93839   -128.39019     140701.9   -39373.728    2668.8387   -42042.566    69.400691    225.24278 
   13600    132.77834   -233.19102    140642.43   -39413.702    2665.6255   -42079.327    69.792613     224.9716 
   13650    131.43363   -16.096928    140663.94   -39389.482    2638.6294   -42028.112     70.02426    222.69321 
   13700    132.17329   -117.71017    140691.98   -39349.455    2653.4787   -42002.934    70.234795    223.94644 
   13750    132.78482   -47.118749    140751.61   -39343.781    2665.7557   -42009.536    70.431281    224.98259 
   13800    131.29715   -75.271505     140708.5   -39348.729    2635.8895   -41984.619    70.559667    222.46196 
   13850    132.92833   -85.049071    140756.18   -39326.319    2668.6367   -41994.955    70.802733    225.22574 
   13900    132.70045   -223.64348    140707.99   -39290.444    2664.0618   -41954.506    71.215094    224.83963 
   13950    136.18193   -37.464244    140707.91   -39260.612    2733.9552   -41994.567    71.534923    230.73844 
   14000     134.6912   -50.703256    140738.13   -39268.984    2704.0277   -41973.012     71.93072    228.21264 
   14050    137.32278   -129.78541    140733.53   -39278.204    2756.8585   -42035.062    72.337432    232.67142 
   14100     135.2408   -132.01313    140759.84   -39324.252    2715.0612   -42039.313     72.44878    229.14384 
   14150    133.13097   -35.108257    140773.14   -39327.321    2672.7048   -42000.026    72.611772    225.56907 
   14200    134.46416   -122.85151    140799.64   -39312.475    2699.4695   -42011.945    73.008408    227.82795 
   14250    132.98043   -337.01337    140794.38   -39337.045    2669.6826   -42006.727    73.128911    225.31401 
   14300    137.23483   -212.90034    140857.12   -39265.941    2755.0929   -42021.034    73.258048    232.52241 
   14350    133.86565   -49.859979    140958.04   -39308.197    2687.4542   -41995.651    73.496542    226.81388 
   14400     132.7974   -239.11337     140939.5   -39329.068    2666.0081   -41995.076    74.030529    225.00389 
   14450    134.36114   -215.44727    140933.42   -39329.827    2697.4015   -42027.228    74.175746    227.65341 
   14500    132.99132   -493.90194    140844.95   -39325.649    2669.9012    -41995.55    74.387549    225.33245 
   14550    131.42182   -149.23052    140784.26   -39367.857    2638.3923   -42006.249    74.628183     222.6732 
   14600    132.94352   -137.59491    140817.26   -39390.681    2668.9417   -42059.623    74.742889    225.25148 
   14650    131.17825   -209.46391     140841.4   -39377.029    2633.5025   -42010.531    74.951104    222.26051 
   14700    131.05651   -295.85618    140870.67   -39371.483    2631.0585   -42002.541    75.202279    222.05424 
   14750    133.04869    -300.4016    140890.79   -39364.403     2671.053   -42035.456    75.273311    225.42967 
   14800    131.74706   -464.42572    140812.83   -39387.844    2644.9218   -42032.765     75.35215    223.22426 
   14850    132.21197    -241.9673    140841.23   -39390.154    2654.2553   -42044.409    75.884466    224.01198 
   14900    133.70989    3.2383867    140876.72   -39359.504     2684.327   -42043.831    76.026433    226.54996 
   14950    132.00488   -349.04642     140848.4   -39375.991    2650.0977   -42026.089    76.235353     223.6611 
   15000    129.12679   -259.42799    140754.46   -39345.294    2592.3179   -41937.612    76.467557    218.78464 
   15050    133.11218   -139.90178    140750.85   -39373.506    2672.3277   -42045.834     76.62925    225.53725 
   15100     133.1022   -323.20073    140770.38   -39318.186    2672.1273   -41990.313    77.039048    225.52033 
   15150    130.69065   -237.68497    140694.32   -39318.138    2623.7136   -41941.852    77.192547    221.43435 
   15200    132.42651   -322.65855    140693.73   -39297.757    2658.5623   -41956.319    77.455304    224.37549 
   15250    131.85828   -207.12259    140714.24   -39324.124    2647.1547   -41971.279    77.537511    223.41271 
   15300    131.67398   -434.54968    140660.87   -39432.941    2643.4547   -42076.396    77.839304    223.10045 
   15350     132.5735   -73.332698    140604.71   -39412.892    2661.5131   -42074.405    78.127872    224.62453 
   15400    132.71961   -204.55203    140612.53   -39400.942    2664.4465   -42065.389     78.33925    224.87209 
   15450    131.52084   -261.80028    140623.01   -39367.045    2640.3802   -42007.425    78.357858    222.84097 
   15500    133.26074    6.1096004    140628.75   -39370.663    2675.3101   -42045.973    78.562676    225.78896 
   15550    132.92051   -341.27842    140565.73   -39373.731    2668.4797   -42042.211    78.795964    225.21249 
   15600    135.53918    -192.1924     140568.7   -39444.137    2721.0515   -42165.188    78.808206     229.6494 
   15650    130.41683    -71.01184    140646.58   -39505.259    2618.2165   -42123.476    78.723624    220.97041 
   15700    134.65573   -310.29539    140652.11   -39469.557    2703.3155   -42172.872    79.003721    228.15254 
   15750    132.32792    -199.0654    140606.84   -39415.015     2656.583   -42071.598    79.127707    224.20844 
   15800    133.61355    99.544818    140690.33   -39461.282     2682.393   -42143.675    79.194725    226.38673 
   15850    134.13653   -245.68216    140787.87   -39399.217    2692.8923   -42092.109    79.471972    227.27284 
   15900    134.55737    -407.0851    140810.09   -39373.443    2701.3408   -42074.784    79.781038    227.98588 
   15950    132.48499   -394.13973    140782.61   -39367.781    2659.7363   -42027.517    80.502158    224.47457 
   16000    133.15445   -361.45376    140703.55   -39396.142    2673.1761   -42069.318    80.807326    225.60885 
   16050    132.66482   -122.70431     140759.8   -39395.183    2663.3466   -42058.529    81.076682    224.77927 
   16100    136.43646   -157.66944    140805.84   -39332.476     2739.065   -42071.541    81.187155     231.1697 
   16150    134.28557   -287.43465     140811.9   -39375.708    2695.8842   -42071.592    81.322733    227.52535 
   16200    133.02714   -294.27306    140823.44     -39384.9    2670.6204   -42055.521    81.602425    225.39316 
   16250    134.42822   -263.73962    140721.02     -39379.9    2698.7481   -42078.648    81.839132    227.76706 
   16300    131.68548   -53.438846    140795.17   -39371.074    2643.6855    -42014.76    81.936546    223.11992 
   16350    131.65345   -272.73164    140791.64   -39374.556    2643.0424   -42017.598    82.246779    223.06565 
   16400     133.5963   -186.52026    140686.97   -39368.185    2682.0467   -42050.232    82.410699     226.3575 
   16450    131.57931    -223.8729    140672.76   -39365.921     2641.554   -42007.475    82.651746    222.94004 
   16500    129.82568   -268.79925    140582.49   -39380.377    2606.3487   -41986.726    83.021866     219.9688 
   16550    136.61113   -94.080417    140548.85   -39325.055    2742.5716   -42067.626    83.041777    231.46564 
   16600    133.75513    6.0318337    140518.06   -39346.477    2685.2354   -42031.712    83.515354    226.62662 
   16650    136.05344   -41.365968    140574.67   -39303.496    2731.3755   -42034.871    83.690709    230.52073 
   16700     135.3509   -70.786542    140645.77   -39320.907    2717.2716   -42038.179    83.890676    229.33039 
   16750    134.71716   -296.44093    140623.92   -39337.538    2704.5489   -42042.087    83.887456    228.25663 
   16800    137.07483   -30.379001    140612.97   -39300.379    2751.8808    -42052.26    84.318784    232.25132 
   16850    135.01497    7.0892917    140746.08   -39337.105    2710.5275   -42047.632    84.291084    228.76121 
   16900    133.61503   -171.78481     140806.1   -39345.056    2682.4227   -42027.479    84.492157    226.38924 
   16950    134.01568   -142.16145    140797.89   -39400.756    2690.4661   -42091.222    84.841552    227.06808 
   17000    133.29936   -345.97272    140772.74   -39389.552    2676.0854   -42065.638    85.219333    225.85439 
   17050    133.62802   -128.67925    140765.28   -39347.575    2682.6834   -42030.258    85.353543    226.41124 
   17100    135.15928   -196.50092    140793.93   -39345.547    2713.4248   -42058.972    85.525347    229.00573 
   17150    135.72316   -262.40563    140762.92   -39358.904    2724.7451   -42083.649    85.745506    229.96114 
   17200     131.8791   -243.15072    140689.31   -39374.214    2647.5727   -42021.786    86.114079    223.44799 
   17250    132.16358   -216.43273    140665.16   -39379.093    2653.2838   -42032.377    86.349719    223.92999 
   17300    130.43919   -232.86721       140696   -39386.602    2618.6654   -42005.267    86.620686    221.00829 
   17350    134.05895   -351.20574    140762.12   -39359.123    2691.3347   -42050.458    86.866027    227.14139 
   17400    134.38078   -177.59853    140752.23   -39313.846    2697.7958   -42011.641    87.109408    227.68669 
   17450    133.85717   -204.33407    140684.89   -39328.366    2687.2839    -42015.65    87.217191    226.79951 
   17500    133.31847   -49.779483    140741.06   -39319.899     2676.469   -41996.368    87.468826    225.88676 
   17550    132.98454   -243.20868    140709.81    -39298.87    2669.7651   -41968.635    87.853279    225.32097 
   17600    133.16413   -323.05913    140696.07   -39313.216    2673.3705   -41986.587    88.144093    225.62526 
   17650    134.33184    -95.18637    140757.83   -39307.995    2696.8132   -42004.808    88.375055    227.60376 
   17700    135.20193    -72.04016    140755.16   -39340.066    2714.2809   -42054.347    88.633201    229.07799 
   17750    133.90468   -296.51394    140765.82   -39321.741    2688.2376   -42009.979    88.834278       226.88 
   17800    132.38755   -71.020971    140784.63    -39332.48      2657.78    -41990.26    88.866134    224.30946 
   17850    133.48636   -258.26091    140749.58   -39296.196    2679.8396   -41976.035    89.004351    226.17124 
   17900    131.47056   -31.868408    140815.55   -39338.928    2639.3709   -41978.299    89.143554    222.75578 
   17950    131.55913   -323.88462    140848.33   -39388.346    2641.1491   -42029.495    89.422267    222.90585 
   18000    131.10289   -254.16945     140839.9   -39400.168    2631.9897   -42032.158    89.605444    222.13283 
   18050    129.09859    -168.6621     140784.9   -39442.031    2591.7518   -42033.783     89.69637    218.73686 
   18100    132.14114    19.911649    140745.93    -39412.75    2652.8332   -42065.583    90.094712    223.89196 
   18150    130.78985   -140.90157    140802.29   -39411.891    2625.7051   -42037.596    90.176052    221.60243 
   18200    132.63473   -210.84999    140728.36   -39362.288    2662.7424   -42025.031    90.326723    224.72828 
   18250    130.88438    49.343746     140779.2   -39338.513    2627.6029   -41966.116    90.614467     221.7626 
   18300    132.56928   -270.78971    140762.32   -39388.862    2661.4284    -42050.29    90.833548    224.61738 
   18350    131.13714   -225.57068    140719.15   -39393.716    2632.6771   -42026.393    91.233972    222.19085 
   18400    134.06405   -265.46962    140701.85   -39397.521    2691.4371   -42088.958    91.418819    227.15003 
   18450    132.18142   -237.87216    140666.78   -39394.494     2653.642   -42048.136    91.747662    223.96022 
   18500      131.335   -119.09402    140641.43   -39381.016    2636.6494   -42017.665    91.979174    222.52609 
   18550    133.89225   -185.27701    140668.37   -39384.473    2687.9881   -42072.462    92.120055    226.85894 
   18600    132.84435   -155.51095    140651.29   -39353.356    2666.9508   -42020.307    92.600835    225.08345 
   18650     129.8374   -144.30294    140661.16   -39415.394    2606.5839   -42021.978    92.876131    219.98865 
   18700    131.99908   -217.48229    140712.21   -39419.062    2649.9812   -42069.044    93.074858    223.65127 
   18750    133.72154   -328.96726     140698.5   -39413.606     2684.561   -42098.167    93.626973    226.56971 
   18800    132.54793   -261.31264    140750.56   -39386.547    2660.9999   -42047.547    93.909972    224.58122 
   18850    132.56643   -345.46995    140792.67   -39420.923    2661.3713   -42082.294    94.198389    224.61256 
   18900    133.45027   -69.831626    140765.31    -39429.58     2679.115   -42108.695    94.592118    226.11008 
   18950    133.94261   -138.44096    140791.67   -39449.113     2688.999   -42138.112     95.00616    226.94426 
   19000    133.45925   -161.09488    140832.18   -39412.132    2679.2953   -42091.427    95.452414     226.1253 
   19050    131.82466   -338.55002    140859.38   -39453.969    2646.4797   -42100.449    95.817578    223.35574 
   19100    133.40581   -248.90621    140814.44   -39447.799    2678.2225   -42126.021    95.979367    226.03475 
   19150    129.25837   -299.13131    140767.01   -39458.123    2594.9596   -42053.083    95.913329    219.00759 
   19200    131.26925   -328.58495    140731.99    -39407.09    2635.3294   -42042.419    95.760968    222.41469 
   19250    133.73459   -265.80835    140683.47   -39390.686    2684.8229   -42075.509    95.752807    226.59181 
   19300    134.15952   -251.82111    140659.41   -39391.293    2693.3537   -42084.646    95.959775    227.31179 
   19350    133.69636   -290.59057    140549.45   -39407.588    2684.0554   -42091.643    95.942907    226.52704 
   19400    133.19716   -190.71138    140483.05   -39385.941    2674.0337   -42059.975    95.944005    225.68123 
   19450    133.24883    67.831518    140465.31   -39373.203     2675.071   -42048.274    96.220998    225.76877 
   19500    132.39484   -162.71519     140456.1   -39385.465    2657.9265   -42043.391    96.446706    224.32182 
   19550    131.01739    50.423177    140520.89   -39374.968    2630.2731   -42005.241    96.777167    221.98795 
   19600    134.56866   -134.89727    140602.69   -39364.484    2701.5675   -42066.051    96.969627    228.00501 
   19650     133.7123   -219.94306    140553.47   -39303.598    2684.3755   -41987.973    97.280953    226.55405 
   19700    135.35123   -67.800476    140555.41   -39292.088    2717.2782   -42009.367    97.566899    229.33095 
   19750    135.76688   -161.37628    140633.54   -39276.995    2725.6226   -42002.618    97.830941     230.0352 
   19800    135.81769   -12.912981    140645.71   -39295.032    2726.6427   -42021.675    98.122958    230.12129 
   19850    135.84101   -89.952095    140711.24   -39333.183    2727.1108   -42060.294    98.347371     230.1608 
   19900    130.70798   -266.07189    140749.61   -39371.728    2624.0615   -41995.789    98.644687    221.46371 
   19950    133.53339   -243.49507    140718.46   -39332.862    2680.7838   -42013.646    98.782708    226.25092 
   20000     133.4558   -47.254617    140766.34   -39369.436    2679.2261   -42048.662    98.950379    226.11946 
   20050    133.46297   -282.23674    140691.08   -39361.045    2679.3699   -42040.415    99.394849    226.13159 
   20100    130.24802   -164.99479    140657.51   -39387.077    2614.8275   -42001.905    99.699727    220.68438 
   20150    132.21946   -10.990218    140659.49   -39385.586    2654.4056   -42039.991    99.818736    224.02467 
   20200     132.4065   -148.24301     140739.1   -39428.283    2658.1605   -42086.444    100.06595    224.34157 
   20250    129.39758   -144.87165    140767.59   -39389.769    2597.7543   -41987.523    100.36355    219.24345 
   20300    134.17336   -172.90359    140807.96   -39411.977    2693.6317   -42105.609    100.47461    227.33525 
   20350    128.67509   -108.50564     140807.3   -39451.453    2583.2496   -42034.703    100.89686     218.0193 
   20400    130.70642   -216.42827     140768.6   -39442.226    2624.0302   -42066.256     101.0781    221.46107 
   20450    133.47523    -218.3718    140750.29    -39468.03    2679.6162   -42147.646     101.2467    226.15238 
   20500    135.16996   -355.23181    140670.79   -39403.176    2713.6392   -42116.815    101.63445    229.02383 
   20550    134.26654   -336.80189    140649.72   -39411.643    2695.5023   -42107.145    101.79089    227.49313 
   20600    132.08386   -106.05848    140601.47   -39418.926    2651.6834    -42070.61     101.9856    223.79492 
   20650    131.26591   -26.405453    140641.13   -39437.601    2635.2623   -42072.864    102.31191    222.40903 
   20700    133.02702   -157.06646    140685.47   -39460.523    2670.6179    -42131.14    102.65366    225.39295 
   20750    129.45053   -311.56381    140672.18   -39460.797    2598.8172   -42059.615    103.04969    219.33316 
   20800    130.85881   -171.34197    140670.52   -39440.111    2627.0895     -42067.2    103.52022    221.71926 
   20850    131.58661     -361.679    140731.86   -39425.455    2641.7006   -42067.156    103.76638     222.9524 
   20900      132.891   -237.50215    140776.95   -39380.349    2667.8872   -42048.236    103.78496    225.16248 
   20950    133.14409   -299.00876    140778.22   -39402.902    2672.9683   -42075.871    103.94669    225.59131 
   21000    131.68792   -190.90161    140704.53   -39367.762    2643.7345   -42011.497    104.17662    223.12406 
   21050    134.51069   -178.38317    140739.04   -39338.515    2700.4037   -42038.919    104.47883    227.90679 
   21100    134.40575   -430.33319     140721.6   -39328.242     2698.297   -42026.539    104.87249    227.72898 
   21150     135.9604   -254.96948    140650.18   -39307.109    2729.5078   -42036.617    105.40854     230.3631 
   21200    133.95575   -386.87647    140587.86   -39313.458    2689.2628   -42002.721    105.52978    226.96653 
   21250    132.80569   -191.71365    140552.69   -39353.515    2666.1747   -42019.689     105.8672    225.01795 
   21300    134.41083   -187.65162    140502.52   -39339.952    2698.3991   -42038.351    106.22619     227.7376 
   21350    135.71229   -231.22498    140484.64   -39339.178    2724.5267   -42063.704    106.39088     229.9427 
   21400    134.45142   -409.28898     140505.7   -39319.241    2699.2139   -42018.455    106.73102    227.80637 
   21450    132.48831   -267.57341    140474.76   -39448.756    2659.8028   -42108.559    107.16064    224.48018 
   21500    132.36118   -162.42473    140497.29   -39455.608    2657.2506   -42112.859    107.29864    224.26479 
   21550    133.56626   -313.44349    140464.46   -39426.896    2681.4437    -42108.34    107.41247    226.30661 
   21600    134.61331   -417.60377    140471.45   -39460.742    2702.4639   -42163.206    107.64162    228.08066 
   21650     132.0469   -194.12418    140491.86   -39446.607    2650.9413   -42097.548    108.01439    223.73229 
   21700    130.73685   -200.60406    140542.54   -39466.527     2624.641   -42091.168    108.53079    221.51262 
   21750    132.04339   -323.47472    140606.43   -39420.376    2650.8708   -42071.247    108.83366    223.72635 
   21800    130.97845   -181.64864    140569.53   -39445.324    2629.4913   -42074.816    109.19805    221.92197 
   21850    131.22322   -144.10097    140550.67   -39499.269    2634.4053   -42133.674    109.48176     222.3367 
   21900    133.16694   -425.99029    140586.18   -39444.873     2673.427     -42118.3    109.78094    225.63003 
   21950    130.05617     -432.879    140585.86   -39447.037    2610.9759   -42058.013    109.90607    220.35933 
   22000    129.07338   -376.73098    140526.97   -39424.365    2591.2457   -42015.611    110.12479    218.69415 
   22050    133.36403    -368.5334    140526.85   -39413.445    2677.3838   -42090.829    110.21303    225.96397 
   22100    132.76616   -299.48994    140510.92   -39362.847     2665.381   -42028.228    110.52218    224.95097 
   22150    133.25812   -265.92903    140542.73   -39379.935    2675.2574   -42055.192     110.6712    225.78451 
   22200    134.06554   -200.24657    140550.37   -39371.193     2691.467    -42062.66    111.13572    227.15256 
   22250     133.1152   -159.00971    140540.82   -39397.179    2672.3882   -42069.567    111.38796    225.54236 
   22300    133.26438   -86.319308    140627.08   -39423.314    2675.3831   -42098.697    111.41512    225.79512 
   22350    130.97351   -115.74516    140666.48   -39437.915    2629.3921   -42067.307    111.69649     221.9136 
   22400    131.84189   -220.73385    140604.37   -39467.727    2646.8256   -42114.552    111.92735    223.38494 
   22450    133.08846   -230.55218    140587.68    -39485.23    2671.8513   -42157.081    112.23784    225.49704 
   22500    134.23021   -340.91875     140616.1   -39442.124    2694.7729   -42136.897    112.39577    227.43156 
   22550    135.52275   -123.31074     140647.3   -39424.554    2720.7216   -42145.275    112.22567    229.62156 
   22600    133.44559   -187.00424    140674.76    -39413.35     2679.021   -42092.371    111.86106    226.10215 
   22650    133.91346   -64.410496    140673.09   -39381.756    2688.4139    -42070.17    112.14658    226.89488 
   22700     134.9331    69.350142    140793.73    -39349.08    2708.8839   -42057.964    112.48564     228.6225 
   22750    132.09195   -21.077226    140917.09    -39397.03    2651.8457   -42048.876    112.70067    223.80862 
   22800    132.26609   -165.82828    140919.42   -39376.324    2655.3418   -42031.665    112.85396    224.10368 
   22850    134.38742   -97.642513    140940.75   -39359.405     2697.929   -42057.334    112.89004    227.69793 
   22900    134.91058   -226.82004    140928.86   -39385.919    2708.4318   -42094.351     113.0446    228.58434 
   22950    131.72004   -273.23226     140901.1   -39439.365    2644.3792   -42083.744    113.39256    223.17847 
   23000    131.76984   -260.89571    140885.88   -39462.724     2645.379   -42108.103    113.16425    223.26285 
   23050    134.68763    -198.4598    140909.32   -39402.605    2703.9559   -42106.561    113.24411    228.20658 
   23100    133.22735   -194.65131    140951.37    -39440.21    2674.6398    -42114.85    113.55417    225.73238 
   23150    132.68095   -182.22983    140950.75   -39427.941    2663.6703   -42091.611    113.48721    224.80659 
   23200    133.30274   -52.674499    141016.03   -39457.365    2676.1533   -42133.519    113.62139    225.86012 
   23250     132.9303   -356.65584    141030.58   -39452.415    2668.6762   -42121.092    113.96439    225.22907 
   23300    134.27256      -454.59     140958.3   -39416.151    2695.6232   -42111.775    114.17492    227.50333 
   23350     133.8387   -268.44741    140973.97   -39421.737    2686.9131    -42108.65     114.5798    226.76822 
   23400    135.26709   -271.63665    141041.45    -39428.23    2715.5891   -42143.819    114.95997    229.18839 
   23450    133.31205   -215.67427    141038.64   -39398.062    2676.3401   -42074.403    115.00118    225.87588 
   23500    131.77447   -125.88337    141063.13   -39396.709     2645.472   -42042.181    115.07172     223.2707 
   23550    133.00235   -264.94439     141055.6   -39418.105    2670.1227   -42088.228    115.11146    225.35115 
   23600    133.15898   -313.16556    140957.76   -39431.459    2673.2671   -42104.726    115.34581    225.61653 
   23650    134.18237   -256.62833    140880.86   -39431.162    2693.8126   -42124.975     115.5307    227.35051 
   23700    132.72994   -245.79339    140872.71   -39404.544    2664.6538   -42069.198    115.59002    224.88959 
   23750    134.23173    -282.2839    140934.14   -39374.611    2694.8034   -42069.414    115.81113    227.43413 
   23800    134.15547   -166.67279    140960.13   -39397.332    2693.2725   -42090.605    115.60986    227.30493 
   23850    133.84023    -186.3673     140938.3     -39376.7    2686.9438   -42063.644    115.90006    226.77081 
   23900    133.15261    13.189041    141015.77    -39433.48    2673.1393    -42106.62    115.81633    225.60574 
   23950     133.8282   -237.62023    140972.13   -39371.556    2686.7023   -42058.258     115.8765    226.75042 
   24000     135.1402   -185.27468    140989.91   -39349.275    2713.0417   -42062.317    116.18611     228.9734 
   24050    132.17142   -385.85325    140852.61   -39350.034    2653.4412   -42003.475    116.17082    223.94328 
   24100    130.42918   -375.71424    140756.91   -39376.222    2618.4644   -41994.686    116.56294    220.99133 
   24150    132.09933   -162.87019    140746.93   -39458.957    2651.9938   -42110.951    116.77856    223.82113 
   24200    133.56533     -232.243    140764.67   -39425.887    2681.4249   -42107.312    117.08961    226.30503 
   24250     130.1887   -150.25499    140725.64   -39456.833    2613.6366    -42070.47    117.29239    220.58388 
   24300    130.88275    -145.7609    140731.06   -39401.842      2627.57   -42029.412    117.64291    221.75982 
   24350     132.8691   -149.40953     140780.4   -39383.145    2667.4476   -42050.593    117.96366    225.12538 
   24400    132.28494   -217.43255    140865.58   -39379.823    2655.7202   -42035.543    118.26145    224.13562 
   24450    130.43962   -100.98515    140877.42   -39430.017     2618.674   -42048.691    118.55065    221.00902 
   24500    134.20183   -161.96079    140878.24   -39308.179    2694.2033   -42002.382    118.63818    227.38349 
   24550    135.14297   -429.05475    140894.86   -39307.278    2713.0973   -42020.375    118.73581    228.97809 
   24600    134.08348   -204.45304       140924   -39344.659    2691.8273   -42036.486    119.00972    227.18296 
   24650    131.53051   -353.84063    140967.46   -39395.048    2640.5743   -42035.622    119.01926    222.85735 
   24700    131.29584   -282.48617    140949.07   -39386.376    2635.8632   -42022.239    119.11971    222.45974 
   24750    133.34906   -35.414153     140888.9   -39396.898    2677.0832   -42073.981    119.17023     225.9386 
   24800    134.89729   -278.22073    140906.53   -39354.644    2708.1651   -42062.809     119.5708    228.56183 
   24850    135.26595   -188.14719    140865.79     -39357.8    2715.5662   -42073.367    119.92787    229.18646 
   24900    132.36818   -108.35258    140862.44   -39358.968    2657.3912   -42016.359    119.89673    224.27665 
   24950    133.89092   -303.57428    140787.82   -39340.591    2687.9614   -42028.552    120.19583    226.85669 
   25000    129.53473   -155.02943    140797.59   -39402.118    2600.5077   -42002.626    120.61394    219.47583 
   25050    131.75738   -219.02455    140736.07   -39436.159    2645.1291   -42081.288    120.71258    223.24176 
   25100    130.35909   -386.34168     140723.6    -39405.92    2617.0572   -42022.978    120.77461    220.87257 
   25150    130.20608   -221.00274    140703.54   -39387.232    2613.9855   -42001.218     121.0371    220.61333 
   25200    133.03599   -413.84317    140742.59   -39376.086    2670.7979   -42046.884    121.35818    225.40814 
   25250    134.28026   -236.40914    140694.92    -39417.71    2695.7777   -42113.488    121.34417    227.51636 
   25300    130.14581   -233.54596    140608.24   -39420.315    2612.7755    -42033.09    121.77944    220.51121 
   25350    130.42451   -382.91983    140549.22   -39416.449    2618.3706    -42034.82    121.99611    220.98342 
   25400    132.02977   -111.23029     140513.3   -39423.766    2650.5973   -42074.363    122.22182    223.70326 
   25450    128.86299   -301.31644    140461.31    -39471.71    2587.0219   -42058.732     122.3663    218.33767 
   25500    132.87807   -47.568136    140457.92   -39389.564    2667.6276   -42057.191    122.64349    225.14057 
   25550     134.5038   -49.670671    140477.47   -39406.663    2700.2654   -42106.929    122.76386    227.89511 
   25600    132.00884   -295.35103    140490.62   -39458.255    2650.1772   -42108.433    122.93845    223.66781 
   25650    132.45273   -337.47724    140435.16   -39423.919    2659.0887   -42083.008    123.13994    224.41991 
   25700    131.91697   -279.93557    140508.96   -39405.618    2648.3328   -42053.951    122.89132    223.51214 
   25750    130.44165   -318.74479    140550.38   -39438.545    2618.7147   -42057.259    123.17255    221.01246 
   25800    133.00478   -174.03687    140600.38   -39401.725    2670.1715   -42071.896    123.46261    225.35528 
   25850     133.3251   -336.88825    140724.94   -39327.807    2676.6022    -42004.41    123.43013    225.89801 
   25900    133.86319   -218.11983    140673.42   -39333.153    2687.4047   -42020.558    123.61551    226.80971 
   25950    135.14938   -346.88591    140645.66   -39338.403     2713.226   -42051.629    124.04613    228.98895 
   26000    133.10189   -216.72941    140669.46    -39344.19    2672.1209   -42016.311     124.4118     225.5198 
   26050    133.58658   -340.12276    140693.22   -39356.486    2681.8515   -42038.337     124.6491    226.34103 
   26100    131.33162   -295.57854    140692.16   -39379.972    2636.5816   -42016.554    124.58604    222.52037 
   26150    131.48541   -32.791008    140805.04   -39409.558    2639.6689   -42049.227     125.0465    222.78093 
   26200    133.16005    86.616085    140959.08   -39398.506    2673.2886   -42071.794    125.39858    225.61835 
   26250    133.13985   -204.35168    141055.64   -39420.013     2672.883   -42092.896    125.91359    225.58412 
   26300    129.25946     -226.091    140989.56   -39414.598    2594.9813   -42009.579    126.26869    219.00942 
   26350    133.96674    47.719557    141023.61   -39429.036    2689.4834    -42118.52    126.29293    226.98515 
   26400    134.43137   -222.60068    140987.73   -39404.904    2698.8114   -42103.715    126.53454     227.7724 
   26450    131.76843   -219.07813    140987.69   -39415.887    2645.3507   -42061.237    126.72232    223.26046 
   26500    132.85591   -163.32747    140969.04   -39414.632    2667.1828   -42081.815     126.9354    225.10304 
   26550    131.91351   -101.01133    141033.74   -39404.544    2648.2634   -42052.807     127.0859    223.50629 
   26600      135.578   -183.97045    141084.02     -39400.9    2721.8307    -42122.73     126.8769    229.71517 
   26650    135.45336   -209.48033    141119.64    -39385.09    2719.3285   -42104.419    127.18798    229.50399 
   26700    132.71192   -213.50014     141074.6   -39381.106    2664.2921   -42045.398    127.47378    224.85907 
   26750    131.73229   -330.17557    141091.65   -39395.501    2644.6253   -42040.126    127.52617    223.19924 
   26800    134.49626   -129.74224    141143.47   -39402.415     2700.114   -42102.529    127.80359    227.88234 
   26850    135.87577   -241.22916     141247.5   -39330.779    2727.8087   -42058.587    127.93237    230.21969 
   26900    134.35414   -257.78046    141299.35   -39317.062    2697.2608   -42014.323    128.16657    227.64154 
   26950    131.90006   -337.16046    141283.51   -39366.248    2647.9934   -42014.241    128.56831     223.4835 
   27000    133.83464   -343.37923    141252.37   -39404.226    2686.8315   -42091.058    128.50689    226.76133 
   27050    130.76338   -141.42372    141259.84   -39430.838    2625.1736   -42056.012    128.44226    221.55757 
   27100    134.55865   -225.43999    141280.73   -39430.231    2701.3666   -42131.598    128.61117    227.98805 
   27150    131.75516   -43.693518     141284.1   -39414.316    2645.0843     -42059.4    128.90409    223.23798 
   27200    131.18598   -407.74742    141223.21   -39425.243    2633.6577   -42058.901    129.30344     222.2736 
   27250    132.54073   -172.05457    141084.32   -39453.609    2660.8553   -42114.464    129.46252    224.56901 
   27300    133.23519   -27.255919    141034.35   -39412.932    2674.7972   -42087.729    129.88161    225.74567 
   27350     133.4514   -218.00092    141025.09   -39414.261    2679.1377   -42093.398    129.91028    226.11199 
   27400    135.47078   -142.97518    141063.35   -39416.973    2719.6783   -42136.651    129.99598    229.53351 
   27450    132.33303   -333.78768    141064.78   -39424.991    2656.6857   -42081.676    130.13573     224.2171 
   27500    134.20441   -302.76403    141034.77   -39431.831    2694.2549   -42126.086    130.53902    227.38784 
   27550    131.62317   -124.98218    140982.72   -39376.785    2642.4345   -42019.219    130.78565    223.01435 
   27600    134.06326   -249.80587     140926.9   -39313.469    2691.4212    -42004.89    131.05767    227.14869 
   27650    135.77563   -267.83356    140888.64   -39282.746    2725.7984   -42008.544    131.30522    230.05003 
   27700    133.35808   -82.423496    140936.96   -39355.794    2677.2641   -42033.058    131.49402    225.95387 
   27750    135.49823     109.5221    140973.07   -39330.641    2720.2293   -42050.871    131.42951    229.58001 
   27800     133.8591   -281.75326     140984.3   -39334.742    2687.3225   -42022.065    131.78495    226.80277 
   27850    133.44927   -267.29267    140883.13   -39359.547    2679.0949   -42038.642    132.04836    226.10838 
   27900    133.35428   -230.78123    140852.51   -39386.799     2677.188   -42063.987    132.34046    225.94744 
   27950    133.82321    146.83058    140934.69   -39393.001    2686.6021   -42079.603    132.35156    226.74197 
   28000     130.3702     -195.788    140961.42   -39429.173    2617.2803   -42046.453    132.45425     220.8914 
   28050    133.07212   -303.21323    140965.76   -39389.363    2671.5233   -42060.886    132.59369    225.46936 
   28100    132.27902   -199.52876    140920.47   -39387.373    2655.6014   -42042.974    132.97571    224.12559 
   28150    130.10064    -139.1189    140915.98   -39424.618    2611.8687   -42036.487    133.26685    220.43467 
   28200    131.66101   -233.94831    140860.66   -39451.221    2643.1942   -42094.416    133.60776    223.07846 
   28250    132.86106    -164.8888    140771.57   -39380.597    2667.2861   -42047.883    133.90606    225.11175 
   28300     132.6422   -245.03709    140757.62   -39406.288    2662.8924    -42069.18    133.94055    224.74094 
   28350    131.76302   -149.86025    140787.06   -39420.831    2645.2422   -42066.073    134.20548     223.2513 
   28400    131.96365   -62.933274    140863.22   -39451.753    2649.2699   -42101.023    134.47654    223.59123 
   28450    133.26115   -236.48257    140878.44   -39449.443    2675.3183   -42124.761    134.68564    225.78965 
   28500    134.32787   -189.05792    140870.13   -39418.687    2696.7336   -42115.421    134.99843    227.59704 
   28550    132.46906   -441.55351     140804.7   -39462.417    2659.4164   -42121.833    135.38346    224.44757 
   28600    132.24284   -181.29157     140858.8   -39518.128     2654.875   -42173.003    135.48984    224.06429 
   28650    132.43674   -185.53495    140908.27    -39463.62    2658.7676   -42122.388    135.76861    224.39282 
   28700    131.91461   -244.20272    140925.37   -39449.731    2648.2855   -42098.016    135.96272    223.50816 
   28750    132.78795   -408.57062     140903.6   -39453.534    2665.8185   -42119.353     136.1483    224.98789 
   28800    133.33895   -249.24841     140908.1   -39445.378    2676.8802   -42122.259    136.50424    225.92147 
   28850    134.82215   -244.00643    140919.12   -39388.729    2706.6565   -42095.386     136.7796    228.43451 
   28900     133.4224   -368.30925    140882.43   -39454.319    2678.5555   -42132.874    137.29239    226.06286 
   28950    131.13668   -115.21667     140862.9   -39463.866    2632.6679   -42096.534    137.52388    222.19007 
   29000    132.11449   -348.37967       140857   -39477.547    2652.2982   -42129.845    137.99098    223.84681 
   29050    131.20647   -140.71244    140843.55   -39477.963     2634.069   -42112.032    138.55462    222.30832 
   29100    133.79576   -179.35812    140867.72   -39434.621     2686.051   -42120.672    138.56627    226.69546 
   29150    134.06598    -91.89207    140846.03   -39359.043    2691.4759   -42050.519    138.52217    227.15331 
   29200    131.97733   -238.79266    140852.53   -39378.584    2649.5447   -42028.128    138.63916    223.61442 
   29250    130.88036   -181.50351    140908.89   -39383.343    2627.5222   -42010.866    138.90027    221.75579 
   29300    135.47231   -211.68859    140795.37   -39368.364    2719.7089   -42088.073     139.0567     229.5361 
   29350    133.89281     -195.498    140858.36   -39369.496    2687.9993   -42057.495    138.96061    226.85989 
   29400     136.2088   -137.16136    140892.09   -39379.058    2734.4946   -42113.553    139.09222    230.78397 
   29450     132.9961    -205.7924    140991.48   -39416.172    2669.9972   -42086.169    139.27946    225.34056 
   29500    132.73211   -245.55366    141060.29   -39434.127    2664.6974   -42098.825    139.58417    224.89328 
   29550    133.92032   -291.68445    141063.09   -39389.298    2688.5517   -42077.849    139.92499    226.90651 
   29600    136.22838   -325.49339    141100.03    -39364.43    2734.8878   -42099.318     140.4285    230.81715 
   29650    134.02562   -177.65719    141173.82   -39362.819    2690.6656   -42053.484    140.78101    227.08492 
   29700    132.84299   -237.83893    141157.94   -39365.119    2666.9235   -42032.042    140.85161    225.08115 
   29750    134.69998   -118.66996    141101.61   -39404.801    2704.2039   -42109.005    141.32783    228.22751 
   29800    133.10581   -385.93317    141017.45   -39408.195    2672.1998   -42080.395    141.52078    225.52645 
   29850    133.44143   -174.07481    140973.86   -39409.928    2678.9376   -42088.865    141.56054    226.09511 
   29900    131.86591   -115.11712     140990.9   -39422.983    2647.3077   -42070.291     141.6602    223.42563 
   29950    132.91679   -325.80105    140932.11   -39480.781     2668.405   -42149.186    141.80388    225.20619 
   30000    131.22297   -113.85027    140863.53    -39455.94    2634.4004    -42090.34    142.04167    222.33629 
   30050    134.31438   -290.42077    140822.18   -39420.493    2696.4627   -42116.956    142.36639    227.57418 
   30100    135.96144   -205.05268    140851.69   -39364.967    2729.5287   -42094.496    142.26638    230.36486 
   30150    133.17477   -84.954615    140924.34   -39372.879    2673.5841   -42046.464    142.50119    225.64328 
   30200    133.81458   -188.83768    140939.16   -39394.154    2686.4289   -42080.583    142.63608    226.72735 
   30250     133.1264    -217.7149    140958.51   -39463.787     2672.613     -42136.4    142.75814    225.56133 
   30300    132.13631   -377.82125    140931.67   -39507.259    2652.7363   -42159.995    142.97625    223.88379 
   30350    131.79896   -109.59672    140848.42   -39514.155    2645.9636   -42160.118    142.73036    223.31219 
   30400    132.98456   -135.93161    140882.97   -39466.039    2669.7655   -42135.805    142.83048    225.32101 
   30450    134.10458   -236.51801    140817.71    -39473.57    2692.2508   -42165.821    143.00645     227.2187 
   30500    134.50159   -183.17768    140879.86   -39454.694     2700.221   -42154.915    143.16823    227.89137 
   30550    134.22212   -146.42671    140906.54   -39455.254    2694.6104   -42149.865    143.35313    227.41785 
   30600    132.36169   -186.43587    140882.74   -39489.422    2657.2609   -42146.683    143.87366    224.26565 
   30650     130.4541   -230.11285    140837.52   -39519.894    2618.9646   -42138.859    144.21768    221.03355 
   30700    131.76011    -285.2798    140852.63   -39519.965    2645.1838   -42165.149    144.25235    223.24637 
   30750    132.94274   -297.44594    140868.66   -39555.939    2668.9259   -42224.865    144.79194    225.25015 
   30800    133.23601   -46.190306    140838.38   -39523.294    2674.8136   -42198.107    144.64331    225.74706 
   30850     134.1029   -106.42191    140834.48   -39471.776     2692.217   -42163.993    144.85161    227.21585 
   30900    131.81397   -56.909202    140799.39   -39473.415    2646.2651    -42119.68    145.14255    223.33764 
   30950     132.5587   -213.02213    140818.47   -39432.014    2661.2161   -42093.231    145.04782    224.59946 
   31000    134.64154   -237.95345    140847.81   -39449.711    2703.0307   -42152.742    145.04678     228.1285 
   31050      134.027   -226.19811     140862.8    -39439.84    2690.6932   -42130.533    145.25194    227.08725 
   31100    132.70716   -198.91772    140807.26    -39415.73    2664.1966   -42079.926    145.61466    224.85101 
   31150    131.80803   -298.42182    140775.99   -39443.819    2646.1458   -42089.964    145.87026    223.32757 
   31200    130.26006   -232.30737    140767.85   -39473.695    2615.0691   -42088.764     145.8952    220.70478 
   31250    132.55064   -145.02617    140759.02   -39496.466    2661.0543    -42157.52    146.08882     224.5858 
   31300    132.52643   -325.63641    140718.33   -39492.279    2660.5683   -42152.847    146.42918    224.54479 
   31350    132.81289   -154.75935    140697.74    -39487.94    2666.3191   -42154.259    146.88833    225.03014 
   31400     133.2372    -328.6709    140640.22   -39438.846    2674.8375   -42113.684    146.75334    225.74907 
   31450     132.5719   -119.36791    140646.34   -39498.017    2661.4812   -42159.498    147.07114    224.62183 
   31500     133.5493   -14.300359    140677.46   -39455.529    2681.1032   -42136.632    147.55073    226.27787 
   31550     133.4644   -37.990766    140687.75   -39449.398    2679.3987   -42128.797    147.75566    226.13402 
   31600    134.82446   -35.486178    140743.52    -39441.19    2706.7029   -42147.893     147.9324    228.43842 
   31650    135.19659   -215.15363    140785.79    -39475.13    2714.1738   -42189.304    148.41162    229.06894 
   31700    131.52345   -336.28507     140759.4   -39502.431    2640.4326   -42142.864    148.38585    222.84539 
   31750    132.64566   -147.88799     140668.9   -39514.923    2662.9619   -42177.885    148.79639     224.7468 
   31800    133.35233   -259.41834    140667.32   -39500.459    2677.1487   -42177.608    148.80581    225.94413 
   31850    131.69431   -59.525168    140725.55   -39476.969    2643.8627   -42120.831    149.26765    223.13488 
   31900    131.80023   -269.76005     140705.9   -39473.565    2645.9893   -42119.554    149.38839    223.31436 
   31950    133.34328   -97.064306    140675.02   -39423.263    2676.9672    -42100.23    149.93865    225.92881 
   32000    134.19719   -129.96041    140628.42   -39449.864    2694.1101   -42143.974    150.44697    227.37562 
   32050    131.23184   -188.88684    140670.33   -39486.238    2634.5784   -42120.816    150.85391    222.35131 
   32100    133.05756   -356.47908    140671.96   -39506.288    2671.2311   -42177.519    150.92997     225.4447 
   32150    134.79587    -108.7137    140772.89   -39353.957    2706.1289   -42060.086    151.18389    228.38998 
   32200     133.8644   -374.96857    140793.62   -39396.256    2687.4291   -42083.686    151.76165    226.81176 
   32250    131.64293   -294.34974    140775.23   -39463.262    2642.8314   -42106.093    151.91156    223.04784 
   32300      134.011   -233.25636    140771.54   -39470.418    2690.3721    -42160.79    152.25147    227.06015 
   32350     131.8422   -288.43455    140762.16   -39500.801    2646.8317   -42147.633    152.68596    223.38545 
   32400    129.13983   -194.68305    140821.08    -39503.79    2592.5797    -42096.37    152.97738    218.80673 
   32450    131.87976   -354.70606    140789.99   -39479.034    2647.5858    -42126.62    152.93614     223.4491 
   32500    130.98116   -180.61678    140832.49    -39512.08    2629.5458   -42141.626    153.02045    221.92657 
   32550    131.05631   -280.25704    140822.87   -39493.133    2631.0545   -42124.187    153.68442     222.0539 
   32600    134.20327   -191.27748    140777.78   -39440.366    2694.2321   -42134.598    153.73385    227.38592 
   32650    130.23623   -152.35479    140705.78   -39418.499    2614.5907   -42033.089    153.80595     220.6644 
   32700    131.75327   -50.488031    140757.16   -39424.407    2645.0464   -42069.453    154.17229    223.23478 
   32750    133.54025    20.532723    140875.45   -39450.389    2680.9214    -42131.31    154.26272    226.26253 
   32800    130.19471   -253.26698    140907.19   -39497.903    2613.7572    -42111.66    154.32185    220.59405 
   32850    131.94553   -40.537463    140913.35   -39432.217    2648.9063   -42081.123    154.64215    223.56054 
   32900    129.70921   -98.906194    140904.89   -39493.223    2604.0105   -42097.233    154.62605    219.77146 
   32950    132.73607   -259.39775    140907.49   -39498.895     2664.777   -42163.672    154.86425    224.89999 
   33000    129.49165   -150.00253    140999.76   -39482.824    2599.6427   -42082.466    155.01737    219.40283 
   33050    130.56995   -101.89747    141111.84    -39465.94    2621.2905    -42087.23    155.24002    221.22985 
   33100    130.35886   -317.24677    141140.04   -39487.711    2617.0526   -42104.764    155.45054    220.87218 
   33150    130.49321   -187.13438    141114.27   -39456.573    2619.7498   -42076.322    155.56646    221.09982 
   33200     132.2318   -357.24142     141067.1   -39455.989    2654.6534   -42110.642    155.77652    224.04559 
   33250    131.16615    48.855912    141034.71    -39432.36    2633.2596    -42065.62    156.03575    222.24001 
   33300    134.83051   -263.96173    140983.31   -39446.241    2706.8243   -42153.065     156.2748    228.44867 
   33350    131.25951   -133.84979    141023.37   -39418.116    2635.1338    -42053.25    156.50182    222.39818 
   33400    131.90067   -91.844317    141119.78   -39379.223    2648.0055   -42027.228    156.45667    223.48452 
   33450    133.44806   -374.48563    141128.83   -39395.102    2679.0706   -42074.172    156.69085    226.10633 
   33500    133.87743   -391.89317    141095.66   -39366.761    2687.6906   -42054.452    157.06627    226.83384 
   33550    132.46035   -345.86604    140964.24   -39411.462    2659.2417   -42070.703    157.42535    224.43282 
   33600    133.49678   -440.05172    140887.77   -39431.987    2680.0488   -42112.036    157.22374    226.18889 
   33650     132.5346   -287.79231    140845.44    -39418.68    2660.7322   -42079.413    157.35056    224.55862 
   33700    130.93909   -358.48355    140870.52   -39414.713    2628.7012   -42043.414    157.84791    221.85529 
   33750    133.71721   -225.39413    140942.58   -39351.373     2684.474   -42035.847    158.29676    226.56236 
   33800    132.35893   -185.14086    140923.65   -39351.771    2657.2056   -42008.977    158.63831    224.26098 
   33850    134.36811    -511.3059    140883.68   -39396.124    2697.5413   -42093.665    159.03717    227.66521 
   33900    135.70926   -149.92523    140856.44   -39360.529    2724.4659   -42084.994    159.33613    229.93757 
   33950    134.17179   -130.97074    140889.02   -39363.653       2693.6   -42057.253    159.60449    227.33257 
[...]
   92000    131.23089     -53.9031    140728.25   -39461.816    2634.5593   -42096.375    394.22607     222.3497 
   92050    131.20714    -439.9608    140716.12   -39478.169    2634.0824   -42112.251    394.37381    222.30945 
   92100    130.87248   -203.59898    140653.05   -39509.972     2627.364   -42137.336    394.09022    221.74243 
   92150    134.39252   -296.97745     140621.5   -39465.173    2698.0314   -42163.204    394.20057    227.70657 
   92200     133.5101    -90.13522    140581.37   -39421.189    2680.3162   -42101.505    394.45992    226.21146 
   92250    133.84485   -294.15472    140585.68   -39435.335    2687.0365   -42122.371    394.94713    226.77863 
   92300    135.02715   -231.89926    140570.25    -39401.75    2710.7721   -42112.522     395.1094    228.78185 
   92350    135.42084   -109.95149    140611.89    -39418.48    2718.6758   -42137.156    395.34939     229.4489 
   92400    133.24651    -267.0908     140588.5   -39399.385    2675.0244   -42074.409     395.0836    225.76484 
   92450     132.6105   -300.72485    140595.44   -39413.131    2662.2559   -42075.387    395.42989    224.68722 
   92500    131.56565   -385.00992    140559.03   -39456.393    2641.2799   -42097.673    396.11007     222.9169 
   92550    134.48995   -169.12592    140569.31   -39391.764    2699.9873   -42091.752    396.68089    227.87165 
   92600    131.86025   -236.05534    140567.09   -39428.107    2647.1941   -42075.302    397.01401    223.41604 
   92650    131.32466   -24.774467    140500.07   -39427.917    2636.4418   -42064.358    397.49089    222.50857 
   92700    132.37734   -157.24542    140435.96   -39453.007    2657.5751   -42110.582     397.6223    224.29217 
   92750    133.79985   -198.09532    140447.34   -39452.913    2686.1331   -42139.046    397.69975    226.70239 
   92800    132.14644   -123.20745    140488.59   -39441.332    2652.9396   -42094.272    397.53268    223.90094 
   92850    132.05904   -155.46164    140517.38   -39438.336    2651.1851   -42089.521    397.54165    223.75287 
   92900    134.85243   -264.13149     140613.3   -39426.571    2707.2644   -42133.835     398.0228    228.48581 
   92950    132.81588   -375.80981    140629.59   -39429.452    2666.3791   -42095.831    398.11805    225.03521 
   93000    132.29088   -236.84855     140557.5   -39413.337    2655.8394   -42069.176    398.35156    224.14568 
   93050    131.02389    -244.3983    140585.24   -39430.027    2630.4037   -42060.431    398.42018    221.99897 
   93100     131.2285   -209.86771    140582.23   -39421.164    2634.5112   -42055.675    398.35431    222.34564 
   93150    134.36585   -28.784683    140552.77   -39440.129    2697.4961   -42137.625    398.60712    227.66139 
   93200    137.52186   -121.93633    140603.15   -39418.197    2760.8552   -42179.052    399.08375    233.00873 
   93250    131.28921   -92.510123    140641.92   -39502.196    2635.7301   -42137.926    399.15936    222.44851 
   93300     133.1887   -322.08014    140654.48   -39496.386    2673.8637    -42170.25    399.68734    225.66689 
   93350    133.23833   -174.13279    140671.94   -39425.513    2674.8601   -42100.374     399.9414    225.75098 
   93400    131.55581   -81.509818    140592.86   -39450.793    2641.0822   -42091.875    399.13127    222.90021 
   93450     131.6017   -128.17245    140651.41   -39478.812    2642.0036   -42120.816    398.94904    222.97798 
   93500    134.26532   -284.21584    140604.69   -39480.479    2695.4778   -42175.957    399.80431    227.49105 
   93550     133.9897   -276.58492    140445.69   -39479.142    2689.9446   -42169.086    400.05119    227.02407 
   93600     131.2326    -217.1324    140436.65   -39536.027    2634.5935    -42170.62    400.27597    222.35259 
   93650    130.91028   -57.910357    140377.42   -39516.943    2628.1228   -42145.065    400.31277    221.80647 
   93700    132.01849   -258.07121    140455.74   -39493.838    2650.3709   -42144.209    400.11307    223.68415 
   93750    132.15086   -217.61004     140449.2   -39530.595    2653.0284   -42183.623    400.10257    223.90844 
   93800    134.40045   -98.356616    140458.31   -39462.863    2698.1905   -42161.053    399.95751       227.72 
   93850    131.85269   -214.72845    140434.69   -39464.184    2647.0425   -42111.226    399.96822    223.40324 
   93900    131.66635   -164.38671    140438.91   -39460.848    2643.3015   -42104.149    400.45485    223.08752 
   93950    131.66901   -364.63144     140521.7   -39494.059    2643.3549   -42137.413    400.70739    223.09203 
   94000    132.15897   -114.72672    140556.71   -39459.144    2653.1912   -42112.336    400.90373    223.92218 
   94050    130.28442   -111.89005    140697.02   -39440.668    2615.5582   -42056.226    400.87243    220.74605 
   94100    133.63483   -219.50791     140752.6   -39483.474    2682.8201   -42166.294    401.67819    226.42278 
   94150    135.83575    -404.5997    140766.85   -39427.792    2727.0053   -42154.798    402.80211    230.15189 
   94200    129.10902   -60.854343    140728.35    -39510.09    2591.9612   -42102.051    402.81185    218.75453 
   94250    129.90246   -465.63291     140749.2   -39505.066      2607.89   -42112.956    402.94089    220.09888 
   94300    128.71725   -154.29779    140707.21   -39511.061    2584.0961   -42095.157    403.26033    218.09074 
   94350    132.81571    -175.9385    140735.63   -39489.494    2666.3757    -42155.87    403.63836    225.03492 
   94400    132.21437    9.1971278    140729.65   -39482.384    2654.3034   -42136.688    403.96145    224.01605 
   94450     129.3548   -397.21289    140658.92   -39535.264    2596.8954    -42132.16    404.58635    219.17097 
   94500    130.64126   -115.20126    140678.62   -39494.049    2622.7219   -42116.771    404.81348    221.35066 
   94550    131.07341    -425.4872    140706.37    -39473.74    2631.3978   -42105.137    405.16968    222.08288 
   94600    132.20171    -334.0205    140655.57   -39450.763    2654.0492   -42104.812    405.17957    223.99459 
   94650    133.71198   -386.46769     140601.8   -39476.907    2684.3691   -42161.276    405.08457    226.55351 
   94700    131.68877   -64.795564    140589.64   -39483.071    2643.7517   -42126.823    405.27112    223.12551 
   94750    128.86792   -167.44454    140574.26   -39537.461    2587.1208   -42124.582    405.47253    218.34602 
   94800    129.29781   -184.52449    140636.71   -39534.354    2595.7513   -42130.106    405.61572    219.07441 
   94850    130.20117   -222.25908    140643.59   -39547.672    2613.8868   -42161.558    405.76547    220.60499 
   94900    133.13109    -224.1506    140578.33   -39490.264    2672.7072   -42162.971     405.9122    225.56927 
   94950    134.16203   -201.59765    140624.56   -39436.892    2693.4041   -42130.297    405.94492    227.31604 
   95000    132.26787   -202.88267    140669.33   -39485.376    2655.3775   -42140.753    406.31599     224.1067 
   95050    136.68615   -143.31086    140690.95   -39498.821    2744.0778   -42242.898    406.44105    231.59276 
   95100    130.22521   -106.92853    140808.27   -39543.607    2614.3695   -42157.977    407.09451    220.64573 
   95150    130.77538   -324.09071     140833.7    -39552.73    2625.4145   -42178.145    407.53457     221.5779 
   95200    132.99981   -215.18797    140860.81   -39488.004    2670.0716   -42158.075    407.31469    225.34684 
   95250    132.26059   -175.37099    140885.88   -39515.085    2655.2313   -42170.317    407.41952    224.09436 
   95300    132.71314   -188.52531    140894.21   -39488.828    2664.3166   -42153.145    407.54835    224.86113 
   95350    132.81675   -182.39589    140958.68   -39456.518    2666.3966   -42122.914    407.82141    225.03668 
   95400    132.28728   -338.25366    140954.22   -39461.222     2655.767   -42116.989    408.09672    224.13957 
   95450    134.24063   -356.36415    140953.66   -39510.827     2694.982   -42205.809    408.24855    227.44921 
   95500    131.12816   -423.27684    140847.97   -39498.225    2632.4968   -42130.722    407.51499    222.17563 
   95550    134.57522   -199.80677    140873.17   -39448.749    2701.6993   -42150.448    407.43328    228.01613 
   95600    135.14916   -371.56962    140854.76   -39416.807    2713.2216   -42130.029    407.65934    228.98858 
   95650    133.53726   -176.20979    140846.96    -39419.61    2680.8615   -42100.471    407.49232    226.25748 
   95700    131.20241   -476.59897    140787.81   -39449.244    2633.9876   -42083.232    407.64684    222.30145 
   95750    129.63009   -219.02284    140729.76   -39447.277     2602.422   -42049.699    408.28133     219.6374 
   95800    131.72743   -274.63513    140691.42     -39448.8    2644.5277   -42093.328    408.71651      223.191 
   95850    129.48102    -334.7831    140675.77   -39498.865    2599.4293   -42098.294    408.55677    219.38482 
   95900    131.71632   -492.73544    140598.07    -39484.63    2644.3047   -42128.935    408.66399    223.17219 
   95950     132.4424   -393.75087     140586.9   -39562.261    2658.8813   -42221.142    408.57279    224.40241 
   96000    130.20625    -317.5534    140596.04   -39544.627    2613.9888   -42158.616    408.78648     220.6136 
   96050    132.76407    -194.0321    140515.21   -39518.804    2665.3391   -42184.143    408.63118    224.94743 
   96100    131.40611   -226.93525    140506.34   -39520.108     2638.077   -42158.185    408.67528    222.64658 
   96150    133.34899   -162.98308    140442.84   -39521.469    2677.0818   -42198.551    408.63964    225.93848 
   96200    132.91386   -159.51787    140414.39   -39500.964    2668.3463    -42169.31    408.36595    225.20123 
   96250    136.24243   -71.829853    140454.67    -39505.09    2735.1697    -42240.26    408.93551    230.84095 
   96300    133.12011    9.8810262    140542.04   -39532.295    2672.4868   -42204.782    408.58766    225.55067 
   96350    129.07681   -308.45736    140535.98   -39566.767    2591.3145   -42158.081    408.65177    218.69995 
   96400    132.36133   -110.63697    140546.16   -39551.794    2657.2538   -42209.048    408.76245    224.26505 
   96450     130.8873   -495.52762    140527.28    -39543.67    2627.6615   -42171.332    409.21139    221.76754 
   96500    130.27799   -187.48385    140417.85   -39478.786    2615.4291   -42094.215    409.27515    220.73516 
   96550    131.27546   -225.67716    140370.94   -39500.878     2635.454   -42136.332    409.37993    222.42521 
   96600    131.82499   -51.285877    140400.27   -39501.332    2646.4863   -42147.818     410.1764    223.35631 
   96650    132.18731   -203.61516     140460.3   -39480.541    2653.7601   -42134.302    410.80251     223.9702 
   96700    132.11562   -107.55675    140522.84   -39490.514    2652.3209   -42142.835    410.89757    223.84873 
   96750     132.9627   -42.369717     140578.1   -39491.454    2669.3268   -42160.781    410.82657    225.28398 
   96800    134.47533    -20.97301    140590.97   -39471.882     2699.694   -42171.576    411.03718    227.84689 
   96850    132.65259   -163.24938    140650.45   -39513.821    2663.1009   -42176.922    411.28525    224.75853 
   96900    131.60513   -11.687839    140709.99   -39477.755    2642.0725   -42119.828     411.8541    222.98379 
   96950    133.55751   -49.473849     140756.2   -39513.716    2681.2679   -42194.984    411.75648    226.29178 
   97000    132.86071   -224.37846     140787.2   -39493.728    2667.2792   -42161.007     412.0662    225.11117 
   97050    132.04765    -317.3014    140785.12   -39483.462    2650.9564   -42134.418    412.46177    223.73357 
   97100    132.69713   -157.39042    140733.99    -39456.88    2663.9952   -42120.875     412.4949    224.83401 
   97150    134.13599   -207.97688    140799.69   -39434.777    2692.8815   -42127.658    412.77613    227.27193 
   97200    131.16869   -101.27009    140754.22   -39444.874    2633.3106   -42078.184    412.65309    222.24431 
   97250    134.49166   -265.62451    140757.25   -39424.335    2700.0218   -42124.356    412.65595    227.87456 
   97300    132.31583   -360.49308    140765.62   -39424.172    2656.3404   -42080.512     413.1891    224.18796 
   97350    131.80255   -328.79988    140691.36   -39426.188    2646.0357   -42072.224    413.30383    223.31828 
   97400    131.84326   -145.94575    140675.35   -39415.405     2646.853   -42062.258    413.46166    223.38725 
   97450    132.01899   -112.23159    140707.05   -39385.047     2650.381   -42035.428    413.54114    223.68501 
   97500     132.0193   -227.91724    140736.68    -39399.89    2650.3872   -42050.277    413.82846    223.68553 
   97550    132.13401   -298.94639    140703.06   -39457.724    2652.6902   -42110.414    413.74598    223.87989 
   97600    131.14257   -261.97497    140737.84   -39466.438    2632.7861   -42099.224    413.84564    222.20005 
   97650    130.46698   -331.62278    140695.93   -39484.422    2619.2232   -42103.646    414.42147    221.05537 
   97700    129.98476   -319.91781    140561.57   -39461.063    2609.5423   -42070.606     414.7164    220.23833 
   97750    129.01418   -122.16998    140553.14   -39508.819    2590.0571   -42098.876    415.04369    218.59383 
   97800    132.71954   -193.33845    140537.96   -39481.774    2664.4451   -42146.219     415.0933    224.87198 
   97850    132.40834   -274.65143    140489.96    -39448.67    2658.1974   -42106.868    415.47372    224.34469 
   97900    133.39055   -255.00746    140448.52   -39432.194    2677.9162   -42110.111    415.67474     226.0089 
   97950    131.68875   -261.32312    140496.43   -39421.105    2643.7512   -42064.856    415.98269    223.12547 
   98000    131.62325   -382.74657    140515.05   -39423.112    2642.4363   -42065.548    416.23045    223.01449 
   98050     133.7335   -59.682987    140447.34   -39421.567    2684.8011   -42106.368    416.03165    226.58997 
   98100    132.04665   -81.313304    140435.45   -39471.628    2650.9362   -42122.564    416.51279    223.73186 
   98150    128.81515   -192.73833    140443.17   -39453.982    2586.0614   -42040.044    416.76573     218.2566 
   98200    132.63314   -225.19651    140505.22   -39438.358    2662.7104   -42101.068    416.67509    224.72558 
   98250    129.65287   -92.769747    140541.91   -39482.672    2602.8794   -42085.552    416.90165      219.676 
   98300    129.98628    -252.0595    140612.22    -39456.86    2609.5728   -42066.433    417.30068    220.24091 
   98350     131.3494   -333.59402    140514.71   -39502.506    2636.9384   -42139.444    417.48653    222.55049 
   98400    132.40274   -308.55963    140523.71   -39508.815     2658.085     -42166.9    417.91746     224.3352 
   98450    134.10204    -390.2025     140545.6   -39524.662    2692.1998   -42216.862    418.12331     227.2144 
   98500    131.53024   -448.90244    140582.41   -39517.053    2640.5689   -42157.622    418.53643    222.85689 
   98550    130.41672   -122.12152    140635.56   -39516.199    2618.2143   -42134.413    418.84388    220.97022 
   98600    133.31438   -310.44858     140674.7   -39436.703     2676.387    -42113.09    418.69502    225.87984 
   98650    133.69269   -300.16769    140736.93   -39439.802    2683.9819   -42123.784    419.08715    226.52083 
   98700    132.13978   -337.03873    140754.33   -39462.355    2652.8059   -42115.161    419.42349    223.88966 
   98750    133.74024   -401.99292    140694.83   -39456.501    2684.9363   -42141.437    419.34423    226.60138 
   98800    131.79875   -242.94478    140686.55   -39469.052    2645.9595   -42115.012    419.19695    223.31185 
   98850    132.42575   -387.59682    140644.83   -39480.353     2658.547     -42138.9    419.60173     224.3742 
   98900    132.93712   -234.07304    140617.74   -39473.171    2668.8131   -42141.984    419.75962    225.24062 
   98950    132.95623   -221.03454    140717.35   -39441.372    2669.1969   -42110.569    419.77349    225.27302 
   99000     132.4894   -334.88294    140704.39   -39448.924    2659.8249   -42108.749    420.18335    224.48205 
   99050    133.47175   -154.72127     140684.4   -39449.318    2679.5463   -42128.865    420.30234    226.14648 
   99100    132.78198   -282.06201    140645.85    -39466.87    2665.6986   -42132.569    420.46619    224.97777 
   99150    132.16381   -415.08764    140641.64   -39480.153    2653.2883   -42133.441    421.02183    223.93037 
   99200     132.1603    80.584244    140595.05   -39463.732    2653.2179    -42116.95    421.32426    223.92443 
   99250    133.46689    -252.2538    140663.78   -39452.376    2679.4486   -42131.825     421.6438    226.13824 
   99300    131.79215   -458.07243    140492.65   -39464.339     2645.827   -42110.166    421.34174    223.30066 
   99350     131.1135   -242.83023    140421.38   -39478.405    2632.2026   -42110.607    421.79133     222.1508 
   99400    131.70779   -130.46701    140373.28   -39504.195    2644.1335   -42148.329    422.27845    223.15773 
   99450    128.78378   -136.83616    140435.46   -39489.777    2585.4318   -42075.209    422.72176    218.20347 
   99500    133.48842   -51.676017    140424.18   -39436.491    2679.8809   -42116.372    423.16743    226.17472 
   99550    131.74899   -363.49321    140426.02   -39439.332    2644.9605   -42084.292    423.70605    223.22753 
   99600    131.44998   -33.865156     140527.2   -39436.207    2638.9577   -42075.165      423.648    222.72092 
   99650    133.35268    -159.2388     140540.6   -39435.544    2677.1558     -42112.7    423.54158    225.94473 
   99700    131.44947   -90.135688     140616.9   -39450.956    2638.9474   -42089.903    423.76029    222.72004 
   99750    132.54967   -302.75437     140619.1    -39481.45    2661.0349   -42142.485    424.18372    224.58417 
   99800    131.08874    -29.76001    140665.34   -39454.627    2631.7056   -42086.332    424.29046    222.10885 
   99850    132.51432   -115.67998    140618.74   -39440.311    2660.3251   -42100.636    424.57119    224.52426 
   99900    131.73778   -270.58054     140583.1   -39466.322    2644.7356   -42111.057    424.88634    223.20855 
   99950    132.65029   -263.57171    140562.08   -39502.597    2663.0548   -42165.652    424.67584    224.75464 
  100000    132.39833   -110.72206    140641.92   -39509.804    2657.9965     -42167.8    424.76736    224.32774 
Loop time of 194.74 on 64 procs for 100000 steps with 6736 atoms

Performance: 221.834 ns/day, 0.108 hours/ns, 513.506 timesteps/s
100.0% CPU use with 64 MPI tasks x no OpenMP threads

MPI task timing breakdown:
Section |  min time  |  avg time  |  max time  |%varavg| %total
---------------------------------------------------------------
Pair    | 36.929     | 92.604     | 154.23     | 571.5 | 47.55
Neigh   | 1.3022     | 2.6331     | 5.2282     |  88.3 |  1.35
Comm    | 26.094     | 87.309     | 145.84     | 569.8 | 44.83
Output  | 0.12667    | 0.12826    | 0.14104    |   0.5 |  0.07
Modify  | 6.9536     | 11.3       | 19.337     | 130.3 |  5.80
Other   |            | 0.7652     |            |       |  0.39

Nlocal:    105.25 ave 174 max 66 min
Histogram: 27 5 0 10 6 0 0 0 7 9
Nghost:    999.453 ave 1344 max 678 min
Histogram: 32 0 0 0 0 0 0 0 10 22
Neighs:    0 ave 0 max 0 min
Histogram: 64 0 0 0 0 0 0 0 0 0
FullNghs:  12647.5 ave 27600 max 4226 min
Histogram: 32 0 0 0 16 0 0 0 2 14

Total # of neighbors = 809440
Ave neighs/atom = 120.166
Neighbor list builds = 6145
Dangerous builds = 0

write_data		${DIR}/data.eq-${NAME}-${TEMP}
write_data		run_20/data.eq-${NAME}-${TEMP}
write_data		run_20/data.eq-het_freeze_20-${TEMP}
write_data		run_20/data.eq-het_freeze_20-225
undump          1

reset_timestep  0

unfix           2
unfix           3
unfix           4


################################################
#######         Run Simulation         #########
################################################

log				${DIR}/log.run_${NAME}
log				run_20/log.run_${NAME}
log				run_20/log.run_het_freeze_20
