LAMMPS data file via write_data, version 16 Mar 2018, timestep = 100000

4990 atoms
2 atom types

0.0000000000000000e+00 4.9219999999999999e+01 xlo xhi
0.0000000000000000e+00 4.9019635930410494e+01 ylo yhi
2.1054925042958175e+00 3.7894507495705867e+01 zlo zhi

Masses

1 18.015
2 12.01

Atoms # atomic

457 1 8.4562059911347309e-01 4.0601056373211719e-01 3.0321725560134829e+00 1 1 1
2608 1 1.0878559414114910e+00 2.1588552893405275e+00 5.5445214832183245e+00 0 0 0
929 1 7.5844109408134779e+00 2.1418745005722988e+00 3.4118281100364527e+00 1 1 0
2561 1 6.4356983658709908e+00 3.2917719036756776e+00 5.6418459716752132e+00 1 1 1
3799 1 4.7259717838261990e+00 5.0615663389108292e+00 4.9126142670867612e+00 1 0 0
1325 1 3.8624119921379401e+00 2.3115451781814857e+00 3.5807009608804012e+00 0 0 1
3765 1 5.7424950815366849e+00 5.3704987070998103e+00 9.5925604055018496e+00 1 0 1
4260 1 7.4722143318640633e-01 5.2448006162877725e+00 7.1428846357744620e+00 1 1 0
1030 1 2.4831485108256217e+00 4.7688158458292609e+00 2.8505555737831081e+00 1 1 1
3752 1 4.6540491688508236e+00 1.6171003375483399e+00 7.2611629999915257e+00 0 0 1
117 1 6.1156363165437799e+00 7.0167687763802817e+00 3.5330466985518969e+00 0 0 1
3367 1 1.1456564155392249e+01 6.3732474452839165e+00 5.8585901920493395e+00 1 1 1
4676 1 8.8829542400964829e+00 5.7433215555335257e+00 7.1520154467851933e+00 0 1 1
1360 1 8.8588867657042503e+00 8.4711186330518853e+00 8.6828690266369151e+00 1 0 0
4348 1 2.3848057790124262e+00 9.2848327379652353e+00 4.3647600424627457e+00 2 1 0
2700 1 1.2264583670357892e+01 3.9196302485833621e+00 5.5088186796278595e+00 1 0 1
3803 1 4.3573896321423460e+00 8.7450629318959354e+00 2.4601128351679424e+00 0 1 1
3056 1 7.5594087192077639e+00 1.0107925730163309e+01 3.5014274225932969e+00 2 0 1
2990 1 1.2185556409025301e+01 3.1080177962483441e-01 7.8637896550245463e+00 1 1 1
3871 1 2.1092662891322216e+00 7.5925054528569644e+00 7.9551263860642383e+00 -1 2 0
3753 1 8.9815880925307088e+00 7.8474179620294908e+00 2.1541572728833058e+00 1 0 1
1777 1 1.1224567016426006e+01 7.5188840215969126e+00 3.4945523868941892e+00 1 0 0
988 1 3.1594074824142671e+00 1.0103219871424555e+01 6.7305152839290194e+00 -1 0 0
4651 1 1.1500011003833722e+01 7.3043658397428093e+00 8.6834189572947285e+00 1 0 0
2203 1 5.8015965846378093e+00 9.8004356779410673e-01 9.6537703116873317e+00 1 1 0
4578 1 3.0003415540129941e-01 2.7794726742667759e+00 9.2752620413353952e+00 0 1 0
2091 1 1.1312265615022850e+01 2.6555055999514821e+00 9.9806699664607539e+00 1 0 1
3879 1 7.7645720601356940e+00 3.3930437747406357e+00 7.9940001682049218e+00 1 1 1
4702 1 2.9071044660757579e+00 3.3796839578289553e+00 8.6348805988502875e+00 -1 0 1
3431 1 1.0191112865788917e+01 2.0191989282908462e+00 6.8324913578591255e+00 0 0 1
3813 1 4.4909247876974865e+00 6.0082938004038251e+00 7.3847981807926981e+00 0 1 0
373 1 1.8176457778567396e+00 1.1739787484488222e+01 3.0300134220357808e+00 1 0 1
4241 1 6.5192266460453592e+00 7.5556315732523132e+00 6.4183302656896606e+00 -1 0 1
3002 1 7.1081552298830184e+00 7.6269153641395313e+00 1.0516870884363474e+01 1 1 0
2645 1 5.9373912100933808e+00 1.0380787926979986e+01 6.2279986914867500e+00 0 -1 1
3381 1 9.1933428302395424e+00 4.9443367762150364e-01 5.0431844657572125e+00 0 1 0
1812 1 9.0612698510539271e+00 1.1217771095561492e+01 8.1876724378856043e+00 1 -1 0
1734 1 2.3480984203563895e-01 4.6639627802576360e+00 4.3845424782407374e+00 0 1 1
152 1 1.0755897742488884e+01 1.1735111703276552e+01 5.5298593593596639e+00 1 0 1
920 1 8.4468965458193530e+00 1.1361462274003980e+01 1.0760565713271838e+01 0 1 0
1876 1 1.7712818307249776e-02 7.7197079979252834e+00 4.9041168432139797e+00 0 2 0
3802 1 5.6169026201589132e+00 2.9144418348742468e-01 2.1394694600180566e+00 0 0 1
389 1 1.9836528576737817e+00 2.3511190682111742e+00 1.4161098342429661e+01 0 1 1
1801 1 9.7961525901892195e+00 7.0347438105381777e-01 1.4292007735298139e+01 -1 1 1
925 1 4.5077499125196736e+00 7.3954939161503708e-01 1.4804629036956715e+01 1 0 0
4330 1 5.6271493182839976e+00 3.7181497010167184e+00 1.4377947926356734e+01 2 1 1
2723 1 3.3478023372346102e+00 4.8645764044507622e+00 1.1146153333103529e+01 1 0 0
262 2 8.6134999999999984e+00 9.2355835810918343e+00 1.7001591899252126e+01 0 0 0
285 2 9.8440000000000012e+00 8.5251540748539956e+00 1.7001591899252126e+01 0 0 0
2215 1 9.6573123057545480e+00 3.5046415798967150e+00 1.4100166682159681e+01 1 0 0
2044 1 4.5944634532343182e-01 6.4412356325166371e+00 1.3697353528983683e+01 0 1 0
307 2 1.1074500000000002e+01 1.0656442593567498e+01 1.7001591899252126e+01 0 0 0
1831 1 4.8662180792481822e+00 8.9174284966530273e+00 1.1574267135036857e+01 0 1 0
1836 1 1.6281106307114754e+00 9.3901130813219940e+00 1.4464124485074498e+01 0 -1 0
3385 1 3.1624638805975711e+00 4.8549381218510330e+00 1.4055308237831614e+01 2 1 0
3390 1 8.8094995718470468e+00 6.3586948085797390e+00 1.2313388115334654e+01 -1 1 0
2147 1 3.7486146939015783e+00 7.7049779801839131e+00 1.4038171100117578e+01 -1 0 1
2548 1 7.7397051159694286e+00 5.2544299472130058e+00 1.4816281947501414e+01 1 0 0
1887 1 1.0010457170435963e+01 7.7212510352698231e+00 1.4660702703618172e+01 0 2 1
286 2 1.1074500000000002e+01 9.2355835810918343e+00 1.7001591899252126e+01 0 0 0
86 1 5.3360677688822653e+00 1.2132758140442553e+01 1.4190825812059659e+01 0 1 1
4276 1 2.1266840691252971e+00 1.0419930059233016e+01 1.1750211882457027e+01 0 0 0
4599 1 6.3777543625964830e+00 3.3415626659710949e+00 1.1537175788573272e+01 0 1 1
284 2 9.8440000000000012e+00 1.1366872099805333e+01 1.7001591899252126e+01 0 0 0
308 2 1.2304999999999998e+01 1.1366872099805333e+01 1.7001591899252126e+01 0 0 0
1250 1 6.1243320804544332e+00 9.6404536449250600e+00 1.4306645663280829e+01 1 1 2
1763 1 5.8524388473054536e+00 1.1419614174512283e+01 1.1382906876523178e+01 2 0 0
12 1 8.7101187679297833e+00 1.0252290664063414e+01 1.4172117742467423e+01 1 1 1
4345 1 8.2117390063765274e+00 5.7131895698144231e-01 1.1582456498841793e+01 0 1 1
193 2 0.0000000000000000e+00 2.8417180249513345e+00 1.7001591899252126e+01 0 0 0
194 2 0.0000000000000000e+00 0.0000000000000000e+00 1.7001591899252126e+01 0 0 0
195 2 1.2305000000000001e+00 7.1042950623783474e-01 1.7001591899252126e+01 0 0 0
199 2 1.2305000000000001e+00 2.1312885187134998e+00 1.7001591899252126e+01 0 0 0
200 2 2.4610000000000003e+00 2.8417180249513345e+00 1.7001591899252126e+01 0 0 0
201 2 2.4610000000000003e+00 0.0000000000000000e+00 1.7001591899252126e+01 0 0 0
202 2 3.6915000000000004e+00 7.1042950623783474e-01 1.7001591899252126e+01 0 0 0
210 2 3.6914999999999996e+00 2.1312885187134998e+00 1.7001591899252126e+01 0 0 0
211 2 4.9220000000000006e+00 2.8417180249513332e+00 1.7001591899252126e+01 0 0 0
212 2 4.9220000000000006e+00 0.0000000000000000e+00 1.7001591899252126e+01 0 0 0
213 2 6.1524999999999999e+00 7.1042950623783407e-01 1.7001591899252126e+01 0 0 0
225 2 6.1524999999999999e+00 2.1312885187134989e+00 1.7001591899252126e+01 0 0 0
226 2 7.3829999999999991e+00 2.8417180249513345e+00 1.7001591899252126e+01 0 0 0
227 2 7.3829999999999991e+00 0.0000000000000000e+00 1.7001591899252126e+01 0 0 0
228 2 8.6134999999999984e+00 7.1042950623783407e-01 1.7001591899252126e+01 0 0 0
244 2 8.6134999999999984e+00 2.1312885187135002e+00 1.7001591899252126e+01 0 0 0
245 2 9.8440000000000012e+00 2.8417180249513332e+00 1.7001591899252126e+01 0 0 0
246 2 9.8440000000000012e+00 0.0000000000000000e+00 1.7001591899252126e+01 0 0 0
247 2 1.1074500000000002e+01 7.1042950623783330e-01 1.7001591899252126e+01 0 0 0
267 2 1.1074500000000002e+01 2.1312885187135002e+00 1.7001591899252126e+01 0 0 0
197 2 0.0000000000000000e+00 4.2625770374269996e+00 1.7001591899252126e+01 0 0 0
198 2 1.2305000000000001e+00 4.9730065436648339e+00 1.7001591899252126e+01 0 0 0
206 2 1.2305000000000001e+00 6.3938655561404980e+00 1.7001591899252126e+01 0 0 0
208 2 2.4610000000000003e+00 4.2625770374269996e+00 1.7001591899252126e+01 0 0 0
209 2 3.6914999999999996e+00 4.9730065436648339e+00 1.7001591899252126e+01 0 0 0
221 2 3.6914999999999996e+00 6.3938655561404980e+00 1.7001591899252126e+01 0 0 0
196 2 0.0000000000000000e+00 7.1042950623783341e+00 1.7001591899252126e+01 0 0 0
207 2 2.4610000000000003e+00 7.1042950623783341e+00 1.7001591899252126e+01 0 0 0
223 2 4.9220000000000006e+00 4.2625770374269978e+00 1.7001591899252126e+01 0 0 0
224 2 6.1524999999999999e+00 4.9730065436648339e+00 1.7001591899252126e+01 0 0 0
240 2 6.1524999999999999e+00 6.3938655561404980e+00 1.7001591899252126e+01 0 0 0
242 2 7.3829999999999991e+00 4.2625770374269996e+00 1.7001591899252126e+01 0 0 0
222 2 4.9220000000000006e+00 7.1042950623783341e+00 1.7001591899252126e+01 0 0 0
241 2 7.3830000000000009e+00 7.1042950623783341e+00 1.7001591899252126e+01 0 0 0
243 2 8.6135000000000002e+00 4.9730065436648339e+00 1.7001591899252126e+01 0 0 0
263 2 8.6135000000000002e+00 6.3938655561404980e+00 1.7001591899252126e+01 0 0 0
265 2 9.8440000000000012e+00 4.2625770374270004e+00 1.7001591899252126e+01 0 0 0
266 2 1.1074500000000002e+01 4.9730065436648339e+00 1.7001591899252126e+01 0 0 0
287 2 1.1074500000000002e+01 6.3938655561404980e+00 1.7001591899252126e+01 0 0 0
264 2 9.8440000000000012e+00 7.1042950623783341e+00 1.7001591899252126e+01 0 0 0
204 2 0.0000000000000000e+00 8.5251540748539991e+00 1.7001591899252126e+01 0 0 0
205 2 1.2305000000000001e+00 9.2355835810918343e+00 1.7001591899252126e+01 0 0 0
219 2 2.4610000000000003e+00 8.5251540748539991e+00 1.7001591899252126e+01 0 0 0
220 2 3.6915000000000004e+00 9.2355835810918343e+00 1.7001591899252126e+01 0 0 0
203 2 0.0000000000000000e+00 1.1366872099805333e+01 1.7001591899252126e+01 0 0 0
217 2 1.2305000000000001e+00 1.0656442593567498e+01 1.7001591899252126e+01 0 0 0
218 2 2.4610000000000003e+00 1.1366872099805333e+01 1.7001591899252126e+01 0 0 0
236 2 3.6914999999999996e+00 1.0656442593567499e+01 1.7001591899252126e+01 0 0 0
237 2 4.9220000000000006e+00 1.1366872099805333e+01 1.7001591899252126e+01 0 0 0
259 2 6.1524999999999999e+00 1.0656442593567499e+01 1.7001591899252126e+01 0 0 0
260 2 7.3829999999999991e+00 1.1366872099805333e+01 1.7001591899252126e+01 0 0 0
238 2 4.9220000000000006e+00 8.5251540748539991e+00 1.7001591899252126e+01 0 0 0
239 2 6.1524999999999999e+00 9.2355835810918343e+00 1.7001591899252126e+01 0 0 0
261 2 7.3830000000000009e+00 8.5251540748539991e+00 1.7001591899252126e+01 0 0 0
283 2 8.6134999999999984e+00 1.0656442593567498e+01 1.7001591899252126e+01 0 0 0
3414 1 9.1004096250236461e+00 3.6990391306709616e+00 1.1202950799896367e+01 -1 0 1
2167 1 1.2095545718821116e+01 6.9951252786155331e+00 1.1952492599467380e+01 0 1 1
135 1 9.9958728096411829e+00 9.1935794715474621e+00 1.1620451269899814e+01 1 0 0
4200 1 1.9813265145856209e+00 1.9161178067980531e+00 1.1400693669112581e+01 0 1 0
3497 1 1.7264403084341562e+00 7.3943630788080466e+00 1.1061361448611901e+01 1 1 0
549 2 0.0000000000000000e+00 1.4208590124756650e+00 2.0027971908252432e+01 0 0 0
550 2 0.0000000000000000e+00 0.0000000000000000e+00 2.0027971908252432e+01 0 0 0
554 2 1.2305000000000001e+00 2.1312885187134998e+00 2.0027971908252432e+01 0 0 0
555 2 2.4610000000000003e+00 1.4208590124756650e+00 2.0027971908252432e+01 0 0 0
556 2 2.4610000000000003e+00 0.0000000000000000e+00 2.0027971908252432e+01 0 0 0
564 2 3.6914999999999996e+00 2.1312885187134998e+00 2.0027971908252432e+01 0 0 0
710 2 0.0000000000000000e+00 2.8417180249513345e+00 2.3054351917254447e+01 0 0 0
711 2 0.0000000000000000e+00 0.0000000000000000e+00 2.3054351917254447e+01 0 0 0
712 2 1.2305000000000001e+00 7.1042950623783474e-01 2.3054351917254447e+01 0 0 0
716 2 1.2305000000000001e+00 2.1312885187134998e+00 2.3054351917254447e+01 0 0 0
717 2 2.4610000000000003e+00 2.8417180249513345e+00 2.3054351917254447e+01 0 0 0
718 2 2.4610000000000003e+00 0.0000000000000000e+00 2.3054351917254447e+01 0 0 0
719 2 3.6915000000000004e+00 7.1042950623783474e-01 2.3054351917254447e+01 0 0 0
727 2 3.6914999999999996e+00 2.1312885187134998e+00 2.3054351917254447e+01 0 0 0
553 2 1.2305000000000001e+00 3.5521475311891644e+00 2.0027971908252432e+01 0 0 0
563 2 3.6914999999999996e+00 3.5521475311891644e+00 2.0027971908252432e+01 0 0 0
565 2 4.9220000000000006e+00 1.4208590124756650e+00 2.0027971908252432e+01 0 0 0
566 2 4.9220000000000006e+00 0.0000000000000000e+00 2.0027971908252432e+01 0 0 0
578 2 6.1524999999999999e+00 2.1312885187134989e+00 2.0027971908252432e+01 0 0 0
579 2 7.3829999999999991e+00 1.4208590124756659e+00 2.0027971908252432e+01 0 0 0
580 2 7.3829999999999991e+00 0.0000000000000000e+00 2.0027971908252432e+01 0 0 0
728 2 4.9220000000000006e+00 2.8417180249513332e+00 2.3054351917254447e+01 0 0 0
729 2 4.9220000000000006e+00 0.0000000000000000e+00 2.3054351917254447e+01 0 0 0
730 2 6.1524999999999999e+00 7.1042950623783407e-01 2.3054351917254447e+01 0 0 0
742 2 6.1524999999999999e+00 2.1312885187134989e+00 2.3054351917254447e+01 0 0 0
743 2 7.3829999999999991e+00 2.8417180249513345e+00 2.3054351917254447e+01 0 0 0
744 2 7.3829999999999991e+00 0.0000000000000000e+00 2.3054351917254447e+01 0 0 0
577 2 6.1524999999999999e+00 3.5521475311891644e+00 2.0027971908252432e+01 0 0 0
596 2 8.6134999999999984e+00 2.1312885187135002e+00 2.0027971908252432e+01 0 0 0
597 2 9.8440000000000012e+00 1.4208590124756659e+00 2.0027971908252432e+01 0 0 0
598 2 9.8440000000000012e+00 0.0000000000000000e+00 2.0027971908252432e+01 0 0 0
618 2 1.1074500000000002e+01 2.1312885187135002e+00 2.0027971908252432e+01 0 0 0
745 2 8.6134999999999984e+00 7.1042950623783407e-01 2.3054351917254447e+01 0 0 0
761 2 8.6134999999999984e+00 2.1312885187135002e+00 2.3054351917254447e+01 0 0 0
762 2 9.8440000000000012e+00 2.8417180249513332e+00 2.3054351917254447e+01 0 0 0
763 2 9.8440000000000012e+00 0.0000000000000000e+00 2.3054351917254447e+01 0 0 0
764 2 1.1074500000000002e+01 7.1042950623783330e-01 2.3054351917254447e+01 0 0 0
784 2 1.1074500000000002e+01 2.1312885187135002e+00 2.3054351917254447e+01 0 0 0
595 2 8.6134999999999984e+00 3.5521475311891657e+00 2.0027971908252432e+01 0 0 0
617 2 1.1074500000000002e+01 3.5521475311891644e+00 2.0027971908252432e+01 0 0 0
551 2 0.0000000000000000e+00 5.6834360499026637e+00 2.0027971908252432e+01 0 0 0
552 2 0.0000000000000000e+00 4.2625770374269996e+00 2.0027971908252432e+01 0 0 0
560 2 1.2305000000000001e+00 6.3938655561404980e+00 2.0027971908252432e+01 0 0 0
561 2 2.4610000000000003e+00 5.6834360499026637e+00 2.0027971908252432e+01 0 0 0
562 2 2.4610000000000003e+00 4.2625770374269996e+00 2.0027971908252432e+01 0 0 0
574 2 3.6914999999999996e+00 6.3938655561404980e+00 2.0027971908252432e+01 0 0 0
714 2 0.0000000000000000e+00 4.2625770374269996e+00 2.3054351917254447e+01 0 0 0
715 2 1.2305000000000001e+00 4.9730065436648339e+00 2.3054351917254447e+01 0 0 0
723 2 1.2305000000000001e+00 6.3938655561404980e+00 2.3054351917254447e+01 0 0 0
725 2 2.4610000000000003e+00 4.2625770374269996e+00 2.3054351917254447e+01 0 0 0
726 2 3.6914999999999996e+00 4.9730065436648339e+00 2.3054351917254447e+01 0 0 0
738 2 3.6914999999999996e+00 6.3938655561404980e+00 2.3054351917254447e+01 0 0 0
559 2 1.2305000000000001e+00 7.8147245686161639e+00 2.0027971908252432e+01 0 0 0
573 2 3.6914999999999996e+00 7.8147245686161639e+00 2.0027971908252432e+01 0 0 0
713 2 0.0000000000000000e+00 7.1042950623783341e+00 2.3054351917254447e+01 0 0 0
724 2 2.4610000000000003e+00 7.1042950623783341e+00 2.3054351917254447e+01 0 0 0
575 2 4.9220000000000006e+00 5.6834360499026637e+00 2.0027971908252432e+01 0 0 0
576 2 4.9220000000000006e+00 4.2625770374269978e+00 2.0027971908252432e+01 0 0 0
592 2 6.1524999999999999e+00 6.3938655561404980e+00 2.0027971908252432e+01 0 0 0
593 2 7.3829999999999991e+00 5.6834360499026637e+00 2.0027971908252432e+01 0 0 0
594 2 7.3829999999999991e+00 4.2625770374269996e+00 2.0027971908252432e+01 0 0 0
740 2 4.9220000000000006e+00 4.2625770374269978e+00 2.3054351917254447e+01 0 0 0
741 2 6.1524999999999999e+00 4.9730065436648339e+00 2.3054351917254447e+01 0 0 0
757 2 6.1524999999999999e+00 6.3938655561404980e+00 2.3054351917254447e+01 0 0 0
759 2 7.3829999999999991e+00 4.2625770374269996e+00 2.3054351917254447e+01 0 0 0
591 2 6.1524999999999999e+00 7.8147245686161639e+00 2.0027971908252432e+01 0 0 0
739 2 4.9220000000000006e+00 7.1042950623783341e+00 2.3054351917254447e+01 0 0 0
758 2 7.3830000000000009e+00 7.1042950623783341e+00 2.3054351917254447e+01 0 0 0
614 2 8.6135000000000002e+00 6.3938655561404980e+00 2.0027971908252432e+01 0 0 0
615 2 9.8440000000000012e+00 5.6834360499026637e+00 2.0027971908252432e+01 0 0 0
616 2 9.8440000000000012e+00 4.2625770374270004e+00 2.0027971908252432e+01 0 0 0
637 2 1.1074500000000002e+01 6.3938655561404980e+00 2.0027971908252432e+01 0 0 0
760 2 8.6135000000000002e+00 4.9730065436648339e+00 2.3054351917254447e+01 0 0 0
780 2 8.6135000000000002e+00 6.3938655561404980e+00 2.3054351917254447e+01 0 0 0
782 2 9.8440000000000012e+00 4.2625770374270004e+00 2.3054351917254447e+01 0 0 0
783 2 1.1074500000000002e+01 4.9730065436648339e+00 2.3054351917254447e+01 0 0 0
804 2 1.1074500000000002e+01 6.3938655561404980e+00 2.3054351917254447e+01 0 0 0
613 2 8.6135000000000002e+00 7.8147245686161639e+00 2.0027971908252432e+01 0 0 0
636 2 1.1074500000000002e+01 7.8147245686161639e+00 2.0027971908252432e+01 0 0 0
781 2 9.8440000000000012e+00 7.1042950623783341e+00 2.3054351917254447e+01 0 0 0
557 2 0.0000000000000000e+00 9.9460130873296642e+00 2.0027971908252432e+01 0 0 0
558 2 0.0000000000000000e+00 8.5251540748539991e+00 2.0027971908252432e+01 0 0 0
571 2 2.4610000000000003e+00 9.9460130873296642e+00 2.0027971908252432e+01 0 0 0
572 2 2.4610000000000003e+00 8.5251540748539991e+00 2.0027971908252432e+01 0 0 0
721 2 0.0000000000000000e+00 8.5251540748539991e+00 2.3054351917254447e+01 0 0 0
722 2 1.2305000000000001e+00 9.2355835810918343e+00 2.3054351917254447e+01 0 0 0
736 2 2.4610000000000003e+00 8.5251540748539991e+00 2.3054351917254447e+01 0 0 0
737 2 3.6915000000000004e+00 9.2355835810918343e+00 2.3054351917254447e+01 0 0 0
569 2 1.2305000000000001e+00 1.2077301606043163e+01 2.0027971908252432e+01 0 0 0
570 2 1.2305000000000001e+00 1.0656442593567498e+01 2.0027971908252432e+01 0 0 0
587 2 3.6914999999999996e+00 1.2077301606043163e+01 2.0027971908252432e+01 0 0 0
588 2 3.6914999999999996e+00 1.0656442593567499e+01 2.0027971908252432e+01 0 0 0
720 2 0.0000000000000000e+00 1.1366872099805333e+01 2.3054351917254447e+01 0 0 0
734 2 1.2305000000000001e+00 1.0656442593567498e+01 2.3054351917254447e+01 0 0 0
735 2 2.4610000000000003e+00 1.1366872099805333e+01 2.3054351917254447e+01 0 0 0
753 2 3.6914999999999996e+00 1.0656442593567499e+01 2.3054351917254447e+01 0 0 0
589 2 4.9220000000000006e+00 9.9460130873296642e+00 2.0027971908252432e+01 0 0 0
590 2 4.9220000000000006e+00 8.5251540748539991e+00 2.0027971908252432e+01 0 0 0
611 2 7.3830000000000009e+00 9.9460130873296642e+00 2.0027971908252432e+01 0 0 0
612 2 7.3830000000000009e+00 8.5251540748539991e+00 2.0027971908252432e+01 0 0 0
755 2 4.9220000000000006e+00 8.5251540748539991e+00 2.3054351917254447e+01 0 0 0
756 2 6.1524999999999999e+00 9.2355835810918343e+00 2.3054351917254447e+01 0 0 0
778 2 7.3830000000000009e+00 8.5251540748539991e+00 2.3054351917254447e+01 0 0 0
609 2 6.1524999999999999e+00 1.2077301606043163e+01 2.0027971908252432e+01 0 0 0
610 2 6.1524999999999999e+00 1.0656442593567499e+01 2.0027971908252432e+01 0 0 0
754 2 4.9220000000000006e+00 1.1366872099805333e+01 2.3054351917254447e+01 0 0 0
776 2 6.1524999999999999e+00 1.0656442593567499e+01 2.3054351917254447e+01 0 0 0
777 2 7.3829999999999991e+00 1.1366872099805333e+01 2.3054351917254447e+01 0 0 0
634 2 9.8440000000000012e+00 9.9460130873296642e+00 2.0027971908252432e+01 0 0 0
635 2 9.8440000000000012e+00 8.5251540748539956e+00 2.0027971908252432e+01 0 0 0
779 2 8.6134999999999984e+00 9.2355835810918343e+00 2.3054351917254447e+01 0 0 0
802 2 9.8440000000000012e+00 8.5251540748539956e+00 2.3054351917254447e+01 0 0 0
803 2 1.1074500000000002e+01 9.2355835810918343e+00 2.3054351917254447e+01 0 0 0
632 2 8.6135000000000002e+00 1.2077301606043163e+01 2.0027971908252432e+01 0 0 0
633 2 8.6134999999999984e+00 1.0656442593567498e+01 2.0027971908252432e+01 0 0 0
655 2 1.1074500000000002e+01 1.2077301606043163e+01 2.0027971908252432e+01 0 0 0
656 2 1.1074500000000002e+01 1.0656442593567498e+01 2.0027971908252432e+01 0 0 0
800 2 8.6134999999999984e+00 1.0656442593567498e+01 2.3054351917254447e+01 0 0 0
801 2 9.8440000000000012e+00 1.1366872099805333e+01 2.3054351917254447e+01 0 0 0
824 2 1.1074500000000002e+01 1.0656442593567498e+01 2.3054351917254447e+01 0 0 0
825 2 1.2304999999999998e+01 1.1366872099805333e+01 2.3054351917254447e+01 0 0 0
1204 1 4.8080533877950895e+00 3.2520407956727366e+00 2.5545491118389446e+01 0 0 0
994 1 1.4114930879160630e+00 3.0575011947109489e+00 2.8123657267670485e+01 1 1 -1
485 1 4.0438863662444637e+00 5.9886934993710417e-01 2.5252560592759501e+01 1 0 0
2963 1 4.5249604473630685e+00 2.7767683450469498e+00 2.8408465638662364e+01 0 1 1
1754 1 9.5457931160000360e+00 1.1242745091511825e+00 2.5668884704007663e+01 0 1 0
1760 1 8.6097576633481658e+00 1.0600062690408304e+01 2.5402843988454720e+01 0 1 -1
104 1 1.2288032725982431e+01 2.1757619864167932e+00 2.6081740119960795e+01 0 0 -2
2097 1 1.1371487768332800e+01 5.9573351199659559e+00 2.7796605670975861e+01 1 0 0
1031 1 1.9552953717111985e+00 3.9013186112227922e+00 2.5443385731274539e+01 0 0 -1
3500 1 4.0206509549075200e+00 1.1912959048029986e+01 2.5818945709156608e+01 -1 0 -1
896 1 7.8496626676831411e+00 3.5409466952991879e+00 2.5810516614879411e+01 0 -1 -1
107 1 5.7467669806160151e+00 7.4913374086940063e+00 2.5116586077102816e+01 0 1 -1
4363 1 1.2487030347252424e+00 8.1059868232899017e+00 2.5910003296490991e+01 1 2 -1
492 1 1.5313703648947328e+00 1.0881648605407159e+01 2.5878581919851992e+01 0 0 -1
2562 1 9.8783824038577261e+00 5.6720829130354486e+00 2.5324596905792390e+01 0 1 0
153 1 8.3605851607369104e+00 1.0751273083517409e+01 2.8292794011091438e+01 0 0 -1
1239 1 3.3130617924643180e+00 6.3745393117110121e+00 2.5993129006259704e+01 -1 -2 -1
1862 1 7.3492640503399285e+00 6.2646058206446034e+00 2.6889748204905899e+01 0 1 -1
2683 1 9.1111284166823534e+00 8.0677304838953159e+00 2.8406997410553103e+01 0 1 -1
4682 1 1.0302948297516455e+01 8.4875993268639256e+00 2.5496450165994151e+01 0 0 0
3070 1 5.8500295838200973e+00 1.0041310272891467e+01 2.5825316112082326e+01 0 0 -2
1214 1 8.3863666213317178e-01 5.2688038869159382e-01 2.7750772894387040e+01 1 0 0
3395 1 8.4580369230294004e+00 1.9905709537580973e+00 2.8304496805916909e+01 0 0 1
1716 1 4.3542153675710500e+00 7.0420886922676118e-02 2.8103403237641469e+01 0 0 0
46 1 1.4283131925877999e+00 8.0646511538697521e+00 2.8521855732622921e+01 2 -1 -2
3399 1 3.2467225412841381e+00 5.6526900911015217e+00 2.8730240776939183e+01 0 0 0
1764 1 2.4152209773882619e-01 8.8734447011667346e+00 3.3279617950408031e+01 1 0 0
1361 1 2.7659394253264966e+00 7.1610158974408691e+00 3.6773216669033999e+01 -1 0 -1
150 1 9.5486368457652604e-01 2.3073592687586775e+00 3.6683336779699204e+01 0 0 -1
2225 1 1.2142787846698431e+01 1.0398981585490656e+01 3.5315276377992241e+01 0 1 -1
359 1 3.0373227643683300e+00 8.3770788710802577e+00 3.4314017332759853e+01 0 1 0
4225 1 4.2500524214214712e+00 6.3774938595046846e+00 3.2615576058036723e+01 -1 0 0
3000 1 6.4309484705285156e+00 7.7014097974092479e+00 3.1064279923675898e+01 0 0 0
364 1 1.4045078992507849e+00 1.0938875474564309e+01 2.9054013654865479e+01 0 2 -1
4530 1 6.8922592809922678e+00 3.2182499535277880e+00 3.0489714233874579e+01 1 0 -1
2183 1 5.9975953903651016e+00 5.7225827273022318e+00 2.9432041240950642e+01 0 -1 0
2227 1 1.1120368846771866e+01 4.2747704626785454e+00 3.2174606890944261e+01 0 0 0
3487 1 1.0235103917026918e+00 1.1700739560904452e+01 3.6334543574292930e+01 1 0 -2
3045 1 1.1737975156834555e+01 7.0010027159201105e+00 3.2398850593650238e+01 0 0 0
1362 1 5.3637735859393745e+00 1.0381932023981477e+01 3.1381066628007630e+01 1 1 0
2891 1 5.9176196860705490e+00 1.2200291290644785e+01 2.9277474502541164e+01 0 1 0
2106 1 7.9229933450795631e+00 1.0433706830105018e+01 3.5266611770157816e+01 0 0 0
3884 1 1.0307198799349944e+01 1.0775152052988199e+01 3.1305781338738925e+01 1 0 -1
3740 1 9.7118145417673496e+00 7.9490762832651889e+00 3.1026649866641403e+01 0 0 -1
4667 1 8.2089015242081924e+00 1.1845376585162915e+01 3.2848148436334441e+01 -1 1 -1
1021 1 1.9063367776191587e+00 1.0216192733239724e+00 3.1971621457603352e+01 0 1 -1
1289 1 1.2024708500555914e+01 4.1849953214808391e+00 2.9693437256033718e+01 1 0 0
4689 1 1.1286229713525056e+01 7.6778760272755600e+00 3.4975379494768276e+01 0 1 -1
4316 1 1.5813903558360745e+00 1.1288070412440844e+01 3.2204204348512832e+01 1 1 -1
4236 1 7.6452129034054188e+00 1.1653884432723909e+00 3.4117916514691217e+01 1 1 -1
140 1 1.1257607308884152e+01 3.7702655665087321e+00 3.6354849896786483e+01 1 0 0
2672 1 2.0000309696840728e+00 5.0574595571125345e+00 3.1402699178225369e+01 1 1 -1
3696 1 8.5091813944750303e+00 3.1795238418854948e+00 3.6403975529641862e+01 0 0 -1
1714 1 7.2223829253443341e+00 5.6120058087356837e+00 3.6894270008738616e+01 1 0 -1
3464 1 5.7335664787893101e+00 1.0990924425386400e+01 3.6945453359713703e+01 0 0 -1
2591 1 3.3254891636664987e+00 3.0756149394259995e+00 3.3234497844236891e+01 0 -1 -1
1036 1 4.8043263624962522e+00 5.4970570983821556e+00 3.5712753350180101e+01 1 0 -1
1730 1 8.6070421214244508e+00 7.8470076254231875e+00 3.5156435166039280e+01 -1 1 -1
3537 1 3.1276073183206234e+00 8.7175214563728645e+00 3.0886902855577297e+01 0 1 0
3493 1 8.5235432564509654e+00 3.8030621472229442e+00 3.3032279891909504e+01 1 2 0
1342 1 5.0066746648846312e+00 4.2074096531080529e-01 3.5356360795882779e+01 1 0 1
37 1 7.4195059785312818e+00 6.2470743764931136e+00 3.3297207345647777e+01 -1 0 0
3751 1 6.6883122929266647e-01 3.3406774381750426e-01 3.4581808404405891e+01 2 1 0
3475 1 1.1050282616930467e+01 5.2053150156138775e-02 3.1436163818175945e+01 1 0 -1
3439 1 4.9863413269077848e+00 1.0607741505308608e+01 3.4076022189194731e+01 0 0 -1
1232 1 9.7619180756563502e+00 1.2104407712888868e+01 3.6474653992435812e+01 0 0 -1
894 1 5.5557031437692865e+00 1.4899925782165788e+00 3.2089033103171587e+01 0 1 0
4242 1 3.6860300250016320e+00 2.6128852694372138e+00 3.6115650215124525e+01 2 1 -1
2879 1 5.9183982805254809e-01 7.9359680878644543e+00 3.7736058984587117e+01 1 0 0
2674 1 1.1319852890390804e+01 1.5570203150244013e+00 2.8993535323130747e+01 1 1 -1
2677 1 4.6076168246410498e+00 1.2502793536007331e+01 4.5014512029815279e+00 0 0 0
1751 1 1.0232027192883424e+00 1.7024040563747299e+01 7.5548456135617101e+00 0 0 1
3754 1 5.7989664803141663e+00 1.6213340538890346e+01 4.1658662636953805e+00 0 1 1
2601 1 9.0665658441893910e+00 1.7075533870935889e+01 1.0391566670248636e+01 1 0 0
4697 1 1.2074886300713500e+01 1.5936525459871950e+01 2.1669698446646191e+00 0 0 0
4704 1 6.8257690130258881e+00 1.2617605025675067e+01 7.4127332145589264e+00 0 0 2
2892 1 1.9249983241417095e+00 1.6349897037206194e+01 4.1062410683167885e+00 1 1 0
378 1 3.7426917137972189e+00 1.8105317856621447e+01 5.1632757345923483e+00 2 1 0
3820 1 5.4557934042510077e+00 2.0039371187374492e+01 3.6226890276866928e+00 0 1 1
958 1 8.7911147937842475e+00 1.7718848633351538e+01 3.2359713708774618e+00 0 -1 0
4632 1 2.8888951623452277e+00 1.4443822343890092e+01 2.2986104460506152e+00 0 1 0
936 1 1.1113296823529629e+01 1.8968956923268848e+01 4.2982080783529355e+00 2 0 0
2592 1 2.9883631008039249e+00 1.6625423364886476e+01 1.0004655968951546e+01 2 0 1
1333 1 9.3995311203378069e+00 1.5776904870125879e+01 7.2550257266652496e+00 1 0 0
3732 1 8.9198705563826213e+00 1.2516514482430319e+01 3.4981858762490314e+00 0 -1 1
2887 1 3.0759595638121535e+00 2.0977068219987622e+01 2.8652421870329401e+00 0 -1 0
4224 1 6.7012988463147396e+00 2.1950336280960041e+01 4.7511936310888458e+00 0 0 0
35 1 5.6694615034834355e+00 1.3674934883336926e+01 9.6260414285797005e+00 0 0 1
2228 1 9.6802425676677188e+00 2.1484011993664026e+01 4.1631582258773800e+00 0 0 0
987 1 2.8390791941582090e+00 1.2812423822837907e+01 1.0247918753475794e+01 0 0 1
1286 1 4.5586972142440958e+00 2.1227658620028897e+01 8.5728507808915690e+00 -1 1 1
545 1 3.7448761709968563e+00 1.4585129582547527e+01 5.8808646972170839e+00 1 0 1
4694 1 4.9884342928727072e+00 1.6125443322470161e+01 7.9823063410867263e+00 0 0 2
4310 1 7.6453078853195384e+00 1.4456188058524861e+01 5.7030429255388047e+00 -1 0 0
2915 1 1.0570650011712802e+01 1.3771481124870689e+01 8.9965607767559490e+00 0 1 0
3382 1 1.1088050162606590e+01 2.2914587426160843e+01 6.2169069952168847e+00 0 -1 0
923 1 3.4555142740754641e+00 2.3883473639906722e+01 8.4552595493233724e+00 0 -1 1
1 1 2.6022602840831053e+00 1.9742712390726627e+01 7.4754009434874842e+00 1 0 0
3796 1 2.1758468101728270e+00 1.2700727406163033e+01 7.4656633189791561e+00 1 0 1
2190 1 5.9918056236959965e+00 1.8767098465660862e+01 7.1575698113741728e+00 0 0 0
3527 1 8.6754240205532920e+00 1.8358302053187582e+01 7.9150287998133733e+00 1 0 1
2722 1 1.0342857138840108e+01 2.0531374615326207e+01 7.7775888843261134e+00 0 0 1
2146 1 1.4917472610517879e+00 2.0850594005693043e+01 5.1410944224479653e+00 1 0 1
417 1 5.4907779547255204e+00 2.4462725284261101e+01 4.1546060468488122e+00 1 -1 0
1209 1 9.0349720702583625e-01 2.1295025514994254e+01 9.5825591631927018e+00 0 0 1
2730 1 8.0354482761482089e+00 2.3937312237622514e+01 8.7968754420930644e+00 0 0 1
1742 1 7.2521319217112863e+00 2.1746555509650044e+01 7.4655205759038621e+00 0 1 1
3806 1 5.8925455577318542e-01 2.4172822528935892e+01 8.3933644949071073e+00 0 0 0
1033 1 5.4568298786674161e+00 1.8989650735154669e+01 1.0567781616444476e+01 0 1 0
2909 1 8.8823213948104289e+00 2.1213725988388294e+01 1.0086624080956540e+01 1 1 0
4230 1 1.1355221440471409e+01 1.6270117668440427e+01 5.4150576998451339e+00 1 1 1
881 1 9.3450717143721178e+00 1.5132167235836182e+01 2.2408285432276265e+00 0 0 1
1014 1 6.0323269349709916e+00 1.3748486327721961e+01 2.2619395814850471e+00 1 0 1
3741 1 3.4301037674051047e+00 2.3754587078763407e+01 2.2408290335314121e+00 0 0 0