LAMMPS data file via write_data, version 16 Mar 2018, timestep = 8000000

4990 atoms
2 atom types

0.0000000000000000e+00 4.9219999999999999e+01 xlo xhi
0.0000000000000000e+00 4.9019635930410494e+01 ylo yhi
1.1771507101119099e+00 3.8822849289905662e+01 zlo zhi

Masses

1 18.015
2 12.01

Atoms # atomic

2547 1 3.2909068860133397e+00 2.1055292624263862e+00 3.3119344043421144e+00 1 -3 0
4231 1 8.9656267522830180e-01 1.0223028493436284e+00 2.7037776807571032e+00 -1 1 0
141 1 7.5942018043464863e+00 1.5634680990222396e+00 3.4118088511769757e+00 -3 4 0
3775 1 5.1488122204050635e+00 5.3690167502988295e-01 2.3507002661166689e+00 2 -1 0
871 1 8.3098355979270124e+00 4.0586517250612646e+00 2.4920504821000553e+00 -1 -1 0
3749 1 1.1357003056151045e+01 1.0175081534435801e+01 1.0094136666995315e+01 -2 -2 0
3542 1 3.6233671828308975e+00 4.4590673712259123e+00 2.2407540380562998e+00 4 3 0
2663 1 1.5839802030916694e+00 5.8753562339737258e+00 3.6741825246986051e+00 1 0 0
3791 1 5.9424925809461948e+00 5.3465240258354108e+00 3.1664323164103321e+00 3 5 0
3753 1 6.5389398386296680e+00 7.8548271713585267e+00 2.2303285460505049e+00 1 1 1
1266 1 1.0534756935429300e+01 5.3083468032529062e+00 3.7260427450390732e+00 1 3 1
2074 1 1.1229341795346661e+01 7.6325091230531417e+00 2.4405721487148169e+00 3 2 0
3854 1 1.9954230996032571e+00 8.4442956778565499e+00 2.3180714736265235e+00 0 2 0
1819 1 1.1361038660867763e+01 1.0228095238335648e+01 7.1255286856284039e+00 1 1 0
1739 1 4.3448254449646120e+00 9.5762142789862708e+00 6.1466357359711283e+00 6 -2 0
2613 1 4.5625826495094630e+00 9.1991422949900237e+00 3.3140627290841502e+00 -2 -1 0
25 1 4.7117129241274416e+00 1.1687171338892014e+01 2.3799633438451107e+00 -3 -7 1
2145 1 9.1704571116152902e+00 1.1531555835041745e+01 2.3459969293068186e+00 -1 -1 1
1337 1 8.9034054486856942e+00 8.9898429458063021e+00 2.9474896050590171e+00 -2 0 0
45 1 9.1906598971155322e+00 8.9540183459651175e+00 5.8709962705912035e+00 -5 3 0
4280 1 2.8956080802391724e+00 2.3467772177180986e+00 6.0541227387745442e+00 2 -2 1
390 1 1.0158721549086558e+00 3.8028674440506482e+00 7.2970703980089802e+00 2 3 1
4190 1 1.1077500633672741e+00 3.7705222504990021e+00 1.0063750507478458e+01 4 -3 0
3857 1 5.4612773924726481e+00 2.7571498749078946e+00 7.0622692471097039e+00 0 1 1
1250 1 7.6963216351499240e+00 1.4301661693124150e+00 5.9265932324539881e+00 5 1 2
2911 1 5.5299477462472808e+00 3.0191737138579149e+00 9.7940405562823045e+00 0 -1 1
958 1 9.9935012932365073e+00 2.3413835885733443e+00 6.7234034976469079e+00 -3 2 0
521 1 9.8243171226463968e+00 2.5273497850597848e+00 9.5098292136008844e+00 4 4 0
545 1 1.4910381646653985e+00 6.2475759112376270e+00 6.3629092630264594e+00 6 -4 1
1816 1 3.7881258364867736e+00 7.1992529888880794e+00 9.8745869193209383e+00 5 2 0
4655 1 4.2746733347481110e+00 7.0059687674834485e+00 7.1125843240444935e+00 2 -1 1
4548 1 6.2345335144378229e+00 5.2230565209606992e+00 5.8646338396688424e+00 2 -1 1
1865 1 8.6021215502940684e+00 6.7860060697386322e+00 9.8053050246195106e+00 3 3 0
392 1 8.4752314650764564e+00 6.5322096776200160e+00 7.0706799117239898e+00 0 -3 0
1882 1 1.0461810684561238e+01 5.0421182896976546e+00 6.3955309396191744e+00 4 0 0
3051 1 2.6108404141338752e+00 1.1335361138397662e+01 1.0027923819804707e+01 2 0 1
2107 1 2.2666527012783657e+00 1.0753217106180200e+01 7.3615945800693385e+00 5 -2 0
2124 1 6.8012525236534165e+00 1.0170511659463473e+01 7.1619407638095067e+00 -3 0 1
1717 1 6.7656836630521129e+00 1.0217259049242031e+01 9.9675116366928638e+00 1 -2 0
3505 1 9.9040859273991764e+00 3.7354405316773434e-02 2.9600453098202388e+00 3 -2 0
892 1 1.2215352072607104e+01 1.0950243914148923e+00 6.2068127366573416e+00 -2 0 1
2678 1 5.4645257359481747e-01 1.0371191967813932e+01 3.5222656737923832e+00 4 -1 0
2542 1 1.0525486707953462e+01 5.1576209718365797e+00 1.0541403148009183e+01 1 1 0
2904 1 2.9545466819738762e+00 2.1127665106059266e+00 1.3459744002519821e+01 -1 1 0
872 1 9.0493090931765696e-01 3.6992722762754831e+00 1.4480753508908714e+01 2 0 1
308 2 1.2304999999999998e+01 1.1366872099805333e+01 1.6846038718686906e+01 0 0 0
3716 1 5.4835625975878290e+00 2.9418557269819021e+00 1.4571486225524946e+01 5 -2 0
356 1 7.7096658000833624e+00 1.9331121089271990e+00 1.3509932862292329e+01 7 -3 1
4585 1 1.5286154193605916e+00 6.1233653050248797e+00 1.0996223776921008e+01 -1 -4 0
2591 1 1.0108707020233448e+01 3.1270137411305776e+00 1.4202098569006123e+01 2 -3 0
284 2 9.8440000000000012e+00 1.1366872099805333e+01 1.6846038718686906e+01 0 0 0
286 2 1.1074500000000002e+01 9.2355835810918343e+00 1.6846038718686906e+01 0 0 0
2048 1 1.2783408816144828e+00 6.2195669129683573e+00 1.3657705224355450e+01 0 2 1
2934 1 3.9811575480054118e+00 7.0154025445974399e+00 1.4715795554926181e+01 -1 1 1
3706 1 1.2002471156482567e+01 1.0655392240969932e+00 1.3530964728950369e+01 -2 -1 0
147 1 5.7818607920460225e+00 5.3851826725946932e+00 1.3520278146406993e+01 1 -1 0
460 1 9.3048620176616123e-02 1.0435224072530353e+01 1.0898316418764288e+01 3 -4 1
118 1 8.4015443383011359e+00 6.8298922331537542e+00 1.4138688968512671e+01 2 0 0
4303 1 1.0602496249966997e+01 5.5705578470073842e+00 1.3209187550244712e+01 4 2 0
1832 1 7.6406961064901093e+00 1.6398363613659617e+00 1.0819098422783913e+01 1 2 0
2929 1 2.1540576741998851e+00 1.1319807670441929e+01 1.4416320417506901e+01 2 1 0
1817 1 4.4868001111530420e+00 9.5107447026765648e+00 1.1076952186946519e+01 -1 3 1
1230 1 6.6631806006257595e+00 1.0819208984270357e+01 1.4565931292456133e+01 1 -1 1
896 1 4.3420445706201454e+00 9.6362754002993061e+00 1.3904652243207382e+01 -1 -2 0
496 1 8.8891271725546925e+00 9.2127889049524345e+00 1.0847241074428139e+01 0 1 1
2549 1 8.9612130754406660e+00 9.6353017360879303e+00 1.3733080022352578e+01 0 -2 1
3381 1 1.0974432731056410e+01 1.0993515026079059e+01 1.4261213993359915e+01 -1 2 0
262 2 8.6134999999999984e+00 9.2355835810918343e+00 1.6846038718686906e+01 0 0 0
193 2 0.0000000000000000e+00 2.8417180249513345e+00 1.6846038718686906e+01 0 0 0
194 2 0.0000000000000000e+00 0.0000000000000000e+00 1.6846038718686906e+01 0 0 0
195 2 1.2305000000000001e+00 7.1042950623783474e-01 1.6846038718686906e+01 0 0 0
199 2 1.2305000000000001e+00 2.1312885187134998e+00 1.6846038718686906e+01 0 0 0
200 2 2.4610000000000003e+00 2.8417180249513345e+00 1.6846038718686906e+01 0 0 0
201 2 2.4610000000000003e+00 0.0000000000000000e+00 1.6846038718686906e+01 0 0 0
202 2 3.6915000000000004e+00 7.1042950623783474e-01 1.6846038718686906e+01 0 0 0
210 2 3.6914999999999996e+00 2.1312885187134998e+00 1.6846038718686906e+01 0 0 0
211 2 4.9220000000000006e+00 2.8417180249513332e+00 1.6846038718686906e+01 0 0 0
212 2 4.9220000000000006e+00 0.0000000000000000e+00 1.6846038718686906e+01 0 0 0
213 2 6.1524999999999999e+00 7.1042950623783407e-01 1.6846038718686906e+01 0 0 0
225 2 6.1524999999999999e+00 2.1312885187134989e+00 1.6846038718686906e+01 0 0 0
226 2 7.3829999999999991e+00 2.8417180249513345e+00 1.6846038718686906e+01 0 0 0
227 2 7.3829999999999991e+00 0.0000000000000000e+00 1.6846038718686906e+01 0 0 0
228 2 8.6134999999999984e+00 7.1042950623783407e-01 1.6846038718686906e+01 0 0 0
244 2 8.6134999999999984e+00 2.1312885187135002e+00 1.6846038718686906e+01 0 0 0
245 2 9.8440000000000012e+00 2.8417180249513332e+00 1.6846038718686906e+01 0 0 0
246 2 9.8440000000000012e+00 0.0000000000000000e+00 1.6846038718686906e+01 0 0 0
247 2 1.1074500000000002e+01 7.1042950623783330e-01 1.6846038718686906e+01 0 0 0
267 2 1.1074500000000002e+01 2.1312885187135002e+00 1.6846038718686906e+01 0 0 0
197 2 0.0000000000000000e+00 4.2625770374269996e+00 1.6846038718686906e+01 0 0 0
198 2 1.2305000000000001e+00 4.9730065436648339e+00 1.6846038718686906e+01 0 0 0
206 2 1.2305000000000001e+00 6.3938655561404980e+00 1.6846038718686906e+01 0 0 0
208 2 2.4610000000000003e+00 4.2625770374269996e+00 1.6846038718686906e+01 0 0 0
209 2 3.6914999999999996e+00 4.9730065436648339e+00 1.6846038718686906e+01 0 0 0
221 2 3.6914999999999996e+00 6.3938655561404980e+00 1.6846038718686906e+01 0 0 0
196 2 0.0000000000000000e+00 7.1042950623783341e+00 1.6846038718686906e+01 0 0 0
207 2 2.4610000000000003e+00 7.1042950623783341e+00 1.6846038718686906e+01 0 0 0
223 2 4.9220000000000006e+00 4.2625770374269978e+00 1.6846038718686906e+01 0 0 0
224 2 6.1524999999999999e+00 4.9730065436648339e+00 1.6846038718686906e+01 0 0 0
240 2 6.1524999999999999e+00 6.3938655561404980e+00 1.6846038718686906e+01 0 0 0
242 2 7.3829999999999991e+00 4.2625770374269996e+00 1.6846038718686906e+01 0 0 0
222 2 4.9220000000000006e+00 7.1042950623783341e+00 1.6846038718686906e+01 0 0 0
241 2 7.3830000000000009e+00 7.1042950623783341e+00 1.6846038718686906e+01 0 0 0
243 2 8.6135000000000002e+00 4.9730065436648339e+00 1.6846038718686906e+01 0 0 0
263 2 8.6135000000000002e+00 6.3938655561404980e+00 1.6846038718686906e+01 0 0 0
265 2 9.8440000000000012e+00 4.2625770374270004e+00 1.6846038718686906e+01 0 0 0
266 2 1.1074500000000002e+01 4.9730065436648339e+00 1.6846038718686906e+01 0 0 0
287 2 1.1074500000000002e+01 6.3938655561404980e+00 1.6846038718686906e+01 0 0 0
264 2 9.8440000000000012e+00 7.1042950623783341e+00 1.6846038718686906e+01 0 0 0
236 2 3.6914999999999996e+00 1.0656442593567499e+01 1.6846038718686906e+01 0 0 0
204 2 0.0000000000000000e+00 8.5251540748539991e+00 1.6846038718686906e+01 0 0 0
205 2 1.2305000000000001e+00 9.2355835810918343e+00 1.6846038718686906e+01 0 0 0
219 2 2.4610000000000003e+00 8.5251540748539991e+00 1.6846038718686906e+01 0 0 0
220 2 3.6915000000000004e+00 9.2355835810918343e+00 1.6846038718686906e+01 0 0 0
203 2 0.0000000000000000e+00 1.1366872099805333e+01 1.6846038718686906e+01 0 0 0
217 2 1.2305000000000001e+00 1.0656442593567498e+01 1.6846038718686906e+01 0 0 0
218 2 2.4610000000000003e+00 1.1366872099805333e+01 1.6846038718686906e+01 0 0 0
237 2 4.9220000000000006e+00 1.1366872099805333e+01 1.6846038718686906e+01 0 0 0
239 2 6.1524999999999999e+00 9.2355835810918343e+00 1.6846038718686906e+01 0 0 0
238 2 4.9220000000000006e+00 8.5251540748539991e+00 1.6846038718686906e+01 0 0 0
259 2 6.1524999999999999e+00 1.0656442593567499e+01 1.6846038718686906e+01 0 0 0
261 2 7.3830000000000009e+00 8.5251540748539991e+00 1.6846038718686906e+01 0 0 0
260 2 7.3829999999999991e+00 1.1366872099805333e+01 1.6846038718686906e+01 0 0 0
283 2 8.6134999999999984e+00 1.0656442593567498e+01 1.6846038718686906e+01 0 0 0
307 2 1.1074500000000002e+01 1.0656442593567498e+01 1.6846038718686906e+01 0 0 0
285 2 9.8440000000000012e+00 8.5251540748539956e+00 1.6846038718686906e+01 0 0 0
1781 1 3.3033952347670676e+00 2.0734620220182647e+00 1.0802729457531585e+01 0 2 1
1309 1 1.1956350476678448e+01 1.1286962374025351e+00 1.0717563251772628e+01 4 3 1
4581 1 6.1661077488760219e+00 5.6504440707898800e+00 1.0799933012553399e+01 -4 0 1
549 2 0.0000000000000000e+00 1.4208590124756650e+00 2.0029423051381468e+01 0 0 0
550 2 0.0000000000000000e+00 0.0000000000000000e+00 2.0029423051381468e+01 0 0 0
554 2 1.2305000000000001e+00 2.1312885187134998e+00 2.0029423051381468e+01 0 0 0
555 2 2.4610000000000003e+00 1.4208590124756650e+00 2.0029423051381468e+01 0 0 0
556 2 2.4610000000000003e+00 0.0000000000000000e+00 2.0029423051381468e+01 0 0 0
564 2 3.6914999999999996e+00 2.1312885187134998e+00 2.0029423051381468e+01 0 0 0
710 2 0.0000000000000000e+00 2.8417180249513345e+00 2.3212807384093292e+01 0 0 0
711 2 0.0000000000000000e+00 0.0000000000000000e+00 2.3212807384093292e+01 0 0 0
712 2 1.2305000000000001e+00 7.1042950623783474e-01 2.3212807384093292e+01 0 0 0
716 2 1.2305000000000001e+00 2.1312885187134998e+00 2.3212807384093292e+01 0 0 0
717 2 2.4610000000000003e+00 2.8417180249513345e+00 2.3212807384093292e+01 0 0 0
718 2 2.4610000000000003e+00 0.0000000000000000e+00 2.3212807384093292e+01 0 0 0
719 2 3.6915000000000004e+00 7.1042950623783474e-01 2.3212807384093292e+01 0 0 0
727 2 3.6914999999999996e+00 2.1312885187134998e+00 2.3212807384093292e+01 0 0 0
553 2 1.2305000000000001e+00 3.5521475311891644e+00 2.0029423051381468e+01 0 0 0
563 2 3.6914999999999996e+00 3.5521475311891644e+00 2.0029423051381468e+01 0 0 0
565 2 4.9220000000000006e+00 1.4208590124756650e+00 2.0029423051381468e+01 0 0 0
566 2 4.9220000000000006e+00 0.0000000000000000e+00 2.0029423051381468e+01 0 0 0
578 2 6.1524999999999999e+00 2.1312885187134989e+00 2.0029423051381468e+01 0 0 0
579 2 7.3829999999999991e+00 1.4208590124756659e+00 2.0029423051381468e+01 0 0 0
580 2 7.3829999999999991e+00 0.0000000000000000e+00 2.0029423051381468e+01 0 0 0
728 2 4.9220000000000006e+00 2.8417180249513332e+00 2.3212807384093292e+01 0 0 0
729 2 4.9220000000000006e+00 0.0000000000000000e+00 2.3212807384093292e+01 0 0 0
730 2 6.1524999999999999e+00 7.1042950623783407e-01 2.3212807384093292e+01 0 0 0
742 2 6.1524999999999999e+00 2.1312885187134989e+00 2.3212807384093292e+01 0 0 0
743 2 7.3829999999999991e+00 2.8417180249513345e+00 2.3212807384093292e+01 0 0 0
744 2 7.3829999999999991e+00 0.0000000000000000e+00 2.3212807384093292e+01 0 0 0
577 2 6.1524999999999999e+00 3.5521475311891644e+00 2.0029423051381468e+01 0 0 0
596 2 8.6134999999999984e+00 2.1312885187135002e+00 2.0029423051381468e+01 0 0 0
597 2 9.8440000000000012e+00 1.4208590124756659e+00 2.0029423051381468e+01 0 0 0
598 2 9.8440000000000012e+00 0.0000000000000000e+00 2.0029423051381468e+01 0 0 0
618 2 1.1074500000000002e+01 2.1312885187135002e+00 2.0029423051381468e+01 0 0 0
745 2 8.6134999999999984e+00 7.1042950623783407e-01 2.3212807384093292e+01 0 0 0
761 2 8.6134999999999984e+00 2.1312885187135002e+00 2.3212807384093292e+01 0 0 0
762 2 9.8440000000000012e+00 2.8417180249513332e+00 2.3212807384093292e+01 0 0 0
763 2 9.8440000000000012e+00 0.0000000000000000e+00 2.3212807384093292e+01 0 0 0
764 2 1.1074500000000002e+01 7.1042950623783330e-01 2.3212807384093292e+01 0 0 0
784 2 1.1074500000000002e+01 2.1312885187135002e+00 2.3212807384093292e+01 0 0 0
595 2 8.6134999999999984e+00 3.5521475311891657e+00 2.0029423051381468e+01 0 0 0
617 2 1.1074500000000002e+01 3.5521475311891644e+00 2.0029423051381468e+01 0 0 0
551 2 0.0000000000000000e+00 5.6834360499026637e+00 2.0029423051381468e+01 0 0 0
552 2 0.0000000000000000e+00 4.2625770374269996e+00 2.0029423051381468e+01 0 0 0
560 2 1.2305000000000001e+00 6.3938655561404980e+00 2.0029423051381468e+01 0 0 0
561 2 2.4610000000000003e+00 5.6834360499026637e+00 2.0029423051381468e+01 0 0 0
562 2 2.4610000000000003e+00 4.2625770374269996e+00 2.0029423051381468e+01 0 0 0
574 2 3.6914999999999996e+00 6.3938655561404980e+00 2.0029423051381468e+01 0 0 0
714 2 0.0000000000000000e+00 4.2625770374269996e+00 2.3212807384093292e+01 0 0 0
715 2 1.2305000000000001e+00 4.9730065436648339e+00 2.3212807384093292e+01 0 0 0
723 2 1.2305000000000001e+00 6.3938655561404980e+00 2.3212807384093292e+01 0 0 0
725 2 2.4610000000000003e+00 4.2625770374269996e+00 2.3212807384093292e+01 0 0 0
726 2 3.6914999999999996e+00 4.9730065436648339e+00 2.3212807384093292e+01 0 0 0
738 2 3.6914999999999996e+00 6.3938655561404980e+00 2.3212807384093292e+01 0 0 0
559 2 1.2305000000000001e+00 7.8147245686161639e+00 2.0029423051381468e+01 0 0 0
573 2 3.6914999999999996e+00 7.8147245686161639e+00 2.0029423051381468e+01 0 0 0
713 2 0.0000000000000000e+00 7.1042950623783341e+00 2.3212807384093292e+01 0 0 0
724 2 2.4610000000000003e+00 7.1042950623783341e+00 2.3212807384093292e+01 0 0 0
575 2 4.9220000000000006e+00 5.6834360499026637e+00 2.0029423051381468e+01 0 0 0
576 2 4.9220000000000006e+00 4.2625770374269978e+00 2.0029423051381468e+01 0 0 0
592 2 6.1524999999999999e+00 6.3938655561404980e+00 2.0029423051381468e+01 0 0 0
593 2 7.3829999999999991e+00 5.6834360499026637e+00 2.0029423051381468e+01 0 0 0
594 2 7.3829999999999991e+00 4.2625770374269996e+00 2.0029423051381468e+01 0 0 0
740 2 4.9220000000000006e+00 4.2625770374269978e+00 2.3212807384093292e+01 0 0 0
741 2 6.1524999999999999e+00 4.9730065436648339e+00 2.3212807384093292e+01 0 0 0
757 2 6.1524999999999999e+00 6.3938655561404980e+00 2.3212807384093292e+01 0 0 0
759 2 7.3829999999999991e+00 4.2625770374269996e+00 2.3212807384093292e+01 0 0 0
591 2 6.1524999999999999e+00 7.8147245686161639e+00 2.0029423051381468e+01 0 0 0
739 2 4.9220000000000006e+00 7.1042950623783341e+00 2.3212807384093292e+01 0 0 0
758 2 7.3830000000000009e+00 7.1042950623783341e+00 2.3212807384093292e+01 0 0 0
614 2 8.6135000000000002e+00 6.3938655561404980e+00 2.0029423051381468e+01 0 0 0
615 2 9.8440000000000012e+00 5.6834360499026637e+00 2.0029423051381468e+01 0 0 0
616 2 9.8440000000000012e+00 4.2625770374270004e+00 2.0029423051381468e+01 0 0 0
637 2 1.1074500000000002e+01 6.3938655561404980e+00 2.0029423051381468e+01 0 0 0
760 2 8.6135000000000002e+00 4.9730065436648339e+00 2.3212807384093292e+01 0 0 0
780 2 8.6135000000000002e+00 6.3938655561404980e+00 2.3212807384093292e+01 0 0 0
782 2 9.8440000000000012e+00 4.2625770374270004e+00 2.3212807384093292e+01 0 0 0
783 2 1.1074500000000002e+01 4.9730065436648339e+00 2.3212807384093292e+01 0 0 0
804 2 1.1074500000000002e+01 6.3938655561404980e+00 2.3212807384093292e+01 0 0 0
613 2 8.6135000000000002e+00 7.8147245686161639e+00 2.0029423051381468e+01 0 0 0
636 2 1.1074500000000002e+01 7.8147245686161639e+00 2.0029423051381468e+01 0 0 0
781 2 9.8440000000000012e+00 7.1042950623783341e+00 2.3212807384093292e+01 0 0 0
557 2 0.0000000000000000e+00 9.9460130873296642e+00 2.0029423051381468e+01 0 0 0
558 2 0.0000000000000000e+00 8.5251540748539991e+00 2.0029423051381468e+01 0 0 0
571 2 2.4610000000000003e+00 9.9460130873296642e+00 2.0029423051381468e+01 0 0 0
572 2 2.4610000000000003e+00 8.5251540748539991e+00 2.0029423051381468e+01 0 0 0
721 2 0.0000000000000000e+00 8.5251540748539991e+00 2.3212807384093292e+01 0 0 0
722 2 1.2305000000000001e+00 9.2355835810918343e+00 2.3212807384093292e+01 0 0 0
736 2 2.4610000000000003e+00 8.5251540748539991e+00 2.3212807384093292e+01 0 0 0
737 2 3.6915000000000004e+00 9.2355835810918343e+00 2.3212807384093292e+01 0 0 0
569 2 1.2305000000000001e+00 1.2077301606043163e+01 2.0029423051381468e+01 0 0 0
570 2 1.2305000000000001e+00 1.0656442593567498e+01 2.0029423051381468e+01 0 0 0
587 2 3.6914999999999996e+00 1.2077301606043163e+01 2.0029423051381468e+01 0 0 0
588 2 3.6914999999999996e+00 1.0656442593567499e+01 2.0029423051381468e+01 0 0 0
720 2 0.0000000000000000e+00 1.1366872099805333e+01 2.3212807384093292e+01 0 0 0
734 2 1.2305000000000001e+00 1.0656442593567498e+01 2.3212807384093292e+01 0 0 0
735 2 2.4610000000000003e+00 1.1366872099805333e+01 2.3212807384093292e+01 0 0 0
753 2 3.6914999999999996e+00 1.0656442593567499e+01 2.3212807384093292e+01 0 0 0
589 2 4.9220000000000006e+00 9.9460130873296642e+00 2.0029423051381468e+01 0 0 0
590 2 4.9220000000000006e+00 8.5251540748539991e+00 2.0029423051381468e+01 0 0 0
611 2 7.3830000000000009e+00 9.9460130873296642e+00 2.0029423051381468e+01 0 0 0
612 2 7.3830000000000009e+00 8.5251540748539991e+00 2.0029423051381468e+01 0 0 0
755 2 4.9220000000000006e+00 8.5251540748539991e+00 2.3212807384093292e+01 0 0 0
756 2 6.1524999999999999e+00 9.2355835810918343e+00 2.3212807384093292e+01 0 0 0
778 2 7.3830000000000009e+00 8.5251540748539991e+00 2.3212807384093292e+01 0 0 0
609 2 6.1524999999999999e+00 1.2077301606043163e+01 2.0029423051381468e+01 0 0 0
610 2 6.1524999999999999e+00 1.0656442593567499e+01 2.0029423051381468e+01 0 0 0
754 2 4.9220000000000006e+00 1.1366872099805333e+01 2.3212807384093292e+01 0 0 0
776 2 6.1524999999999999e+00 1.0656442593567499e+01 2.3212807384093292e+01 0 0 0
777 2 7.3829999999999991e+00 1.1366872099805333e+01 2.3212807384093292e+01 0 0 0
634 2 9.8440000000000012e+00 9.9460130873296642e+00 2.0029423051381468e+01 0 0 0
635 2 9.8440000000000012e+00 8.5251540748539956e+00 2.0029423051381468e+01 0 0 0
779 2 8.6134999999999984e+00 9.2355835810918343e+00 2.3212807384093292e+01 0 0 0
802 2 9.8440000000000012e+00 8.5251540748539956e+00 2.3212807384093292e+01 0 0 0
803 2 1.1074500000000002e+01 9.2355835810918343e+00 2.3212807384093292e+01 0 0 0
632 2 8.6135000000000002e+00 1.2077301606043163e+01 2.0029423051381468e+01 0 0 0
633 2 8.6134999999999984e+00 1.0656442593567498e+01 2.0029423051381468e+01 0 0 0
655 2 1.1074500000000002e+01 1.2077301606043163e+01 2.0029423051381468e+01 0 0 0
656 2 1.1074500000000002e+01 1.0656442593567498e+01 2.0029423051381468e+01 0 0 0
800 2 8.6134999999999984e+00 1.0656442593567498e+01 2.3212807384093292e+01 0 0 0
801 2 9.8440000000000012e+00 1.1366872099805333e+01 2.3212807384093292e+01 0 0 0
824 2 1.1074500000000002e+01 1.0656442593567498e+01 2.3212807384093292e+01 0 0 0
825 2 1.2304999999999998e+01 1.1366872099805333e+01 2.3212807384093292e+01 0 0 0
1394 1 1.1231938942534825e+00 1.3606259385396720e+00 2.5559021830646358e+01 1 3 -1
1276 1 3.6233393529473155e+00 2.2807995537524390e+00 2.6312369886924444e+01 -1 -1 0
921 1 3.6594449438930323e+00 2.4844562195775763e+00 2.9147378446764950e+01 -1 4 0
2218 1 5.5654216268393322e+00 6.9847780924676195e-01 2.5587595785016834e+01 0 -2 0
978 1 8.1881943398674846e+00 1.5264896543430650e+00 2.6314447866631895e+01 -3 -2 -2
3 1 8.0906735552664220e+00 1.5821518041477034e+00 2.8960369666230807e+01 1 -1 -1
2084 1 5.3869738036028005e+00 1.0497991604241633e+01 2.5598488951133305e+01 1 -1 0
2647 1 1.0022086781320549e+01 1.1438574648643973e+01 2.8612360669870089e+01 4 3 -1
1383 1 2.1787592355248511e+00 6.5256104830703903e+00 2.6556805297881240e+01 0 -1 0
2083 1 4.2218071308058525e+00 4.7773869230808845e+00 2.5591904251341209e+01 -1 2 0
4321 1 6.1755081121734969e+00 1.2242046897443263e+01 2.8459046388223896e+01 2 0 0
2710 1 6.5205302522313859e+00 6.2401265681439329e+00 2.6089607181410301e+01 0 2 0
1326 1 9.6560088157836681e+00 1.0014122607261630e+01 2.5453448998196400e+01 -1 -3 -1
1241 1 1.1273861480603022e+00 1.1019653472403963e+01 2.5839209465484057e+01 3 -1 0
433 1 1.1445446204804494e+01 8.1764593813712736e+00 2.6525805286983704e+01 0 3 -1
1878 1 8.4048506198887871e+00 4.2233189974801641e+00 2.5484114794434014e+01 4 -4 0
3512 1 1.0782991476030567e+01 5.4974978241571391e+00 2.6329931589812499e+01 1 -2 -1
893 1 1.0855315602317843e+01 5.1349558343815849e+00 2.9045253550924883e+01 -4 1 -1
2894 1 2.8545603028186624e+00 9.2903011278920822e+00 2.6570639767343707e+01 -5 3 0
3535 1 6.0370927452814396e+00 5.7923555050699020e+00 2.8713984856422968e+01 0 -1 -1
2671 1 7.2273853042674281e+00 8.9117624513830727e+00 2.6065207341156249e+01 -1 1 -1
57 1 8.1842975670410212e+00 9.2820575058364714e+00 2.8815374772410134e+01 4 2 -1
1826 1 1.8388296525816805e+00 6.1925269314741200e+00 2.9277601680427331e+01 1 4 -1
1750 1 1.5795816568372398e+00 4.0946521014507926e+00 3.2661193015027656e+01 -3 -1 -2
1330 1 3.3459031254411409e+00 2.1067470539500053e+00 3.3633196755379700e+01 2 -1 0
3444 1 5.8172006072495090e+00 2.9890836934835305e+00 3.2596340546254254e+01 -5 1 -1
3885 1 8.0113523091855559e+00 1.4774449082243437e+00 3.3521561202541093e+01 1 -1 -1
2 1 6.2496960898100014e+00 3.3848408808112107e+00 2.9902599357521709e+01 -2 4 -1
4275 1 1.0297954820328837e+01 2.6191829941767457e+00 3.2766008794516154e+01 2 0 -1
13 1 1.0224694967436145e+01 2.7677992009080135e+00 3.0050175299338463e+01 5 5 0
4520 1 1.1261478532472118e+00 3.7326917048282642e+00 2.9931014599792817e+01 2 1 0
4294 1 1.9096287952294884e+00 6.4721081404510716e+00 3.3811007706664512e+01 2 2 -1
1815 1 8.8872911906654863e+00 1.1516535880849656e+01 3.7131797918090392e+01 -1 -1 -1
3506 1 4.1900740220702986e+00 6.7655963679265465e+00 3.2677009468557785e+01 -3 0 -1
2704 1 4.2396542213930006e+00 7.2031716205276872e+00 3.0026378305539730e+01 0 1 -1
2924 1 6.3789421319642994e+00 5.4267908567212055e+00 3.3694080779466525e+01 2 2 0
4586 1 8.5719452495579365e+00 6.8701003009233945e+00 3.0162094290905742e+01 2 2 0
536 1 8.9018056443796034e+00 6.6349558333069689e+00 3.2855708486001724e+01 1 4 -1
4343 1 1.0943940509406634e+01 5.1915741600791314e+00 3.3809199989691287e+01 -1 1 -1
1349 1 2.2571624260573233e+00 1.0105470950184070e+01 3.2277264890465545e+01 2 3 0
490 1 1.2222148894509440e+01 8.4270348366979220e-01 3.6280854901471066e+01 -6 -2 0
1889 1 4.4692208252309360e+00 9.2729309873346555e+00 3.3668669257006414e+01 -2 5 0
137 1 1.2251586554781319e+01 1.1942655600542771e+01 3.0062855064709890e+01 1 0 -1
4550 1 6.6452601732935790e+00 1.0281690594815077e+01 3.2536016228701044e+01 -3 1 0
1220 1 5.8769434329420527e+00 9.9031078395629812e+00 3.0095844893656555e+01 0 -2 -1
3818 1 8.6854507989838563e+00 9.0778506669329300e+00 3.3790504457235663e+01 -3 2 0
1245 1 1.1093587794326883e+01 9.3190080351744200e+00 3.2576269334289847e+01 0 -3 0
3721 1 8.7312059438548779e+00 8.9081392874722649e+00 3.6319266837600118e+01 0 2 -1
4652 1 8.3270703545921820e-01 1.0794663198437364e+00 3.7707449400478396e+01 1 -1 0
87 1 3.0806313909071252e+00 1.8307207522042583e+00 3.6339655673181284e+01 3 1 -1
1799 1 5.2781225207091396e+00 4.5363110794823230e-01 3.7174215479503047e+01 1 2 -1
493 1 7.8150502270075135e+00 1.5143165983596534e+00 3.6246656792644700e+01 -2 0 0
4334 1 8.2469148092855971e+00 3.9664428601640229e+00 3.7374934536605409e+01 -2 4 -1
3507 1 1.1213951334107104e+01 8.7357346295154272e+00 2.9811326384971053e+01 -1 -3 0
3504 1 1.7688324259346053e+00 6.1848990302375606e+00 3.6471046898591894e+01 3 0 -1
2226 1 3.6039505343309406e+00 4.4785911436332624e+00 3.7226281756491666e+01 0 0 0
3858 1 6.5307567537780900e+00 7.8804524243518612e+00 3.7161062172886012e+01 2 -3 0
393 1 6.2433619610974160e+00 5.4042798150849070e+00 3.6399507893743547e+01 -1 4 0
4543 1 1.1032991016847188e+01 7.6909873083472977e+00 3.7155796297013786e+01 2 1 0
3720 1 1.0649772384984526e+01 5.0123675630589588e+00 3.6536009562968090e+01 -2 1 0
929 1 9.9414117493500935e+00 1.8593870997092740e-01 3.7633467060981900e+01 -1 -2 -1
4325 1 2.1704916220733157e+00 8.7435948702401429e+00 3.7338631275504888e+01 3 -3 0
1883 1 4.5913347245874627e+00 9.6923841336486536e+00 3.6418176802088318e+01 -2 2 0
1389 1 2.8423059584247046e-01 1.0466694246401108e+01 3.6634066978383842e+01 2 -2 -1
1031 1 1.4409345089141876e-01 8.1089371328735709e+00 3.0163396454055054e+01 -2 1 -1
1833 1 2.6412314720214831e+00 9.9417785712950000e+00 2.9429951056156426e+01 3 -2 0
3881 1 1.1475461907287148e+01 1.1979563001770583e+01 3.2531920955068699e+01 1 1 0
363 1 1.2010994413871030e+01 1.1778299087990106e+01 3.6655687650959436e+01 1 -2 -1
2956 1 1.8590335110910554e+00 1.5169047906937648e+01 2.3107972238882484e+00 1 -1 1
2732 1 2.3775736246824968e+00 1.2525714322695151e+01 3.2710296303774209e+00 0 -3 0
4356 1 4.2422214705160561e+00 1.6334280714537467e+01 3.4006308608136524e+00 1 0 0
3754 1 6.7790856094791074e+00 1.5021842368678445e+01 2.4928457635858088e+00 2 5 1
4568 1 8.9882202926996548e+00 1.3587063342302239e+01 1.0478263185206485e+01 4 1 1
4576 1 1.1025195044725583e+01 1.4611422251699244e+01 2.4752743916712743e+00 -1 5 1
1862 1 9.2363416376325436e+00 1.6165258688407139e+01 3.6210219572531401e+00 6 -3 0
2895 1 2.3344663849643590e+00 2.0183549235409750e+01 3.8099180275925675e+00 0 3 0
3709 1 4.5440290310553042e+00 1.8931099769136498e+01 2.5330242230389364e+00 1 -3 0
4263 1 6.8528966724218341e+00 1.9909650004076564e+01 3.6295075741691845e+00 1 -2 0
4633 1 7.0585883861723380e+00 2.0208270495312213e+01 6.2853743605033650e+00 0 -4 0
4617 1 1.1113441336029533e+01 1.9580227380808786e+01 3.4682100784133487e+00 -3 -2 1
2216 1 8.9238140144559459e+00 1.8667228771822543e+01 2.5340016007993453e+00 2 0 1
4363 1 2.9227622217803364e+00 2.2850171456337812e+01 2.7473586901850764e+00 -1 2 0
905 1 7.3053888569259238e+00 2.2453331527758607e+01 2.6587944749696080e+00 -4 -1 1
3449 1 5.2450123980012950e+00 2.3944401372380760e+01 3.5982377496304840e+00 -2 0 0
3040 1 1.2336270766432713e+00 2.4179906353547988e+01 6.4853098419449564e+00 -1 2 0
2556 1 9.8103051587566874e+00 2.3516311596169924e+01 3.7171684190627032e+00 1 -1 0
3471 1 2.2980263303428847e+00 1.3192141608641970e+01 6.0391751524920281e+00 -4 2 1
3503 1 3.3772619927658165e-01 2.1547136374082008e+01 1.0000998006245592e+01 1 2 1
2076 1 4.6938011354409195e+00 1.4011696723858789e+01 6.9764871966622097e+00 2 -1 0
452 1 9.1169389758958665e+00 1.6199561979057247e+01 6.1331999728228146e+00 0 0 1
499 1 4.6975651932676623e+00 1.4420859121254326e+01 9.6826462792110579e+00 0 -2 1
1336 1 9.2388851299008596e+00 1.3727219852134244e+01 7.6391455793313217e+00 3 2 0
4260 1 1.1050029541219278e+01 1.6660376044498655e+01 1.0344724041323486e+01 2 3 0
2548 1 4.6510062159925685e+00 1.6568622508659377e+01 6.0751513592865338e+00 1 -2 0
4223 1 2.3937352058183445e+00 1.7760212011001300e+01 7.1680784637964035e+00 0 0 0
3732 1 2.3287183770472901e+00 1.8071712921592038e+01 9.9358266327184701e+00 -3 -2 1
471 1 7.0896402366451472e+00 1.7628104408527733e+01 1.0044878886042856e+01 1 1 0
2582 1 6.8846338878717441e+00 1.7543849073541995e+01 7.1917238514462047e+00 -2 -3 0
927 1 1.1417452734105403e+01 1.2865785267753290e+01 6.7589610205666641e+00 -1 1 0
4337 1 1.1230010466041398e+01 1.9401109877685634e+01 6.3482728642759909e+00 1 -3 0
42 1 6.9632260148812630e-01 2.1545818692755589e+01 7.0194253643502860e+00 0 0 2
2890 1 3.0207832063901998e+00 2.0136688772783149e+01 6.4828790646571450e+00 -1 -5 1
934 1 7.0618539143116754e-01 2.4295905887173301e+01 3.8010722520329083e+00 1 3 0
2882 1 1.1711817534928478e+01 2.2038020866778570e+01 2.5160867189831522e+00 3 3 1
533 1 1.1512738844002326e+01 1.6772342453290936e+01 7.6430776952418862e+00 2 -3 1
64 1 5.1956426292762270e+00 2.1366449181126665e+01 1.0162147022768321e+01 -1 3 1
4203 1 5.0586111553301398e+00 2.1460887663854972e+01 7.5517116491215237e+00 -1 -1 0
3696 1 5.5322214778459138e+00 2.3869151929067993e+01 6.5208869068382640e+00 6 1 0
4675 1 9.2628540271912794e+00 2.0867827482363566e+01 7.5035006255506689e+00 1 -2 1
1331 1 9.3975898949105208e+00 2.0880119356135928e+01 1.0177115143271001e+01 3 2 1
3510 1 9.8917303619370429e+00 2.3298320485377619e+01 6.3416909752376300e+00 -3 -3 -1
33 1 7.0120661980385144e+00 1.2846804671190787e+01 6.3683796681733709e+00 -1 -2 1
1783 1 6.8623856301513246e+00 1.2444390308187350e+01 3.6960476395842363e+00 0 -1 0