LAMMPS data file via write_data, version 29 Sep 2021, timestep = 8000000

4065 atoms
2 atom types

0 49.22 xlo xhi
0 49.019635930410494 ylo yhi
1.1172125842662748 26.723619662014485 zlo zhi

Masses

1 18.015
2 12.01

Atoms # atomic

83 2 0 2.8417180249513345 2.6596213847470374 0 0 0
85 2 0 0 2.6596213847470374 0 0 0
87 2 1.2305000000000001 0.7104295062378347 2.6596213847470374 0 0 0
94 2 1.2305000000000001 2.1312885187135 2.6596213847470374 0 0 0
96 2 2.4610000000000003 2.8417180249513345 2.6596213847470374 0 0 0
98 2 2.4610000000000003 0 2.6596213847470374 0 0 0
100 2 3.6915000000000004 0.7104295062378347 2.6596213847470374 0 0 0
115 2 3.6914999999999996 2.1312885187135 2.6596213847470374 0 0 0
117 2 4.922000000000001 2.841718024951333 2.6596213847470374 0 0 0
119 2 4.922000000000001 0 2.6596213847470374 0 0 0
90 2 0 4.262577037427 2.6596213847470374 0 0 0
111 2 2.4610000000000003 4.262577037427 2.6596213847470374 0 0 0
140 2 4.922000000000001 4.262577037426998 2.6596213847470374 0 0 0
92 2 1.2305000000000001 4.973006543664834 2.6596213847470374 0 0 0
107 2 1.2305000000000001 6.393865556140498 2.6596213847470374 0 0 0
113 2 3.6914999999999996 4.973006543664834 2.6596213847470374 0 0 0
136 2 3.6914999999999996 6.393865556140498 2.6596213847470374 0 0 0
88 2 0 7.104295062378334 2.6596213847470374 0 0 0
103 2 0 8.525154074854 2.6596213847470374 0 0 0
105 2 1.2305000000000001 9.235583581091834 2.6596213847470374 0 0 0
109 2 2.4610000000000003 7.104295062378334 2.6596213847470374 0 0 0
132 2 2.4610000000000003 8.525154074854 2.6596213847470374 0 0 0
134 2 3.6915000000000004 9.235583581091834 2.6596213847470374 0 0 0
138 2 4.922000000000001 7.104295062378334 2.6596213847470374 0 0 0
169 2 4.922000000000001 8.525154074854 2.6596213847470374 0 0 0
84 2 0 1.420859012475665 5.744438985709305 0 0 0
86 2 0 0 5.744438985709305 0 0 0
95 2 1.2305000000000001 2.1312885187135 5.744438985709305 0 0 0
97 2 2.4610000000000003 1.420859012475665 5.744438985709305 0 0 0
99 2 2.4610000000000003 0 5.744438985709305 0 0 0
412 2 0 2.8417180249513345 8.82925658667039 0 0 0
413 2 0 0 8.82925658667039 0 0 0
414 2 1.2305000000000001 0.7104295062378347 8.82925658667039 0 0 0
418 2 1.2305000000000001 2.1312885187135 8.82925658667039 0 0 0
419 2 2.4610000000000003 2.8417180249513345 8.82925658667039 0 0 0
420 2 2.4610000000000003 0 8.82925658667039 0 0 0
116 2 3.6914999999999996 2.1312885187135 5.744438985709305 0 0 0
118 2 4.922000000000001 1.420859012475665 5.744438985709305 0 0 0
120 2 4.922000000000001 0 5.744438985709305 0 0 0
421 2 3.6915000000000004 0.7104295062378347 8.82925658667039 0 0 0
429 2 3.6914999999999996 2.1312885187135 8.82925658667039 0 0 0
430 2 4.922000000000001 2.841718024951333 8.82925658667039 0 0 0
431 2 4.922000000000001 0 8.82925658667039 0 0 0
91 2 0 4.262577037427 5.744438985709305 0 0 0
93 2 1.2305000000000001 3.5521475311891644 5.744438985709305 0 0 0
112 2 2.4610000000000003 4.262577037427 5.744438985709305 0 0 0
416 2 0 4.262577037427 8.82925658667039 0 0 0
427 2 2.4610000000000003 4.262577037427 8.82925658667039 0 0 0
114 2 3.6914999999999996 3.5521475311891644 5.744438985709305 0 0 0
141 2 4.922000000000001 4.262577037426998 5.744438985709305 0 0 0
442 2 4.922000000000001 4.262577037426998 8.82925658667039 0 0 0
89 2 0 5.683436049902664 5.744438985709305 0 0 0
108 2 1.2305000000000001 6.393865556140498 5.744438985709305 0 0 0
110 2 2.4610000000000003 5.683436049902664 5.744438985709305 0 0 0
417 2 1.2305000000000001 4.973006543664834 8.82925658667039 0 0 0
425 2 1.2305000000000001 6.393865556140498 8.82925658667039 0 0 0
137 2 3.6914999999999996 6.393865556140498 5.744438985709305 0 0 0
139 2 4.922000000000001 5.683436049902664 5.744438985709305 0 0 0
428 2 3.6914999999999996 4.973006543664834 8.82925658667039 0 0 0
440 2 3.6914999999999996 6.393865556140498 8.82925658667039 0 0 0
104 2 0 8.525154074854 5.744438985709305 0 0 0
106 2 1.2305000000000001 7.814724568616164 5.744438985709305 0 0 0
133 2 2.4610000000000003 8.525154074854 5.744438985709305 0 0 0
415 2 0 7.104295062378334 8.82925658667039 0 0 0
423 2 0 8.525154074854 8.82925658667039 0 0 0
424 2 1.2305000000000001 9.235583581091834 8.82925658667039 0 0 0
426 2 2.4610000000000003 7.104295062378334 8.82925658667039 0 0 0
438 2 2.4610000000000003 8.525154074854 8.82925658667039 0 0 0
135 2 3.6914999999999996 7.814724568616164 5.744438985709305 0 0 0
170 2 4.922000000000001 8.525154074854 5.744438985709305 0 0 0
439 2 3.6915000000000004 9.235583581091834 8.82925658667039 0 0 0
441 2 4.922000000000001 7.104295062378334 8.82925658667039 0 0 0
457 2 4.922000000000001 8.525154074854 8.82925658667039 0 0 0
3990 1 1.5675070230533321 3.1316812466191704 11.200964100074122 -2 -1 -1
2974 1 2.7783682902244413 0.7999734465248747 11.67348470545264 2 2 -1
2943 1 5.492545640782048 0.8176033122306436 11.211581470468769 0 0 1
2989 1 5.564887404262397 5.5146484959472515 11.475266466940285 1 0 0
1081 1 1.9124753732190516 8.096954362433467 11.649101911155908 6 0 0
68 1 2.8138471760995833 5.639094264664011 12.051216225686122 1 0 0
3973 1 1.62413682617912 3.2398705670914065 15.596074455467003 -4 0 0
3810 1 2.905081446199886 0.7919785576187617 14.491264515526984 2 0 0
846 1 5.565131657640408 0.832742280470478 15.434713106446774 -3 -1 0
1984 1 1.7900205404543341 8.138890094651595 15.060519656810769 2 0 0
78 1 2.6744493756808465 5.527563629614763 14.640117616668013 0 -1 1
3870 1 5.410316629032081 5.183179445723975 15.393579281535743 -2 2 1
2884 1 1.8135485391164543 7.872489151436508 18.024242916705802 2 -2 0
80 1 5.56042824709519 5.33681685096388 17.98267304353348 -3 1 0
3890 1 5.304985590061563 0.9075492816369707 18.23895230379369 -1 1 0
4027 1 1.5800066602266254 3.265215719282589 18.189089284057538 -2 0 1
3937 1 2.734076872495504 0.742833840463844 18.90675275103458 -2 0 -1
789 1 2.619240620147076 0.874527871458741 21.613437444841345 2 4 0
1004 1 5.331288096424004 0.756024120036199 22.409394133552283 2 0 0
1868 1 2.9933648301672893 5.39356502074002 18.990811930251787 2 -1 0
969 1 3.054901399878051 5.235765938451677 21.691214991912958 -1 0 -1
2117 1 5.414419908690115 0.76694372863229 25.384953681402465 -1 2 0
2939 1 1.5371651624786662 3.1693821406800375 22.55689493158267 2 -2 -1
806 1 1.6670844371255007 2.963771512982995 25.321592656483375 0 -1 0
2932 1 2.534910366092621 0.6679820646283231 25.883178886615852 2 1 0
1906 1 2.0548941096031843 7.590806251481017 25.229163759700093 -1 -4 0
3866 1 1.912779719225749 7.631666021785107 22.495353744586247 1 -1 0
2080 1 2.998047775221482 5.153127800955536 25.89823546168512 1 1 0
2947 1 5.648022746753874 5.056185681195884 22.67936293627062 1 1 0
1051 1 5.623198723064109 5.2690155893880455 25.45033782422631 4 -3 0
1871 1 5.90119944730144 9.707365918124996 24.949508321253084 2 1 0
101 2 0 11.366872099805333 2.6596213847470374 0 0 0
124 2 0 12.787731112280996 2.6596213847470374 0 0 0
126 2 1.2305000000000001 13.49816061851883 2.6596213847470374 0 0 0
128 2 1.2305000000000001 10.656442593567498 2.6596213847470374 0 0 0
130 2 2.4610000000000003 11.366872099805333 2.6596213847470374 0 0 0
161 2 2.4610000000000003 12.787731112280996 2.6596213847470374 0 0 0
163 2 3.6915000000000004 13.49816061851883 2.6596213847470374 0 0 0
165 2 3.6914999999999996 10.6564425935675 2.6596213847470374 0 0 0
167 2 4.922000000000001 11.366872099805333 2.6596213847470374 0 0 0
206 2 4.922000000000001 12.787731112280996 2.6596213847470374 0 0 0
208 2 6.152499999999999 13.49816061851883 2.6596213847470374 0 0 0
122 2 0 15.629449137232333 2.6596213847470374 0 0 0
153 2 0 17.050308149708 2.6596213847470374 0 0 0
157 2 1.2305000000000001 14.919019630994494 2.6596213847470374 0 0 0
159 2 2.4610000000000003 15.629449137232328 2.6596213847470374 0 0 0
198 2 2.4610000000000003 17.050308149708 2.6596213847470374 0 0 0
202 2 3.6915000000000004 14.919019630994494 2.6596213847470374 0 0 0
204 2 4.922000000000001 15.629449137232333 2.6596213847470374 0 0 0
245 2 4.922000000000001 17.050308149708 2.6596213847470374 0 0 0
249 2 6.152499999999999 14.919019630994494 2.6596213847470374 0 0 0
155 2 1.2305000000000001 17.76073765594583 2.6596213847470374 0 0 0
194 2 1.2305000000000001 19.181596668421495 2.6596213847470374 0 0 0
200 2 3.6914999999999996 17.76073765594583 2.6596213847470374 0 0 0
241 2 3.6914999999999996 19.181596668421495 2.6596213847470374 0 0 0
102 2 0 9.946013087329664 5.744438985709305 0 0 0
131 2 2.4610000000000003 9.946013087329664 5.744438985709305 0 0 0
168 2 4.922000000000001 9.946013087329664 5.744438985709305 0 0 0
125 2 0 12.787731112280996 5.744438985709305 0 0 0
127 2 1.2305000000000001 12.077301606043163 5.744438985709305 0 0 0
129 2 1.2305000000000001 10.656442593567498 5.744438985709305 0 0 0
162 2 2.4610000000000003 12.787731112280996 5.744438985709305 0 0 0
422 2 0 11.366872099805333 8.82925658667039 0 0 0
434 2 0 12.787731112280996 8.82925658667039 0 0 0
435 2 1.2305000000000001 13.49816061851883 8.82925658667039 0 0 0
436 2 1.2305000000000001 10.656442593567498 8.82925658667039 0 0 0
437 2 2.4610000000000003 11.366872099805333 8.82925658667039 0 0 0
453 2 2.4610000000000003 12.787731112280996 8.82925658667039 0 0 0
164 2 3.6914999999999996 12.077301606043163 5.744438985709305 0 0 0
166 2 3.6914999999999996 10.6564425935675 5.744438985709305 0 0 0
207 2 4.922000000000001 12.787731112280996 5.744438985709305 0 0 0
454 2 3.6915000000000004 13.49816061851883 8.82925658667039 0 0 0
455 2 3.6914999999999996 10.6564425935675 8.82925658667039 0 0 0
456 2 4.922000000000001 11.366872099805333 8.82925658667039 0 0 0
476 2 4.922000000000001 12.787731112280996 8.82925658667039 0 0 0
477 2 6.152499999999999 13.49816061851883 8.82925658667039 0 0 0
123 2 0 14.208590124756663 5.744438985709305 0 0 0
160 2 2.4610000000000003 14.208590124756663 5.744438985709305 0 0 0
205 2 4.922000000000001 14.208590124756663 5.744438985709305 0 0 0
154 2 0 17.050308149708 5.744438985709305 0 0 0
156 2 1.2305000000000001 16.339878643470165 5.744438985709305 0 0 0
158 2 1.2305000000000001 14.919019630994494 5.744438985709305 0 0 0
199 2 2.4610000000000003 17.050308149708 5.744438985709305 0 0 0
433 2 0 15.629449137232333 8.82925658667039 0 0 0
449 2 0 17.050308149708 8.82925658667039 0 0 0
451 2 1.2305000000000001 14.919019630994494 8.82925658667039 0 0 0
452 2 2.4610000000000003 15.629449137232328 8.82925658667039 0 0 0
472 2 2.4610000000000003 17.050308149708 8.82925658667039 0 0 0
201 2 3.6915000000000004 16.339878643470165 5.744438985709305 0 0 0
203 2 3.6915000000000004 14.919019630994494 5.744438985709305 0 0 0
246 2 4.922000000000001 17.050308149708 5.744438985709305 0 0 0
250 2 6.152499999999999 14.919019630994494 5.744438985709305 0 0 0
474 2 3.6915000000000004 14.919019630994494 8.82925658667039 0 0 0
475 2 4.922000000000001 15.629449137232333 8.82925658667039 0 0 0
496 2 4.922000000000001 17.050308149708 8.82925658667039 0 0 0
498 2 6.152499999999999 14.919019630994494 8.82925658667039 0 0 0
152 2 0 18.471167162183658 5.744438985709305 0 0 0
195 2 1.2305000000000001 19.181596668421495 5.744438985709305 0 0 0
197 2 2.4610000000000003 18.471167162183658 5.744438985709305 0 0 0
450 2 1.2305000000000001 17.76073765594583 8.82925658667039 0 0 0
470 2 1.2305000000000001 19.181596668421495 8.82925658667039 0 0 0
242 2 3.6914999999999996 19.181596668421495 5.744438985709305 0 0 0
244 2 4.922000000000001 18.471167162183658 5.744438985709305 0 0 0
473 2 3.6914999999999996 17.76073765594583 8.82925658667039 0 0 0
494 2 3.6914999999999996 19.181596668421495 8.82925658667039 0 0 0
968 1 2.019772406111137 12.545512555290374 11.519481357234557 -3 0 -1
2055 1 3.3017659459567765 10.212456412876602 11.295596237881908 -1 1 1
3991 1 3.3211968606051046 15.064584120297157 11.791394724124219 3 1 -1
71 1 1.9990914100977797 17.297108109884007 11.170320696570734 -1 4 0
1872 1 5.939067787414763 15.0165775612165 11.07094918790945 0 2 -1
923 1 3.57542626030479 19.604317987653125 11.633088725512494 1 -1 0
1907 1 2.1820763563641052 12.775094049863025 14.931926180487773 -2 1 0
2063 1 5.608866180894954 10.050603210553385 18.11568419368053 0 0 1
2115 1 2.1513433695827318 12.71353779526388 17.603303219840434 3 -1 1
3839 1 5.8833731864207035 10.40849649699581 15.27040242214629 -2 3 0
782 1 3.2374552459071353 10.24055688531972 14.240462822369414 1 -3 1
3899 1 2.1957857346572474 17.708058195989917 15.426276508991462 3 0 0
802 1 3.318641256360665 15.2531384524048 14.491529912315887 1 -2 1
1936 1 2.396237599418743 17.664912657887164 18.144190115808875 2 1 0
2059 1 6.06935342524512 14.998943431649089 15.423453240121384 0 1 0
1103 1 3.9116265338227323 19.51680820794688 14.32875618639956 0 -3 1
4058 1 3.0162814236611792 10.219813671496592 18.79701677997589 3 2 0
2970 1 3.0331433364524427 10.000387687504194 21.582647079913208 2 2 -1
2873 1 2.3592484026050338 12.484181580556083 22.42817673386071 -4 0 0
781 1 5.886024962023877 9.934150868866427 22.39590470048509 -1 -1 0
1041 1 3.3868839535042805 14.932809697912905 21.174306112741228 2 -2 0
4025 1 3.482992145999675 15.141951968027225 18.41790954128593 0 1 1
1810 1 2.238585308224688 17.122012975328445 22.437985918447332 -2 2 0
3124 1 6.0818601454197045 15.070243214430498 18.299981754586028 0 -3 0
855 1 4.144333959790381 19.37641918777921 21.704403687246568 0 1 0
2957 1 2.376777141010587 12.650903667214727 25.173688600296757 -1 0 -1
823 1 3.343410463730858 9.92613889066372 25.79591323281835 2 -4 -1
1944 1 2.2549232318885046 17.37177262341659 25.25030201411704 0 0 0
3128 1 3.5557477580113006 15.031516131720188 25.89671035298361 -2 1 -1
2003 1 3.880888519625252 19.587342498674534 25.666654008481494 -2 3 0
151 2 0 19.89202617465933 2.6596213847470374 0 0 0
196 2 2.4610000000000003 19.89202617465933 2.6596213847470374 0 0 0
243 2 4.922000000000001 19.89202617465933 2.6596213847470374 0 0 0
188 2 0 24.154603212086325 2.6596213847470374 0 0 0
190 2 0 21.312885187135 2.6596213847470374 0 0 0
192 2 1.2304999999999993 22.023314693372832 2.6596213847470374 0 0 0
233 2 1.2304999999999993 23.4441737058485 2.6596213847470374 0 0 0
235 2 2.4610000000000003 24.154603212086325 2.6596213847470374 0 0 0
237 2 2.4610000000000003 21.312885187134995 2.6596213847470374 0 0 0
239 2 3.6914999999999996 22.023314693372832 2.6596213847470374 0 0 0
280 2 3.6915000000000004 23.4441737058485 2.6596213847470374 0 0 0
282 2 4.922000000000001 24.154603212086325 2.6596213847470374 0 0 0
284 2 4.922000000000001 21.312885187134995 2.6596213847470374 0 0 0
286 2 6.152499999999999 22.023314693372832 2.6596213847470374 0 0 0
1130 2 0 25.575462224561992 2.6596213847470374 0 0 0
1132 2 1.2305000000000001 26.285891730799833 2.6596213847470374 0 0 0
1140 2 1.230500000000001 27.706750743275496 2.6596213847470374 0 0 0
1144 2 2.4610000000000003 25.575462224561992 2.6596213847470374 0 0 0
1146 2 3.691499999999999 26.285891730799833 2.6596213847470374 0 0 0
1162 2 3.6914999999999996 27.706750743275496 2.6596213847470374 0 0 0
1166 2 4.922000000000001 25.575462224561992 2.6596213847470374 0 0 0
1192 2 6.152499999999999 27.706750743275496 2.6596213847470374 0 0 0
1128 2 0 28.417180249513333 2.6596213847470374 0 0 0
1142 2 2.4610000000000003 28.417180249513326 2.6596213847470374 0 0 0
1164 2 4.922000000000001 28.417180249513336 2.6596213847470374 0 0 0
193 2 1.2305000000000001 20.60245568089716 5.744438985709305 0 0 0
448 2 0 19.89202617465933 8.82925658667039 0 0 0
471 2 2.4610000000000003 19.89202617465933 8.82925658667039 0 0 0
240 2 3.6915000000000004 20.60245568089716 5.744438985709305 0 0 0
495 2 4.922000000000001 19.89202617465933 8.82925658667039 0 0 0
189 2 0 22.733744199610655 5.744438985709305 0 0 0
191 2 0 21.312885187135 5.744438985709305 0 0 0
234 2 1.2304999999999993 23.4441737058485 5.744438985709305 0 0 0
236 2 2.4610000000000003 22.733744199610655 5.744438985709305 0 0 0
238 2 2.4610000000000003 21.312885187134995 5.744438985709305 0 0 0
467 2 0 24.154603212086325 8.82925658667039 0 0 0
468 2 0 21.312885187135 8.82925658667039 0 0 0
469 2 1.2304999999999993 22.023314693372832 8.82925658667039 0 0 0
490 2 1.2304999999999993 23.4441737058485 8.82925658667039 0 0 0
491 2 2.4610000000000003 24.154603212086325 8.82925658667039 0 0 0
492 2 2.4610000000000003 21.312885187134995 8.82925658667039 0 0 0
281 2 3.6915000000000004 23.4441737058485 5.744438985709305 0 0 0
283 2 4.922000000000001 22.733744199610655 5.744438985709305 0 0 0
285 2 4.922000000000001 21.312885187134995 5.744438985709305 0 0 0
493 2 3.6914999999999996 22.023314693372832 8.82925658667039 0 0 0
514 2 3.6915000000000004 23.4441737058485 8.82925658667039 0 0 0
515 2 4.922000000000001 24.154603212086325 8.82925658667039 0 0 0
516 2 4.922000000000001 21.312885187134995 8.82925658667039 0 0 0
517 2 6.152499999999999 22.023314693372832 8.82925658667039 0 0 0
1129 2 0 26.99632123703766 5.744438985709305 0 0 0
1131 2 0 25.575462224561992 5.744438985709305 0 0 0
1133 2 1.2305000000000001 24.865032718324155 5.744438985709305 0 0 0
1141 2 1.230500000000001 27.706750743275496 5.744438985709305 0 0 0
1143 2 2.4610000000000003 26.99632123703766 5.744438985709305 0 0 0
1145 2 2.4610000000000003 25.575462224561992 5.744438985709305 0 0 0
1444 2 0 25.575462224561992 8.82925658667039 0 0 0
1445 2 1.2305000000000001 26.285891730799833 8.82925658667039 0 0 0
1449 2 1.230500000000001 27.706750743275496 8.82925658667039 0 0 0
1451 2 2.4610000000000003 25.575462224561992 8.82925658667039 0 0 0
1147 2 3.6914999999999996 24.865032718324166 5.744438985709305 0 0 0
1163 2 3.6914999999999996 27.706750743275496 5.744438985709305 0 0 0
1165 2 4.922000000000001 26.99632123703766 5.744438985709305 0 0 0
1167 2 4.922000000000001 25.575462224561992 5.744438985709305 0 0 0
1169 2 6.152499999999999 24.865032718324155 5.744438985709305 0 0 0
1193 2 6.152499999999999 27.706750743275496 5.744438985709305 0 0 0
1452 2 3.691499999999999 26.285891730799833 8.82925658667039 0 0 0
1460 2 3.6914999999999996 27.706750743275496 8.82925658667039 0 0 0
1462 2 4.922000000000001 25.575462224561992 8.82925658667039 0 0 0
1475 2 6.152499999999999 27.706750743275496 8.82925658667039 0 0 0
1139 2 1.2304999999999993 29.127609755751163 5.744438985709305 0 0 0
1443 2 0 28.417180249513333 8.82925658667039 0 0 0
1450 2 2.4610000000000003 28.417180249513326 8.82925658667039 0 0 0
1161 2 3.691499999999999 29.127609755751152 5.744438985709305 0 0 0
1191 2 6.152499999999998 29.127609755751152 5.744438985709305 0 0 0
1461 2 4.922000000000001 28.417180249513336 8.82925658667039 0 0 0
2996 1 2.471009555679339 21.813734254077406 11.378725174576278 0 3 0
1947 1 4.25803616761305 24.120423304349544 11.573499430585517 -2 2 0
1819 1 3.1682783258584646 26.695181542425733 11.101474982822484 2 1 0
69 1 4.458440250163129 28.935204375954093 11.749024343638009 1 0 0
1881 1 0.6379902706746718 26.72031212506635 12.063396962032824 -1 -2 0
1070 1 2.6835281609164703 21.883706082384183 15.493401932158289 -2 1 0
1796 1 4.216978897838217 23.949673512129706 14.353732289680458 2 -1 -1
2937 1 4.632312848140484 28.511851628137816 14.633213871894299 1 1 0
3887 1 3.1729716552866143 26.54004967053292 15.767226384771227 2 -2 -1
3832 1 0.5629712249475718 26.867441247293893 14.826056105724119 -1 0 0
3029 1 2.8553084244599223 22.259914089871216 18.26265130683428 1 1 -1
2955 1 4.691874732215268 24.266945480673776 18.933193760421496 -1 -3 0
1824 1 4.859254864485226 24.415900981924693 21.60582543466449 -4 4 0
788 1 0.04401384585770529 22.590956741619024 18.953995622810915 0 -3 -1
1809 1 0.34761786500829717 22.42953221757052 21.69616164028728 0 2 -1
3057 1 3.756438721320302 19.76978832000623 18.975448772293696 1 2 0
3082 1 3.386759422467045 26.835682651397608 22.148189222744207 -3 2 0
1064 1 3.3196286270263453 26.56682710299776 18.42002444247234 -2 -1 0
2982 1 5.025971522233923 28.611709231193668 19.02324982465135 4 -1 0
2012 1 4.943052061862931 29.06295274043974 21.826885147432975 0 0 0
1887 1 0.46090638228230946 27.019224325356532 19.063386433673763 4 -1 -1
3922 1 0.9078328354500483 26.790004088407414 21.75349405961289 2 0 0
975 1 0.41074069751828335 22.152399254073185 25.9785371463476 1 -1 0
4003 1 4.470791559158054 24.36610928789338 25.79605290209961 3 2 0
3024 1 3.0426481179168925 22.17287904750224 22.48144554924749 -1 2 1
3993 1 3.095112005736962 22.186323870698267 25.13282440130859 -3 0 0
2002 1 3.180846253668046 26.651539441374155 24.95322444302031 0 0 0
2938 1 5.051692217135248 28.685017576853895 25.72694802683894 0 4 0
2978 1 0.7731219464782422 26.74852084874399 25.769215707727483 -1 1 0
1136 2 0 29.83803926198899 2.6596213847470374 0 0 0
1138 2 1.2304999999999993 30.54846876822683 2.6596213847470374 0 0 0
1158 2 2.4610000000000003 29.83803926198899 2.6596213847470374 0 0 0
1160 2 3.6915000000000004 30.54846876822683 2.6596213847470374 0 0 0
1188 2 4.922000000000001 29.83803926198899 2.6596213847470374 0 0 0
1134 2 0 32.67975728694033 2.6596213847470374 0 0 0
1150 2 0 34.100616299416 2.6596213847470374 0 0 0
1154 2 1.2304999999999993 31.969327780702493 2.6596213847470374 0 0 0
1156 2 2.4610000000000003 32.67975728694034 2.6596213847470374 0 0 0
1180 2 2.4609999999999985 34.100616299416 2.6596213847470374 0 0 0
1184 2 3.6914999999999996 31.969327780702493 2.6596213847470374 0 0 0
1186 2 4.9220000000000015 32.67975728694034 2.6596213847470374 0 0 0
1218 2 4.922000000000001 34.100616299416 2.6596213847470374 0 0 0
1152 2 1.230500000000001 34.81104580565383 2.6596213847470374 0 0 0
1182 2 3.691500000000002 34.81104580565383 2.6596213847470374 0 0 0
1148 2 0 36.94233432436734 2.6596213847470374 0 0 0
1172 2 0 38.36319333684299 2.6596213847470374 0 0 0
1176 2 1.2304999999999993 36.231904818129486 2.6596213847470374 0 0 0
1178 2 2.461000000000002 36.94233432436734 2.6596213847470374 0 0 0
1210 2 2.4610000000000003 38.36319333684299 2.6596213847470374 0 0 0
1214 2 3.6914999999999996 36.231904818129486 2.6596213847470374 0 0 0
1216 2 4.922000000000001 36.942334324367316 2.6596213847470374 0 0 0
1255 2 4.922000000000001 38.36319333684299 2.6596213847470374 0 0 0
1174 2 1.230500000000001 39.07362284308084 2.6596213847470374 0 0 0
1212 2 3.691500000000002 39.07362284308082 2.6596213847470374 0 0 0
1135 2 0 31.258898274464656 5.744438985709305 0 0 0
1137 2 0 29.83803926198899 5.744438985709305 0 0 0
1157 2 2.4609999999999985 31.258898274464656 5.744438985709305 0 0 0
1159 2 2.4610000000000003 29.83803926198899 5.744438985709305 0 0 0
1447 2 0 29.83803926198899 8.82925658667039 0 0 0
1448 2 1.2304999999999993 30.54846876822683 8.82925658667039 0 0 0
1458 2 2.4610000000000003 29.83803926198899 8.82925658667039 0 0 0
1187 2 4.921999999999998 31.258898274464656 5.744438985709305 0 0 0
1189 2 4.922000000000001 29.83803926198899 5.744438985709305 0 0 0
1459 2 3.6915000000000004 30.54846876822683 8.82925658667039 0 0 0
1473 2 4.922000000000001 29.83803926198899 8.82925658667039 0 0 0
1151 2 0 34.100616299416 5.744438985709305 0 0 0
1153 2 1.2304999999999993 33.39018679317816 5.744438985709305 0 0 0
1155 2 1.2304999999999993 31.969327780702493 5.744438985709305 0 0 0
1181 2 2.4609999999999985 34.100616299416 5.744438985709305 0 0 0
1446 2 0 32.67975728694033 8.82925658667039 0 0 0
1454 2 0 34.100616299416 8.82925658667039 0 0 0
1456 2 1.2304999999999993 31.969327780702493 8.82925658667039 0 0 0
1457 2 2.4610000000000003 32.67975728694034 8.82925658667039 0 0 0
1469 2 2.4609999999999985 34.100616299416 8.82925658667039 0 0 0
1183 2 3.691499999999998 33.39018679317816 5.744438985709305 0 0 0
1185 2 3.6914999999999996 31.969327780702493 5.744438985709305 0 0 0
1219 2 4.922000000000001 34.100616299416 5.744438985709305 0 0 0
1221 2 6.152499999999999 33.39018679317816 5.744438985709305 0 0 0
1471 2 3.6914999999999996 31.969327780702493 8.82925658667039 0 0 0
1472 2 4.9220000000000015 32.67975728694034 8.82925658667039 0 0 0
1488 2 4.922000000000001 34.100616299416 8.82925658667039 0 0 0
1455 2 1.230500000000001 34.81104580565383 8.82925658667039 0 0 0
1470 2 3.691500000000002 34.81104580565383 8.82925658667039 0 0 0
1149 2 0 35.52147531189165 5.744438985709305 0 0 0
1173 2 0 38.36319333684299 5.744438985709305 0 0 0
1175 2 1.2304999999999993 37.65276383060515 5.744438985709305 0 0 0
1177 2 1.2304999999999993 36.231904818129486 5.744438985709305 0 0 0
1179 2 2.4609999999999985 35.52147531189166 5.744438985709305 0 0 0
1211 2 2.4610000000000003 38.36319333684299 5.744438985709305 0 0 0
1453 2 0 36.94233432436734 8.82925658667039 0 0 0
1465 2 0 38.36319333684299 8.82925658667039 0 0 0
1467 2 1.2304999999999993 36.231904818129486 8.82925658667039 0 0 0
1468 2 2.461000000000002 36.94233432436734 8.82925658667039 0 0 0
1484 2 2.4610000000000003 38.36319333684299 8.82925658667039 0 0 0
1213 2 3.6914999999999996 37.65276383060515 5.744438985709305 0 0 0
1215 2 3.6914999999999996 36.231904818129486 5.744438985709305 0 0 0
1217 2 4.922000000000001 35.52147531189166 5.744438985709305 0 0 0
1256 2 4.922000000000001 38.36319333684299 5.744438985709305 0 0 0
1258 2 6.152499999999998 37.65276383060515 5.744438985709305 0 0 0
1486 2 3.6914999999999996 36.231904818129486 8.82925658667039 0 0 0
1487 2 4.922000000000001 36.942334324367316 8.82925658667039 0 0 0
1506 2 4.922000000000001 38.36319333684299 8.82925658667039 0 0 0
1466 2 1.230500000000001 39.07362284308084 8.82925658667039 0 0 0
1485 2 3.691500000000002 39.07362284308082 8.82925658667039 0 0 0
1900 1 3.1470903923449653 31.39535776812478 10.971555773344585 2 1 0
2833 1 5.1200619137408365 33.214251490421034 11.96523341843145 4 0 0
3950 1 0.8061263881657468 31.416977285411964 12.28030546402224 0 -2 0
869 1 4.042768041166419 35.66933238342563 11.20833225874182 2 -3 0
1890 1 5.550040768587968 37.94076417429163 12.045030361511179 1 -2 1
4013 1 1.446362379003107 35.98290861554587 11.860071875709856 0 1 0
3949 1 0.5531463853146799 38.44957570994154 11.189868197120383 1 -1 0
3050 1 3.650835994939508 30.9560654897228 15.689462378739531 1 4 0
1050 1 4.812058969877165 33.23228005192671 14.498320037594636 3 -1 -1
3827 1 1.1420742516298037 31.150924890006696 15.0340800704943 0 -4 0
888 1 3.993166327097545 35.59774963641138 15.575501063822138 0 1 0
3006 1 1.6147136513999867 35.66798460150484 14.722307617091706 0 0 -1
2965 1 0.13620990591092472 38.5144621638578 17.927120764180827 1 -1 0
4048 1 0.46134531543670443 38.03944247554493 15.363727554540958 0 0 -1
1005 1 5.399073010196376 37.915717332912635 14.808846017766657 0 -1 0
1120 1 3.9524815912618148 31.069171671629643 18.228562238481345 0 -2 1
886 1 5.372891872843555 33.39842765778603 18.909815449395886 3 1 -1
1084 1 1.2538558845548038 31.578634509795556 18.843971580554104 0 0 0
3030 1 1.068165685200607 31.499162296543908 21.6899335005385 -1 0 -2
786 1 5.2224240318173925 33.5013880583538 21.689716315387898 0 0 0
1869 1 0.05624363445820535 33.964380946679356 22.339116318373797 -1 -1 0
3077 1 4.191617314160741 35.881540462689166 18.286650524803292 -1 0 0
2868 1 5.664651374026471 38.06972089848509 19.038040293124844 -3 -3 0
956 1 4.07533807850646 35.768651436196826 22.3003584744484 -3 0 0
1823 1 1.2646207566429735 36.137561739685715 18.54754233819161 1 0 0
1057 1 1.6866406248484125 36.22529433291845 21.4825576094104 0 0 -1
880 1 5.67439429782525 38.04289628873529 21.588942582928503 -3 -2 0
985 1 3.620857123785308 31.4478586681741 22.538841982936887 1 -1 0
3948 1 1.0478247625667647 31.27697090814614 25.757141332948592 -1 3 0
3932 1 3.8615562812185447 31.090718612538375 25.230536909486332 -1 -1 1
2865 1 5.2347071787108055 33.32021723697923 25.79179833560856 4 -1 -1
899 1 0.4665613204761155 38.23785886982962 25.171913088772527 2 0 -1
1996 1 0.4776564801415788 38.388182595080664 22.526556124564827 1 -1 0
3026 1 1.6821759988796117 35.75820354623744 25.253697544092034 1 2 0
2906 1 4.395681183189107 35.74848438093844 25.138830498861793 1 0 0
853 1 5.935572807434284 37.92533416256844 25.687676839759966 0 -2 0
1170 2 0 41.20491136179432 2.6596213847470374 0 0 0
1206 2 1.230500000000001 40.494481855556494 2.6596213847470374 0 0 0
1208 2 2.4610000000000003 41.20491136179432 2.6596213847470374 0 0 0
1251 2 3.6914999999999996 40.494481855556494 2.6596213847470374 0 0 0
1253 2 4.922000000000003 41.20491136179432 2.6596213847470374 0 0 0
1296 2 6.152499999999998 40.494481855556494 2.6596213847470374 0 0 0
1202 2 0 42.62577037427 2.6596213847470374 0 0 0
1204 2 1.2304999999999993 43.33619988050783 2.6596213847470374 0 0 0
1247 2 2.4610000000000003 42.62577037427 2.6596213847470374 0 0 0
1249 2 3.691500000000002 43.33619988050783 2.6596213847470374 0 0 0
1292 2 4.922000000000001 42.62577037426999 2.6596213847470374 0 0 0
1200 2 0 45.46748839922133 2.6596213847470374 0 0 0
1243 2 1.2304999999999993 44.757058892983494 2.6596213847470374 0 0 0
1245 2 2.4610000000000003 45.46748839922133 2.6596213847470374 0 0 0
1288 2 3.6914999999999996 44.757058892983494 2.6596213847470374 0 0 0
1290 2 4.922000000000001 45.46748839922133 2.6596213847470374 0 0 0
1239 2 0 46.888347411697 2.6596213847470374 0 0 0
1241 2 1.230500000000001 47.59877691793481 2.6596213847470374 0 0 0
1284 2 2.4609999999999985 46.888347411697 2.6596213847470374 0 0 0
1286 2 3.6914999999999996 47.598776917934835 2.6596213847470374 0 0 0
1329 2 4.922000000000001 46.888347411697 2.6596213847470374 0 0 0
1171 2 0 39.78405234931866 5.744438985709305 0 0 0
1205 2 1.230500000000001 41.91534086803216 5.744438985709305 0 0 0
1207 2 1.230500000000001 40.494481855556494 5.744438985709305 0 0 0
1209 2 2.4610000000000003 39.78405234931866 5.744438985709305 0 0 0
1464 2 0 41.20491136179432 8.82925658667039 0 0 0
1482 2 1.230500000000001 40.494481855556494 8.82925658667039 0 0 0
1483 2 2.4610000000000003 41.20491136179432 8.82925658667039 0 0 0
1250 2 3.6914999999999996 41.91534086803216 5.744438985709305 0 0 0
1252 2 3.6914999999999996 40.494481855556494 5.744438985709305 0 0 0
1254 2 4.922000000000001 39.78405234931866 5.744438985709305 0 0 0
1295 2 6.152499999999998 41.91534086803216 5.744438985709305 0 0 0
1297 2 6.152499999999998 40.494481855556494 5.744438985709305 0 0 0
1504 2 3.6914999999999996 40.494481855556494 8.82925658667039 0 0 0