LAMMPS data file via write_data, version 29 Sep 2021, timestep = 100000

4065 atoms
2 atom types

0 49.22 xlo xhi
0 49.019635930410494 ylo yhi
1.9742897704989488 25.86654247578584 zlo zhi

Masses

1 18.015
2 12.01

Atoms # atomic

83 2 0 2.8417180249513345 3.4134460224502696 0 0 0
85 2 0 0 3.4134460224502696 0 0 0
87 2 1.2305000000000001 0.7104295062378347 3.4134460224502696 0 0 0
94 2 1.2305000000000001 2.1312885187135 3.4134460224502696 0 0 0
96 2 2.4610000000000003 2.8417180249513345 3.4134460224502696 0 0 0
98 2 2.4610000000000003 0 3.4134460224502696 0 0 0
100 2 3.6915000000000004 0.7104295062378347 3.4134460224502696 0 0 0
115 2 3.6914999999999996 2.1312885187135 3.4134460224502696 0 0 0
117 2 4.922000000000001 2.841718024951333 3.4134460224502696 0 0 0
119 2 4.922000000000001 0 3.4134460224502696 0 0 0
90 2 0 4.262577037427 3.4134460224502696 0 0 0
111 2 2.4610000000000003 4.262577037427 3.4134460224502696 0 0 0
140 2 4.922000000000001 4.262577037426998 3.4134460224502696 0 0 0
92 2 1.2305000000000001 4.973006543664834 3.4134460224502696 0 0 0
107 2 1.2305000000000001 6.393865556140498 3.4134460224502696 0 0 0
113 2 3.6914999999999996 4.973006543664834 3.4134460224502696 0 0 0
136 2 3.6914999999999996 6.393865556140498 3.4134460224502696 0 0 0
88 2 0 7.104295062378334 3.4134460224502696 0 0 0
103 2 0 8.525154074854 3.4134460224502696 0 0 0
105 2 1.2305000000000001 9.235583581091834 3.4134460224502696 0 0 0
109 2 2.4610000000000003 7.104295062378334 3.4134460224502696 0 0 0
132 2 2.4610000000000003 8.525154074854 3.4134460224502696 0 0 0
134 2 3.6915000000000004 9.235583581091834 3.4134460224502696 0 0 0
138 2 4.922000000000001 7.104295062378334 3.4134460224502696 0 0 0
169 2 4.922000000000001 8.525154074854 3.4134460224502696 0 0 0
84 2 0 1.420859012475665 6.291758526352972 0 0 0
86 2 0 0 6.291758526352972 0 0 0
95 2 1.2305000000000001 2.1312885187135 6.291758526352972 0 0 0
97 2 2.4610000000000003 1.420859012475665 6.291758526352972 0 0 0
99 2 2.4610000000000003 0 6.291758526352972 0 0 0
412 2 0 2.8417180249513345 9.170071030254704 0 0 0
413 2 0 0 9.170071030254704 0 0 0
414 2 1.2305000000000001 0.7104295062378347 9.170071030254704 0 0 0
418 2 1.2305000000000001 2.1312885187135 9.170071030254704 0 0 0
419 2 2.4610000000000003 2.8417180249513345 9.170071030254704 0 0 0
420 2 2.4610000000000003 0 9.170071030254704 0 0 0
116 2 3.6914999999999996 2.1312885187135 6.291758526352972 0 0 0
118 2 4.922000000000001 1.420859012475665 6.291758526352972 0 0 0
120 2 4.922000000000001 0 6.291758526352972 0 0 0
421 2 3.6915000000000004 0.7104295062378347 9.170071030254704 0 0 0
429 2 3.6914999999999996 2.1312885187135 9.170071030254704 0 0 0
430 2 4.922000000000001 2.841718024951333 9.170071030254704 0 0 0
431 2 4.922000000000001 0 9.170071030254704 0 0 0
91 2 0 4.262577037427 6.291758526352972 0 0 0
93 2 1.2305000000000001 3.5521475311891644 6.291758526352972 0 0 0
112 2 2.4610000000000003 4.262577037427 6.291758526352972 0 0 0
416 2 0 4.262577037427 9.170071030254704 0 0 0
427 2 2.4610000000000003 4.262577037427 9.170071030254704 0 0 0
114 2 3.6914999999999996 3.5521475311891644 6.291758526352972 0 0 0
141 2 4.922000000000001 4.262577037426998 6.291758526352972 0 0 0
442 2 4.922000000000001 4.262577037426998 9.170071030254704 0 0 0
89 2 0 5.683436049902664 6.291758526352972 0 0 0
108 2 1.2305000000000001 6.393865556140498 6.291758526352972 0 0 0
110 2 2.4610000000000003 5.683436049902664 6.291758526352972 0 0 0
417 2 1.2305000000000001 4.973006543664834 9.170071030254704 0 0 0
425 2 1.2305000000000001 6.393865556140498 9.170071030254704 0 0 0
137 2 3.6914999999999996 6.393865556140498 6.291758526352972 0 0 0
139 2 4.922000000000001 5.683436049902664 6.291758526352972 0 0 0
428 2 3.6914999999999996 4.973006543664834 9.170071030254704 0 0 0
440 2 3.6914999999999996 6.393865556140498 9.170071030254704 0 0 0
104 2 0 8.525154074854 6.291758526352972 0 0 0
106 2 1.2305000000000001 7.814724568616164 6.291758526352972 0 0 0
133 2 2.4610000000000003 8.525154074854 6.291758526352972 0 0 0
415 2 0 7.104295062378334 9.170071030254704 0 0 0
423 2 0 8.525154074854 9.170071030254704 0 0 0
424 2 1.2305000000000001 9.235583581091834 9.170071030254704 0 0 0
426 2 2.4610000000000003 7.104295062378334 9.170071030254704 0 0 0
438 2 2.4610000000000003 8.525154074854 9.170071030254704 0 0 0
135 2 3.6914999999999996 7.814724568616164 6.291758526352972 0 0 0
170 2 4.922000000000001 8.525154074854 6.291758526352972 0 0 0
439 2 3.6915000000000004 9.235583581091834 9.170071030254704 0 0 0
441 2 4.922000000000001 7.104295062378334 9.170071030254704 0 0 0
457 2 4.922000000000001 8.525154074854 9.170071030254704 0 0 0
3863 1 1.5268048502595741 5.765399952380729 11.69176008772057 1 1 0
2073 1 1.9561848086135714 8.716164898920523 12.001982185596583 1 0 0
3146 1 3.3484803773960254 1.3656058545062677 12.812504179804584 -1 0 0
3807 1 3.9254575738272286 4.164022556170388 12.500277350052206 1 1 0
1920 1 4.6960025829481955 9.472337123650082 11.63370263661611 0 0 2
996 1 0.7876263312899678 0.7782249403882205 13.808252988424671 1 0 -1
1056 1 1.2800894547380965 9.506311843032755 17.522375397057182 2 1 0
783 1 4.682065802592774 5.336097422532474 14.918111028574744 0 1 -1
3914 1 0.8615181335794774 6.389843796489762 24.340080843985454 0 1 -1
2953 1 5.705446290574407 3.1736688311701196 16.175896766201895 0 -1 0
1006 1 3.975639029538073 9.198154900429326 24.760311027751957 1 1 0
2912 1 4.388862004262476 6.59995436484137 21.425072774442462 2 0 0
3856 1 4.0462595525413 8.92938863492827 14.452029035907326 2 0 -1
2820 1 0.22559741645442963 4.830975776796952 17.636674462227703 2 -1 1
817 1 2.5391621864079155 6.858259794051859 15.972705941886865 1 1 0
1935 1 1.634991921758507 2.319315200124266 17.20514915712704 1 1 0
66 1 0.9659089598290004 3.6647431320811323 24.52955026118185 0 1 0
3825 1 3.7214862598448617 3.7717645471371313 21.809651111642122 0 1 0
2925 1 2.2989050331712133 2.064036842714294 20.103118936955248 2 1 1
3021 1 4.577960752553253 3.3622793384876313 18.711451447332344 1 1 0
2900 1 5.635503310244785 8.2088898069187 18.248135817490517 -1 -1 0
1125 1 3.880937410169297 6.202430202991018 18.669682751422894 2 0 0
1954 1 0.40715347238550204 3.2039886352287454 21.900020782135268 1 1 0
2892 1 0.8379296990476599 9.473000414828029 14.487692973868183 0 1 -1
788 1 3.511582125139327 6.538370580105338 23.95994920405479 0 0 -1
1117 1 6.072256994174431 4.917690957514516 24.55292082540114 1 0 0
3891 1 3.528059398234258 3.1395508176384173 24.614987554745845 1 1 0
2825 1 0.9814494706860373 6.962066490936437 19.11981625442115 0 1 0
893 1 0.5257290152948246 5.7409168541419 14.575112270201355 2 0 0
2018 1 4.456236236848631 0.5809167049611641 16.65891345273316 0 -1 -2
1990 1 2.3630296393691053 8.690358893836603 21.034054565156147 0 0 -1
903 1 0.6234319578335648 0.14971163241998658 22.671504965487358 0 2 -1
2030 1 5.991767878388283 2.3922844144177016 21.746682047093437 1 2 0
3092 1 2.7488282844736482 0.005296243403080325 24.842656113960008 1 1 0
101 2 0 11.366872099805333 3.4134460224502696 0 0 0
124 2 0 12.787731112280996 3.4134460224502696 0 0 0
126 2 1.2305000000000001 13.49816061851883 3.4134460224502696 0 0 0
128 2 1.2305000000000001 10.656442593567498 3.4134460224502696 0 0 0
130 2 2.4610000000000003 11.366872099805333 3.4134460224502696 0 0 0
161 2 2.4610000000000003 12.787731112280996 3.4134460224502696 0 0 0
163 2 3.6915000000000004 13.49816061851883 3.4134460224502696 0 0 0
165 2 3.6914999999999996 10.6564425935675 3.4134460224502696 0 0 0
167 2 4.922000000000001 11.366872099805333 3.4134460224502696 0 0 0
206 2 4.922000000000001 12.787731112280996 3.4134460224502696 0 0 0
208 2 6.152499999999999 13.49816061851883 3.4134460224502696 0 0 0
122 2 0 15.629449137232333 3.4134460224502696 0 0 0
153 2 0 17.050308149708 3.4134460224502696 0 0 0
157 2 1.2305000000000001 14.919019630994494 3.4134460224502696 0 0 0
159 2 2.4610000000000003 15.629449137232328 3.4134460224502696 0 0 0
198 2 2.4610000000000003 17.050308149708 3.4134460224502696 0 0 0
202 2 3.6915000000000004 14.919019630994494 3.4134460224502696 0 0 0
204 2 4.922000000000001 15.629449137232333 3.4134460224502696 0 0 0
245 2 4.922000000000001 17.050308149708 3.4134460224502696 0 0 0
249 2 6.152499999999999 14.919019630994494 3.4134460224502696 0 0 0
155 2 1.2305000000000001 17.76073765594583 3.4134460224502696 0 0 0
194 2 1.2305000000000001 19.181596668421495 3.4134460224502696 0 0 0
200 2 3.6914999999999996 17.76073765594583 3.4134460224502696 0 0 0
241 2 3.6914999999999996 19.181596668421495 3.4134460224502696 0 0 0
102 2 0 9.946013087329664 6.291758526352972 0 0 0
131 2 2.4610000000000003 9.946013087329664 6.291758526352972 0 0 0
168 2 4.922000000000001 9.946013087329664 6.291758526352972 0 0 0
125 2 0 12.787731112280996 6.291758526352972 0 0 0
127 2 1.2305000000000001 12.077301606043163 6.291758526352972 0 0 0
129 2 1.2305000000000001 10.656442593567498 6.291758526352972 0 0 0
162 2 2.4610000000000003 12.787731112280996 6.291758526352972 0 0 0
422 2 0 11.366872099805333 9.170071030254704 0 0 0
434 2 0 12.787731112280996 9.170071030254704 0 0 0
435 2 1.2305000000000001 13.49816061851883 9.170071030254704 0 0 0
436 2 1.2305000000000001 10.656442593567498 9.170071030254704 0 0 0
437 2 2.4610000000000003 11.366872099805333 9.170071030254704 0 0 0
453 2 2.4610000000000003 12.787731112280996 9.170071030254704 0 0 0
164 2 3.6914999999999996 12.077301606043163 6.291758526352972 0 0 0
166 2 3.6914999999999996 10.6564425935675 6.291758526352972 0 0 0
207 2 4.922000000000001 12.787731112280996 6.291758526352972 0 0 0
454 2 3.6915000000000004 13.49816061851883 9.170071030254704 0 0 0
455 2 3.6914999999999996 10.6564425935675 9.170071030254704 0 0 0
456 2 4.922000000000001 11.366872099805333 9.170071030254704 0 0 0
476 2 4.922000000000001 12.787731112280996 9.170071030254704 0 0 0
477 2 6.152499999999999 13.49816061851883 9.170071030254704 0 0 0
123 2 0 14.208590124756663 6.291758526352972 0 0 0
160 2 2.4610000000000003 14.208590124756663 6.291758526352972 0 0 0
205 2 4.922000000000001 14.208590124756663 6.291758526352972 0 0 0
154 2 0 17.050308149708 6.291758526352972 0 0 0
156 2 1.2305000000000001 16.339878643470165 6.291758526352972 0 0 0
158 2 1.2305000000000001 14.919019630994494 6.291758526352972 0 0 0
199 2 2.4610000000000003 17.050308149708 6.291758526352972 0 0 0
433 2 0 15.629449137232333 9.170071030254704 0 0 0
449 2 0 17.050308149708 9.170071030254704 0 0 0
451 2 1.2305000000000001 14.919019630994494 9.170071030254704 0 0 0
452 2 2.4610000000000003 15.629449137232328 9.170071030254704 0 0 0
472 2 2.4610000000000003 17.050308149708 9.170071030254704 0 0 0
201 2 3.6915000000000004 16.339878643470165 6.291758526352972 0 0 0
203 2 3.6915000000000004 14.919019630994494 6.291758526352972 0 0 0
246 2 4.922000000000001 17.050308149708 6.291758526352972 0 0 0
250 2 6.152499999999999 14.919019630994494 6.291758526352972 0 0 0
474 2 3.6915000000000004 14.919019630994494 9.170071030254704 0 0 0
475 2 4.922000000000001 15.629449137232333 9.170071030254704 0 0 0
496 2 4.922000000000001 17.050308149708 9.170071030254704 0 0 0
498 2 6.152499999999999 14.919019630994494 9.170071030254704 0 0 0
152 2 0 18.471167162183658 6.291758526352972 0 0 0
195 2 1.2305000000000001 19.181596668421495 6.291758526352972 0 0 0
197 2 2.4610000000000003 18.471167162183658 6.291758526352972 0 0 0
450 2 1.2305000000000001 17.76073765594583 9.170071030254704 0 0 0
470 2 1.2305000000000001 19.181596668421495 9.170071030254704 0 0 0
242 2 3.6914999999999996 19.181596668421495 6.291758526352972 0 0 0
244 2 4.922000000000001 18.471167162183658 6.291758526352972 0 0 0
473 2 3.6914999999999996 17.76073765594583 9.170071030254704 0 0 0
494 2 3.6914999999999996 19.181596668421495 9.170071030254704 0 0 0
2824 1 1.8162965989672295 12.874876195108284 12.751331609806984 0 0 -1
875 1 4.792708797095147 19.162372785830176 11.511835412819115 1 1 -1
3026 1 1.3900311574955515 15.128098230206088 11.635208612806403 0 0 0
3129 1 3.8320849849489855 16.64361302020799 11.82017200024747 1 0 0
1011 1 6.124627988897652 14.95827084486983 11.918930692054234 0 0 0
2967 1 4.695908347228818 12.336055369056918 11.806081512045468 1 0 -1
3821 1 0.5969667922582518 18.07378100434865 11.463017016901718 0 1 -1
69 1 0.060241108673819536 11.135701590053573 11.65014104470567 1 0 0
3035 1 2.886752752951652 11.417248611263604 18.669269980312336 1 0 0
2833 1 2.467821750809997 13.761110303729799 17.666761976326413 1 0 0
2871 1 1.6435167158672603 13.384859928234569 24.65028293496614 1 0 0
1881 1 5.13307857406731 10.682913178732468 16.87507542311996 0 0 0
2844 1 1.4142382815937777 13.32389700808096 15.272849000704419 0 0 0
4009 1 0.7682559409239763 18.30912929336012 24.94081841491067 0 1 0
2118 1 5.314695681091617 15.234544087043556 24.84510807085281 0 0 0
3959 1 2.154431484784016 16.612354478412765 14.31625684806621 0 1 -1
933 1 4.616913526242684 17.98092965582666 17.822915623629967 1 1 0
1018 1 3.901853656731533 15.813198051405312 16.336492328878556 2 2 1
2035 1 3.7371174957312854 13.79944813502786 22.814875750965843 0 1 0
1039 1 4.0377230394517944 11.061691853800784 21.393644951574686 1 0 1
3031 1 3.164742447639776 17.096882386939633 24.468408434404473 0 0 0
21 1 1.1645553142547258 19.308329094747368 14.624010262009522 1 0 0
795 1 2.878223995832912 16.10654192641968 21.847573196839722 0 0 0
958 1 2.4321115402995774 18.09629248994774 19.81542388657105 1 0 0
1066 1 4.349861297780476 19.499736358359804 24.139746818779177 1 -1 0
3016 1 1.880461202588942 10.691860064278615 24.324132694234052 0 0 -1
3083 1 5.56837337726953 11.890895401030841 14.36124805325135 1 0 0
2085 1 5.928729262214236 14.80630794415181 14.762922102634903 1 0 0
919 1 0.1427821059751534 14.775998537441808 18.89631868459387 1 1 0
2930 1 0.4944638679787489 14.955382122667437 21.72863311348719 0 0 0
1063 1 5.646602344305332 16.409869957565146 20.74932257263943 1 1 0
859 1 5.019920123851172 19.340649355879854 21.512422413942236 -1 0 0
151 2 0 19.89202617465933 3.4134460224502696 0 0 0
196 2 2.4610000000000003 19.89202617465933 3.4134460224502696 0 0 0
243 2 4.922000000000001 19.89202617465933 3.4134460224502696 0 0 0
188 2 0 24.154603212086325 3.4134460224502696 0 0 0
190 2 0 21.312885187135 3.4134460224502696 0 0 0
192 2 1.2304999999999993 22.023314693372832 3.4134460224502696 0 0 0
233 2 1.2304999999999993 23.4441737058485 3.4134460224502696 0 0 0
235 2 2.4610000000000003 24.154603212086325 3.4134460224502696 0 0 0
237 2 2.4610000000000003 21.312885187134995 3.4134460224502696 0 0 0
239 2 3.6914999999999996 22.023314693372832 3.4134460224502696 0 0 0
280 2 3.6915000000000004 23.4441737058485 3.4134460224502696 0 0 0
282 2 4.922000000000001 24.154603212086325 3.4134460224502696 0 0 0
284 2 4.922000000000001 21.312885187134995 3.4134460224502696 0 0 0
286 2 6.152499999999999 22.023314693372832 3.4134460224502696 0 0 0
1130 2 0 25.575462224561992 3.4134460224502696 0 0 0
1132 2 1.2305000000000001 26.285891730799833 3.4134460224502696 0 0 0
1140 2 1.230500000000001 27.706750743275496 3.4134460224502696 0 0 0
1144 2 2.4610000000000003 25.575462224561992 3.4134460224502696 0 0 0
1146 2 3.691499999999999 26.285891730799833 3.4134460224502696 0 0 0
1162 2 3.6914999999999996 27.706750743275496 3.4134460224502696 0 0 0
1166 2 4.922000000000001 25.575462224561992 3.4134460224502696 0 0 0
1192 2 6.152499999999999 27.706750743275496 3.4134460224502696 0 0 0
1128 2 0 28.417180249513333 3.4134460224502696 0 0 0
1142 2 2.4610000000000003 28.417180249513326 3.4134460224502696 0 0 0
1164 2 4.922000000000001 28.417180249513336 3.4134460224502696 0 0 0
193 2 1.2305000000000001 20.60245568089716 6.291758526352972 0 0 0
448 2 0 19.89202617465933 9.170071030254704 0 0 0
471 2 2.4610000000000003 19.89202617465933 9.170071030254704 0 0 0
240 2 3.6915000000000004 20.60245568089716 6.291758526352972 0 0 0
495 2 4.922000000000001 19.89202617465933 9.170071030254704 0 0 0
189 2 0 22.733744199610655 6.291758526352972 0 0 0
191 2 0 21.312885187135 6.291758526352972 0 0 0
234 2 1.2304999999999993 23.4441737058485 6.291758526352972 0 0 0
236 2 2.4610000000000003 22.733744199610655 6.291758526352972 0 0 0
238 2 2.4610000000000003 21.312885187134995 6.291758526352972 0 0 0
467 2 0 24.154603212086325 9.170071030254704 0 0 0
468 2 0 21.312885187135 9.170071030254704 0 0 0
469 2 1.2304999999999993 22.023314693372832 9.170071030254704 0 0 0
490 2 1.2304999999999993 23.4441737058485 9.170071030254704 0 0 0
491 2 2.4610000000000003 24.154603212086325 9.170071030254704 0 0 0
492 2 2.4610000000000003 21.312885187134995 9.170071030254704 0 0 0
281 2 3.6915000000000004 23.4441737058485 6.291758526352972 0 0 0
283 2 4.922000000000001 22.733744199610655 6.291758526352972 0 0 0
285 2 4.922000000000001 21.312885187134995 6.291758526352972 0 0 0
493 2 3.6914999999999996 22.023314693372832 9.170071030254704 0 0 0
514 2 3.6915000000000004 23.4441737058485 9.170071030254704 0 0 0
515 2 4.922000000000001 24.154603212086325 9.170071030254704 0 0 0
516 2 4.922000000000001 21.312885187134995 9.170071030254704 0 0 0
517 2 6.152499999999999 22.023314693372832 9.170071030254704 0 0 0
1129 2 0 26.99632123703766 6.291758526352972 0 0 0
1131 2 0 25.575462224561992 6.291758526352972 0 0 0
1133 2 1.2305000000000001 24.865032718324155 6.291758526352972 0 0 0
1141 2 1.230500000000001 27.706750743275496 6.291758526352972 0 0 0
1143 2 2.4610000000000003 26.99632123703766 6.291758526352972 0 0 0
1145 2 2.4610000000000003 25.575462224561992 6.291758526352972 0 0 0
1444 2 0 25.575462224561992 9.170071030254704 0 0 0
1445 2 1.2305000000000001 26.285891730799833 9.170071030254704 0 0 0
1449 2 1.230500000000001 27.706750743275496 9.170071030254704 0 0 0
1451 2 2.4610000000000003 25.575462224561992 9.170071030254704 0 0 0
1147 2 3.6914999999999996 24.865032718324166 6.291758526352972 0 0 0
1163 2 3.6914999999999996 27.706750743275496 6.291758526352972 0 0 0
1165 2 4.922000000000001 26.99632123703766 6.291758526352972 0 0 0
1167 2 4.922000000000001 25.575462224561992 6.291758526352972 0 0 0
1169 2 6.152499999999999 24.865032718324155 6.291758526352972 0 0 0
1193 2 6.152499999999999 27.706750743275496 6.291758526352972 0 0 0
1452 2 3.691499999999999 26.285891730799833 9.170071030254704 0 0 0
1460 2 3.6914999999999996 27.706750743275496 9.170071030254704 0 0 0
1462 2 4.922000000000001 25.575462224561992 9.170071030254704 0 0 0
1475 2 6.152499999999999 27.706750743275496 9.170071030254704 0 0 0
1139 2 1.2304999999999993 29.127609755751163 6.291758526352972 0 0 0
1443 2 0 28.417180249513333 9.170071030254704 0 0 0
1450 2 2.4610000000000003 28.417180249513326 9.170071030254704 0 0 0
1161 2 3.691499999999999 29.127609755751152 6.291758526352972 0 0 0
1191 2 6.152499999999998 29.127609755751152 6.291758526352972 0 0 0
1461 2 4.922000000000001 28.417180249513336 9.170071030254704 0 0 0
3138 1 3.02982703517686 24.80137485735694 12.10790587696826 1 1 1
59 1 4.388528361219528 22.08539155447684 11.507623345706968 1 0 1
858 1 3.4174937912223284 29.207281686981236 11.548459383156985 1 -1 0
1049 1 1.8031424391485291 27.09405324192747 11.257022727593531 1 0 0
4013 1 1.781843752825889 20.427904352449836 12.187918432543562 0 0 0
2000 1 0.8418331271968253 23.11616012473692 12.137335813487404 0 -1 0
3108 1 5.59578763685736 25.706701190333813 12.018502162655894 0 1 0
3837 1 3.487999911497216 23.051616834675837 21.276166023575644 1 1 0
2028 1 3.628583009622286 28.496826450605706 14.17967388587948 1 0 1
1995 1 2.361402613231748 22.462596877058424 16.75017174050942 1 0 1
3115 1 3.208889575738436 24.589557299783706 15.033336854775804 0 0 0
3839 1 5.895829878538405 25.59476317412987 14.835917599395623 0 1 0
2880 1 2.2086210325280726 26.8698160882579 15.687452731417896 1 -1 -1
868 1 0.2191297162293142 25.080219260740634 25.027069422844743 0 -1 -1
916 1 5.826523072456992 26.476909682462026 21.882521630482437 0 -1 -1
34 1 2.6773478450593053 26.546045154508658 24.884102039378124 1 0 0
15 1 2.0287403406165345 20.45538202756464 21.093674794159934 2 0 1
3951 1 0.41809081420867017 21.370550969130885 18.248606842170304 0 0 -1
880 1 5.4567898516813145 26.770582223995447 24.675797169499702 0 0 0
905 1 1.4801050275355596 24.605760406745457 22.3386898621225 0 0 0
943 1 3.026841472423371 26.975989394448685 21.63322151653985 0 0 0
873 1 1.4033974912431593 20.83405853877751 23.741081535934736 2 1 -1
3121 1 5.256430350718227 20.077733253681256 14.109696671343656 0 0 0
867 1 2.921830677399104 26.612314432796715 18.586930074610255 0 0 1
981 1 3.9134422893056913 23.900626003194578 18.475580818346216 -1 0 1
970 1 3.9271760974185703 22.077612230188965 24.993793555239343 -1 0 -1
2869 1 4.265009428531182 29.294014313344928 18.482747974300317 1 0 0
2906 1 3.5157255058052166 19.878555175806206 16.146154435094203 1 -1 0
4027 1 6.135414197321321 24.043160799907636 24.634980100231473 0 1 1
2887 1 0.013172295189477268 26.215775938984777 18.105165817676795 1 0 0
1136 2 0 29.83803926198899 3.4134460224502696 0 0 0
1138 2 1.2304999999999993 30.54846876822683 3.4134460224502696 0 0 0
1158 2 2.4610000000000003 29.83803926198899 3.4134460224502696 0 0 0
1160 2 3.6915000000000004 30.54846876822683 3.4134460224502696 0 0 0
1188 2 4.922000000000001 29.83803926198899 3.4134460224502696 0 0 0
1134 2 0 32.67975728694033 3.4134460224502696 0 0 0
1150 2 0 34.100616299416 3.4134460224502696 0 0 0
1154 2 1.2304999999999993 31.969327780702493 3.4134460224502696 0 0 0
1156 2 2.4610000000000003 32.67975728694034 3.4134460224502696 0 0 0
1180 2 2.4609999999999985 34.100616299416 3.4134460224502696 0 0 0
1184 2 3.6914999999999996 31.969327780702493 3.4134460224502696 0 0 0
1186 2 4.9220000000000015 32.67975728694034 3.4134460224502696 0 0 0
1218 2 4.922000000000001 34.100616299416 3.4134460224502696 0 0 0
1152 2 1.230500000000001 34.81104580565383 3.4134460224502696 0 0 0
1182 2 3.691500000000002 34.81104580565383 3.4134460224502696 0 0 0
1148 2 0 36.94233432436734 3.4134460224502696 0 0 0
1172 2 0 38.36319333684299 3.4134460224502696 0 0 0
1176 2 1.2304999999999993 36.231904818129486 3.4134460224502696 0 0 0
1178 2 2.461000000000002 36.94233432436734 3.4134460224502696 0 0 0
1210 2 2.4610000000000003 38.36319333684299 3.4134460224502696 0 0 0
1214 2 3.6914999999999996 36.231904818129486 3.4134460224502696 0 0 0
1216 2 4.922000000000001 36.942334324367316 3.4134460224502696 0 0 0
1255 2 4.922000000000001 38.36319333684299 3.4134460224502696 0 0 0
1174 2 1.230500000000001 39.07362284308084 3.4134460224502696 0 0 0
1212 2 3.691500000000002 39.07362284308082 3.4134460224502696 0 0 0
1135 2 0 31.258898274464656 6.291758526352972 0 0 0
1137 2 0 29.83803926198899 6.291758526352972 0 0 0
1157 2 2.4609999999999985 31.258898274464656 6.291758526352972 0 0 0
1159 2 2.4610000000000003 29.83803926198899 6.291758526352972 0 0 0
1447 2 0 29.83803926198899 9.170071030254704 0 0 0
1448 2 1.2304999999999993 30.54846876822683 9.170071030254704 0 0 0
1458 2 2.4610000000000003 29.83803926198899 9.170071030254704 0 0 0
1187 2 4.921999999999998 31.258898274464656 6.291758526352972 0 0 0
1189 2 4.922000000000001 29.83803926198899 6.291758526352972 0 0 0
1459 2 3.6915000000000004 30.54846876822683 9.170071030254704 0 0 0
1473 2 4.922000000000001 29.83803926198899 9.170071030254704 0 0 0
1151 2 0 34.100616299416 6.291758526352972 0 0 0
1153 2 1.2304999999999993 33.39018679317816 6.291758526352972 0 0 0
1155 2 1.2304999999999993 31.969327780702493 6.291758526352972 0 0 0
1181 2 2.4609999999999985 34.100616299416 6.291758526352972 0 0 0
1446 2 0 32.67975728694033 9.170071030254704 0 0 0
1454 2 0 34.100616299416 9.170071030254704 0 0 0
1456 2 1.2304999999999993 31.969327780702493 9.170071030254704 0 0 0
1457 2 2.4610000000000003 32.67975728694034 9.170071030254704 0 0 0
1469 2 2.4609999999999985 34.100616299416 9.170071030254704 0 0 0
1183 2 3.691499999999998 33.39018679317816 6.291758526352972 0 0 0
1185 2 3.6914999999999996 31.969327780702493 6.291758526352972 0 0 0
1219 2 4.922000000000001 34.100616299416 6.291758526352972 0 0 0
1221 2 6.152499999999999 33.39018679317816 6.291758526352972 0 0 0
1471 2 3.6914999999999996 31.969327780702493 9.170071030254704 0 0 0
1472 2 4.9220000000000015 32.67975728694034 9.170071030254704 0 0 0
1488 2 4.922000000000001 34.100616299416 9.170071030254704 0 0 0
1455 2 1.230500000000001 34.81104580565383 9.170071030254704 0 0 0
1470 2 3.691500000000002 34.81104580565383 9.170071030254704 0 0 0
1149 2 0 35.52147531189165 6.291758526352972 0 0 0
1173 2 0 38.36319333684299 6.291758526352972 0 0 0
1175 2 1.2304999999999993 37.65276383060515 6.291758526352972 0 0 0
1177 2 1.2304999999999993 36.231904818129486 6.291758526352972 0 0 0
1179 2 2.4609999999999985 35.52147531189166 6.291758526352972 0 0 0
1211 2 2.4610000000000003 38.36319333684299 6.291758526352972 0 0 0
1453 2 0 36.94233432436734 9.170071030254704 0 0 0
1465 2 0 38.36319333684299 9.170071030254704 0 0 0
1467 2 1.2304999999999993 36.231904818129486 9.170071030254704 0 0 0
1468 2 2.461000000000002 36.94233432436734 9.170071030254704 0 0 0
1484 2 2.4610000000000003 38.36319333684299 9.170071030254704 0 0 0
1213 2 3.6914999999999996 37.65276383060515 6.291758526352972 0 0 0
1215 2 3.6914999999999996 36.231904818129486 6.291758526352972 0 0 0
1217 2 4.922000000000001 35.52147531189166 6.291758526352972 0 0 0
1256 2 4.922000000000001 38.36319333684299 6.291758526352972 0 0 0
1258 2 6.152499999999998 37.65276383060515 6.291758526352972 0 0 0
1486 2 3.6914999999999996 36.231904818129486 9.170071030254704 0 0 0
1487 2 4.922000000000001 36.942334324367316 9.170071030254704 0 0 0
1506 2 4.922000000000001 38.36319333684299 9.170071030254704 0 0 0
1466 2 1.230500000000001 39.07362284308084 9.170071030254704 0 0 0
1485 2 3.691500000000002 39.07362284308082 9.170071030254704 0 0 0
3109 1 4.144079443704786 36.072727504318635 11.825279929363393 0 0 1
1934 1 4.269759129945688 33.22029402949873 12.179838226824574 0 1 -1
824 1 1.905176648795271 31.449839350441806 11.734090285436885 1 1 1
3975 1 1.813592978893368 38.10337277314045 11.59254985490769 1 1 -1
862 1 5.463829615311085 36.505703626502545 24.493328898590168 0 0 -1
2902 1 2.119002671645829 29.42759639164742 24.54956130527178 0 0 -1
2860 1 5.224362111226559 33.40056880113979 14.76610657473509 0 -1 -1
3943 1 1.7713400221355735 37.16233246256317 15.819625625342901 0 1 0
3854 1 2.1666314207815667 37.21425091705213 18.698639890883655 0 0 0
1021 1 6.030805766605959 35.122010784077865 16.93856919148454 0 -1 1
2851 1 1.558127158175666 30.27824941816587 18.140838647648025 1 -1 0
1005 1 2.2864017917030237 29.452452483408177 20.904615566527408 1 -1 0
886 1 1.5387372759728375 32.78964157043156 18.988040420938432 0 -1 -1
1818 1 1.457026197025091 31.306707801559718 14.45928935035124 1 -1 -1
1865 1 1.6724589247569643 36.60500356176575 21.758180608807344 1 -1 -1
1844 1 3.697993060426654 34.549422720780846 18.537937566503636 1 1 1
2916 1 3.773594347976431 34.985721845338844 21.40383539894761 1 -1 0
2856 1 2.61786796714287 33.92900411335302 15.900954663827228 1 0 0
861 1 5.321064443427153 32.15363794109774 25.050726657860782 0 -1 0
2054 1 2.3891960705839828 32.379154735096954 24.801678321277944 0 0 1
3066 1 4.090879453740245 30.88909466798998 15.774669518220405 1 -1 -1
3103 1 2.315859416216508 32.55720240313754 21.531475355688986 0 0 0
3076 1 5.701551689699772 32.92263408506843 22.040912289705656 0 1 0
35 1 0.9660891565980082 37.181103897828635 24.48177628819019 0 0 1
1026 1 2.9939545594800583 35.376593226456386 24.70885302490534 1 0 0
3081 1 4.480128643026656 36.995699908880404 14.497716451162468 1 1 1
60 1 5.850061184420191 36.98256281851866 21.499803670214526 0 0 0
1170 2 0 41.20491136179432 3.4134460224502696 0 0 0
1206 2 1.230500000000001 40.494481855556494 3.4134460224502696 0 0 0
1208 2 2.4610000000000003 41.20491136179432 3.4134460224502696 0 0 0
1251 2 3.6914999999999996 40.494481855556494 3.4134460224502696 0 0 0
1253 2 4.922000000000003 41.20491136179432 3.4134460224502696 0 0 0
1296 2 6.152499999999998 40.494481855556494 3.4134460224502696 0 0 0
1202 2 0 42.62577037427 3.4134460224502696 0 0 0
1204 2 1.2304999999999993 43.33619988050783 3.4134460224502696 0 0 0
1247 2 2.4610000000000003 42.62577037427 3.4134460224502696 0 0 0
1249 2 3.691500000000002 43.33619988050783 3.4134460224502696 0 0 0
1292 2 4.922000000000001 42.62577037426999 3.4134460224502696 0 0 0
1200 2 0 45.46748839922133 3.4134460224502696 0 0 0
1243 2 1.2304999999999993 44.757058892983494 3.4134460224502696 0 0 0
1245 2 2.4610000000000003 45.46748839922133 3.4134460224502696 0 0 0
1288 2 3.6914999999999996 44.757058892983494 3.4134460224502696 0 0 0
1290 2 4.922000000000001 45.46748839922133 3.4134460224502696 0 0 0
1239 2 0 46.888347411697 3.4134460224502696 0 0 0
1241 2 1.230500000000001 47.59877691793481 3.4134460224502696 0 0 0
1284 2 2.4609999999999985 46.888347411697 3.4134460224502696 0 0 0
1286 2 3.6914999999999996 47.598776917934835 3.4134460224502696 0 0 0
1329 2 4.922000000000001 46.888347411697 3.4134460224502696 0 0 0
1171 2 0 39.78405234931866 6.291758526352972 0 0 0
1205 2 1.230500000000001 41.91534086803216 6.291758526352972 0 0 0
1207 2 1.230500000000001 40.494481855556494 6.291758526352972 0 0 0
1209 2 2.4610000000000003 39.78405234931866 6.291758526352972 0 0 0
1464 2 0 41.20491136179432 9.170071030254704 0 0 0
1482 2 1.230500000000001 40.494481855556494 9.170071030254704 0 0 0
1483 2 2.4610000000000003 41.20491136179432 9.170071030254704 0 0 0
1250 2 3.6914999999999996 41.91534086803216 6.291758526352972 0 0 0
1252 2 3.6914999999999996 40.494481855556494 6.291758526352972 0 0 0
1254 2 4.922000000000001 39.78405234931866 6.291758526352972 0 0 0
1295 2 6.152499999999998 41.91534086803216 6.291758526352972 0 0 0
1297 2 6.152499999999998 40.494481855556494 6.291758526352972 0 0 0
1504 2 3.6914999999999996 40.494481855556494 9.170071030254704 0 0 0
1505 2 4.922000000000003 41.20491136179432 9.170071030254704 0 0 0
1526 2 6.152499999999998 40.494481855556494 9.170071030254704 0 0 0