
# Create simulation box and atoms

read_data data.ML_graphite_1atm_240K
Reading data file ...
  orthogonal box = (0.0000000 0.0000000 2.0829560) to (49.220000 49.019636 25.757876)
  8 by 5 by 2 MPI processor grid
  reading atoms ...
  4065 atoms
  reading velocities ...
  4065 velocities
  read_data CPU = 0.018 seconds
group water type 1
1305 atoms in group water
group graphite type 2
2760 atoms in group graphite

# Define potential

pair_style sw
pair_coeff * * MLC_e.sw mW C


# Fix graphite atoms in place

fix 5 graphite setforce 0.0 0.0 0.0
velocity graphite set 0.0 0.0 0.0


# Equilibration of molecular water

# Add velocity/set timestep

velocity	    water create ${TEMP} ${SEED} rot yes dist gaussian
velocity	    water create 240 ${SEED} rot yes dist gaussian
velocity	    water create 240 20760 rot yes dist gaussian
timestep	    5.0

# Define output

compute			1 water msd
compute			3 water temp
thermo	    	50
thermo_style	custom step temp press vol etotal ke pe c_1[4] c_3

# Neighbor lists

neigh_modify    delay 0 every 1 check yes

# Set fixes

fix             1 water momentum 10 linear 1 1 1 rescale
fix             2 water nve
fix             3 water temp/csvr ${TEMP} ${TEMP} 500.0 ${SEED}
fix             3 water temp/csvr 240 ${TEMP} 500.0 ${SEED}
fix             3 water temp/csvr 240 240 500.0 ${SEED}
fix             3 water temp/csvr 240 240 500.0 20760
fix             4 water press/berendsen z ${PRES} ${PRES} 1000.0 modulus 20000
fix             4 water press/berendsen z 1 ${PRES} 1000.0 modulus 20000
fix             4 water press/berendsen z 1 1 1000.0 modulus 20000

# Run 0.5 ns equilibration

dump		    1 all atom 2000 ${DIR}/eq.${NAME}-${TEMP}.dump
dump		    1 all atom 2000 run_17/eq.${NAME}-${TEMP}.dump
dump		    1 all atom 2000 run_17/eq.het_freeze_17-${TEMP}.dump
dump		    1 all atom 2000 run_17/eq.het_freeze_17-240.dump

reset_timestep  0

run	            100000
Neighbor list info ...
  update every 1 steps, delay 0 steps, check yes
  max neighbors/atom: 2000, page size: 100000
  master list distance cutoff = 6.6747184
  ghost atom cutoff = 6.6747184
  binsize = 3.3373592, bins = 15 15 8
  1 neighbor lists, perpetual/occasional/extra = 1 0 0
  (1) pair sw, perpetual
      attributes: full, newton on
      pair build: full/bin/atomonly
      stencil: full/bin/3d
      bin: standard
Per MPI rank memory allocation (min/avg/max) = 4.467 | 4.471 | 4.473 Mbytes
Step Temp Press Volume TotEng KinEng PotEng c_1[4] c_3 
       0    77.007874   -452.08497    57121.581   -12745.801    932.87431   -13678.675            0          240 
      50    78.822092   -833.64008    57160.855   -12730.991    954.85178   -13685.843    0.4941725    245.65413 
     100    76.855935   -116.67227    57136.451    -12767.98    931.03373   -13699.014   0.83851023    239.52647 
     150    76.607539   -476.67853    57100.647   -12750.197    928.02465   -13678.222    1.0912587    238.75233 
     200    75.507489   -815.58204    57082.409   -12756.335    914.69864   -13671.034     1.375895    235.32395 
     250    77.691317    -515.3116     57044.09   -12769.263    941.15355   -13710.416      1.57728       242.13 
     300    74.673854   -459.86951     57093.42   -12785.024    904.59997   -13689.624    1.8144248    232.72588 
     350    76.246187   -538.82176    57119.034   -12762.931    923.64723   -13686.578    1.9886045    237.62615 
     400    78.480518   -606.41854     57164.73   -12724.691    950.71394   -13675.404    2.1631275    244.58959 
     450    76.612147   -494.75384     57172.19   -12728.691    928.08048   -13656.771    2.3347463    238.76669 
     500     77.98769   -917.05844    57136.649   -12733.102    944.74382   -13677.846    2.5279355    243.05366 
     550    74.859659   -437.15057     57169.62   -12752.441    906.85081   -13659.292    2.8113022    233.30495 
     600    78.426901   -619.47614    57159.395   -12736.446    950.06442    -13686.51    3.1073597    244.42249 
     650    74.669186    40.334375    57165.297   -12765.767    904.54342    -13670.31    3.5196983    232.71133 
     700    78.474094   -601.66106    57170.343   -12751.498    950.63612   -13702.134    3.7837094    244.56957 
     750    74.220804   -504.71894    57207.049   -12758.322    899.11171   -13657.434    3.9153149    231.31392 
     800    78.095034   -309.45907    57186.591   -12732.072    946.04418   -13678.116    4.0532415     243.3882 
     850    75.865119   -338.34104    57233.796   -12756.868    919.03096   -13675.899    4.2092291    236.43853 
     900     76.53548   -799.19988    57266.967   -12781.842    927.15173   -13708.994    4.4488537    238.52775 
     950    75.281687   -631.76558    57258.049   -12798.772    911.96326   -13710.736    4.6406784    234.62023 
    1000    73.883613   -927.12304    57223.788   -12785.946    895.02698   -13680.973    4.8330829    230.26304 
    1050    76.549213   -599.09136    57175.574   -12755.612    927.31809    -13682.93    4.9860748    238.57055 
    1100    76.242103   -761.97589    57208.352   -12763.236    923.59776   -13686.833    5.0576195    237.61343 
    1150     77.52722   -312.19763    57294.262   -12759.849    939.16568   -13699.015    5.2479619    241.61858 
    1200    77.396369   -313.53851    57356.294   -12736.364    937.58055   -13673.944    5.4844639    241.21077 
    1250    79.097855    -515.5265    57344.829   -12733.622    958.19237   -13691.814    5.6171202    246.51356 
    1300    73.867871   -618.71698    57381.657   -12752.193    894.83627   -13647.029    5.7591497    230.21398 
    1350    75.943847   -763.42741    57300.284   -12764.001    919.98468   -13683.986    5.9862335    236.68389 
    1400     77.11078    -240.6483    57337.715   -12768.611    934.12092   -13702.731    6.4436939    240.32071 
    1450      76.5735   -590.73549    57371.113   -12763.086     927.6123   -13690.698    6.7069586    238.64624 
    1500    77.620428   -450.43995    57352.656   -12756.485     940.2948    -13696.78    6.8030534    241.90906 
    1550    77.247867   -637.65933    57321.545   -12758.816    935.78159   -13694.597    6.8973466    240.74795 
    1600    75.119267    -532.1269    57299.056   -12782.926     909.9957   -13692.922    6.9705701    234.11403 
    1650    75.180246   -363.33654    57303.844    -12804.49    910.73441   -13715.224    7.0021749    234.30408 
    1700    75.859107   -356.34328    57282.163   -12789.132    918.95814    -13708.09    7.0805016    236.41979 
    1750    76.116745    -574.4123    57277.829   -12764.589    922.07917   -13686.668    7.1396678    237.22274 
    1800    78.803195   -81.559065    57349.193   -12760.311    954.62285   -13714.933      7.30976    245.59523 
    1850    77.857538   -637.41534    57340.323   -12766.938    943.16716   -13710.105    7.4615824    242.64803 
    1900     77.96071    -427.0159    57388.322   -12732.427    944.41698   -13676.844    7.7682103    242.96957 
    1950    76.845599    -737.3449    57473.211   -12774.256    930.90851   -13705.164    7.9926917    239.49426 
    2000    80.786725   -949.87009    57499.468   -12747.843    978.65136   -13726.494    8.1385997    251.77703 
    2050    77.026219   -999.56305    57480.946   -12759.451    933.09655   -13692.548    8.2716039    240.05717 
    2100    77.662648   -270.73523    57447.043   -12754.505    940.80626   -13695.311    8.4440658    242.04065 
    2150    79.008623   -1127.0622    57370.195   -12762.247    957.11141   -13719.359    8.5822522    246.23546 
    2200    74.269755   -708.00516    57298.956   -12813.024    899.70471   -13712.729    8.7956924    231.46648 
    2250    78.559218   -964.81524    57217.696   -12788.889    951.66731   -13740.556    8.9712725    244.83486 
    2300     75.79035   -767.31801    57204.804   -12787.468    918.12522   -13705.593     9.224448    236.20551 
    2350    78.682281   -438.32956    57200.426   -12792.998    953.15809   -13746.156    9.3914965     245.2184 
    2400    77.409175   -591.13595    57248.994   -12824.926    937.73568   -13762.662    9.5756189    241.25068 
    2450     75.95092   -243.47396    57315.194   -12806.269    920.07036    -13726.34    9.6560996    236.70594 
    2500    77.786692   -708.73587    57403.317   -12789.385    942.30892   -13731.694    9.9327124    242.42724 
    2550    76.442558   -843.27228    57430.675   -12777.492    926.02606   -13703.518    10.156693    238.23815 
    2600    77.663013   -556.87485    57430.761   -12772.419    940.81067    -13713.23    10.418142    242.04178 
    2650    76.741095   -895.60445    57422.865   -12775.577    929.64255   -13705.219    10.780541    239.16857 
    2700    77.223256   -632.15267    57464.838   -12780.329    935.48345   -13715.812    11.119961    240.67125 
    2750    74.435767   -910.08107    57451.168   -12813.155    901.71578   -13714.871     11.55349    231.98386 
    2800       74.309   -821.48265    57422.294    -12816.59    900.18012    -13716.77    11.939888    231.58879 
    2850    75.001537   -592.88202    57406.211   -12810.432    908.56952   -13719.001    12.246788    233.74712 
    2900    74.265239   -688.63209    57425.823   -12771.189       899.65   -13670.839    12.407349     231.4524 
    2950    77.352876   -649.92257    57435.267   -12758.342    937.05368   -13695.396    12.639306    241.07522 
    3000    76.002259   -661.59142    57502.865   -12762.523    920.69228   -13683.216    12.942741    236.86594 
    3050    74.230321   -329.87671    57562.808   -12795.926      899.227   -13695.153    13.298922    231.34358 
    3100    74.779537   -768.00027    57597.153   -12786.889    905.88021   -13692.769    13.626141    233.05524 
    3150    74.840035   -470.42781    57607.942   -12789.179    906.61309   -13695.793    13.908886    233.24379 
    3200     75.33775   -468.96891     57629.37   -12795.984    912.64242   -13708.626    14.020578    234.79495 
    3250    77.029996   -703.62129    57617.273     -12804.7     933.1423   -13737.842    13.995797    240.06895 
    3300    74.621397    -428.4484    57533.384   -12826.795     903.9645   -13730.759    14.166292    232.56239 
    3350    71.564587   -422.79617     57555.99   -12864.828    866.93427   -13731.763    14.463077    223.03564 
    3400    75.126242   -699.49271    57576.565   -12822.225     910.0802   -13732.305     14.85006    234.13577 
    3450    74.751447   -539.11558    57565.061   -12818.945    905.53993   -13724.485    15.224344     232.9677 
    3500    77.146143   -787.53329    57564.985   -12820.463    934.54931   -13755.013    15.503855    240.43093 
    3550    76.876283   -398.52941    57598.229   -12813.344    931.28021   -13744.624     15.69043    239.58989 
    3600    75.492274   -775.73939    57609.105   -12808.769    914.51432   -13723.284    15.790266    235.27654 
    3650    75.865214   -277.64919    57616.315   -12803.638    919.03211    -13722.67    15.945275    236.43883 
    3700    76.379021   -132.18925     57661.89   -12821.821    925.25638   -13747.077    16.105399    238.04014 
    3750    77.585465   -711.23543    57637.892   -12843.631    939.87126   -13783.502    16.168994     241.8001 
    3800    76.273303   -392.54678    57684.468   -12824.191    923.97571   -13748.167    16.218273    237.71066 
    3850    77.140362   -734.31007    57708.553   -12806.965    934.47927   -13741.444    16.248399    240.41291 
    3900    72.691983   -434.06057    57751.587   -12837.733    880.59155   -13718.324     16.44139    226.54925 
    3950    75.226599   -642.90689    57772.183   -12864.024    911.29592    -13775.32    16.538976    234.44854 
    4000    75.873896   -561.67852    57742.575   -12850.028    919.13728   -13769.165    16.554777    236.46588 
    4050    76.857921   -584.60596    57763.229   -12820.196    931.05778   -13751.254    16.644547    239.53266 
    4100    77.337774   -579.67492    57775.946   -12814.527    936.87073   -13751.397    16.832075    241.02816 
    4150    75.172041   -467.17169    57762.586   -12813.719    910.63501   -13724.354     17.07737    234.27851 
    4200    74.596911   -807.03878    57786.009   -12828.587    903.66788   -13732.255    17.372248    232.48608 
    4250    75.810567   -735.88201    57773.402   -12820.103    918.37012   -13738.474    17.581237    236.26852 
    4300    77.009797   -500.85367    57827.273   -12807.415     932.8976   -13740.312     17.59399    240.00599 
    4350    78.162603   -558.81727    57797.956   -12767.709    946.86271   -13714.572    17.920104    243.59879 
    4400    79.399829   -702.96438    57793.051   -12739.873    961.85048   -13701.723    18.125596    247.45468 
    4450    81.189379   -737.75257    57784.553    -12728.21    983.52912   -13711.739    18.484206    253.03193 
    4500    75.950416   -578.01603    57820.321   -12760.454    920.06426   -13680.518    18.683038    236.70437 
    4550    78.567065   -328.71819    57846.063   -12772.322    951.76237   -13724.085    18.796007    244.85932 
    4600    74.497029   -457.02089    57817.062   -12823.411    902.45791   -13725.869    19.049375    232.17479 
    4650    75.219208   -1009.2256    57825.539   -12832.516    911.20639   -13743.723    19.174559    234.42551 
    4700      77.5514   -246.29723    57797.866   -12808.394    939.45859   -13747.852    19.314309    241.69393 
    4750    77.012925   -527.50825    57804.334   -12808.629     932.9355   -13741.565    19.375376    240.01574 
    4800    76.002399   -731.63816    57863.091   -12830.597    920.69398   -13751.291    19.555852    236.86637 
    4850    76.110757   -645.62482    57903.781   -12861.058    922.00663   -13783.064    19.635281    237.20408 
    4900    78.958649   -793.77791    57900.151   -12814.082    956.50602   -13770.588    19.820872    246.07971 
    4950    75.459498   -682.61124    57888.278   -12831.029    914.11727   -13745.146    19.851149    235.17439 
    5000     75.66826   -703.27646    57891.818   -12800.105    916.64621   -13716.751    19.953576    235.82501 
    5050    78.258398   -212.59083    57885.333   -12783.249    948.02317   -13731.272    20.257965    243.89734 
    5100    76.859047   -496.64448    57915.729   -12796.304    931.07142   -13727.376    20.405253    239.53617 
    5150    75.918438   -834.10931    57956.577    -12804.77    919.67687   -13724.447    20.472242     236.6047 
    5200    76.670088    -447.5178    57954.555   -12795.443    928.78237   -13724.225    20.700757    238.94727 
    5250    76.891004   -517.63757     57948.68   -12780.623    931.45855   -13712.082    20.937626    239.63577 
    5300    74.508144   -818.61294    57968.579   -12806.097    902.59255   -13708.689    20.923479    232.20943 
    5350    75.314666   -555.53367    57937.191   -12797.371    912.36277   -13709.734    20.976541    234.72301 
    5400     78.25359    -671.7497    57916.737   -12806.506    947.96493   -13754.471      20.9716    243.88235 
    5450    77.507915   -427.46333    57912.197   -12788.151    938.93181   -13727.083    20.872662    241.55841 
    5500    75.267476   -766.26217    57960.713   -12816.643    911.79111   -13728.434    21.195906    234.57594 
    5550    74.422617   -542.09815    57939.588   -12805.822    901.55648   -13707.378    21.422446    231.94288 
    5600    78.240209   -536.89271    57885.834   -12790.144    947.80283   -13737.946    21.448747    243.84065 
    5650    75.827888    -494.5273    57895.986   -12814.484    918.57995   -13733.064     21.27625     236.3225 
    5700    79.885257   -801.13905      57899.2   -12772.111    967.73096   -13739.842    21.409285    248.96755 
    5750    78.715013   -593.10271    57905.037   -12751.809    953.55462   -13705.364    21.566697    245.32041 
    5800    76.067142   -914.12056     57910.59   -12788.235    921.47828   -13709.713    21.532837    237.06815 
    5850    73.557563   -311.39022    57853.082   -12787.713     891.0772   -13678.791    21.210683    229.24688 
    5900    77.721878   -616.27969    57871.141   -12799.721    941.52377   -13741.245    21.347335    242.22524 
    5950    76.563755    -851.8325    57946.264   -12783.585    927.49425   -13711.079     21.67639    238.61587 
    6000    75.216358   -1004.2643    57935.154   -12772.539    911.17186   -13683.711    21.676293    234.41662 
    6050    75.628993    -656.5994    57894.887   -12740.819    916.17054    -13656.99    21.917628    235.70263 
    6100    76.927773   -1285.1423    57833.485   -12753.531    931.90396   -13685.435    21.830009    239.75036 
    6150    78.574363   -559.69986    57781.757     -12727.5    951.85078   -13679.351    21.838059    244.88206 
    6200    76.313803   -647.84797    57779.713     -12723.3    924.46633   -13647.766    22.082037    237.83688 
    6250    78.232929   -516.75739     57831.91   -12732.243    947.71465   -13679.957    22.341004    243.81796 
    6300    77.877222   -590.63466    57827.068   -12768.543     943.4056   -13711.949    22.544811    242.70938 
    6350    75.683683   -755.36777    57822.188   -12780.879    916.83304   -13697.712    22.770755    235.87307 
    6400    74.418292   -438.12899    57841.304   -12796.862    901.50409   -13698.366    22.713422     231.9294 
    6450     79.64236   -600.39623    57804.732     -12769.9    964.78851   -13734.688    22.652921    248.21055 
    6500    77.906534   -879.46931    57768.611   -12767.095     943.7607   -13710.856    22.749823    242.80073 
    6550     79.49247   -301.83343    57823.339   -12772.269    962.97273   -13735.242    22.972827     247.7434 
    6600    77.716137   -602.99566    57839.874    -12816.75    941.45422   -13758.205    23.286467    242.20735 
    6650    76.266122   -361.33434    57888.947   -12808.538    923.88872   -13732.427     23.65991    237.68828 
    6700    75.866077   -338.51758    57870.029    -12805.08    919.04257   -13724.122     23.93451    236.44152 
    6750    74.385118   -605.66853    57882.874   -12830.962    901.10221   -13732.065    24.191151    231.82601 
    6800    75.231616   -798.82912    57904.911   -12854.911     911.3567   -13766.268    23.996033    234.46418 
    6850    74.165224   -250.70725    57900.104   -12857.224    898.43841   -13755.663    24.039021     231.1407 
    6900    74.940533   -838.81289    57873.211   -12810.992    907.83052   -13718.822    24.293177      233.557 
    6950    77.218362   -628.88406    57895.534   -12775.263    935.42417   -13710.688    24.260286      240.656 
    7000    79.176788   -433.39488     57892.42   -12768.113    959.14856   -13727.262    24.382841    246.75956 
    7050    75.749779   -827.09068    57918.664    -12765.73    917.63373   -13683.364    24.419693    236.07906 
    7100    79.933329   -708.89623    57930.174   -12753.684    968.31331   -13721.997     24.47538    249.11737 
    7150    79.098393   -792.88602    57927.622   -12738.665    958.19889   -13696.864    24.897217    246.51524 
    7200    76.731717   -642.62485    57935.646   -12753.778    929.52895   -13683.307     24.94038    239.13934 
    7250    75.798057   -992.33641    57871.483    -12770.09    918.21858   -13688.309    25.297018    236.22953 
    7300    79.759985   -588.00753    57927.254   -12753.618    966.21342   -13719.832    25.382783    248.57713 
    7350    77.847585   -431.55183    57955.793   -12747.918    943.04658   -13690.965    25.567242    242.61701 
    7400    78.562067   -770.51145    57915.345   -12758.144    951.70183   -13709.846    25.862195    244.84374 
    7450    77.102194   -1045.7248      57923.9   -12768.237    934.01691   -13702.254    25.889792    240.29395 
    7500     76.54943   -775.60106    57890.414   -12773.298    927.32072   -13700.618    25.926524    238.57123 
    7550     77.84356   -818.86428    57898.233   -12727.583    942.99783   -13670.581    26.097259    242.60447 
    7600    75.701576     -679.255    57895.642   -12768.142     917.0498   -13685.192    26.434189    235.92884 
    7650    77.676777   -873.42011     57849.82   -12722.781    940.97741   -13663.759    26.726266    242.08468 
    7700    76.872279   -395.28635    57854.623   -12740.815    931.23171   -13672.046    27.037066    239.57741 
    7750    78.546664   -615.56826    57851.914   -12747.014    951.51523   -13698.529    27.236495    244.79574 
    7800    77.460132   -435.77347    57855.234   -12764.232    938.35297   -13702.585    27.386254    241.40949 
    7850    75.404743   -736.50075     57848.72   -12808.862    913.45396   -13722.316    27.798839    235.00374 
    7900    76.651814   -774.06221     57811.28    -12785.72      928.561   -13714.281    27.893869    238.89032 
    7950    76.624423   -750.43591    57800.695   -12787.256    928.22918   -13715.485    27.983617    238.80495 
    8000    76.090779   -601.54429    57754.034   -12777.029    921.76461   -13698.794     28.20438    237.14181 
    8050    76.896598   -376.98041     57786.73   -12776.622    931.52631   -13708.148     28.59937     239.6532 
    8100    76.987508   -981.84318    57839.835    -12775.98    932.62759   -13708.608    28.895648    239.93653 
    8150    77.187643   -879.30866    57777.456   -12764.268    935.05203    -13699.32    29.179318    240.56026 
    8200    77.400915   -915.16891    57717.209   -12781.311    937.63562   -13718.947    29.329023    241.22494 
    8250    77.622938   -534.80848    57749.755   -12785.689    940.32521   -13726.014    29.513847    241.91689 
    8300    78.364258   -551.38533    57688.354   -12775.761    949.30556   -13725.067    29.615698    244.22726 
    8350    78.285541   -445.61471    57712.232   -12758.563    948.35199   -13706.915    29.915656    243.98193 
    8400    75.702654   -634.17229     57761.78   -12766.708    917.06286   -13683.771    30.169809     235.9322 
    8450    77.597252   -766.23755    57727.559   -12732.001    940.01404   -13672.015    30.410866    241.83683 
    8500    77.329018    -986.4406    57683.879    -12712.47    936.76465   -13649.234    30.615035    241.00086 
    8550    78.666481   -573.92033    57654.195   -12716.313     952.9667    -13669.28    30.741947    245.16916 
    8600     80.86333   -473.32343    57696.594   -12686.851    979.57935   -13666.431    30.749367    252.01578 
    8650    77.973217   -449.38514    57756.891   -12717.082    944.56849   -13661.651    30.642575    243.00855 
    8700    77.281469   -454.70344    57881.005   -12730.901    936.18865    -13667.09    30.973443    240.85268 
    8750    75.868776   -540.82874     57897.62   -12772.897    919.07526   -13691.972    31.143207    236.44993 
    8800    75.417466    -621.3421    57832.389    -12763.93    913.60809   -13677.538    31.672358    235.04339 
    8850     77.00315   -659.40242     57804.18   -12775.449    932.81709   -13708.266     31.69361    239.98528 
    8900    73.860217   -485.50472     57759.33    -12775.72    894.74356   -13670.463    31.825082    230.19013 
    8950    75.887874   -684.76246    57763.438   -12755.172    919.30662   -13674.479    31.971284    236.50945 
    9000    76.369261   -1031.1693    57738.487   -12768.818    925.13815   -13693.956    32.119587    238.00972 
    9050     77.58528   -690.10295    57732.988   -12736.023    939.86901   -13675.892    32.294941    241.79952 
    9100    77.486913   -700.16341    57677.627   -12743.053     938.6774    -13681.73    32.647694    241.49296 
    9150     78.71345   -709.90873    57600.188   -12733.003    953.53569   -13686.539    32.812462    245.31554 
    9200    78.672566   -557.37636    57629.596   -12731.631    953.04041   -13684.671    33.076382    245.18812 
    9250    80.660595   -536.35963    57654.448    -12741.75    977.12342   -13718.874    33.507423    251.38394 
    9300    78.917564   -466.80326    57662.704    -12707.98    956.00832   -13663.988    33.913511    245.95167 
    9350    78.813183   -799.69496    57699.926   -12676.782    954.74385   -13631.526    34.396035    245.62636 
    9400    81.733885   -586.26282    57712.704   -12672.548    990.12526   -13662.673    34.622409    254.72892 
    9450    80.088812   -669.75632    57742.628   -12679.495    970.19684   -13649.692    34.883937    249.60194 
    9500    78.261919   -417.51696     57709.95   -12709.301    948.06583   -13657.367    34.983624    243.90831 
    9550    77.940875   -608.03057     57706.91   -12713.044     944.1767    -13657.22    35.565007    242.90776 
    9600    79.595974   -243.12376    57763.749   -12731.857    964.22659   -13696.084     35.99224    248.06598 
    9650     79.05907   -716.18649    57818.029   -12732.554    957.72253   -13690.277    36.201538    246.39269 
    9700    76.162984   -551.12145    57793.548   -12752.752    922.63931   -13675.391    36.637532    237.36685 
    9750    78.499023   -854.34807    57824.663   -12718.023    950.93811   -13668.962    36.904351    244.64726 
    9800    76.544716   -713.94351    57790.965   -12750.524    927.26361   -13677.787    37.032896    238.55654 
    9850    75.871664   -561.11284    57773.391   -12726.109    919.11026    -13645.22    37.272071    236.45893 
    9900    77.307818   -535.76416    57734.372   -12720.987    936.50784   -13657.495    37.565377     240.9348 
    9950    76.692593   -897.99278    57780.121   -12741.838      929.055   -13670.893    37.841038    239.01741 
   10000    75.212443   -946.66943    57738.997   -12726.526    911.12444   -13637.651    37.823503    234.40442 
   10050     76.15452   -421.31368    57706.604   -12709.383    922.53677    -13631.92    38.205848    237.34047 
   10100    79.554256   -768.75264    57705.227   -12690.017    963.72121   -13653.739     38.30705    247.93596 
   10150    77.857677   -826.05879    57698.184   -12691.457    943.16884   -13634.625    38.456041    242.64847 
   10200    78.595786   -712.04541    57678.061   -12687.137    952.11029   -13639.247    38.417428    244.94883 
   10250    78.338153   -1089.8947    57662.197   -12680.083    948.98933   -13629.072    38.223907     244.1459 
   10300    77.913677   -588.95241    57648.831   -12675.643    943.84722    -13619.49    38.385669    242.82299 
   10350    77.928369    -1044.944    57622.186   -12700.405    944.02521    -13644.43     38.37293    242.86878 
   10400    79.249114    -791.0953    57574.021   -12670.339    960.02472   -13630.363    38.434675    246.98497 
   10450    78.792292   -620.51474    57574.854   -12673.581    954.49077   -13628.072    38.401159    245.56125 
   10500    79.611948   -712.37979    57593.286    -12683.21    964.42009    -13647.63     38.54762    248.11576 
   10550    74.368197     -595.882    57595.445   -12685.633    900.89723    -13586.53    39.077901    231.77328 
   10600    77.572689    -563.3213    57586.027   -12698.651    939.71649   -13638.368    39.233001    241.76028 
   10650    78.866169   -234.17652    57560.359   -12706.188    955.38573   -13661.574    38.970807     245.7915 
   10700    80.587571   -818.26251    57546.103   -12705.664     976.2388   -13681.903     39.55917    251.15636 
   10750    78.748552   -883.49177    57519.705   -12708.468     953.9609   -13662.429    39.978683    245.42493 
   10800    77.737516   -555.10186    57477.762   -12717.466    941.71321   -13659.179    40.248031    242.27398 
   10850    76.934847   -514.34348    57444.019   -12714.029    931.98966   -13646.019    40.343733    239.77241 
   10900    77.771227   -668.93802    57420.914   -12740.118    942.12158    -13682.24    40.537066    242.37904 
   10950    75.126572   -237.50067    57453.336   -12762.858     910.0842   -13672.942     40.84241     234.1368 
   11000    78.242563   -509.20964     57433.53   -12741.206    947.83135   -13689.037    41.048031    243.84799 
   11050    77.602466   -324.21784    57452.689   -12752.159    940.07721   -13692.237    41.147695    241.85309 
   11100    75.578496   -750.36058    57448.581   -12776.759    915.55881   -13692.318     41.31018    235.54525 
   11150     75.91548   -422.92822    57407.522   -12763.635    919.64103   -13683.276    41.305556    236.59548 
   11200     76.22522   -673.40343    57415.988   -12758.584    923.39324   -13681.977     41.37781    237.56081 
   11250    78.411916   -227.66131    57405.649   -12745.595    949.88289   -13695.478     41.56997    244.37579 
   11300    76.822364   -344.09204    57426.365   -12705.998    930.62704   -13636.625    41.789314    239.42185 
   11350    81.095134   -128.53221    57441.149   -12701.098    982.38743   -13683.485     41.88496    252.73821 
   11400    76.512353   -496.03616    57459.578   -12746.477    926.87157   -13673.349    41.956487    238.45568 
   11450    77.106231   -473.48194    57525.902   -12736.847    934.06581   -13670.913    41.902638    240.30654 
   11500    74.893707   -375.44189    57532.561   -12752.445    907.26327   -13659.709    42.202753    233.41106 
   11550    73.976418   -243.18933    57559.448   -12764.598    896.15122   -13660.749    42.341988    230.55227 
   11600     75.03247   -800.72481    57608.027   -12767.487    908.94424   -13676.431    42.578513    233.84353 
   11650    77.213456   -301.79723    57600.045   -12756.466    935.36474   -13691.831    42.936002    240.64071 
   11700    77.231582   -772.23549    57598.382   -12770.725    935.58431    -13706.31    42.901218     240.6972 
   11750    75.164489   -285.69138    57603.684   -12771.517    910.54353   -13682.061    42.891095    234.25497 
   11800    76.874649   -971.37744    57548.847   -12748.431    931.26042   -13679.692    43.368283    239.58479 
   11850    77.766816   -1163.6703    57477.631   -12740.891    942.06815   -13682.959    43.572202    242.36529 
   11900    79.348905   -1102.4619    57420.513   -12742.818    961.23359   -13704.051    43.806789    247.29597 
   11950    75.407118   -927.42807    57366.778   -12777.033    913.48274   -13690.516    44.082915    235.01114 
   12000    76.183053    -562.9961    57307.064   -12784.715    922.88242   -13707.598    44.261417    237.42939 
   12050    75.443795   -202.79589    57351.063   -12794.946    913.92704   -13708.873    44.069214    235.12545 
   12100    75.731014   -687.14689    57352.065   -12800.163    917.40642    -13717.57    44.665226    236.02058 
   12150    76.822965   -729.46029    57388.228   -12782.602    930.63433   -13713.236    44.659493    239.42372 
   12200    78.747038   -869.16517    57351.399   -12753.194    953.94257   -13707.136    44.981066    245.42022 
   12250    74.086047   -415.55463    57304.223   -12771.327    897.47927   -13668.806    45.155956    230.89394 
   12300    75.548205   -714.46354     57338.53   -12773.431    915.19186   -13688.623    45.398702    235.45085 
   12350    77.861749   -469.10304    57370.611   -12744.972    943.21816    -13688.19    45.611318    242.66116 
   12400    78.608593   -225.52048    57457.024   -12733.566    952.26545   -13685.831    45.585633    244.98875 
   12450    77.467605   -41.125449    57532.066   -12739.413     938.4435   -13677.856    45.641561    241.43278 
   12500    73.834547   -690.05218    57559.266   -12772.278    894.43259   -13666.711     46.02623    230.11012 
   12550    79.662323    -660.8017    57524.329   -12757.301    965.03034   -13722.331    46.110021    248.27276 
   12600    75.166786   -632.48767    57550.131   -12781.708    910.57135   -13692.279     46.43412    234.26213 
   12650    75.724041   -526.18133     57561.83   -12750.318    917.32194    -13667.64    46.647935    235.99885 
   12700    75.864566   -392.17063     57533.19   -12749.742    919.02426   -13668.766    46.893701    236.43681 
   12750     77.28738   -487.47971    57524.538   -12736.844    936.26026   -13673.105     47.16691     240.8711 
   12800    79.531122    -137.8957    57579.579   -12744.713    963.44097   -13708.154    47.370912    247.86387 
   12850    77.938712   -389.89393    57589.746    -12740.63    944.15049   -13684.781    47.858872    242.90102 
   12900    77.741335   -713.27682    57618.074   -12723.706    941.75947   -13665.465    47.648241    242.28588 
   12950    75.461193   -318.96208    57612.354   -12774.311    914.13781   -13688.449    47.737194    235.17967 
   13000    76.387268   -692.51866    57614.708    -12759.27    925.35629   -13684.626    47.980162    238.06584 
   13050    79.470991   -591.99717    57576.217   -12735.914    962.71254   -13698.626    48.327054    247.67646 
   13100    78.112421   -515.28298    57554.892   -12749.063     946.2548   -13695.318    48.775328    243.44239 
   13150    75.550925   -593.98465     57559.06   -12746.401    915.22481   -13661.626    49.164611    235.45932 
   13200    77.503519   -777.57081    57507.358   -12750.521    938.87856     -13689.4    49.287181    241.54471 
   13250    77.707085   -503.06182    57496.745   -12746.442    941.34456   -13687.787    49.829075    242.17914 
   13300    74.262349   -729.50042    57487.999   -12790.046    899.61499   -13689.661    50.094764    231.44339 
   13350    75.239222   -608.51447    57514.836   -12807.919    911.44884   -13719.367     49.82714    234.48788 
   13400    74.499431   -471.72943    57496.527   -12793.158      902.487   -13695.645    50.181075    232.18227 
   13450    76.796226   -360.28958    57461.795   -12748.141    930.31041   -13678.452    50.572302    239.34039 
   13500     75.47761    -742.3728    57460.052   -12765.586    914.33667   -13679.922    50.686873    235.23083 
   13550    79.144286   -762.77321     57435.47   -12758.532    958.75484   -13717.287    50.516087    246.65827 
   13600    76.828215   -637.42837    57506.664   -12770.485    930.69793   -13701.183    50.512077    239.44008 
   13650     78.74184   -803.93152    57578.836   -12747.708    953.87959   -13701.588    50.566486    245.40402 
   13700    77.166486   -585.83041    57612.515   -12727.515    934.79574    -13662.31    50.810918    240.49432 
   13750    78.473473   -531.58196    57581.085   -12720.299     950.6286   -13670.928    50.735187    244.56763 
   13800     75.77802    -634.4826    57589.696   -12737.711    917.97585   -13655.687    51.052436    236.16708 
   13850    75.863957   -375.40683     57659.57   -12775.076    919.01689   -13694.093    51.382983    236.43491 
   13900    74.716599   -255.36802    57694.858   -12793.497    905.11779   -13698.614    51.603114     232.8591 
   13950    76.055908   -699.35858    57743.911   -12753.414    921.34219   -13674.756    51.778079    237.03314 
   14000     78.88043   -562.50811    57734.592   -12727.541    955.55847   -13683.099    51.960973    245.83594 
   14050    77.863009   -473.37208    57714.904   -12729.898    943.23342   -13673.131    52.077526    242.66508 
   14100    76.754169   -749.00251    57734.337   -12754.477    929.80092   -13684.278    52.114594    239.20931 
   14150    76.013451   -933.62319    57725.406   -12738.237    920.82786   -13659.064    52.247046    236.90082 
   14200    75.373681   -661.73678    57701.345   -12763.332    913.07768   -13676.409    52.273203    234.90693 
   14250    74.904587    -459.9573    57741.069   -12798.969    907.39508   -13706.364    52.291661    233.44497 
   14300    75.397192   -501.48886    57765.547   -12808.841    913.36249   -13722.204    52.170897    234.98021 
   14350    77.751033   -805.17258    57757.941   -12772.996    941.87695   -13714.873    52.602013     242.3161 
   14400    77.775997   -549.74798    57756.772   -12743.314    942.17936   -13685.494    52.824921     242.3939 
   14450    77.829369   -298.39369    57824.891    -12744.02    942.82591   -13686.846    53.308231    242.56024 
   14500    80.024068   -611.45853    57867.459   -12733.004    969.41253   -13702.417     53.42684    249.40016 
   14550     78.90069   -589.57118    57827.603   -12735.486    955.80391    -13691.29    53.494796    245.89908 
   14600    75.145327   -423.46884    57806.612   -12746.916     910.3114   -13657.228    53.762006    234.19525 
   14650    77.190861   -689.70775    57808.707   -12751.735    935.09102   -13686.826    53.913801    240.57029 
   14700    75.938375   -466.90634    57836.711   -12769.467    919.91839   -13689.386    54.291366    236.66684 
   14750    78.724951   -904.68891     57884.25   -12784.132    953.67501   -13737.807    54.019819    245.35138 
   14800    78.243669   -292.01866    57919.774    -12767.97    947.84474   -13715.814     54.18558    243.85143 
   14850    74.848675   -573.76658    57974.525   -12802.462    906.71775   -13709.179    54.399926    233.27072 
   14900    74.841426   -691.58316    58007.241   -12827.779    906.62994   -13734.409    54.505774    233.24813 
   14950    74.305679   -473.53872    58013.775   -12760.755    900.13989   -13660.895    54.674535    231.57844 
   15000    78.857197   -955.62187    58007.661   -12739.871    955.27703   -13695.148    55.000362    245.76353 
   15050    78.028936   -503.33193    57964.892   -12732.922    945.24348   -13678.166     55.09961    243.18221 
   15100    78.492138   -841.15352     57893.83   -12735.818    950.85471   -13686.673    55.131944     244.6258 
   15150    78.608215   -307.98516    57832.245   -12734.053    952.26086   -13686.313    55.523657    244.98756 
   15200     79.23629     -1052.13    57784.272   -12739.547    959.86937   -13699.417      55.9409      246.945 
   15250    75.363814     -386.207    57780.837   -12788.381    912.95815   -13701.339    55.828865    234.87618 
   15300    77.710657   -218.74988    57765.521   -12784.997    941.38783   -13726.385    56.421341    242.19027 
   15350    78.637823   -351.55356    57737.206   -12797.313    952.61954   -13749.932    56.521753    245.07984 
   15400     78.58389   -263.83673    57701.618   -12834.016    951.96618   -13785.982    56.476967    244.91175 
   15450    76.779284    35.361096    57691.251   -12823.224    930.10517   -13753.329    56.736088    239.28758 
   15500    75.726609   -340.18762    57678.964   -12846.514    917.35306   -13763.867    56.857941    236.00686 
   15550    77.911908   -583.60714    57657.352   -12848.716    943.82579   -13792.542    56.850299    242.81748 
   15600     76.61672   -631.30786    57671.439   -12857.624    928.13587    -13785.76     57.21928    238.78094 
   15650    77.119672   -1067.8019    57641.135   -12838.642    934.22864   -13772.871    57.307355    240.34843 
   15700     76.17015   -345.16029    57653.094   -12845.808    922.72611   -13768.534     57.35068    237.38918 
   15750    77.288745   -394.69092    57685.862   -12813.197    936.27679   -13749.473    57.771243    240.87535 
   15800    78.861766   -312.34762    57740.495   -12801.518    955.33238   -13756.851    57.852664    245.77777 
   15850    77.346788   -646.90366    57740.554   -12801.291    936.97992   -13738.271    57.982786    241.05625 
   15900    76.635596   -901.35397    57736.571   -12783.514    928.36453   -13711.878    57.964786    238.83977 
   15950    76.084491   -759.13338    57692.766   -12786.879    921.68844   -13708.568    58.134556    237.12222 
   16000    76.971981   -412.97943    57692.483   -12792.733     932.4395   -13725.172    58.324366    239.88814 
   16050    78.767211   -680.74404    57651.179   -12805.778    954.18694   -13759.965    58.226827    245.48309 
   16100    77.368067    -399.9182    57633.873   -12798.617     937.2377   -13735.854    58.585005    241.12257 
   16150    76.188068   -619.23778    57644.074   -12815.704    922.94317   -13738.647    58.474352    237.44502 
   16200    75.114224   -441.30448    57597.399   -12806.333    909.93462   -13716.268    58.673776    234.09832 
   16250    77.404658   -706.72026    57610.543    -12806.46    937.68095   -13744.141    58.826658     241.2366 
   16300    75.965854   -564.18909    57608.922   -12820.368    920.25127   -13740.619    59.355587    236.75248 
   16350    76.667537   -843.30798     57581.23   -12823.766    928.75147   -13752.517    59.672995    238.93932 
   16400    76.432412   -645.45449    57623.568   -12842.122    925.90315   -13768.025    59.850345    238.20653 
   16450    77.550831    -673.1355    57611.327   -12791.827     939.4517   -13731.279    60.250685    241.69216 
   16500    77.656402   -940.58913    57611.386   -12749.166    940.73059   -13689.897     60.45516    242.02118 
   16550    79.677624   -328.03259    57612.882   -12765.567     965.2157   -13730.783    60.351938    248.32045 
   16600    77.972866   -755.91187    57693.079   -12774.005    944.56423   -13718.569    60.370481    243.00746 
   16650    77.041929   -444.82275     57695.47   -12774.613    933.28686   -13707.899    60.566591    240.10613 
   16700    75.126152   -678.33483    57729.705   -12801.606     910.0791   -13711.686    61.111541    234.13549 
   16750    77.087518   -596.90722      57718.6   -12805.703    933.83912   -13739.542    61.330118    240.24822 
   16800    75.033697   -1048.7328    57741.273   -12828.975    908.95911   -13737.935    61.734262    233.84735 
   16850    75.586311   -937.73899    57691.735   -12823.345    915.65348   -13738.998    61.902628    235.56961 
   16900    76.761451   -709.40258    57752.044   -12816.501    929.88914   -13746.391    62.167308    239.23201 
   16950    77.192785   -125.68809    57768.786   -12810.834    935.11433   -13745.948     62.66678    240.57629 
   17000     74.25198   -94.173019    57818.451   -12806.524    899.48938   -13706.014    62.867292    231.41108 
   17050    74.922683   -595.97996    57869.594   -12788.509    907.61429   -13696.123    63.010926    233.50137 
   17100    78.206881   -762.47499    57865.573    -12788.58     947.3991   -13735.979    63.258229    243.73678 
   17150    77.742686   -837.05298    57861.279   -12793.683    941.77583   -13735.459    63.767482    242.29009 
   17200    77.761443   -462.69345     57845.52   -12807.964    942.00306   -13749.967    63.972353    242.34855 
   17250    77.215657   -506.81967    57874.595   -12804.635     935.3914   -13740.026      64.3779    240.64757 
   17300    77.473823    -579.6197     57942.65   -12802.718    938.51883   -13741.237    64.389935    241.45216 
   17350    79.596671   -1086.0516     57941.84   -12805.939    964.23503   -13770.174    64.458032    248.06815 
   17400     73.16783   -543.09965     57931.29   -12829.101    886.35597   -13715.457    65.005668    228.03226 
   17450    74.605896   -944.55352    57972.738   -12832.802    903.77673   -13736.579    65.432928    232.51408 
   17500    77.544571    -390.7187    57949.082   -12786.854    939.37586   -13726.229    65.309462    241.67265 
   17550    76.268172   -549.40022    57921.408   -12777.065    923.91355   -13700.978    64.965795    237.69467 
   17600    77.276122   -481.40708    57985.736   -12781.072    936.12387   -13717.195     64.90317    240.83601 
   17650    78.529337   -680.06021    58033.752   -12786.476    951.30533   -13737.781    65.247359    244.74174 
   17700    76.215189   -731.44257    58029.109   -12811.634    923.27172   -13734.906    65.927947    237.52955 
   17750    76.369397    -875.2423    58053.974   -12806.868    925.13979   -13732.008    66.218053    238.01014 
   17800    75.695044   -531.03099    58022.553   -12807.092    916.97067   -13724.063    66.211954    235.90848 
   17850    76.729231   -269.77994    58051.366   -12775.562    929.49883   -13705.061    66.401141    239.13159 
   17900    77.146229   -720.61355    58064.173   -12768.104    934.55034   -13702.654     66.82599    240.43119 
   17950    78.045384   -908.80631    58079.781   -12777.718    945.44272   -13723.161    67.251816    243.23347 
   18000    76.656194   -883.16832    58053.284   -12781.776    928.61405    -13710.39     67.29187    238.90397 
   18050    77.306094   -1067.0108    57987.279    -12811.37    936.48696   -13747.857    67.158219    240.92942 
   18100    76.372739   -715.30222    57980.721   -12822.822    925.18028   -13748.002      67.4499    238.02056 
   18150    75.311023   -662.10384    57927.756   -12836.669    912.31864   -13748.988    67.628966    234.71165 
   18200    75.989928   -812.10544    57917.498     -12835.1     920.5429   -13755.643    67.684343     236.8275 
   18250    77.054691   -443.51025    57872.126   -12826.832    933.44146   -13760.274    67.972141    240.14591 
   18300    79.407555   -603.49846    57928.629   -12815.865    961.94408   -13777.809    68.406697    247.47876 
   18350     76.27012   -566.94441    57974.316   -12819.809    923.93715   -13743.746    68.622154    237.70074 
   18400    75.018371    -173.0978    57975.785   -12834.299    908.77345   -13743.072    68.700419    233.79959 
   18450    76.795818   -507.91343    58039.159   -12820.242    930.30547   -13750.547     68.89476    239.33911 
   18500    75.487829   -824.04585    58000.776   -12800.225    914.46047   -13714.685    68.673649    235.26268 
   18550    76.413123    -815.2556     57968.21   -12807.817     925.6695   -13733.487    68.818916    238.14642 
   18600    76.217748   -830.20556    57963.871   -12812.886    923.30272   -13736.188    68.603582    237.53752 
   18650    77.496052   -819.65971    57952.628   -12780.484    938.78811   -13719.272    68.510918    241.52144 
   18700    78.217931   -676.36765    57954.702   -12811.769    947.53296   -13759.302    68.553044    243.77122 
   18750    76.280641   -931.86223    57960.349   -12781.925    924.06461   -13705.989    69.025703    237.73353 
   18800    76.730169    -826.9739    58008.168   -12782.652    929.51019   -13712.162    68.671527    239.13451 
   18850      74.5634   -714.74243    57987.221    -12803.39    903.26193   -13706.652    68.927346    232.38164 
   18900    77.595716   -642.65782    57914.301   -12799.501    939.99544   -13739.497    68.922934    241.83205 
   18950    76.685737   -416.12638     57918.03   -12808.092    928.97194   -13737.064    68.935913    238.99604 
   19000    76.505453   -903.05039    57932.095   -12801.952    926.78797    -13728.74    69.051359    238.43417 
   19050    76.839427   -749.41487    57937.792   -12792.041    930.83374   -13722.874    69.485764    239.47502 
   19100    77.422603   -831.17133    57924.033   -12800.705    937.89835   -13738.604    69.711869    241.29253 
   19150    75.265313    -710.0999    57937.302   -12845.251    911.76491   -13757.016    69.765148     234.5692 
   19200    77.668341   -626.45879    57943.004   -12790.518    940.87522   -13731.394    70.290844    242.05839 
   19250    78.803392   -806.61844    57970.405   -12791.956    954.62523   -13746.582    70.751149    245.59585 
   19300    78.941028   -1010.4331    57956.089   -12754.181    956.29256   -13710.473    70.996363     246.0248 
   19350     77.38617   -555.38296     57941.64   -12779.655      937.457   -13717.112    71.236251    241.17899 
   19400    80.151944   -464.14145    57901.045   -12790.015    970.96162   -13760.977    70.981492     249.7987 
   19450    76.567748   -801.61336    57856.421   -12807.371    927.54262   -13734.914    71.032869    238.62832 
   19500    75.168184    -614.7933    57825.219    -12821.96    910.58828   -13732.548    71.060648    234.26649 
   19550    74.635083   -294.57903    57817.439   -12821.884     904.1303   -13726.014    70.858482    232.60504 
   19600    73.474877   -580.20776    57819.682   -12821.827    890.07555   -13711.903     70.83567    228.98919 
   19650    76.222069   -630.16586    57769.185   -12795.455    923.35507    -13718.81    70.942302    237.55099 
   19700    76.655835   -449.62688    57740.491   -12810.883    928.60971   -13739.493    70.930639    238.90285 
   19750    77.825524   -99.639755    57798.199   -12803.606    942.77934   -13746.386    71.275894    242.54826 
   19800    79.093647   -607.94637    57750.185   -12800.433     958.1414   -13758.575    71.498294    246.50045 
   19850    77.669298   -356.17546    57750.246   -12803.908    940.88681   -13744.795    71.667682    242.06137 
   19900    74.665082   -533.75751    57738.343   -12820.397     904.4937   -13724.891     72.23135    232.69854 
   19950    77.217283   -449.48207    57745.859    -12806.64    935.41109   -13742.051    72.545454    240.65264 
   20000    78.938106   -149.32936    57757.987   -12753.671    956.25716   -13709.928    72.751357    246.01569 
   20050    79.747796   -800.47568    57802.637   -12745.912    966.06576   -13711.978     72.93504    248.53914 
   20100    78.208086   -779.24633    57792.712    -12739.31     947.4137   -13686.723     73.19417    243.74054 
   20150    77.191052   -318.05211    57796.891   -12759.471    935.09334   -13694.564    73.302337    240.57089 
   20200    77.528554   -311.32367    57819.184   -12773.073    939.18183   -13712.254     73.46289    241.62273 
   20250    76.283157   -386.99878    57868.814    -12763.66    924.09508   -13687.755    73.498739    237.74137 
   20300    81.520019   -180.85133    57878.548   -12759.268    987.53449   -13746.802    74.191547    254.06239 
   20350    78.123359   -635.33684    57892.647   -12766.942    946.38732    -13713.33    74.413929    243.47648 
   20400    76.829354   -718.80697    57855.143   -12766.741    930.71171   -13697.453    74.408553    239.44363 
   20450    76.021873   -619.75393    57816.504   -12783.628    920.92989   -13704.558    74.297167    236.92707 
   20500    79.138428   -978.16223    57804.825   -12771.725    958.68387   -13730.409    74.664812    246.64001 
   20550    78.822008    -474.7945    57802.803   -12776.836    954.85075   -13731.686    74.880737    245.65386 
   20600    80.023433    -469.3607    57821.591   -12746.448    969.40483   -13715.853     74.99614    249.39818 
   20650    77.569912   -751.58081    57829.946   -12773.559    939.68285   -13713.242    74.970209    241.75163 
   20700    78.094184   -692.80469    57837.836   -12758.467    946.03388   -13704.501    75.079037    243.38555 
   20750    79.312126   -662.79408    57882.182   -12763.704    960.78805   -13724.492    75.417134    247.18135 
   20800    77.056473    -246.2292    57877.544   -12758.285    933.46304   -13691.748    75.688756    240.15146 
   20850    77.815787   -689.42251    57909.177   -12793.001    942.66139   -13735.663    76.295384    242.51791 
   20900    76.819537   -572.51649    57941.973   -12800.918    930.59279   -13731.511    76.597029    239.41303 
   20950    77.165035   -415.28604    57957.064   -12808.973    934.77816   -13743.751    76.792238     240.4898 
   21000    75.638475   -667.23983     57942.57    -12821.03     916.2854   -13737.316    77.104931    235.73218 
   21050    77.446046   -880.38871    57858.196    -12835.29    938.18234   -13773.472    77.441213    241.36559 
   21100    75.309385   -425.46791    57825.522   -12838.378     912.2988   -13750.677     77.77248    234.70655 
   21150    77.155563   -799.59296    57724.651   -12845.403    934.66342   -13780.067    77.866307    240.46028 
   21200    74.713736   -519.20325    57682.747     -12855.1    905.08309   -13760.183    77.962552    232.85017 
   21250    76.165155    -660.2569    57658.924   -12872.736     922.6656   -13795.402    78.271372    237.37361 
   21300    74.154488   -335.41134    57631.127   -12889.294    898.30836   -13787.603    78.003132    231.10724 
   21350     75.23644   -438.26633    57620.836   -12924.865    911.41514   -13836.281    77.954421    234.47921 
   21400    74.601424    -637.4644    57660.167   -12897.265    903.72255   -13800.988    78.194206    232.50014 
   21450    75.621173   -318.10976    57583.635   -12905.459     916.0758   -13821.535    78.406391    235.67826 
   21500    75.819352   -615.02657    57598.852   -12912.209    918.47655   -13830.685    78.927535     236.2959 
   21550    73.866381   -642.63879    57647.687   -12886.569    894.81823   -13781.387    78.804958    230.20934 
   21600    74.640129   -811.35688    57643.876   -12894.096    904.19143   -13798.287    78.774841    232.62077 
   21650    73.278858     -838.817    57626.557   -12837.464    887.70097   -13725.165    78.875701    228.37828 
   21700    76.543505   -187.74327    57597.578   -12844.964    927.24895   -13772.213    79.290608    238.55277 
   21750    75.614855   -538.91437    57663.375   -12826.825    915.99927   -13742.824    79.823944    235.65857 
   21800    76.409499   -449.52579    57718.999   -12813.277     925.6256   -13738.902    79.784659    238.13513 
   21850    74.539983   -676.08465    57743.003   -12808.034    902.97825   -13711.012    80.084547    232.30866 
   21900    76.181346   -793.49617    57745.776   -12821.986    922.86175   -13744.848    80.463305    237.42407 
   21950     75.36877   -519.17202    57717.478   -12803.066    913.01819   -13716.085     81.01422    234.89163 
   22000    80.832595   -425.83621    57707.128   -12794.815    979.20703   -13774.022    80.841648    251.91999 
   22050    79.178813   -546.05855    57718.911   -12784.341    959.17309   -13743.514    80.977315    246.76587 
   22100    78.901646   -913.63048    57758.839   -12804.936    955.81549   -13760.752    81.312535    245.90206 
   22150    76.283201   -625.03447    57737.712   -12787.207    924.09561   -13711.303    81.516959    237.74151 
   22200    76.221398   -833.32488    57703.741   -12788.555    923.34693   -13711.902    81.912198     237.5489 
   22250    78.718842   -714.63593    57681.109   -12779.063      953.601   -13732.664     81.55949    245.33234 
   22300    75.887095   -907.42949    57663.043   -12788.447    919.29719   -13707.744    81.359863    236.50702 
   22350    75.596104   -637.93522    57632.756   -12822.956    915.77212   -13738.728    81.484266    235.60013 
   22400    76.956704   -669.28958    57581.013   -12792.916    932.25443    -13725.17    81.459726    239.84052 
   22450    75.629189   -736.10259    57593.224    -12798.97    916.17291   -13715.142    81.703517    235.70324 
   22500    75.562505    -164.9274    57594.841   -12809.245    915.36509    -13724.61    81.983274    235.49541 
   22550    77.777665   -507.11977    57645.493   -12809.732    942.19957   -13751.931     82.49443     242.3991 
   22600    78.063389   -289.11111    57695.212   -12819.323    945.66083   -13764.983    82.676313    243.28958 
   22650    74.771855   -777.59653    57708.233   -12801.785    905.78715   -13707.572    83.103678     233.0313 
   22700    76.814661   -479.00642     57723.09   -12800.776    930.53373    -13731.31    83.570423    239.39784 
   22750    77.689916   -659.95709    57756.458   -12763.891    941.13658   -13705.028    83.390832    242.12563 
   22800    76.272379   -429.65921    57791.255   -12775.453    923.96451   -13699.418    83.501933    237.70778 
   22850    77.184631   -686.71937     57757.66    -12779.33    935.01555   -13714.346    83.693007    240.55087 
   22900    80.402664   -231.80635     57795.63   -12749.429    973.99885   -13723.428    84.005363    250.58008 
   22950    78.647755   -769.53147    57799.996   -12785.164    952.73985   -13737.903    84.076757     245.1108 
   23000    76.285283   -573.37102    57823.554   -12798.638    924.12084   -13722.759      84.4709      237.748 
   23050    76.548358   -334.94254    57815.225    -12830.59    927.30773   -13757.898    85.414866    238.56789 
   23100    78.244259   -236.44506    57858.259   -12822.085    947.85189   -13769.937    85.876656    243.85327 
   23150    75.127256   -900.02689    57853.522   -12851.448    910.09248    -13761.54    86.113255    234.13893 
   23200    76.125154   -971.08105    57843.449   -12854.707    922.18103   -13776.888    85.872637    237.24895 
   23250    77.009585   -816.32777    57811.954   -12803.748    932.89504   -13736.643    86.034145    240.00533 
   23300    76.506562   -665.54286    57851.401    -12792.81    926.80142   -13719.611    86.043081    238.43763 
   23350    79.029931   -879.91212    57896.129   -12739.255    957.36953   -13696.625    86.223729    246.30187 
   23400    77.608165   -891.52847    57855.734   -12786.338    940.14624   -13726.484    85.453381    241.87084 
   23450    77.197101   -769.40281    57851.965   -12773.075    935.16662   -13708.242    85.827963    240.58974 
   23500    78.214253   -775.94521    57776.118   -12755.203     947.4884   -13702.691    85.740925    243.75976 
   23550    82.465766   -866.46014    57753.034   -12760.349    998.99128   -13759.341    85.898842    257.00987 
   23600    76.811038   -791.65781    57745.599   -12781.437    930.48983   -13711.927    86.110614    239.38655 
   23650    78.246898   -535.91715    57746.453   -12771.248    947.88387   -13719.132    86.497347     243.8615 
   23700     78.33461   -281.13707    57786.021   -12728.401    948.94641   -13677.347      86.8218    244.13486 
   23750    79.214936   -785.61664     57837.35   -12745.281    959.61069   -13704.891    86.803054    246.87845 
   23800    80.451326   -453.20044    57880.511   -12762.174    974.58834   -13736.762    87.303544    250.73174 
   23850    76.649435   -789.66184    57888.395   -12784.897    928.53218   -13713.429    87.393039     238.8829 
   23900    80.169913   -281.18071     57902.24    -12782.69    971.17929   -13753.869    87.249148     249.8547 
   23950    77.726677   -167.99404    57903.463   -12789.947     941.5819   -13731.529    87.303012     242.2402 
   24000    76.970928   -515.96093    57943.774   -12791.535    932.42675   -13723.961    88.055465    239.88486 
   24050    77.895622   -455.65156    57976.911   -12809.388     943.6285   -13753.016    88.496265    242.76672 
   24100    77.725694   -737.66198    57985.489   -12788.754    941.56999   -13730.324    88.316112    242.23713 
   24150     78.25008   -682.05523    57999.649   -12794.919    947.92241   -13742.841    88.571085    243.87141 
   24200    76.389898   -921.63834    58007.321   -12794.886    925.38814   -13720.274    88.950862    238.07404 
   24250    78.107897   -445.62093    57992.261   -12753.998        946.2   -13700.198    89.183385    243.42829 
   24300    79.187956   -500.05615    57997.139   -12769.535    959.28385   -13728.819    88.755676    246.79436 
   24350    79.280008   -752.04102     58048.66   -12767.514    960.39897   -13727.913    89.178144    247.08125 
   24400    79.847263   -165.80422    57981.753   -12772.796     967.2707   -13740.067    88.999279    248.84914 
   24450    80.928696   -426.51461    57980.949   -12753.624     980.3712   -13733.996    89.285388     252.2195 
   24500    75.810785   -133.27169      58025.5   -12787.124    918.37276   -13705.497    89.668024    236.26919 
   24550    78.607618   -382.43896    58081.671   -12777.548    952.25363   -13729.802    90.241159    244.98571 
   24600    78.817457   -579.20594    58079.031   -12796.508    954.79563   -13751.303    90.395782    245.63968 
   24650    78.057991   -508.21247     58086.71   -12763.931    945.59544   -13709.526    90.362992    243.27276 
   24700    75.942311   -415.38131     58031.69   -12789.488    919.96607   -13709.454    90.302359    236.67911 
   24750    77.544302   -593.46832    58078.324   -12742.012    939.37261   -13681.385    90.369119    241.67181 
   24800     79.58964   -476.87064    58059.169   -12752.661    964.14986   -13716.811    90.827438    248.04624 
   24850    76.649241   -505.79252    58055.975   -12770.088    928.52983   -13698.618    90.593828     238.8823 
   24900     80.07165   -268.51041    58052.794   -12757.469    969.98894   -13727.458    90.499044    249.54846 
   24950    78.110425   -754.20053    58107.158   -12781.055    946.23063   -13727.286    90.303007    243.43617 
   25000    76.971768   -531.74148    58140.515   -12756.628    932.43693   -13689.065     90.58458    239.88747 
   25050    76.553769    -675.8252    58116.723   -12772.508    927.37327   -13699.881    90.528025    238.58475 
   25100    77.021143   -310.26521    58055.647   -12798.204    933.03506   -13731.239    90.200546    240.04135 
   25150    76.068686   -531.01131      58040.9   -12798.347    921.49698   -13719.844    90.406014    237.07296 
   25200    77.481989   -539.17344    58015.443    -12775.71    938.61775   -13714.328    90.696983    241.47761 
   25250    76.190107   -780.89459    58003.035   -12774.197    922.96787   -13697.164    91.051787    237.45137 
   25300    76.726747   -134.00712    58028.279   -12747.962    929.46874    -13677.43    91.182086    239.12385 
   25350    76.544258   -554.28847    58030.128    -12764.05    927.25806   -13691.308     91.16924    238.55511 
   25400    77.346659   -705.19665    57976.231   -12784.026    936.97836   -13721.004    91.633098    241.05584 
   25450    74.988278   -1034.1685    57928.669   -12822.202    908.40891   -13730.611    91.946245     233.7058 
   25500    78.119899   -777.09108    57906.472   -12777.995     946.3454    -13724.34    92.209541     243.4657 
   25550    77.568245     -518.105    57876.422   -12779.413    939.66266   -13719.075    92.168996    241.74643 
   25600    77.692493   -382.11046    57884.913   -12803.652     941.1678    -13744.82     92.90418    242.13366 
   25650    75.873785   -922.19057    57923.992   -12795.318    919.13595   -13714.454    92.887909    236.46554 
   25700     80.19218   -661.45496    57901.206   -12791.353    971.44903   -13762.802    93.369439    249.92409 
   25750    76.887916   -599.43482    57981.489   -12806.671    931.42114   -13738.092    94.147744    239.62614 
   25800    75.864702   -518.27377    58005.797   -12815.475    919.02592   -13734.501    94.738526    236.43723 
   25850    73.874771   -489.70657    58005.793   -12833.928    894.91987   -13728.848    95.074833    230.23548 
   25900    76.919571   -501.31943    58045.828   -12791.375    931.80461    -13723.18    95.078537     239.7248 
   25950    75.023412   -505.75702     58021.72    -12817.39    908.83452   -13726.224    94.817314     233.8153 
   26000    76.111442   -448.29763    57965.556   -12824.895    922.01493    -13746.91    94.822713    237.20621 
   26050    74.230267   -718.41888    57980.251   -12813.725    899.22634   -13712.951    95.045373    231.34341 
   26100    77.121909    -646.1097    57993.705   -12806.307    934.25574   -13740.563    94.976738     240.3554 
   26150      78.2358   -828.20811    58025.398     -12807.1    947.74942    -13754.85    95.328099    243.82691 
   26200    76.565499   -791.18131    58016.211   -12795.875    927.51538    -13723.39    95.432726    238.62131 
   26250    77.099856   -489.97112    57996.603    -12816.59    933.98859   -13750.579    95.515667    240.28667 
   26300    76.583361   -901.51885    57959.466   -12805.265    927.73175   -13732.997    95.772141    238.67698 
   26350    76.810109   -455.69705    57984.371   -12786.166    930.47858   -13716.644    95.975816    239.38365 
   26400    77.846803   -419.82477    57993.829   -12800.967    943.03711   -13744.004    96.001755    242.61458 
   26450    79.482862   -384.13156    58098.114   -12778.557    962.85634   -13741.414    95.991346    247.71346 
   26500    78.726653   -370.29127    58138.503   -12787.397    953.69562   -13741.093     96.60741    245.35669 
   26550    76.481622   -412.50194    58178.489   -12785.134    926.49929   -13711.633    96.195454     238.3599 
   26600    76.427107   -658.81837    58154.554   -12779.523    925.83889   -13705.362    96.642472       238.19 
   26650    76.423841    -778.9093    58113.872    -12793.59    925.79933    -13719.39    96.707625    238.17982 
   26700    76.507054   -687.36555    58084.873    -12778.61    926.80737   -13705.418    96.839118    238.43916 
   26750    78.283525   -426.49176    58105.168   -12774.698    948.32756   -13723.025    97.074204    243.97565 
   26800    74.589158   -353.43694    58130.331   -12813.743    903.57395   -13717.317    97.344443    232.46191 
   26850    76.199314   -524.28405    58167.869   -12810.453     923.0794   -13733.533    97.564641    237.48007 
   26900    77.573981   -546.16939    58139.471   -12822.928    939.73214    -13762.66    97.480676    241.76431 
   26950    77.695774    -619.8855    58134.589   -12763.516    941.20754   -13704.724    97.897398    242.14388 
   27000    78.067539   -384.75431    58157.734   -12748.574     945.7111   -13694.285    98.045011    243.30251 
   27050    77.088182   -694.51616     58188.03   -12798.548    933.84716   -13732.395     98.09526    240.25028 
   27100     75.38122   -516.73449    58205.506   -12830.921    913.16901    -13744.09    98.610232    234.93043 
   27150    75.120844   -840.30762    58197.678   -12833.693    910.01481   -13743.707    98.828408    234.11895 
   27200    72.889113   -477.67728     58186.55   -12841.403    882.97959   -13724.382    98.673522    227.16362 
   27250    73.651756   -712.04208     58142.15   -12807.558    892.21826   -13699.776    98.883437    229.54044 
   27300     75.43967   -482.02802    58142.801   -12779.252    913.87707   -13693.129     98.94484    235.11259 
   27350    77.272112   -604.40661    58189.731   -12785.008     936.0753   -13721.083    98.996852    240.82352 
   27400    74.931554   -753.11036    58178.093   -12817.548    907.72175   -13725.269     99.20168    233.52901 
   27450    75.513125   -780.20826    58203.176    -12833.71    914.76691   -13748.477    99.221802    235.34152 
   27500    74.289853   -1005.0176    58215.486    -12824.76    899.94817   -13724.709    99.628754    231.52911 
   27550    76.233905    -1190.206    58201.296   -12834.488    923.49844   -13757.986    99.859898    237.58787 
   27600    73.733792   -728.64256    58172.034   -12834.105    893.21205   -13727.317    99.596859    229.79611 
   27650    77.509642   -777.92412    58093.716   -12816.035    938.95273   -13754.988     99.71288    241.56379 
   27700    76.640174   -482.07444     58110.77   -12828.453    928.41998   -13756.873    100.11003    238.85404 
   27750    75.051352   -564.31377    58129.783   -12821.187    909.17298    -13730.36      100.334    233.90237 
   27800    76.256448   -670.46059    58099.786   -12792.029    923.77152   -13715.801    100.31545    237.65813 
   27850     75.86563   -671.20608    58067.421   -12806.234    919.03715   -13725.271    100.17886    236.44012 
   27900     76.26048     -747.984    58025.148   -12789.592    923.82037   -13713.412    100.40069     237.6707 
   27950    77.162886   -483.04748    58063.178   -12797.142    934.75213   -13731.894     100.7738    240.48311 
   28000    78.320334   -960.66301    58094.673   -12801.219    948.77347   -13749.993    100.74561    244.09037 
   28050     72.98358   -521.82916    58135.763   -12822.525    884.12396   -13706.649    100.93373    227.45803 
   28100    74.147818   -614.97202    58107.992   -12851.961    898.22756   -13750.189    101.03077    231.08645 
   28150    75.191332   -1161.6061    58106.088   -12832.674     910.8687   -13743.543    101.13799    234.33863 
   28200    75.484295   -729.15551    58076.428   -12811.646    914.41766   -13726.063    100.99796    235.25167 
   28250    74.432169    -829.2497    58013.419   -12791.139     901.6722   -13692.812    101.16584    231.97265 
   28300    77.174198   -353.57579    58058.788   -12756.615    934.88917   -13691.504    101.39539    240.51836 
   28350    78.771095   -528.36945    58112.204   -12721.932      954.234   -13676.166    101.58588    245.49519 
   28400    78.058067   -753.86195    58117.983   -12746.728    945.59636   -13692.324    101.74741    243.27299 
   28450    75.410457   -776.42351    58106.216   -12744.675    913.52318   -13658.198    101.74539    235.02155 
   28500    77.443737   -642.97834    58102.686   -12719.177    938.15437   -13657.331    102.09488     241.3584 
   28550    79.044237   -518.58629    58096.365    -12707.08    957.54284   -13664.623    102.62119    246.34646 
   28600    80.562264   -661.79255    58115.968    -12705.87    975.93223   -13681.802    102.61438    251.07748 
   28650    77.789105   -619.38678    58150.111   -12747.638    942.33816   -13689.976    102.41179    242.43476 
   28700    77.017394   -255.01524    58182.685   -12735.869    932.98964   -13668.859    102.17531    240.02967 
   28750    75.977805   -208.68652    58210.721   -12752.747    920.39605   -13673.144    102.35522    236.78972 
   28800     77.62801   -284.68848    58223.926   -12766.973    940.38665    -13707.36    102.58926    241.93269 
   28850    79.455162    -518.6734    58203.862    -12786.35    962.52079   -13748.871    102.87953    247.62713 
   28900    80.333758   -491.41939    58211.705   -12752.113    973.16411   -13725.277      102.906    250.36533 
   28950    76.676932   -911.21997    58238.636   -12762.972    928.86528   -13691.838    103.30657     238.9686 
   29000    75.870319   -513.36552    58239.765    -12754.76    919.09396   -13673.854    102.92816    236.45474 
   29050    76.656148   -423.16085    58255.971   -12772.213     928.6135   -13700.827    103.47965    238.90382 
   29100    76.948425    -487.9125    58285.885   -12780.864    932.15414   -13713.018    103.64555    239.81472 
   29150    79.121576    -950.6165    58316.944    -12735.02    958.47972     -13693.5    103.86201    246.58749 
   29200      77.1848   -449.47164    58352.618   -12752.967     935.0176   -13687.984    103.85112     240.5514 
   29250    77.713487   -846.95078    58339.599   -12748.976    941.42212   -13690.398    103.80232    242.19909 
   29300     77.11384   -486.38053    58294.445   -12760.901    934.15798   -13695.059     103.4945    240.33025 
   29350    80.681079   -845.08099    58240.769   -12724.535    977.37157   -13701.906    103.71686    251.44778 
   29400    77.536677   -858.50443    58204.182    -12748.33    939.28024    -13687.61    103.10952    241.64805 
   29450     77.82922   -914.99832    58154.983   -12745.628     942.8241   -13688.452    103.22817    242.55978 
   29500    78.850233     -824.312    58113.544   -12732.544    955.19267   -13687.737    103.24568    245.74183 
   29550    78.934754   -1050.2246    58095.266   -12733.923    956.21656   -13690.139    103.53999    246.00525 
   29600    81.065704   -813.46672    58083.377   -12725.671    982.03091   -13707.702    103.48119    252.64649 
   29650     77.86772   -814.06488    58031.208   -12765.437     943.2905   -13708.728    103.68333    242.67977 
   29700    76.875348   -685.24355    58060.258   -12784.605    931.26889   -13715.873    103.74648    239.58697 
   29750    77.473652   -745.30258    58037.868   -12807.416    938.51675   -13745.933    103.81022    241.45163 
   29800    76.391911   -761.10811        58061   -12788.701    925.41254   -13714.113    103.98799    238.08031 
   29850    76.870947   -959.38088    57988.757   -12768.778    931.21558   -13699.994    104.25308    239.57326 
   29900    73.983123   -284.25826    57972.974   -12799.226    896.23244   -13695.459    104.83041    230.57317 
   29950    77.388488   -666.52828    57951.784   -12781.373    937.48507   -13718.858    105.11376    241.18621 
   30000    78.571937    -378.7501    57937.301   -12765.307     951.8214   -13717.128    105.20014     244.8745 
   30050    75.962222   -964.25417    57876.803   -12778.891    920.20727   -13699.098    104.96174    236.74116 
   30100    74.857537   -425.86518    57817.806   -12808.035     906.8251    -13714.86    105.12455    233.29834 
   30150    73.567125   -446.55516    57780.045    -12812.64    891.19303   -13703.833    105.34707    229.27668 
   30200    77.310449   -425.44284    57817.656   -12782.724    936.53971   -13719.264    105.54359      240.943 
   30250    77.811233   -574.37323    57770.077   -12804.608    942.60621   -13747.214     105.3161    242.50372 
   30300    75.625899   -668.59733    57793.682   -12820.366    916.13306   -13736.499    105.53576    235.69299 
   30350    75.181886   -463.73163    57802.093   -12823.634    910.75427   -13734.388    105.75332    234.30919 
   30400    75.504645   -243.93619    57856.619   -12795.423    914.66418   -13710.088    106.22071    235.31509 
   30450    76.742572   -93.657446    57892.258    -12821.44    929.66044     -13751.1      106.118    239.17317 
   30500    75.482216   -929.87728    57909.444   -12821.939    914.39247   -13736.331    106.19497    235.24519 
   30550    77.904069   -614.18923    57911.764   -12810.716    943.73083   -13754.446    105.96384    242.79305 
   30600    76.300609   -361.26213     57902.01   -12788.255     924.3065   -13712.562    105.45463    237.79576 
   30650    75.770641   -533.52068    57918.468   -12785.163    917.88646    -13703.05    105.41744    236.14409 
   30700    75.162844   -730.11442     57869.39   -12801.679     910.5236   -13712.202    105.60591    234.24985 
   30750    76.296074   -644.03419    57843.529   -12819.192    924.25155   -13743.444    105.70678    237.78163 
   30800      77.4669   -438.59369    57807.202   -12799.267    938.43495   -13737.702    105.84312    241.43058 
   30850    75.640441   -531.16511    57850.701   -12798.208    916.30922   -13714.517    106.08338    235.73831 
   30900    75.774944   -155.32038    57869.486   -12794.201    917.93858    -13712.14    106.47155    236.15749 
   30950    75.641629   -383.57174    57838.681   -12789.139     916.3236   -13705.462    106.73806    235.74201 
   31000    75.111407   -374.65239    57863.802   -12794.389    909.90049   -13704.289    107.26747    234.08954 
   31050    75.611605    -332.5533    57871.722   -12814.459    915.95989   -13730.419    107.49185    235.64844 
   31100    75.809933   -587.21038    57901.073    -12768.47    918.36244   -13686.832    107.80805    236.26654 
   31150    77.269404   -818.88138    57928.342   -12745.937    936.04249    -13681.98    107.80365    240.81507 
   31200    77.349771   -752.56334    57890.236   -12766.616    937.01605   -13703.632    108.22238    241.06554 
   31250    77.261381   -593.14425    57882.426   -12751.189    935.94531   -13687.135    109.08186    240.79007 
   31300    74.244363   -821.65584    57901.503   -12771.384    899.39711   -13670.781    109.25883    231.38734 
   31350    76.530482   -856.62492    57846.747    -12767.22    927.09118   -13694.311    109.44176    238.51218 
   31400    73.591673   -513.31458    57787.365   -12779.709    891.49042   -13671.199    109.07669    229.35319 
   31450    75.974175    -121.0371     57791.12   -12799.811    920.35208   -13720.163    109.47102    236.77841 
   31500    76.634861   -287.79285    57930.345   -12784.142    928.35562   -13712.498    109.51429    238.83748 
   31550    75.691697   -232.01867    57939.492   -12797.555    916.93013   -13714.485    109.39903    235.89805 
   31600    75.331301   -348.18738    57957.148   -12806.203    912.56429   -13718.767    109.72581    234.77485 
   31650    75.177474   -617.76682    57968.296   -12824.558    910.70083   -13735.258    109.66277    234.29544 
   31700    76.550462    -736.4754    57942.545   -12795.993    927.33322   -13723.327    110.38613    238.57445 
   31750    77.419372   -471.29949    57956.029   -12800.778     937.8592   -13738.637    110.41657    241.28246 
   31800    76.283648   -548.29047    58011.491   -12797.715    924.10103   -13721.816    110.62872     237.7429 
   31850    74.510309   -614.39977    58100.682   -12827.206    902.61878   -13729.825    110.94966    232.21618 
   31900    77.028364   -221.76258    58111.157   -12795.156    933.12252   -13728.279    111.42973    240.06386 
   31950    79.658054    -502.2307    58140.083   -12790.476    964.97863   -13755.454    111.70177    248.25946 
   32000    79.041412   -307.46412    58138.112   -12770.388    957.50862   -13727.897    111.86394    246.33765 
   32050     80.78159   -420.79563    58153.665   -12770.513    978.58916   -13749.102    111.75699    251.76103 
   32100    80.876409   -709.50337    58154.415   -12762.718     979.7378   -13742.456     111.3412    252.05654 
   32150    80.086447    -735.1223    58191.436   -12766.702    970.16819    -13736.87     111.8998    249.59457 
   32200     79.74519   -585.81554    58141.184   -12765.803    966.03419   -13731.837    111.71791    248.53102 
   32250    78.616329   -444.07694    58123.892   -12794.706    952.35916   -13747.065    111.85009    245.01285 
   32300     78.25883   -193.19279    58126.976   -12786.765    948.02841   -13734.793     111.7932    243.89869 
   32350    74.727943   -515.53473    58149.163    -12810.67    905.25521   -13715.925    111.49747    232.89445 
   32400    75.114551   -376.42738    58166.811   -12823.742    909.93857    -13733.68    111.76357    234.09934 
   32450    76.293505   -583.92963    58178.609   -12829.288    924.22044   -13753.508    111.90791    237.77362 
   32500    76.154423   -346.10784    58194.895   -12816.027     922.5356   -13738.562    111.81335    237.34016 
   32550     76.77807   -730.84863    58170.852   -12802.799    930.09047    -13732.89    112.12351     239.2838 
   32600    78.336288   -624.51116    58211.142   -12778.113    948.96674    -13727.08    112.32975    244.14009 
   32650    76.021274   -446.24575    58219.211   -12775.223    920.92263   -13696.146    113.02012     236.9252 
   32700    75.462416   -429.73412    58242.171   -12795.249    914.15261   -13709.402    113.21138    235.18348 
   32750     75.92398   -471.46236    58210.004   -12787.253    919.74401   -13706.997     113.1289    236.62197 
   32800    77.953935   -371.38652    58209.436   -12771.818    944.33491   -13716.153    113.69965    242.94846 
   32850    76.325425   -392.88915    58258.887   -12777.064    924.60712   -13701.671    114.03569     237.8731 
   32900    77.773951   -938.55566    58254.946    -12779.63    942.15458   -13721.785    113.83595    242.38753 
   32950    75.797608   -538.94676    58207.884    -12800.35    918.21314   -13718.563    113.85712    236.22813 
   33000     76.29279   -273.31032    58216.189   -12826.428    924.21178    -13750.64    113.45307     237.7714 
   33050    78.360265   -97.320555    58236.798   -12816.933     949.2572    -13766.19    113.29607    244.21481 
   33100    76.686236   -400.66937    58278.602   -12806.894    928.97798   -13735.872    113.48166    238.99759 
   33150    79.938267    -306.4734    58306.577   -12788.506    968.37313   -13756.879    113.28425    249.13276 
   33200    75.471306   -854.16136     58268.26   -12791.398    914.26031   -13705.659    113.67962    235.21119 
   33250    78.929622   -284.97156    58224.625   -12767.892     956.1544   -13724.047    113.64162    245.98925 
   33300    77.217542   -436.89828    58217.571   -12759.686    935.41424     -13695.1     113.8914    240.65344 
   33350    77.199358   -256.15373    58265.875    -12738.71    935.19395   -13673.904    113.98551    240.59677 
   33400    80.262234   -393.88955    58279.816   -12747.862    972.29766    -13720.16    114.23161    250.14242 
   33450    75.219005   -940.65366    58258.248    -12747.49    911.20394   -13658.694    114.41109    234.42488 
   33500    78.958571   -690.91875    58222.129   -12729.924    956.50508   -13686.429    114.74044    246.07947 
   33550    76.680949   -938.37148    58187.129   -12731.277    928.91395    -13660.19    114.80466    238.98112 
   33600    77.248777   -494.86612    58265.526   -12756.493    935.79262   -13692.285    114.87514    240.75079 
   33650    76.810723   -754.28519    58262.983   -12769.304    930.48603    -13699.79    115.35161    239.38557 
   33700    76.929438   -695.51247    58272.662   -12761.621    931.92413   -13693.545    115.44876    239.75555 
   33750    76.805752   -892.00297    58253.173    -12791.29    930.42581   -13721.716    115.70915    239.37008 
   33800    77.528703   -544.13255    58284.851    -12754.64    939.18364   -13693.824    115.78908     241.6232 
   33850    76.496804   -870.17222    58265.708   -12744.281     926.6832   -13670.964    115.92903    238.40722 
   33900    80.040988   -648.14287    58229.563   -12719.168    969.61749   -13688.785    116.02142    249.45289 
   33950    77.400834   -833.16881    58179.276   -12709.169    937.63464   -13646.804    115.98302    241.22469 
[...]
   92050     76.93999   -903.43791    57769.359   -12732.716    932.05197   -13664.768    306.13739    239.78844 
   92100    77.123287   -516.83351    57728.568   -12728.977    934.27243    -13663.25     306.4681    240.35969 
   92150    76.861233   -709.69669    57723.282   -12737.922     931.0979    -13669.02    307.41327    239.54298 
   92200    75.828256   -895.98578    57680.111   -12784.603     918.5844   -13703.187    307.44633    236.32364 
   92250    76.472694   -652.62165    57623.053    -12774.46    926.39114   -13700.851    307.19688    238.33208 
   92300    76.538811   -737.67589    57674.892   -12777.166    927.19208   -13704.358    307.35907    238.53813 
   92350    77.865685   -444.05867    57677.094     -12730.4    943.26585   -13673.666    307.82406    242.67342 
   92400    79.087196   -286.63794    57647.747   -12705.699    958.06325   -13663.762    308.10375    246.48034 
   92450    79.297436   -528.40698    57684.434   -12696.142    960.61009   -13656.752    308.15979    247.13557 
   92500    78.246674   -501.28218    57691.279   -12708.965    947.88116   -13656.846    308.17922     243.8608 
   92550    80.362982   -701.28562    57725.412   -12704.726    973.51814   -13678.245     308.9019    250.45641 
   92600    73.936605   -486.97355    57713.302    -12743.25    895.66892   -13638.919    308.67619    230.42819 
   92650    79.367058   -351.41922     57697.72   -12746.421     961.4535   -13707.874    308.79399    247.35255 
   92700     76.61122   -662.58965    57724.048   -12741.624    928.06924   -13669.694    308.65568     238.7638 
   92750    74.176059     -391.259    57732.913   -12762.757    898.56967   -13661.327    308.72011    231.17447 
   92800     78.36416   -643.14414    57744.604   -12750.499    949.30438   -13699.803    308.72738    244.22695 
   92850    76.219147   -553.85275    57736.468   -12738.479    923.31966   -13661.799    307.82455    237.54188 
   92900    80.977435   -929.94371    57704.578   -12712.723    980.96162   -13693.685    308.08932    252.37139 
   92950    79.066097    -464.7312    57679.258   -12716.206    957.80766   -13674.014    307.82611    246.41459 
   93000    76.399768   -907.75914    57661.924   -12716.639    925.50771   -13642.147    308.36854     238.1048 
   93050    79.029817   -964.13122    57636.225    -12684.75    957.36816   -13642.118    308.03319    246.30152 
   93100    79.315076   -372.32853    57596.433   -12682.322    960.82379   -13643.145    307.76928    247.19054 
   93150    77.870475   -1101.0994    57611.169   -12686.522    943.32387   -13629.846    308.35885    242.68835 
   93200    76.610134   -142.88793    57621.554   -12703.568    928.05609   -13631.624    308.78599    238.76042 
   93250    76.837172   -679.03748    57621.651   -12715.002    930.80643   -13645.808    309.81047      239.468 
   93300    76.100521   -703.54027    57594.806     -12706.1    921.88263   -13627.983    309.44659    237.17218 
   93350    79.497786   -946.79668    57518.701   -12709.943    963.03713   -13672.981    309.31244    247.75997 
   93400    78.169116   -694.06273    57462.042   -12709.396    946.94162   -13656.337    310.07665    243.61909 
   93450    80.605869   -654.91509    57407.966   -12703.508    976.46047   -13679.968    310.89105    251.21338 
   93500    78.170548   -584.94308    57420.599   -12719.145    946.95896   -13666.104    310.68745    243.62355 
   93550    79.632136   -489.33273    57468.556   -12698.967    964.66465   -13663.632    311.40441    248.17868 
   93600    77.412923   -82.901765    57508.562   -12735.559    937.78108    -13673.34    311.62119    241.26236 
   93650    79.106286   -531.94059    57476.004   -12706.869     958.2945   -13665.163     312.4757    246.53984 
   93700    73.908548    -470.1007    57480.484   -12722.245    895.32904   -13617.574    312.63571    230.34075 
   93750    75.801568   -643.42266    57516.195   -12712.761     918.2611   -13631.022    313.07495    236.24047 
   93800    75.415828   -285.36896    57507.509   -12715.073    913.58825   -13628.661    313.05848    235.03829 
   93850    73.032402   -641.37549    57460.877   -12750.395    884.71539    -13635.11    313.43831    227.61018 
   93900    77.516693    237.21247    57514.954   -12724.039    939.03815   -13663.077    314.17042    241.58577 
   93950    76.754768   -745.53002     57547.49    -12725.02    929.80818   -13654.828     314.9823    239.21118 
   94000    76.347876   -432.96297    57608.723   -12719.012    924.87909   -13643.891    315.38174    237.94307 
   94050    74.171415   -789.48558    57611.422   -12758.355    898.51342   -13656.868    315.95776    231.15999 
   94100    74.502959   -975.02665    57582.342   -12760.363    902.52974   -13662.893    315.99851    232.19327 
   94150    74.916022   -440.72752    57547.303   -12761.278    907.53359   -13668.812    316.45873    233.48061 
   94200    74.658624   -648.73591    57461.838   -12733.842    904.41547   -13638.257    317.13923    232.67841 
   94250    79.831836   -716.51705     57419.05   -12716.448    967.08382   -13683.532    317.83673    248.80106 
   94300    75.444115   -861.46373    57424.476   -12748.532    913.93092   -13662.463    317.87228    235.12645 
   94350    76.019166   -775.70148    57367.009   -12741.214    920.89709   -13662.112    318.78694    236.91863 
   94400    75.866847   -223.30558    57357.273   -12724.825     919.0519   -13643.877    319.34576    236.44392 
   94450     75.57574   -599.28362    57352.847   -12713.962    915.52542   -13629.487    319.90444    235.53666 
   94500    77.331975   -722.27264    57299.749   -12694.377    936.80048   -13631.177    319.63651    241.01008 
   94550    79.131348   -716.74585     57256.12   -12692.476     958.5981   -13651.074    319.84803    246.61794 
   94600    79.054393    -679.2749    57231.989   -12677.287    957.66587   -13634.953    320.67724    246.37811 
   94650    80.137683   -723.22203    57275.697    -12708.02    970.78886   -13678.809    320.98929    249.75425 
   94700    75.422606   -988.16609    57304.668   -12726.783    913.67036   -13640.453    320.65319    235.05941 
   94750    76.371026   -1071.7878    57266.675   -12735.274    925.15953   -13660.433    320.96898    238.01522 
   94800     75.85992   -494.52557    57235.074    -12768.94    918.96798   -13687.908    321.32775    236.42233 
   94850    76.559646   -489.56518     57245.93   -12731.796    927.44447    -13659.24    321.00278    238.60307 
   94900    78.884306   -699.15095    57225.303    -12687.71    955.60543   -13643.315     320.6111    245.84802 
   94950    78.883092   -763.03922    57203.838   -12680.397    955.59072   -13635.988    320.56772    245.84424 
   95000    78.514083   -193.03203    57178.825   -12677.841    951.12055   -13628.962    320.62974     244.6942 
   95050    78.215643   -572.84998    57171.117   -12669.243    947.50525   -13616.748    321.03791    243.76409 
   95100    80.411928   -345.65544     57162.01     -12690.8    974.11107   -13664.911    320.76604    250.60895 
   95150     77.44394   -444.43337    57180.633   -12665.562    938.15683   -13603.719    321.46949    241.35903 
   95200    78.338849   -617.90296    57217.854   -12674.414    948.99776   -13623.412    321.60217    244.14807 
   95250    79.866909   -542.04081    57162.209   -12690.789     967.5087   -13658.298    322.05096    248.91037 
   95300    76.990516   -437.48796    57157.774   -12691.088    932.66404   -13623.752    321.65065     239.9459 
   95350    79.573996   -836.18235    57167.583   -12683.366    963.96035   -13647.326    322.29285    247.99749 
   95400    79.467641   -558.04742     57233.48   -12662.954    962.67197   -13625.626    321.93117    247.66602 
   95450    80.329417   -555.42226    57199.347   -12671.726    973.11153   -13644.837    321.93658     250.3518 
   95500    78.756267   -496.08194    57119.867   -12700.629    954.05437   -13654.684    321.36163    245.44898 
   95550    78.426174   -804.09576    57098.879   -12687.103    950.05562   -13637.158     321.5944    244.42022 
   95600    76.879671   -490.45451    57083.761   -12715.264    931.32126   -13646.585    320.95954    239.60045 
   95650    78.830563   -713.50159    57114.294   -12704.879    954.95438   -13659.834    322.22521    245.68053 
   95700    80.932512   -716.62011    57180.441   -12702.851    980.41742   -13683.268    323.19884    252.23139 
   95750    77.554491   -361.37809    57176.175   -12725.703    939.49604   -13665.199    323.28698    241.70357 
   95800    79.208911    -457.4025    57169.519   -12703.221     959.5377   -13662.759    323.37204    246.85967 
   95850    76.831865   -400.10841    57246.422   -12713.071    930.74214   -13643.813    323.49394    239.45146 
   95900     77.01931   -592.03983    57256.662   -12773.195    933.01285   -13706.208    323.89322    240.03564 
   95950    74.764094   -586.45206     57278.68   -12751.962    905.69314   -13657.655    324.71018    233.00712 
   96000    77.118804   -326.26311    57337.087   -12754.944    934.21812   -13689.162    325.46201    240.34572 
   96050    75.035743   -351.27204    57324.099   -12790.148     908.9839   -13699.132    325.47452    233.85373 
   96100     74.58552   -567.62391    57365.355   -12811.209    903.52989   -13714.739    325.80998    232.45058 
   96150     75.86048   -593.20699    57408.298    -12811.88    918.97477   -13730.855    326.21118    236.42407 
   96200    74.312702   -678.37722     57396.08   -12812.026    900.22496   -13712.251    326.45763    231.60032 
   96250    77.779175   -409.51514    57343.536   -12800.488    942.21786   -13742.706    326.89321    242.40381 
   96300    75.023888   -836.05106      57350.3   -12770.347    908.84028   -13679.187    327.23571    233.81678 
   96350    78.499773   -714.97132    57312.872   -12738.895    950.94719   -13689.842    326.96031     244.6496 
   96400    78.241803    -827.3147    57320.525   -12729.667    947.82214    -13677.49    327.01413    243.84562 
   96450    75.235078   -550.04525    57326.066   -12718.688    911.39864   -13630.086    327.88751    234.47497 
   96500    78.009946   -470.08028    57384.791   -12726.673    945.01343   -13671.687    328.41341    243.12302 
   96550    74.916076   -668.27439    57374.221   -12750.915    907.53425   -13658.449    328.95427    233.48078 
   96600    74.738142   -365.23078     57394.61   -12738.746    905.37875   -13644.125     330.0519    232.92623 
   96650    76.862449   -965.34728    57417.628   -12745.402    931.11263   -13676.515    329.90029    239.54677 
   96700     74.71775    -574.4002    57421.576   -12727.443    905.13173   -13632.574    330.19912    232.86268 
   96750    72.913008   -676.57578    57405.819   -12735.666    883.26906   -13618.936    330.44043    227.23809 
   96800    75.479662   -160.21561     57376.38   -12753.032    914.36154   -13667.394     330.7533    235.23723 
   96850    73.869886   -482.30896    57448.884   -12766.807    894.86069   -13661.668    331.30768    230.22026 
   96900    74.553122   -420.17445    57498.462   -12744.625    903.13742   -13647.763    331.42602    232.34961 
   96950    78.144111   -810.08814    57440.458   -12701.198    946.63871   -13647.836    332.09004    243.54116 
   97000    75.175883   -353.58094    57415.676    -12712.74    910.68155   -13623.421    332.50792    234.29048 
   97050     78.48552   -715.37173    57338.759    -12737.35    950.77453   -13688.125    332.47916    244.60518 
   97100    79.020291   -762.19539    57322.376    -12734.91    957.25276   -13692.163    332.54108    246.27183 
   97150    78.328661   -420.03681    57332.136   -12737.041    948.87434   -13685.915    333.27814    244.11632 
   97200    76.212396   -577.07416    57247.735   -12743.626    923.23788   -13666.864    333.33784    237.52084 
   97250    78.877365   -407.18788    57296.493   -12713.622    955.52135   -13669.144    333.94615    245.82639 
   97300    79.154854   -667.01818    57314.835    -12736.16    958.88285   -13695.043    334.10102     246.6912 
   97350    77.440766   -1148.8345    57285.283   -12744.266    938.11837   -13682.384    333.93531    241.34914 
   97400    75.496906   -509.87193    57261.458   -12770.556    914.57042   -13685.126    333.85836    235.29097 
   97450    77.473496   -399.93635     57247.74   -12778.208    938.51486   -13716.723    333.55622    241.45114 
   97500    75.385758   -373.18736    57304.808    -12801.17    913.22398   -13714.394    333.29961    234.94457 
   97550    75.655757   -438.08814     57309.25   -12795.157    916.49475   -13711.652    332.98337    235.78604 
   97600    73.615911   -504.14423    57304.094   -12806.838    891.78403   -13698.622    332.92634    229.42873 
   97650    74.556455   -614.56297    57299.694   -12820.289    903.17779   -13723.466    333.43593    232.35999 
   97700    74.837534   -574.04007    57276.124   -12792.198    906.58279    -13698.78     333.3047      233.236 
   97750     76.22135   -197.00285    57217.464   -12785.197    923.34635   -13708.543    333.96382    237.54875 
   97800    77.281877   -350.45687    57240.849   -12792.277    936.19359   -13728.471     334.8086    240.85395 
   97850    75.457959   -683.18041    57271.555   -12773.845    914.09862   -13687.944    335.21116    235.16959 
   97900    75.443814   -302.20638     57296.45   -12779.658    913.92728   -13693.585    334.77178    235.12551 
   97950      75.3112   -346.47981    57377.603   -12794.224    912.32078   -13706.545    335.46623    234.71221 
   98000    76.183784   -416.65275    57423.533   -12790.361    922.89127   -13713.253    335.15871    237.43167 
   98050    75.088108   -670.02669    57409.375    -12789.19    909.61825   -13698.808    335.40369    234.01693 
   98100    75.410415   -639.21765      57378.3   -12800.598    913.52268   -13714.121    335.17162    235.02142 
   98150    73.972483   -438.84797    57424.689   -12804.557    896.10355    -13700.66    335.19247    230.54001 
   98200    72.820019   -508.86984    57473.608   -12821.452    882.14259   -13703.595    334.88473    226.94828 
   98250    75.188438   -704.85611    57552.638   -12806.043    910.83365   -13716.877    335.14184    234.32961 
   98300    76.923218   -364.03018    57608.513   -12775.251    931.84879     -13707.1    334.98906    239.73617 
   98350    75.788306   -799.93723    57612.338   -12777.359    918.10045   -13695.459    335.81346    236.19914 
   98400     73.96916   -708.21587    57579.093   -12799.159    896.06329   -13695.223    335.73103    230.52965 
   98450     74.47403   -534.51946    57497.291   -12781.084     902.1793   -13683.263    335.85217    232.10311 
   98500    76.052375   -539.10242    57472.391   -12777.623    921.29939   -13698.923     335.9201    237.02213 
   98550     78.62868   -218.20588    57547.577   -12742.983    952.50878   -13695.492    336.48572    245.05135 
   98600    76.267141   -717.63831    57574.532   -12767.182    923.90107   -13691.083    336.36564    237.69146 
   98650    76.894238   -577.96871    57609.368    -12758.11    931.49773   -13689.608    336.27781    239.64585 
   98700    77.711242   -562.13044    57611.797   -12730.159    941.39493   -13671.554    336.38845    242.19209 
   98750    80.349155    -502.6294     57666.93   -12711.072    973.35063   -13684.423    336.40317    250.41332 
   98800    79.650253   -675.72136    57633.018   -12698.771    964.88413   -13663.655    336.76268    248.23514 
   98850    79.569258   -511.24271    57635.997   -12715.945    963.90296   -13679.848    337.38283    247.98272 
   98900    76.777369   -592.26143    57640.393   -12744.804    930.08197   -13674.886    337.56702    239.28162 
   98950    77.909926   -451.95064    57671.057   -12733.589    943.80179   -13677.391    338.47762     242.8113 
   99000    77.299057   -632.22067    57642.083   -12740.782    936.40171   -13677.184    338.56356    240.90749 
   99050    77.266073   -719.69058    57615.442   -12755.346    936.00214   -13691.348    339.22725    240.80469 
   99100    77.525626   -658.76916    57589.427     -12763.7    939.14637   -13702.847    339.33575    241.61361 
   99150    79.488019   -811.18029    57589.277   -12750.011    962.91882   -13712.929    339.41456    247.72953 
   99200    80.023287   -669.45136    57615.042   -12767.697    969.40307     -13737.1    339.05898    249.39773 
   99250    77.806453   -787.89868     57560.51   -12760.305    942.54831   -13702.853    339.17053    242.48882 
   99300    74.451573   -930.14122    57520.803   -12786.119    901.90726   -13688.026    339.61624    232.03312 
   99350    77.115604   -418.32088    57483.584   -12767.878    934.17936   -13702.057    339.44243    240.33575 
   99400    78.332046   -542.41384    57482.527   -12758.482    948.91535   -13707.397    339.43494    244.12687 
   99450    75.406942    -650.8044    57470.155   -12760.278     913.4806   -13673.759    340.21866    235.01059 
   99500    78.454176   -330.91508     57460.56   -12757.197    950.39484   -13707.592     340.6329    244.50749 
   99550    74.680494    -476.5486    57522.381   -12784.153     904.6804   -13688.833    340.94808    232.74657 
   99600    74.454398   -784.26968    57537.243    -12766.91    901.94147   -13668.852    341.36768    232.04193 
   99650    77.369983   -370.23021    57531.974   -12776.462     937.2609   -13713.723      341.964    241.12854 
   99700    73.315511   -414.81803    57527.896    -12802.35    888.14498   -13690.495    342.10864    228.49251 
   99750    77.155352   -586.05388    57586.218   -12786.324    934.66086   -13720.985    342.06736    240.45962 
   99800    78.770543   -490.77014     57640.59   -12747.672    954.22731   -13701.899    343.06868    245.49347 
   99850    76.282861    -492.0058    57653.046   -12741.641     924.0915   -13665.733    343.35494    237.74045 
   99900     77.13612   -701.82264    57674.397   -12747.172    934.42788     -13681.6    343.87432    240.39969 
   99950    77.067834   -660.86786    57660.137    -12765.76    933.60067   -13699.361    343.75758    240.18687 
  100000    73.483422   -839.07213    57645.949   -12744.352    890.17906   -13634.532    343.24464    229.01582 
Loop time of 97.2063 on 80 procs for 100000 steps with 4065 atoms

Performance: 444.416 ns/day, 0.054 hours/ns, 1028.740 timesteps/s
99.5% CPU use with 80 MPI tasks x no OpenMP threads

MPI task timing breakdown:
Section |  min time  |  avg time  |  max time  |%varavg| %total
---------------------------------------------------------------
Pair    | 59.295     | 62.68      | 67.689     |  24.1 | 64.48
Neigh   | 0.5245     | 1.2388     | 2.2454     |  63.5 |  1.27
Comm    | 17.836     | 24.121     | 27.934     |  48.6 | 24.81
Output  | 0.13032    | 0.13386    | 0.27014    |   4.2 |  0.14
Modify  | 7.0298     | 8.0626     | 8.9528     |  16.5 |  8.29
Other   |            | 0.9694     |            |       |  1.00

Nlocal:        50.8125 ave          88 max          22 min
Histogram: 34 6 0 0 0 0 3 15 15 7
Nghost:        717.862 ave         749 max         669 min
Histogram: 1 4 6 12 9 3 12 7 5 21
Neighs:         0.00000 ave           0 max           0 min
Histogram: 80 0 0 0 0 0 0 0 0 0
FullNghs:      5637.62 ave       11362 max        1231 min
Histogram: 40 0 0 0 0 0 2 9 20 9

Total # of neighbors = 451010
Ave neighs/atom = 110.94957
Neighbor list builds = 5517
Dangerous builds = 0

write_data		${DIR}/data.eq-${NAME}-${TEMP}
write_data		run_17/data.eq-${NAME}-${TEMP}
write_data		run_17/data.eq-het_freeze_17-${TEMP}
write_data		run_17/data.eq-het_freeze_17-240
System init for write_data ...
undump          1

reset_timestep  0

unfix           2
unfix           3
unfix           4


################################################
#######         Run Simulation         #########
################################################

log				${DIR}/log.run_${NAME}
log				run_17/log.run_${NAME}
log				run_17/log.run_het_freeze_17
