LAMMPS data file via write_data, version 16 Mar 2018, timestep = 100000

5031 atoms
2 atom types

0.0000000000000000e+00 4.9219999999999999e+01 xlo xhi
0.0000000000000000e+00 4.9019635930410494e+01 ylo yhi
1.0915260332778658e+00 3.8908473966723335e+01 zlo zhi

Masses

1 18.015
2 12.01

Atoms # atomic

140 2 0.0000000000000000e+00 2.8417180249513345e+00 3.1157547740577729e+00 0 0 0
142 2 0.0000000000000000e+00 0.0000000000000000e+00 3.1157547740577729e+00 0 0 0
144 2 1.2305000000000001e+00 7.1042950623783474e-01 3.1157547740577729e+00 0 0 0
151 2 1.2305000000000001e+00 2.1312885187134998e+00 3.1157547740577729e+00 0 0 0
153 2 2.4610000000000003e+00 2.8417180249513345e+00 3.1157547740577729e+00 0 0 0
155 2 2.4610000000000003e+00 0.0000000000000000e+00 3.1157547740577729e+00 0 0 0
157 2 3.6915000000000004e+00 7.1042950623783474e-01 3.1157547740577729e+00 0 0 0
172 2 3.6914999999999996e+00 2.1312885187134998e+00 3.1157547740577729e+00 0 0 0
174 2 4.9220000000000006e+00 2.8417180249513332e+00 3.1157547740577729e+00 0 0 0
176 2 4.9220000000000006e+00 0.0000000000000000e+00 3.1157547740577729e+00 0 0 0
178 2 6.1524999999999999e+00 7.1042950623783407e-01 3.1157547740577729e+00 0 0 0
201 2 6.1524999999999999e+00 2.1312885187134989e+00 3.1157547740577729e+00 0 0 0
203 2 7.3829999999999991e+00 2.8417180249513345e+00 3.1157547740577729e+00 0 0 0
205 2 7.3829999999999991e+00 0.0000000000000000e+00 3.1157547740577729e+00 0 0 0
207 2 8.6134999999999984e+00 7.1042950623783407e-01 3.1157547740577729e+00 0 0 0
238 2 8.6134999999999984e+00 2.1312885187135002e+00 3.1157547740577729e+00 0 0 0
147 2 0.0000000000000000e+00 4.2625770374269996e+00 3.1157547740577729e+00 0 0 0
149 2 1.2305000000000001e+00 4.9730065436648339e+00 3.1157547740577729e+00 0 0 0
164 2 1.2305000000000001e+00 6.3938655561404980e+00 3.1157547740577729e+00 0 0 0
168 2 2.4610000000000003e+00 4.2625770374269996e+00 3.1157547740577729e+00 0 0 0
170 2 3.6914999999999996e+00 4.9730065436648339e+00 3.1157547740577729e+00 0 0 0
193 2 3.6914999999999996e+00 6.3938655561404980e+00 3.1157547740577729e+00 0 0 0
145 2 0.0000000000000000e+00 7.1042950623783341e+00 3.1157547740577729e+00 0 0 0
166 2 2.4610000000000003e+00 7.1042950623783341e+00 3.1157547740577729e+00 0 0 0
197 2 4.9220000000000006e+00 4.2625770374269978e+00 3.1157547740577729e+00 0 0 0
199 2 6.1524999999999999e+00 4.9730065436648339e+00 3.1157547740577729e+00 0 0 0
230 2 6.1524999999999999e+00 6.3938655561404980e+00 3.1157547740577729e+00 0 0 0
234 2 7.3829999999999991e+00 4.2625770374269996e+00 3.1157547740577729e+00 0 0 0
236 2 8.6135000000000002e+00 4.9730065436648339e+00 3.1157547740577729e+00 0 0 0
275 2 8.6135000000000002e+00 6.3938655561404980e+00 3.1157547740577729e+00 0 0 0
195 2 4.9220000000000006e+00 7.1042950623783341e+00 3.1157547740577729e+00 0 0 0
232 2 7.3830000000000009e+00 7.1042950623783341e+00 3.1157547740577729e+00 0 0 0
160 2 0.0000000000000000e+00 8.5251540748539991e+00 3.1157547740577729e+00 0 0 0
162 2 1.2305000000000001e+00 9.2355835810918343e+00 3.1157547740577729e+00 0 0 0
189 2 2.4610000000000003e+00 8.5251540748539991e+00 3.1157547740577729e+00 0 0 0
191 2 3.6915000000000004e+00 9.2355835810918343e+00 3.1157547740577729e+00 0 0 0
158 2 0.0000000000000000e+00 1.1366872099805333e+01 3.1157547740577729e+00 0 0 0
185 2 1.2305000000000001e+00 1.0656442593567498e+01 3.1157547740577729e+00 0 0 0
187 2 2.4610000000000003e+00 1.1366872099805333e+01 3.1157547740577729e+00 0 0 0
222 2 3.6914999999999996e+00 1.0656442593567499e+01 3.1157547740577729e+00 0 0 0
226 2 4.9220000000000006e+00 8.5251540748539991e+00 3.1157547740577729e+00 0 0 0
228 2 6.1524999999999999e+00 9.2355835810918343e+00 3.1157547740577729e+00 0 0 0
271 2 7.3830000000000009e+00 8.5251540748539991e+00 3.1157547740577729e+00 0 0 0
273 2 8.6134999999999984e+00 9.2355835810918343e+00 3.1157547740577729e+00 0 0 0
224 2 4.9220000000000006e+00 1.1366872099805333e+01 3.1157547740577729e+00 0 0 0
267 2 6.1524999999999999e+00 1.0656442593567499e+01 3.1157547740577729e+00 0 0 0
269 2 7.3829999999999991e+00 1.1366872099805333e+01 3.1157547740577729e+00 0 0 0
314 2 8.6134999999999984e+00 1.0656442593567498e+01 3.1157547740577729e+00 0 0 0
141 2 0.0000000000000000e+00 1.4208590124756650e+00 6.2063926874894682e+00 0 0 0
143 2 0.0000000000000000e+00 0.0000000000000000e+00 6.2063926874894682e+00 0 0 0
152 2 1.2305000000000001e+00 2.1312885187134998e+00 6.2063926874894682e+00 0 0 0
154 2 2.4610000000000003e+00 1.4208590124756650e+00 6.2063926874894682e+00 0 0 0
156 2 2.4610000000000003e+00 0.0000000000000000e+00 6.2063926874894682e+00 0 0 0
173 2 3.6914999999999996e+00 2.1312885187134998e+00 6.2063926874894682e+00 0 0 0
150 2 1.2305000000000001e+00 3.5521475311891644e+00 6.2063926874894682e+00 0 0 0
171 2 3.6914999999999996e+00 3.5521475311891644e+00 6.2063926874894682e+00 0 0 0
469 2 0.0000000000000000e+00 2.8417180249513345e+00 9.2970306009210635e+00 0 0 0
470 2 0.0000000000000000e+00 0.0000000000000000e+00 9.2970306009210635e+00 0 0 0
471 2 1.2305000000000001e+00 7.1042950623783474e-01 9.2970306009210635e+00 0 0 0
475 2 1.2305000000000001e+00 2.1312885187134998e+00 9.2970306009210635e+00 0 0 0
476 2 2.4610000000000003e+00 2.8417180249513345e+00 9.2970306009210635e+00 0 0 0
477 2 2.4610000000000003e+00 0.0000000000000000e+00 9.2970306009210635e+00 0 0 0
478 2 3.6915000000000004e+00 7.1042950623783474e-01 9.2970306009210635e+00 0 0 0
486 2 3.6914999999999996e+00 2.1312885187134998e+00 9.2970306009210635e+00 0 0 0
175 2 4.9220000000000006e+00 1.4208590124756650e+00 6.2063926874894682e+00 0 0 0
177 2 4.9220000000000006e+00 0.0000000000000000e+00 6.2063926874894682e+00 0 0 0
202 2 6.1524999999999999e+00 2.1312885187134989e+00 6.2063926874894682e+00 0 0 0
204 2 7.3829999999999991e+00 1.4208590124756659e+00 6.2063926874894682e+00 0 0 0
206 2 7.3829999999999991e+00 0.0000000000000000e+00 6.2063926874894682e+00 0 0 0
239 2 8.6134999999999984e+00 2.1312885187135002e+00 6.2063926874894682e+00 0 0 0
200 2 6.1524999999999999e+00 3.5521475311891644e+00 6.2063926874894682e+00 0 0 0
237 2 8.6134999999999984e+00 3.5521475311891657e+00 6.2063926874894682e+00 0 0 0
487 2 4.9220000000000006e+00 2.8417180249513332e+00 9.2970306009210635e+00 0 0 0
488 2 4.9220000000000006e+00 0.0000000000000000e+00 9.2970306009210635e+00 0 0 0
489 2 6.1524999999999999e+00 7.1042950623783407e-01 9.2970306009210635e+00 0 0 0
501 2 6.1524999999999999e+00 2.1312885187134989e+00 9.2970306009210635e+00 0 0 0
502 2 7.3829999999999991e+00 2.8417180249513345e+00 9.2970306009210635e+00 0 0 0
503 2 7.3829999999999991e+00 0.0000000000000000e+00 9.2970306009210635e+00 0 0 0
504 2 8.6134999999999984e+00 7.1042950623783407e-01 9.2970306009210635e+00 0 0 0
520 2 8.6134999999999984e+00 2.1312885187135002e+00 9.2970306009210635e+00 0 0 0
146 2 0.0000000000000000e+00 5.6834360499026637e+00 6.2063926874894682e+00 0 0 0
148 2 0.0000000000000000e+00 4.2625770374269996e+00 6.2063926874894682e+00 0 0 0
165 2 1.2305000000000001e+00 6.3938655561404980e+00 6.2063926874894682e+00 0 0 0
167 2 2.4610000000000003e+00 5.6834360499026637e+00 6.2063926874894682e+00 0 0 0
169 2 2.4610000000000003e+00 4.2625770374269996e+00 6.2063926874894682e+00 0 0 0
194 2 3.6914999999999996e+00 6.3938655561404980e+00 6.2063926874894682e+00 0 0 0
163 2 1.2305000000000001e+00 7.8147245686161639e+00 6.2063926874894682e+00 0 0 0
192 2 3.6914999999999996e+00 7.8147245686161639e+00 6.2063926874894682e+00 0 0 0
473 2 0.0000000000000000e+00 4.2625770374269996e+00 9.2970306009210635e+00 0 0 0
474 2 1.2305000000000001e+00 4.9730065436648339e+00 9.2970306009210635e+00 0 0 0
482 2 1.2305000000000001e+00 6.3938655561404980e+00 9.2970306009210635e+00 0 0 0
484 2 2.4610000000000003e+00 4.2625770374269996e+00 9.2970306009210635e+00 0 0 0
485 2 3.6914999999999996e+00 4.9730065436648339e+00 9.2970306009210635e+00 0 0 0
497 2 3.6914999999999996e+00 6.3938655561404980e+00 9.2970306009210635e+00 0 0 0
472 2 0.0000000000000000e+00 7.1042950623783341e+00 9.2970306009210635e+00 0 0 0
483 2 2.4610000000000003e+00 7.1042950623783341e+00 9.2970306009210635e+00 0 0 0
196 2 4.9220000000000006e+00 5.6834360499026637e+00 6.2063926874894682e+00 0 0 0
198 2 4.9220000000000006e+00 4.2625770374269978e+00 6.2063926874894682e+00 0 0 0
231 2 6.1524999999999999e+00 6.3938655561404980e+00 6.2063926874894682e+00 0 0 0
233 2 7.3829999999999991e+00 5.6834360499026637e+00 6.2063926874894682e+00 0 0 0
235 2 7.3829999999999991e+00 4.2625770374269996e+00 6.2063926874894682e+00 0 0 0
276 2 8.6135000000000002e+00 6.3938655561404980e+00 6.2063926874894682e+00 0 0 0
229 2 6.1524999999999999e+00 7.8147245686161639e+00 6.2063926874894682e+00 0 0 0
274 2 8.6135000000000002e+00 7.8147245686161639e+00 6.2063926874894682e+00 0 0 0
499 2 4.9220000000000006e+00 4.2625770374269978e+00 9.2970306009210635e+00 0 0 0
500 2 6.1524999999999999e+00 4.9730065436648339e+00 9.2970306009210635e+00 0 0 0
516 2 6.1524999999999999e+00 6.3938655561404980e+00 9.2970306009210635e+00 0 0 0
518 2 7.3829999999999991e+00 4.2625770374269996e+00 9.2970306009210635e+00 0 0 0
519 2 8.6135000000000002e+00 4.9730065436648339e+00 9.2970306009210635e+00 0 0 0
539 2 8.6135000000000002e+00 6.3938655561404980e+00 9.2970306009210635e+00 0 0 0
498 2 4.9220000000000006e+00 7.1042950623783341e+00 9.2970306009210635e+00 0 0 0
517 2 7.3830000000000009e+00 7.1042950623783341e+00 9.2970306009210635e+00 0 0 0
159 2 0.0000000000000000e+00 9.9460130873296642e+00 6.2063926874894682e+00 0 0 0
161 2 0.0000000000000000e+00 8.5251540748539991e+00 6.2063926874894682e+00 0 0 0
188 2 2.4610000000000003e+00 9.9460130873296642e+00 6.2063926874894682e+00 0 0 0
190 2 2.4610000000000003e+00 8.5251540748539991e+00 6.2063926874894682e+00 0 0 0
184 2 1.2305000000000001e+00 1.2077301606043163e+01 6.2063926874894682e+00 0 0 0
186 2 1.2305000000000001e+00 1.0656442593567498e+01 6.2063926874894682e+00 0 0 0
221 2 3.6914999999999996e+00 1.2077301606043163e+01 6.2063926874894682e+00 0 0 0
223 2 3.6914999999999996e+00 1.0656442593567499e+01 6.2063926874894682e+00 0 0 0
480 2 0.0000000000000000e+00 8.5251540748539991e+00 9.2970306009210635e+00 0 0 0
481 2 1.2305000000000001e+00 9.2355835810918343e+00 9.2970306009210635e+00 0 0 0
495 2 2.4610000000000003e+00 8.5251540748539991e+00 9.2970306009210635e+00 0 0 0
496 2 3.6915000000000004e+00 9.2355835810918343e+00 9.2970306009210635e+00 0 0 0
479 2 0.0000000000000000e+00 1.1366872099805333e+01 9.2970306009210635e+00 0 0 0
493 2 1.2305000000000001e+00 1.0656442593567498e+01 9.2970306009210635e+00 0 0 0
494 2 2.4610000000000003e+00 1.1366872099805333e+01 9.2970306009210635e+00 0 0 0
512 2 3.6914999999999996e+00 1.0656442593567499e+01 9.2970306009210635e+00 0 0 0
536 2 7.3829999999999991e+00 1.1366872099805333e+01 9.2970306009210635e+00 0 0 0
559 2 8.6134999999999984e+00 1.0656442593567498e+01 9.2970306009210635e+00 0 0 0
225 2 4.9220000000000006e+00 9.9460130873296642e+00 6.2063926874894682e+00 0 0 0
227 2 4.9220000000000006e+00 8.5251540748539991e+00 6.2063926874894682e+00 0 0 0
270 2 7.3830000000000009e+00 9.9460130873296642e+00 6.2063926874894682e+00 0 0 0
272 2 7.3830000000000009e+00 8.5251540748539991e+00 6.2063926874894682e+00 0 0 0
266 2 6.1524999999999999e+00 1.2077301606043163e+01 6.2063926874894682e+00 0 0 0
268 2 6.1524999999999999e+00 1.0656442593567499e+01 6.2063926874894682e+00 0 0 0
313 2 8.6135000000000002e+00 1.2077301606043163e+01 6.2063926874894682e+00 0 0 0
315 2 8.6134999999999984e+00 1.0656442593567498e+01 6.2063926874894682e+00 0 0 0
514 2 4.9220000000000006e+00 8.5251540748539991e+00 9.2970306009210635e+00 0 0 0
515 2 6.1524999999999999e+00 9.2355835810918343e+00 9.2970306009210635e+00 0 0 0
537 2 7.3830000000000009e+00 8.5251540748539991e+00 9.2970306009210635e+00 0 0 0
538 2 8.6134999999999984e+00 9.2355835810918343e+00 9.2970306009210635e+00 0 0 0
513 2 4.9220000000000006e+00 1.1366872099805333e+01 9.2970306009210635e+00 0 0 0
535 2 6.1524999999999999e+00 1.0656442593567499e+01 9.2970306009210635e+00 0 0 0
4803 1 6.7436273292834583e+00 1.5236109659137893e+00 1.4167190485201862e+01 1 0 1
2588 1 9.2568915703034307e+00 2.7880366097394869e+00 1.4256861600958787e+01 0 0 0
4921 1 5.2187350534555863e+00 3.0703114931634512e+00 1.2146274603841754e+01 1 0 -1
2568 1 7.9191282314037741e+00 4.2282921601994250e+00 1.1738784297230714e+01 1 0 -1
899 1 3.6428658879417304e+00 5.5899859879317475e+00 1.1633155520503776e+01 0 1 0
4187 1 3.4859266931552990e+00 5.2838520721256019e+00 1.4755555503902444e+01 0 0 0
2494 1 8.8544528545961465e-01 5.2723072549409356e+00 1.1906083152145129e+01 1 0 0
2333 1 8.6801122662030057e+00 6.6894484938266743e+00 1.2983288890714499e+01 1 0 0
793 1 6.6682645300659269e+00 8.5428372926474854e+00 1.6735867184022858e+01 2 0 1
2509 1 9.3537482656073472e+00 7.8803169401200766e+00 1.6127891841116117e+01 0 0 -1
4330 1 3.4767236560498693e+00 1.1244191003471059e+01 1.8515401219455416e+01 1 1 0
4119 1 7.6825069726450934e-01 1.0255263436087375e+01 1.2664566467610531e+01 0 0 1
4295 1 3.4602338097721494e+00 1.0392963859106493e+01 1.1814660167339515e+01 0 1 0
2475 1 9.2829572406988845e+00 7.7377821768692501e-01 1.8550180097043619e+01 0 0 -1
20 1 5.1818668942391923e+00 7.9978114142059455e+00 1.1875355520206554e+01 1 2 0
4917 1 6.9158472111397060e+00 1.0111076879078544e+01 1.4445592232336731e+01 1 0 -1
3328 1 7.6096963815502550e+00 9.2728707521001361e+00 1.1958948409169961e+01 1 0 -1
3183 1 2.6301506609882130e+00 2.0110351708475043e+00 1.3954004295295283e+01 0 0 0
1741 1 2.9273328362686506e+00 3.3056774909350628e-01 1.6095298521441769e+01 0 1 0
2316 1 3.2025559619234398e+00 3.5484301041755204e+00 1.9124577492094662e+01 0 1 0
3408 1 5.3522978304115565e+00 1.4359698516711126e+00 1.6321716792318234e+01 0 0 0
3375 1 1.1482130228997822e+00 2.5287750263898494e+00 1.7770935669268411e+01 1 1 0
2561 1 8.7055709120239966e-01 3.7096972381675362e+00 1.5218431741193092e+01 2 0 1
833 1 1.0655061243982817e+00 7.4110329604755041e+00 1.8962547617367012e+01 0 0 0
4095 1 8.1047766790496620e+00 2.8492790222010127e+00 1.9807278029035100e+01 1 0 0
713 1 1.6757211378839139e+00 7.6838152317722059e+00 1.6257567013495049e+01 1 1 0
49 1 5.0966294556647496e+00 4.0610971617609337e+00 1.7082158138407557e+01 0 -1 -1
4802 1 7.4035208694855417e+00 5.2816275944782980e+00 1.7923664435258225e+01 1 0 0
2559 1 2.0013681954539444e+00 1.1512618515392539e+01 1.6358940747278254e+01 0 1 -1
2635 1 4.4517872138065711e+00 7.8742045067271524e+00 1.4817971410784375e+01 -1 0 0
2413 1 6.5093297888514305e+00 1.0717363317080089e+01 1.9039343642094288e+01 1 2 0
1717 1 1.8708981920287873e+00 2.8892134080954590e-01 1.1800418880050232e+01 1 0 0
3976 1 7.7532769661814731e+00 7.6912625833886503e+00 1.9533131504118174e+01 0 1 -1
1623 1 4.3334969955877360e+00 1.1035538806531632e+01 1.4360449553675217e+01 1 0 -1
3374 1 9.3205664882841113e+00 4.6601951945360008e-02 1.5741998783879026e+01 0 1 -1
3236 1 1.4144301861519506e+00 2.9396487278466137e+00 2.3062104623872855e+01 0 0 -1
782 1 5.1535659646483536e+00 6.5515897850229079e+00 2.1465501702535260e+01 1 1 0
3197 1 8.6404908725827561e+00 7.6546913962289569e+00 2.2709842491570544e+01 1 1 -1
1621 1 1.2644182555275059e+00 1.0795552493487666e+01 2.1622680586992175e+01 0 0 0
1825 1 8.6848412166978406e+00 1.1817587012773410e+01 2.6019028313007553e+01 0 1 -1
1571 1 6.4971255991896610e+00 2.1682137711935310e+00 2.1856520636299848e+01 0 0 -1
731 1 9.4369111012908391e+00 5.3788030148016270e+00 2.1036523073685586e+01 0 0 -1
2516 1 2.1877213049994424e+00 5.4307571598227167e+00 2.0873017428576595e+01 0 1 0
1501 1 4.4770338752347421e+00 4.4142584023460367e+00 2.3552418018440555e+01 0 0 0
3426 1 2.6987461781954338e+00 1.1300632535679924e+01 2.6241951361437895e+01 1 1 0
3324 1 7.0856481916469809e+00 5.7310125859533638e+00 2.6017220148511630e+01 0 1 0
3364 1 3.4570490524935980e+00 8.7633039279595533e+00 2.3450521035427865e+01 1 1 -1
1674 1 6.1040844116757107e+00 7.5119740113814304e+00 2.4104573270534708e+01 1 0 -1
1767 1 7.3774708404878426e+00 9.7456288850262354e+00 2.7555637976326423e+01 0 0 0
4066 1 1.3609396079883911e+00 7.3333791724492814e+00 2.4559898173865410e+01 0 0 -1
1788 1 2.6106628184565733e-01 2.1705320576668701e+00 2.7377269610212522e+01 1 0 0
4780 1 5.2676179612032303e+00 9.9965407252839515e+00 2.5816682865523145e+01 1 0 0
3251 1 8.5023853080363523e+00 1.0509055837915957e+01 2.1365499540241167e+01 0 1 0
5005 1 3.1682975121911783e+00 1.1701045782578245e+01 2.3282627652786154e+01 1 0 0
4189 1 3.6763765180065073e+00 2.2694607318086861e+00 2.1297188351502331e+01 1 1 0
725 1 3.2433430826151319e+00 8.7024152812086086e+00 2.0565980649952316e+01 2 0 -1
4085 1 2.5086732034828980e+00 4.8797493416551818e+00 2.5352141080864673e+01 0 1 0
3409 1 6.1585286179741061e-01 9.1589766189023614e+00 2.6748815860164616e+01 1 0 0
2348 1 1.9932679067849264e+00 1.6820615961325862e+00 2.5521400342777877e+01 1 1 0
1809 1 6.6077518612320087e+00 1.5653171760007774e+00 2.7023642153284104e+01 0 1 1
1495 1 5.6694834582265754e+00 1.2043480403871198e+01 2.2098038530146674e+01 1 1 0
4861 1 6.8120573633746755e+00 3.2271148206421327e+00 2.4678081271591672e+01 0 1 0
3219 1 4.3663064275791150e+00 5.6079124829561735e+00 2.7508567835654041e+01 0 0 0
2655 1 4.0005860115395819e+00 2.7955672619247401e-01 2.6859065522430715e+01 -1 0 0
4986 1 9.3657015954758804e-01 5.4708666657079597e-01 2.1505937788923454e+01 1 0 0
1585 1 1.0999520003447816e+00 4.6683493528396216e+00 2.8342068075301967e+01 1 0 0
660 1 9.3912854457853552e+00 1.2303080015633225e+00 2.8157119763131430e+01 0 -1 1
3413 1 9.0441058397921186e+00 3.7531908827623872e+00 2.3210388819342423e+01 0 0 0
780 1 3.7160783811631108e+00 8.2137923585358656e+00 2.7673246926151279e+01 0 1 0
1486 1 9.3387578978839585e+00 7.7154307442120151e+00 2.6577969929811506e+01 0 -1 0
117 1 6.1989772133782353e+00 3.4889977229372433e+00 2.9266893582555209e+01 0 0 0
5013 1 9.8265735474933891e+00 1.0672835354578776e+01 2.3921271640490485e+01 0 0 -1
3506 1 2.2824022478466812e+00 2.5796527595367706e+00 3.2003935068003571e+01 1 1 0
1543 1 5.8599882141727733e-02 3.8743041907303524e+00 3.0908962386996272e+01 1 1 0
3194 1 9.4010306133011454e+00 6.8153967701154681e+00 3.8313386937673350e+01 1 0 0
721 1 7.9302061672940418e+00 2.3814896758519462e+00 3.2916293780824873e+01 0 1 0
961 1 3.1730293521305297e+00 1.0759651054095896e+01 3.4228212499919223e+01 0 -1 -1
3241 1 6.2473630560554607e+00 1.5668094739582521e+00 3.0883297295992303e+01 0 1 0
1548 1 8.5869963572274113e+00 4.4333881277438376e+00 3.0137837220970884e+01 0 1 0
130 1 2.9001616016035459e+00 8.5185600012669429e+00 3.0421698870555062e+01 2 0 1
4208 1 3.8537471930098044e+00 6.3134905375314814e+00 3.1715197345938488e+01 0 0 -1
4845 1 8.7219966397929767e+00 1.1722168383874005e+01 2.9969911566830376e+01 1 1 -1
4979 1 5.8684286314892402e+00 6.2682912109309781e+00 3.3877244022454349e+01 1 0 -1
1590 1 9.8248120765044771e+00 4.0103127388372437e+00 3.8147357250531336e+01 0 0 -1
1660 1 8.1918090612453920e+00 7.6489383020506745e+00 3.3175695308890589e+01 0 0 -1
3253 1 3.4420129142159097e+00 1.0926769418971656e+01 3.1566366176030627e+01 0 0 -1
1507 1 8.5970997805019245e+00 1.1653993294350451e+00 3.7956983571224569e+01 1 0 0
3192 1 1.1604762682447818e+00 1.1767312087493643e+01 3.0537663555054252e+01 0 0 0
4037 1 6.5057033421004409e+00 1.1055193914940491e+01 3.0979326710342949e+01 1 0 -1
4293 1 7.6517328165492025e+00 1.0372932921647081e+01 3.3439701583934031e+01 1 1 0
2547 1 2.7893580454459066e+00 2.5582640316040544e+00 3.5201528440582756e+01 1 0 1
5025 1 5.8184253265166985e+00 1.7082794833442378e+00 3.8323974003396074e+01 1 1 -1
1645 1 3.5508652671124250e+00 3.8932233899628770e+00 3.8528460513169996e+01 0 1 -1
4868 1 5.3995350476992927e+00 1.8913693558417641e+00 3.5697490001788893e+01 1 1 0
2372 1 1.2441480729989949e+00 2.7307295815644568e+00 3.7629467164353869e+01 1 0 0
2377 1 5.6186498859905596e+00 1.0613049343044263e+01 3.5394023032573330e+01 0 1 -1
1617 1 4.8694912555832142e+00 8.0040391076396222e+00 3.5782534347218963e+01 0 1 0
4825 1 6.9889827138270304e+00 4.1452494422950368e+00 3.5087661280779074e+01 0 1 -1
3209 1 8.0827635997712637e+00 2.8207135192823130e-01 3.5146266978814069e+01 0 1 0
3240 1 2.5507063895810673e+00 5.0213212094067803e+00 3.3774852165038837e+01 0 1 0
3238 1 3.8117108901342558e+00 6.7706653802686363e+00 3.8478273260500792e+01 1 -1 0
3362 1 2.0893177663879201e+00 8.6699777679504653e+00 3.5522366085138124e+01 1 -1 -1
4076 1 6.6998570449049906e+00 7.2677132187929674e+00 3.8271712732718612e+01 1 1 -1
3344 1 6.6935540075783608e+00 4.4900338168868625e+00 3.7913558172701755e+01 0 1 -1
44 1 7.2857657896898003e+00 1.0177203728635691e+01 3.8417530745483887e+01 2 1 0
88 1 5.1269539771488244e+00 1.2094921679886498e+01 3.7871377249286937e+01 0 -1 0
1854 1 1.4892076039207212e+00 8.6684963763993679e+00 3.8079454271138481e+01 1 0 0
3980 1 4.9342891381992889e-02 9.0497079692744133e+00 2.9836946519784075e+01 0 1 0
797 1 8.6326737591461651e+00 7.2229299976006143e+00 3.0530336658582346e+01 0 1 0
932 1 3.5681577561844495e+00 4.2684475157538007e+00 2.9932026581914091e+01 0 1 -1
4955 1 3.5209619180324986e-01 8.9855419234316098e+00 3.2729142299365336e+01 1 1 0
1766 1 6.0980968308138390e+00 8.4625338485322725e+00 2.9691546693962643e+01 0 0 0
181 2 0.0000000000000000e+00 1.2787731112280996e+01 3.1157547740577729e+00 0 0 0
183 2 1.2305000000000001e+00 1.3498160618518829e+01 3.1157547740577729e+00 0 0 0
218 2 2.4610000000000003e+00 1.2787731112280996e+01 3.1157547740577729e+00 0 0 0
220 2 3.6915000000000004e+00 1.3498160618518829e+01 3.1157547740577729e+00 0 0 0
179 2 0.0000000000000000e+00 1.5629449137232333e+01 3.1157547740577729e+00 0 0 0
214 2 1.2305000000000001e+00 1.4919019630994494e+01 3.1157547740577729e+00 0 0 0
216 2 2.4610000000000003e+00 1.5629449137232328e+01 3.1157547740577729e+00 0 0 0
259 2 3.6915000000000004e+00 1.4919019630994494e+01 3.1157547740577729e+00 0 0 0
263 2 4.9220000000000006e+00 1.2787731112280996e+01 3.1157547740577729e+00 0 0 0
265 2 6.1524999999999990e+00 1.3498160618518829e+01 3.1157547740577729e+00 0 0 0
310 2 7.3829999999999991e+00 1.2787731112280996e+01 3.1157547740577729e+00 0 0 0
312 2 8.6135000000000002e+00 1.3498160618518835e+01 3.1157547740577729e+00 0 0 0
261 2 4.9220000000000006e+00 1.5629449137232333e+01 3.1157547740577729e+00 0 0 0
306 2 6.1524999999999990e+00 1.4919019630994494e+01 3.1157547740577729e+00 0 0 0
308 2 7.3829999999999991e+00 1.5629449137232333e+01 3.1157547740577729e+00 0 0 0
353 2 8.6135000000000002e+00 1.4919019630994494e+01 3.1157547740577729e+00 0 0 0
210 2 0.0000000000000000e+00 1.7050308149707998e+01 3.1157547740577729e+00 0 0 0
255 2 2.4610000000000003e+00 1.7050308149707998e+01 3.1157547740577729e+00 0 0 0
208 2 0.0000000000000000e+00 1.9892026174659328e+01 3.1157547740577729e+00 0 0 0
212 2 1.2305000000000001e+00 1.7760737655945832e+01 3.1157547740577729e+00 0 0 0
251 2 1.2305000000000001e+00 1.9181596668421495e+01 3.1157547740577729e+00 0 0 0
253 2 2.4610000000000003e+00 1.9892026174659328e+01 3.1157547740577729e+00 0 0 0
257 2 3.6914999999999996e+00 1.7760737655945832e+01 3.1157547740577729e+00 0 0 0
298 2 3.6914999999999996e+00 1.9181596668421495e+01 3.1157547740577729e+00 0 0 0
302 2 4.9220000000000006e+00 1.7050308149707998e+01 3.1157547740577729e+00 0 0 0
349 2 7.3830000000000009e+00 1.7050308149707998e+01 3.1157547740577729e+00 0 0 0
300 2 4.9220000000000006e+00 1.9892026174659328e+01 3.1157547740577729e+00 0 0 0
304 2 6.1524999999999999e+00 1.7760737655945832e+01 3.1157547740577729e+00 0 0 0
345 2 6.1524999999999999e+00 1.9181596668421495e+01 3.1157547740577729e+00 0 0 0
347 2 7.3829999999999991e+00 1.9892026174659328e+01 3.1157547740577729e+00 0 0 0
351 2 8.6134999999999984e+00 1.7760737655945832e+01 3.1157547740577729e+00 0 0 0
387 2 8.6135000000000002e+00 1.9181596668421495e+01 3.1157547740577729e+00 0 0 0
245 2 0.0000000000000000e+00 2.4154603212086325e+01 3.1157547740577729e+00 0 0 0
247 2 0.0000000000000000e+00 2.1312885187134999e+01 3.1157547740577729e+00 0 0 0
249 2 1.2304999999999993e+00 2.2023314693372832e+01 3.1157547740577729e+00 0 0 0
290 2 1.2304999999999993e+00 2.3444173705848499e+01 3.1157547740577729e+00 0 0 0
292 2 2.4610000000000003e+00 2.4154603212086325e+01 3.1157547740577729e+00 0 0 0
294 2 2.4610000000000003e+00 2.1312885187134995e+01 3.1157547740577729e+00 0 0 0
296 2 3.6914999999999996e+00 2.2023314693372832e+01 3.1157547740577729e+00 0 0 0
337 2 3.6915000000000004e+00 2.3444173705848499e+01 3.1157547740577729e+00 0 0 0
339 2 4.9220000000000006e+00 2.4154603212086325e+01 3.1157547740577729e+00 0 0 0
341 2 4.9220000000000006e+00 2.1312885187134995e+01 3.1157547740577729e+00 0 0 0
343 2 6.1524999999999990e+00 2.2023314693372832e+01 3.1157547740577729e+00 0 0 0
379 2 6.1524999999999999e+00 2.3444173705848499e+01 3.1157547740577729e+00 0 0 0
381 2 7.3830000000000009e+00 2.4154603212086336e+01 3.1157547740577729e+00 0 0 0
383 2 7.3829999999999991e+00 2.1312885187134999e+01 3.1157547740577729e+00 0 0 0
385 2 8.6135000000000002e+00 2.2023314693372832e+01 3.1157547740577729e+00 0 0 0
413 2 8.6134999999999984e+00 2.3444173705848499e+01 3.1157547740577729e+00 0 0 0
182 2 0.0000000000000000e+00 1.2787731112280996e+01 6.2063926874894682e+00 0 0 0
219 2 2.4610000000000003e+00 1.2787731112280996e+01 6.2063926874894682e+00 0 0 0
180 2 0.0000000000000000e+00 1.4208590124756663e+01 6.2063926874894682e+00 0 0 0
215 2 1.2305000000000001e+00 1.4919019630994494e+01 6.2063926874894682e+00 0 0 0
217 2 2.4610000000000003e+00 1.4208590124756663e+01 6.2063926874894682e+00 0 0 0
260 2 3.6915000000000004e+00 1.4919019630994494e+01 6.2063926874894682e+00 0 0 0
491 2 0.0000000000000000e+00 1.2787731112280996e+01 9.2970306009210635e+00 0 0 0
492 2 1.2305000000000001e+00 1.3498160618518829e+01 9.2970306009210635e+00 0 0 0
510 2 2.4610000000000003e+00 1.2787731112280996e+01 9.2970306009210635e+00 0 0 0
511 2 3.6915000000000004e+00 1.3498160618518829e+01 9.2970306009210635e+00 0 0 0
490 2 0.0000000000000000e+00 1.5629449137232333e+01 9.2970306009210635e+00 0 0 0
508 2 1.2305000000000001e+00 1.4919019630994494e+01 9.2970306009210635e+00 0 0 0
509 2 2.4610000000000003e+00 1.5629449137232328e+01 9.2970306009210635e+00 0 0 0
531 2 3.6915000000000004e+00 1.4919019630994494e+01 9.2970306009210635e+00 0 0 0
264 2 4.9220000000000006e+00 1.2787731112280996e+01 6.2063926874894682e+00 0 0 0
311 2 7.3829999999999991e+00 1.2787731112280996e+01 6.2063926874894682e+00 0 0 0
262 2 4.9220000000000006e+00 1.4208590124756663e+01 6.2063926874894682e+00 0 0 0
307 2 6.1524999999999990e+00 1.4919019630994494e+01 6.2063926874894682e+00 0 0 0
309 2 7.3830000000000009e+00 1.4208590124756663e+01 6.2063926874894682e+00 0 0 0
354 2 8.6135000000000002e+00 1.4919019630994494e+01 6.2063926874894682e+00 0 0 0
533 2 4.9220000000000006e+00 1.2787731112280996e+01 9.2970306009210635e+00 0 0 0
534 2 6.1524999999999990e+00 1.3498160618518829e+01 9.2970306009210635e+00 0 0 0
557 2 7.3829999999999991e+00 1.2787731112280996e+01 9.2970306009210635e+00 0 0 0
558 2 8.6135000000000002e+00 1.3498160618518835e+01 9.2970306009210635e+00 0 0 0
532 2 4.9220000000000006e+00 1.5629449137232333e+01 9.2970306009210635e+00 0 0 0
555 2 6.1524999999999990e+00 1.4919019630994494e+01 9.2970306009210635e+00 0 0 0
556 2 7.3829999999999991e+00 1.5629449137232333e+01 9.2970306009210635e+00 0 0 0
579 2 8.6135000000000002e+00 1.4919019630994494e+01 9.2970306009210635e+00 0 0 0
211 2 0.0000000000000000e+00 1.7050308149707998e+01 6.2063926874894682e+00 0 0 0
213 2 1.2305000000000001e+00 1.6339878643470165e+01 6.2063926874894682e+00 0 0 0
256 2 2.4610000000000003e+00 1.7050308149707998e+01 6.2063926874894682e+00 0 0 0
258 2 3.6915000000000004e+00 1.6339878643470165e+01 6.2063926874894682e+00 0 0 0
209 2 0.0000000000000000e+00 1.8471167162183658e+01 6.2063926874894682e+00 0 0 0
252 2 1.2305000000000001e+00 1.9181596668421495e+01 6.2063926874894682e+00 0 0 0
254 2 2.4610000000000003e+00 1.8471167162183658e+01 6.2063926874894682e+00 0 0 0
299 2 3.6914999999999996e+00 1.9181596668421495e+01 6.2063926874894682e+00 0 0 0
506 2 0.0000000000000000e+00 1.7050308149707998e+01 9.2970306009210635e+00 0 0 0
529 2 2.4610000000000003e+00 1.7050308149707998e+01 9.2970306009210635e+00 0 0 0
505 2 0.0000000000000000e+00 1.9892026174659328e+01 9.2970306009210635e+00 0 0 0
507 2 1.2305000000000001e+00 1.7760737655945832e+01 9.2970306009210635e+00 0 0 0
527 2 1.2305000000000001e+00 1.9181596668421495e+01 9.2970306009210635e+00 0 0 0
528 2 2.4610000000000003e+00 1.9892026174659328e+01 9.2970306009210635e+00 0 0 0
530 2 3.6914999999999996e+00 1.7760737655945832e+01 9.2970306009210635e+00 0 0 0
551 2 3.6914999999999996e+00 1.9181596668421495e+01 9.2970306009210635e+00 0 0 0
303 2 4.9220000000000006e+00 1.7050308149707998e+01 6.2063926874894682e+00 0 0 0
305 2 6.1524999999999999e+00 1.6339878643470165e+01 6.2063926874894682e+00 0 0 0
350 2 7.3830000000000009e+00 1.7050308149707998e+01 6.2063926874894682e+00 0 0 0
352 2 8.6134999999999984e+00 1.6339878643470165e+01 6.2063926874894682e+00 0 0 0
301 2 4.9220000000000006e+00 1.8471167162183658e+01 6.2063926874894682e+00 0 0 0
346 2 6.1524999999999999e+00 1.9181596668421495e+01 6.2063926874894682e+00 0 0 0
348 2 7.3829999999999991e+00 1.8471167162183658e+01 6.2063926874894682e+00 0 0 0
388 2 8.6135000000000002e+00 1.9181596668421495e+01 6.2063926874894682e+00 0 0 0
553 2 4.9220000000000006e+00 1.7050308149707998e+01 9.2970306009210635e+00 0 0 0
577 2 7.3830000000000009e+00 1.7050308149707998e+01 9.2970306009210635e+00 0 0 0
552 2 4.9220000000000006e+00 1.9892026174659328e+01 9.2970306009210635e+00 0 0 0
554 2 6.1524999999999999e+00 1.7760737655945832e+01 9.2970306009210635e+00 0 0 0
575 2 6.1524999999999999e+00 1.9181596668421495e+01 9.2970306009210635e+00 0 0 0
576 2 7.3829999999999991e+00 1.9892026174659328e+01 9.2970306009210635e+00 0 0 0
578 2 8.6134999999999984e+00 1.7760737655945832e+01 9.2970306009210635e+00 0 0 0
596 2 8.6135000000000002e+00 1.9181596668421495e+01 9.2970306009210635e+00 0 0 0