LAMMPS data file via write_data, version 29 Oct 2020, timestep = 8000000

6328 atoms
2 atom types

0.0 49.22 xlo xhi
0.0 49.019635930410494 ylo yhi
1.9740569949421243 58.08794300504654 zlo zhi

Masses

1 18.015
2 12.01

Atoms # atomic

1506 1 5.399402167636275 18.770069910132467 2.189662140066144 5 3 0
3566 1 4.198042042299558 2.5453838940629905 5.378968399321686 3 0 0
3329 1 4.3506974641072045 2.463887092697547 2.6467017971997775 -4 4 0
2847 1 8.001063571976692 1.0528076426676785 5.111502889716432 -2 2 1
3315 1 8.992807260210439 21.450208571305577 2.235946746829412 -4 3 1
5205 1 15.750934252345933 2.7176072210445286 4.9041415723691095 -2 2 1
4964 1 12.015196020841316 23.92764114438505 13.088811950700219 -7 -4 1
3507 1 20.040300127109482 1.0658975546084675 4.76929172864989 1 0 0
1902 1 19.870593693392117 1.072889632505197 2.021627387756182 1 5 1
1370 1 13.87116345135638 15.730668584418568 2.425671223425718 2 0 1
319 1 7.484779351729882 5.763075948618194 5.372803167389675 -4 -3 1
3370 1 8.38588466443311 1.1178462599387056 2.548276017634605 2 4 0
1249 1 11.781187994440124 3.9302611282931386 5.258336305457732 2 2 1
429 1 2.9724532457361135 0.3469696618146584 8.691421247530954 -1 -2 0
2075 1 19.312285717183272 5.351279223423971 5.212062834352938 -4 0 1
4666 1 23.37600949647472 4.148030432195644 2.400980939716113 -2 -3 1
3085 1 23.657781184481316 4.047348719172811 5.159319380211732 -1 -3 1
5201 1 9.513688530944636 17.367499956894786 2.1207495553740863 -2 0 0
2829 1 3.6375040323344003 6.950719066258312 5.471328523830852 -1 -1 1
4904 1 24.194089101977987 17.587272826048157 6.321555690436507 -2 6 0
1635 1 6.612135701739724 10.152404846476871 5.252784890762644 -3 -1 0
2096 1 0.22607932717906196 4.065973472101501 5.45326992728868 2 0 1
4571 1 10.904140059321703 8.27849777807128 2.5660300830870733 -3 2 1
3408 1 11.028630976478135 8.627533670520046 5.441894999729712 -2 1 0
5103 1 15.21685933837155 6.636831519211311 2.219547302037124 1 4 0
1592 1 15.223984297358422 7.024456705215189 5.020267995519697 -3 4 1
1372 1 18.533162667901646 10.13217350070991 5.370140541463455 2 -3 1
5117 1 18.737695956734168 9.846785080689795 2.7892475892478448 -4 3 0
3642 1 23.05562297366955 8.429133314947977 5.373158096208446 -1 -1 0
1718 1 7.397917824991941 5.399047426345481 2.4040024361407273 0 4 1
1726 1 2.6666342374726506 11.573716849001531 2.4699366847317012 4 -1 1
3494 1 2.6662370719404445 11.47982156794111 5.183694183200762 -4 1 0
1290 1 3.435076683345913 6.934398013076439 2.56586177472615 6 1 1
4620 1 10.352319987586931 12.884191061451618 5.118890748642727 -1 -7 0
352 1 3.130187327577136 0.08093593331801213 5.984971237409927 -1 0 0
2120 1 14.228559562337514 11.370615855902994 5.085325841818009 -1 0 0
206 1 15.063216520544021 0.283772811778588 19.57424257977776 2 1 0
4900 1 22.43732910484933 12.96190565017706 5.460626028629661 -3 3 0
3334 1 1.628311769782187 15.737352743296071 5.062807098417547 2 -1 1
2121 1 1.994804003700928 15.848399355648104 2.367397168672294 -2 0 1
3655 1 6.1594322757886975 14.474639024702997 5.22520638049506 1 3 1
4637 1 6.30294690842262 14.661449869201906 2.423305026582938 3 4 1
5072 1 9.539675544912251 17.30724230227324 4.821025839368114 -1 -3 1
3284 1 13.674942016083646 15.602421321569459 5.266591262888912 0 1 0
1909 1 10.234812401449956 19.473622603294448 20.532405927083396 -2 -1 1
3577 1 17.86852209223188 14.251883286384205 4.847044317475912 -1 -1 0
2837 1 21.84963942835156 17.581207113559547 2.2645130237547324 3 -2 1
2079 1 0.0028948310778581445 24.484650305975062 4.882633580352289 -1 3 1
3320 1 21.699369768376286 17.26617796799737 4.894329082452992 0 1 0
4800 1 0.9674007178107814 20.267921010344068 2.4048289906328844 1 4 0
3079 1 0.9336198104755467 20.04559884462287 5.115881721290258 1 -2 0
1445 1 5.353537321048227 18.59271506433282 4.8276205232306815 1 -3 1
2957 1 3.5637350002133457 0.18031092318303707 20.151782384221935 -1 5 1
4833 1 22.926596117360045 8.075220725137134 2.612688172926429 -4 0 0
6278 1 13.212392762753034 20.035616128318328 4.8157684383566774 4 -4 1
4661 1 0.2715839645678394 4.463645341312355 13.377798555452738 -4 0 0
3399 1 17.354077469921915 18.54793835713208 5.184088059238164 0 2 0
341 1 14.966023292042644 0.0930014590448883 16.89081665760073 1 0 0
303 1 4.18502529549556 22.920171960883742 4.885885307671479 3 -3 0
4982 1 4.3926170386204895 22.942745676899214 2.2818376934991007 0 -2 0
1701 1 8.952507660032898 21.453290037552698 5.054194995316657 -2 2 1
3245 1 24.294761292033204 17.517460316009416 17.191095104517505 -1 -1 0
1958 1 10.733388955516517 12.856564504469455 2.4487652317040647 1 2 0
5994 1 16.781883265965877 22.98537215145159 5.127268502973648 -2 0 0
1442 1 0.23130524333091917 11.097356943355262 12.522848008398327 1 3 1
119 1 21.53896173637823 21.409578631781528 5.246063196773358 -2 0 0
151 1 24.517297610356124 6.626909552923659 12.485964419435089 5 2 0
1589 1 14.863339411067665 0.08544363637843477 5.55777870025161 -1 1 1
2795 1 6.308212347299851 2.8336784541229996 8.962418812439317 1 -2 1
3587 1 6.642561093142773 3.230510457684574 6.352227470212781 0 -2 1
3159 1 10.573175969397134 1.7353399414868904 8.469487417332498 0 0 1
1841 1 10.650046158070785 1.5251159977016224 5.736056578080891 -2 -4 0
6057 1 21.077735445679465 3.5749390820606592 20.521108325761283 -4 -1 1
1499 1 5.251524482519224 12.273904082834209 19.85782483443424 1 7 0
465 1 18.353572397011117 2.893341358965366 5.711736583988833 0 4 0
87 1 18.445305341276082 3.1948683810076974 8.48418906825955 -4 -2 0
1398 1 22.574527666529875 1.4174865526171558 5.684825853141108 0 -3 1
4522 1 22.789133155240812 1.4509960324071858 8.469622030286587 1 7 1
6300 1 2.577716204181129 4.584640989850997 6.285379882683434 2 0 1
4575 1 2.5156814695828085 4.795272413111421 9.157471662721308 -2 2 1
180 1 9.799432335919265 6.184276015135785 9.031957912834038 -3 -1 0
1903 1 10.056013487427029 6.103807225470853 6.152719570113371 -2 -3 0
4512 1 14.592237882130034 4.632237748911898 8.747162018250581 -4 1 1
5190 1 14.386268587019442 4.8047343556009 6.096615355349221 1 2 0
3405 1 21.92002348316511 6.105230888672956 6.032701179757314 -2 2 1
2955 1 21.804802578039922 5.984200618366441 8.714014843697688 -2 0 1
6164 1 1.8533965360457791 8.806911425303689 6.031020537958834 2 3 0
2798 1 1.6586383017894322 9.428870593051759 8.722123048206607 -2 -2 1
5970 1 5.973819600166718 7.636034398540949 6.337171779173258 0 -1 0
4996 1 5.644103677792201 7.596660316126836 8.875853622122126 2 -2 0
3546 1 8.146929485058061 8.207702154598861 9.957265608265047 0 1 0
6202 1 13.498229645097988 8.858508456312146 8.86959100622084 -2 1 0
121 1 13.496301039890586 8.845647531007014 6.072627382061449 0 2 0
163 1 17.83948777601747 7.778670214263146 5.862678863627707 1 -1 1
4958 1 17.60667152031896 7.791443526166291 8.573101010996076 2 3 1
4933 1 1.0176162683740084 13.48389523876294 6.253254303441483 5 3 1
3330 1 0.9962539933485248 13.843659282449062 8.99111865923129 -1 -3 1
1895 1 5.14170019725656 12.093015747266874 6.110985444930258 -3 0 0
4997 1 4.9992366148116485 12.202041179434241 8.910202590276278 -1 -2 0
1629 1 9.285508289057239 10.470870123153498 6.084599977312003 1 -5 0
2856 1 9.20719569354536 10.50466706928243 8.849161522906481 -3 4 1
6080 1 12.773473391152288 13.381349826561827 6.081837780311953 1 -1 0
3622 1 12.63979244456173 12.963151277766805 8.797563701060056 4 4 0
436 1 16.969253074387787 12.013990633340795 5.863654503434418 -2 -2 0
5074 1 17.09814285455987 11.995452743453354 8.813530049365848 3 2 0
5006 1 21.491893466813615 10.679993583044407 8.748299076915455 1 1 1
5058 1 21.23520248969417 10.38201430736663 6.132579351125423 0 1 1
4837 1 4.284601217736347 16.258175918902115 5.970282185089225 2 -1 0
4888 1 4.2316065419314315 16.540991897934983 8.888416020368215 0 4 1
5195 1 8.800569283388771 14.841164428314721 5.841472960959139 2 4 0
4635 1 8.562553646559504 14.873136437857605 8.639396115328157 0 0 0
481 1 16.308573892045093 16.03250785140384 5.96205079921981 -2 5 1
3529 1 16.17977223492877 16.19556295676749 8.757499501738659 0 -3 0
4680 1 20.328463617669613 14.977142524403323 5.9060075176282965 0 -1 0
3012 1 20.354462118609092 15.047309659995921 8.639754103259765 1 -2 1
6041 1 23.540580874384908 22.012989479209892 20.047740937212428 -2 1 1
1950 1 3.630599566535949 20.77844140898961 8.543049132349568 3 0 0
3482 1 3.6375200128443614 20.425087380786117 5.768816786849037 -4 2 0
1296 1 7.7373707018504785 19.146321755512055 5.677127920478072 -2 -1 1
3487 1 7.703223760741693 19.461870214748075 8.366517437026625 1 0 0
196 1 12.147786933676858 17.81852736974092 5.787886880038484 -1 -2 1
3716 1 12.187686763435568 17.630202452690607 8.543452500927566 0 3 1
1842 1 15.639092512178172 20.573114648404434 5.893844170744755 0 -1 0
6048 1 16.02497571354385 20.733924615601467 8.673044449751178 2 1 1
279 1 19.983848412652343 19.012338775284093 5.570025389450837 4 1 1
5208 1 19.943699771621723 19.042340066202062 8.475537310234632 1 -1 1
260 1 14.66446431939112 11.014281062775556 2.549958078295782 -2 4 0
1965 1 0.06972465369616002 17.9080987779752 8.555839404683 3 0 1
1962 1 6.832890452182618 23.46826871026927 8.63579146845225 0 -2 0
1435 1 7.112308116660266 23.238730983931863 5.821675905083769 5 0 1
1814 1 11.70958060185252 21.959154226795032 5.869644965508479 -1 0 0
452 1 11.503241855895155 22.127324943156275 8.628391657729226 0 0 1
2922 1 19.494714276362508 23.238661821621893 6.075340925984208 -4 3 1
5158 1 19.371595764215492 23.515494195710946 8.882327780726504 2 -1 1
1495 1 23.62584936411933 21.39268618855125 8.771589069238246 1 -2 1
3200 1 24.12289084669157 21.837048437584468 6.025868583413778 -2 1 0
3486 1 1.4508767567692744 2.376939216331861 10.053728801246596 -1 -2 0
3435 1 1.7313607767635897 2.2061683321615524 12.815599314136556 1 0 1
5055 1 5.493483105497363 0.341354253700212 9.874548914505247 2 -2 0
3332 1 5.553169998055674 0.7886077837198842 12.858507978431277 -2 -2 0
6039 1 13.216892565452726 2.0073418627993282 9.650154669015613 1 0 1
5991 1 13.529311432042201 2.5710595946348964 12.669697900049647 2 -2 0
6299 1 17.301414068369628 0.723440281837595 9.403504381838873 1 1 0
2037 1 17.514154981371675 0.4526839039174503 12.007708037605545 -2 4 0
1641 1 1.0903016002951813 7.160111566994029 12.589068730822824 4 1 1
2040 1 4.99063314630559 5.3017858871310395 10.044551705433395 -3 -4 0
4469 1 4.853470364815532 5.242136027701229 12.781394445863665 0 -2 1
3095 1 8.989799640040083 3.5050971155072133 9.802812977517275 -1 4 0
4974 1 9.053964564196233 3.7244800084687655 12.6327348551844 -4 -1 0
457 1 12.506428271286497 6.253903898344088 9.824690621690731 -1 0 0
5267 1 12.62603617786266 6.601220708827191 12.418184343073113 1 -1 1
2869 1 17.07032939536309 5.361249639702437 9.539424219320644 -1 1 1
43 1 17.04345691646413 5.156960799166584 12.332708864866575 -2 -1 0
5039 1 21.00420079559361 3.591057558529609 9.307062899660533 -2 2 0
3356 1 20.929041068310724 3.4943352728868855 12.231733454542594 -2 -2 0
36 1 0.9229391138953872 7.025000970496988 9.80118796535506 3 -6 0
371 1 4.211333092908991 9.713099727694113 9.775933698214967 -4 0 1
4878 1 4.0665995561847375 9.53748393895109 12.576610989673236 0 1 1
3623 1 8.35121871352897 8.007468719639979 12.555365914305778 5 -1 -1
3077 1 15.925047339183097 9.808659158975033 9.686377103092624 -2 -1 1
2033 1 16.055519300692946 9.43406630599191 12.590134890209573 -2 0 1
1668 1 20.21194042138452 8.146497765619563 9.471713777930281 1 0 0
5121 1 20.588574601962648 8.19223330318263 12.178125119973334 0 -1 0
408 1 7.567125578984793 12.486616331608154 9.644678721158126 -3 1 0
72 1 7.330121288152376 12.43586627326475 12.197481194084933 3 0 0
3145 1 11.851992507558336 10.598914973860644 9.685952687012545 -2 1 1
1238 1 11.491948235470828 10.840071430574536 12.496403185624045 -1 2 1
549 1 15.413284677642158 13.631132064953297 9.853742950501308 -2 0 1
123 1 15.414046680395437 13.557314455504423 12.63106960045218 1 5 1
2119 1 19.63719984332218 12.51224607848373 9.676209216891595 -3 -4 1
1449 1 19.793447916650454 12.353183495868267 12.475857753859714 0 -1 1
3216 1 24.221562222837203 10.993808359939324 12.538386575638537 -1 0 0
4615 1 24.261451598425648 10.786154986350843 9.793412039915555 0 0 0
3402 1 3.480441996084747 14.127256375881297 9.957328502536534 4 4 1
4417 1 3.3976847900344604 14.260046087376717 12.67370399339837 -1 0 1
5220 1 6.656555470581836 17.127829228797296 12.248489384377379 1 -1 0
1898 1 6.882209081805237 16.947086506342803 9.289109723410752 0 0 0
1778 1 11.24160742533734 15.19030501339808 9.577694743383685 0 -3 0
1971 1 11.329371294239605 15.206149165561742 12.259847612218781 -2 -3 0
1855 1 18.70232872287359 16.8965896779114 9.719227902313111 5 2 0
1494 1 19.06062750923984 16.37782629834103 12.517310055063275 1 1 0
3036 1 22.927351218463254 15.052181756542103 9.628694173393935 4 -1 1
1862 1 23.557301714169213 15.134428556676053 12.356123764325837 -1 1 0
3338 1 2.677286424578728 18.550664810270785 9.576997419606963 0 -2 0
2964 1 2.2702119186743133 18.500887575814783 12.399377173959229 3 5 1
222 1 6.168907710121199 21.18433856287345 9.277932448309818 -1 2 0
1349 1 4.97512338334806 18.945442425068528 13.230843282821924 2 -3 1
4641 1 10.33800687055393 19.49446091763302 12.175712984073257 -1 1 1
1245 1 10.462707398934874 19.476749662633775 9.452948730329165 0 -2 1
387 1 14.67018340982796 18.23745474130509 9.378868360853616 4 2 0
4867 1 14.788764159995194 18.153152134065255 12.19105272730449 0 -3 0
5967 1 18.689979680083475 21.11953524291449 12.381203106039097 -4 1 0
2903 1 18.583990742883966 21.021024866865364 9.573654524332959 -4 -4 1
3383 1 22.49908950285909 19.153973448095435 10.057252055884534 3 1 0
2797 1 22.785745877032284 19.47641008193705 12.729321616550488 0 -1 1
6026 1 19.16780940831547 23.077719902160695 16.740281043099486 -1 0 1
1545 1 1.9721569412934965 22.679089518115333 9.76601711844351 3 -2 1
4930 1 1.743889390818793 22.436551705965726 12.626032998688782 0 3 0
6160 1 6.42095838464638 21.188811779873483 12.028572246781406 1 -5 1
3222 1 9.420368762733235 23.82880761016588 9.381742591057936 2 0 0
6283 1 9.523691691617191 23.830773321346943 12.191480592892548 3 0 0
259 1 14.076051146537248 22.161891083777203 12.447083333323315 -2 2 0
4648 1 14.158186919939272 22.37990547934952 9.625138976502715 -2 0 1
6098 1 21.858674784358236 23.578752149819636 9.713771043275374 -1 2 1
4798 1 22.48111402542878 23.692286916793023 12.327130718079129 -2 1 0
1412 1 4.079512704522561 2.858960345596639 13.758482813281718 4 -2 1
2804 1 4.230151298974768 2.8370010623606934 16.323831810846738 -1 1 1
4499 1 8.390591360462805 1.1743697816002252 13.469285157474681 3 3 1
5125 1 8.196265152309168 1.162399510652505 16.265373891382296 0 -3 0
230 1 11.026460195077567 1.6491689125884728 16.894876452725 3 3 0
1241 1 16.026524698163485 2.7400450240101786 13.308663491271204 -1 -3 0
4573 1 16.07121578785183 2.672846927408246 16.135013269341144 -3 -2 1
6103 1 19.98882400774771 1.1665646504617222 12.931304762915373 3 -1 0
1326 1 20.399605423402743 1.3761521463310005 15.76446189552471 -2 4 0
5192 1 18.613479406657014 3.2680866205930164 16.871553123019126 3 -1 0
3300 1 3.0475929187918203 7.612768839131571 16.484214492079033 3 -1 0
3 1 7.316540084079436 5.507930651581965 13.672426832646726 0 7 0
3380 1 7.356902347029541 5.916740380184673 16.247158870816577 0 2 0
2117 1 11.639920715537007 4.472481391684574 13.365299799878319 1 -3 0
5096 1 11.669234553059374 4.326152193837233 16.093893199201894 1 -4 0
5017 1 15.250716281356947 7.204189585152415 15.900269255901497 1 0 1
4989 1 19.734125488680846 5.667885809594882 13.11890598489031 1 -2 0
1808 1 19.545961035518758 5.74980834326429 16.094473450994048 0 0 0
2989 1 23.525934872839347 4.017859070714831 13.264851058988592 -7 -4 0
3089 1 23.78123702563742 4.313367526898179 15.94497569894646 3 3 1
3349 1 3.379993565588814 7.316040097147102 13.78393584196887 0 5 0
3186 1 6.752195707323443 10.327386099832374 16.229676463320033 2 0 0
1737 1 6.6764649816274835 9.989640616008966 13.396037372804184 2 7 1
1331 1 10.873168906419325 8.347614671526452 13.449467827343312 1 -1 0
1243 1 10.777238091121921 8.308098851682145 16.10824722751351 -3 3 1
5007 1 15.272034509203042 7.064990646717822 13.33234194656707 3 1 0
3044 1 18.66493846900726 9.910640576564006 13.317598815086173 6 1 1
1268 1 18.730807236250207 10.117287649497388 15.851455356084246 -2 0 1
5989 1 23.008033198664194 8.650807553863752 13.406583688447904 0 0 1
4489 1 22.85637786921376 8.119171888399624 15.934456855074707 -1 5 0
5077 1 2.6739090208080856 11.731648960175574 13.764050469193576 4 4 1
1304 1 2.376813664819237 11.659862577073694 16.379797075528298 5 3 1
3647 1 4.933718567051469 12.310997608617127 17.022039122653442 2 2 0
5004 1 10.131175767869149 13.206528854567974 16.131326766302564 -3 1 0
4540 1 9.956124417300657 12.91725939155782 13.382442163792746 -2 -1 1
544 1 14.077030771919231 11.244238492884165 13.26069027007075 -2 7 1
1350 1 14.677545443138804 11.49374342668095 15.843462846462002 2 -1 0
5148 1 22.62385416329348 12.673577805770444 13.497297107988233 -5 -1 0
5265 1 22.31859304695414 12.774244652088864 16.078983787995092 1 0 1
3572 1 1.599323074155853 16.125055843317295 13.374604050734302 4 1 1
5176 1 1.4598057551833652 15.780312301015938 15.973092421188172 -5 3 0
6238 1 6.026928380464731 14.587566044144317 13.35886231709145 -3 -3 1
4978 1 5.711723737518628 14.786181139655445 16.004960796314776 4 3 0
5149 1 9.508705418917447 17.244826356292233 13.286946066414872 1 3 1
3164 1 9.337619724858982 17.563952866169807 16.08892731255876 -3 1 1
497 1 13.809595080226856 15.639000643231565 13.230605414569416 -3 -1 1
6270 1 14.053053990531758 15.912144360242296 16.082333931687685 -6 -7 1
4722 1 17.952081180778183 14.041809090502372 13.45190759731933 -2 4 1
1707 1 18.15384270666214 14.357977575748865 16.272164338891535 0 -5 0
3344 1 20.665451455373887 14.865081455164878 17.14482209938884 0 -3 0
4875 1 21.719784896218634 17.341363310909603 16.193745754878776 1 0 1
3468 1 0.26816217635604567 20.273765724546386 13.484846548534728 -3 1 0
3278 1 0.6329924228431014 20.383386678636235 16.321352680297498 2 -5 0
4962 1 5.038524406931886 19.102163770116178 16.040112655167796 -1 0 0
3123 1 12.750659412141317 19.67362502577481 12.938548127915462 -3 -1 1
1812 1 12.893434548342329 20.017052262631275 15.89303509270662 0 -2 0
6135 1 17.516191871724786 18.861626126279248 13.293213885590838 -1 -4 1
311 1 17.33590629088831 18.755603535459628 16.021809011632183 -1 -1 0
4852 1 19.952504876932437 19.465970944789195 16.593992510979405 1 3 1
1664 1 21.603113132415444 16.93485549367759 13.444949279061817 -1 -4 0
4863 1 4.5691812409813455 23.10433269343687 13.385214268319348 3 1 1
1353 1 4.456183462982883 23.061173666904104 16.04395382564931 0 -1 1
5031 1 8.743443888340812 21.461775728291475 13.328931375798716 5 0 0
28 1 8.727102718477441 21.554553461241127 16.06090970096044 1 3 1
5003 1 11.822586421914389 3.784628683634509 2.433230509769069 0 0 0
1728 1 11.36516963254433 21.713603688235175 16.964880258594608 2 0 1
3254 1 16.519224732220664 22.942427386559764 13.19072520908284 -1 -1 0
3613 1 16.436911461679916 22.87256841029211 15.883505585540567 1 -2 1
5981 1 23.93614685166415 21.828345978783094 17.23822660581016 -3 2 0
5054 1 21.201715052355066 21.476704919774583 13.248210999152489 1 4 1
4525 1 21.476384160666104 21.728939271089978 15.906836502164518 2 3 1
3510 1 3.351616378506601 0.3950356119368608 17.40831263972953 -2 4 0
4893 1 6.934479690929103 3.407076009358051 17.005378835624164 0 4 1
2815 1 6.282967051864201 3.2494458682007807 19.92326965119586 6 -1 0
3197 1 11.043008151577775 1.5853124122937416 19.769541394579452 4 -4 0
6184 1 18.585484251080683 3.0649610182603153 19.454070184622353 0 2 1
2017 1 22.770034307139397 1.676598312295033 17.118032398340738 -1 -2 0
4742 1 22.821813251628562 1.4256013423634326 19.6859405329356 3 3 0
3235 1 2.717780870397923 4.806553088069217 17.24963999047869 2 -1 0
5146 1 2.4338483023161275 5.019376975031974 20.02999281573874 0 -2 0
1786 1 9.859779586992582 5.831331799001142 17.282623210997905 -2 -2 1
5145 1 10.015703794923327 5.890559867291973 20.033979586104824 -2 -2 0
4891 1 24.088699379936223 17.4160923606742 8.926099431098137 1 7 1
3528 1 19.196218781715924 5.3916999141508795 2.3303853111722463 -4 0 0
307 1 6.815566448919443 9.988571568025192 2.499535636604471 -2 0 0
4426 1 14.247737936455497 4.813529767289027 16.872093513774153 0 -1 1
1691 1 14.51799359575355 4.798993370749426 19.88176911517461 3 3 0
1974 1 22.184329486905078 5.92181392102535 17.169554639250883 1 3 0
3666 1 21.918104367387574 6.104343653758158 20.00573297602836 -1 -1 1
5279 1 1.1979160686379815 9.31415286501969 17.270232336007467 3 0 0
3098 1 1.4438850759935615 9.613471748469442 19.974455383009282 -1 0 0
5120 1 5.76879788123832 7.9205212025660705 17.097666414706424 -2 4 0
4856 1 5.890113711761382 7.623318607121769 19.708973700540426 -3 -2 0
2061 1 13.338080824122963 8.932930921099974 16.85232791376142 0 0 0
4927 1 13.267910014843705 8.725059981743096 19.59773555643484 2 -2 0
1908 1 17.72678736544505 7.8234997671665 16.932337075967826 1 -2 0
4817 1 17.724333028761567 7.814587730210507 19.7297818684419 2 -2 1
1583 1 21.183990634081873 10.111962957274951 16.92218400794914 3 1 0
4827 1 21.389637435856468 10.568016715309668 19.616827218368613 0 6 1
1491 1 0.768119231218815 13.548298251885777 19.87224994578524 2 -2 1
4781 1 0.806363036529216 13.530021986179943 17.16367245607264 4 5 1
1334 1 13.07241706630046 20.20032858334762 2.0342106730625633 2 -1 0
3099 1 19.259195100263877 23.439450917336163 19.4907755080965 -3 3 1
4980 1 9.459502851799058 10.505413358677039 17.034583158141995 -2 1 0
3652 1 9.362424645776063 10.39705250955429 19.78501986031132 -4 5 0
18 1 12.89392973510702 13.505840108580962 16.693804491627958 4 2 1
1603 1 12.831528666263086 13.388055547633245 19.489412783832766 0 0 0
4708 1 16.86679974214054 12.078535043697231 17.00849136141793 1 0 0
6045 1 16.970761203735112 11.677402806804675 19.756446832263258 3 -3 1
1250 1 0.22768818882309746 4.321169707271804 16.220696129141277 2 0 0
2796 1 3.9503494954625724 16.616280003198444 16.641728568229016 3 -2 1
6108 1 4.382397577975688 16.558938869026875 19.2793930895781 2 -1 1
6230 1 8.522985910009629 15.06641129557336 16.986119697927883 0 -4 1
3630 1 8.678838541658804 15.255330108937018 19.694944597829338 0 -3 0
4733 1 16.55805489021931 16.372885280417016 16.968360619625635 2 -3 0
2973 1 16.662839730703574 16.33068794257705 19.732625156148092 4 -6 1
1455 1 20.588485654268307 14.776410167723043 20.004992842245194 -2 -2 1
3126 1 17.440914625904664 18.52782679251262 2.4840866366761096 3 3 0
1765 1 3.295274027798849 20.84585075589079 17.086601167420323 7 -3 0
3675 1 3.293670442298603 20.441531461377686 19.742022753193073 0 -5 1
4491 1 7.50303956275762 19.160944505087365 17.002551245411844 -2 -1 1
441 1 7.629798491292215 19.50012963504803 19.822982195913465 4 1 1
3081 1 16.848599629610817 22.885204119063836 2.3828609875985087 -1 0 1
1433 1 12.081074421889314 17.687183607845924 16.991164098618267 -5 -3 1
6032 1 12.148060493346444 17.69122774667926 19.557725037824984 4 3 1
3661 1 15.461800932651643 20.511264471514806 17.027344705760065 0 -4 0
3124 1 15.744163281274634 20.449895023238795 19.74663616150718 -2 4 1
1385 1 20.02807209208533 19.031672409708243 19.57563887068993 -1 1 1
6156 1 24.266648846443374 17.535207869075467 19.856841582264128 -4 -1 1
6003 1 14.801763972606409 0.017900554959107185 8.541924725976607 4 -3 0
5231 1 6.996286293154361 23.571715141313785 16.913094745013986 1 2 1
3052 1 7.098464935372456 23.532916825030448 19.63271166691408 2 -1 1
4605 1 11.498644613013164 21.87285913595007 19.640660593996923 -1 -2 1
3574 1 6.889176505928156 17.15803518657167 20.506301221180085 0 0 0
370 1 21.268450986276683 21.146350356725705 2.5775896155106914 2 -2 0
1730 1 22.35649409614554 12.942893080797958 2.4586708141354316 0 0 0
304 1 15.70628499479815 2.41345208770893 2.173880133501689 -3 5 0
2878 1 0.29786510477638795 4.28110683624172 2.8126183441062986 -3 -1 1
3004 1 8.010590070185472 12.684419694143944 20.52179620154559 -1 -4 0
1410 1 14.835665988930094 18.169153106583387 20.677573648054896 1 0 1
2816 1 17.00380373811647 5.240535031538651 20.537133811776755 -4 -1 1
4753 1 12.193026074186667 24.307527320465134 16.030846493198077 0 0 1
6288 1 18.39932875256047 21.00669670269105 20.628036807326648 0 1 0
1725 1 3.406258862621402 14.269999838366479 20.46583245150509 1 3 0
3055 1 23.98211354675754 10.649457298847258 20.580341188096106 1 -1 0
1375 1 17.58111672697293 0.5558317920532632 20.35876818275396 1 -3 1
2825 1 0.12185660795691969 11.365285771364979 9.744065345729062 -2 3 1
6072 1 5.809634814086739 21.33312900906391 20.651831182636684 -6 3 1
4769 1 13.9605157892146 22.33769879483785 20.640750129531884 3 -1 1
3536 1 4.194636461600743 9.840583833566818 20.462761728320295 3 3 1
6105 1 2.179507669066572 18.19456116911081 20.364093527983112 -3 -1 0
4477 1 11.066530468164741 15.35399600185365 20.440291754101956 1 1 1
4952 1 15.43688367144427 13.90002634116028 20.594329015481197 -3 0 0
1274 1 11.734402239309368 10.992718143182055 20.523823185150576 -1 -2 1
4801 1 12.248508956895016 24.074340838313972 2.1613228474270105 -1 0 0
438 1 15.680767084009549 9.363413793861323 20.65965589457803 -5 3 1
4436 1 9.815787073835232 23.614710956217355 20.66744390259897 1 -4 1
2926 1 1.354472763064037 2.3772912646295064 23.584147458370815 2 -3 1
3657 1 16.531324351241967 20.54708651283715 39.20134273114218 2 0 -1
5288 1 21.611639653031293 23.900426624632125 20.732193159521884 -3 2 1
4860 1 5.9937061741179205 0.9526862700546889 23.94341965025551 0 1 0
1 1 6.625606451722989 3.5129286706273053 24.42472563865547 -5 -1 0
1283 1 0.07165567080869101 10.819134921801664 35.7214210170157 -1 0 -1
1515 1 9.121882846027786 3.3746297171532 23.50289017646847 0 -1 1
1528 1 13.417348845521728 2.160584904472184 23.737533108975025 2 3 0
3163 1 10.929169495423203 1.665346095678274 24.597422429405203 2 4 2
4859 1 3.2870870741332765 0.35742195843466174 24.555536374627295 -3 1 0
361 1 17.482368959775858 0.8193557594765148 23.159371580793536 -2 3 0
6163 1 18.777321806792735 3.2225079072797183 23.930117858563072 2 -1 0
1935 1 0.29849224015783893 2.71172167055001 35.773624179736366 3 1 -1
1922 1 22.668071458491134 1.7333458217086677 24.323298396643747 2 1 0
5987 1 2.5957763936162253 4.915531750078999 24.203328940573698 3 -2 1
6051 1 0.6374195651160101 6.843998318496377 23.645256089801162 1 -1 1
3638 1 15.197436327915064 0.11038538217899 24.56145470222846 -2 0 1
4409 1 4.997531136153359 5.414224291160666 23.45936691402397 1 2 0
4502 1 24.40676814591875 21.35477929656655 36.617510204330195 -1 -4 0
6317 1 9.956198398660138 6.022405699850031 24.42032518146067 4 1 1
1661 1 12.542583610972398 6.399555737408591 23.7480001461487 -1 -1 1
3397 1 14.473189774939526 4.551794164241084 24.030277820318638 -3 3 0
1886 1 17.139367156505212 5.1927809881478195 23.287753124394314 1 0 0
415 1 21.34129189849615 3.835451709223354 23.129079845852743 -1 1 1
1797 1 22.007012795667826 6.189522071832664 24.120509459593887 1 -3 0
5111 1 9.049631559789923 3.3406283935476204 20.75244548977916 2 8 0
541 1 1.7514245158565185 9.147946909559852 24.384088910366216 1 0 1
3379 1 4.139577143503625 9.73444197110204 23.329572995551633 -1 -1 1
6295 1 5.889909757035602 7.676102603691881 24.483340431239043 1 1 1
4840 1 24.25770231710127 14.501780496413389 35.61386972501958 -4 0 0
5313 1 8.382212931829956 7.986431310045701 23.47099588717337 3 -1 0
4 1 15.504615388932876 24.329058812334452 36.25096565186334 -3 1 0
1563 1 13.376165059837787 8.836402013954435 24.570378548367852 -3 0 0
3584 1 15.918409715746517 9.41893325990793 23.362504002627265 -4 -2 1
6136 1 19.821268514952603 22.91368037889867 39.095818042487 -2 -3 0
4488 1 17.78326088164794 7.719867394419194 24.347024136287626 -4 1 0
3417 1 20.261322730324235 8.311242449431884 23.52337823905591 2 -6 0
1705 1 22.383119910106792 19.493154446872857 20.77986577437197 0 3 0
321 1 21.35939000629056 10.705204349595348 24.305313584026656 3 1 0
3208 1 0.9398767631398802 13.701428285468255 24.443364605716983 1 -1 1
1731 1 14.949145581818957 0.4387997548148094 36.52623556428456 1 0 -1
398 1 7.593222460800321 23.112160655123546 39.220612845814394 -1 3 -1
3496 1 4.677766985330992 12.38540894418689 24.231630910183156 0 0 0
5235 1 9.134770430785121 10.663997617899641 24.222313129204085 4 -1 1
1324 1 7.323481580733596 12.578815637257538 23.21406233939574 3 -3 1
3075 1 16.748073292730748 15.820077440317629 39.05116144857932 -1 2 0
1336 1 11.574446361352326 10.751804002078154 23.175072481343403 0 -2 0
3127 1 12.618564319529542 13.291492737065404 24.150825059905628 -1 0 0
3304 1 0.8116953049134373 7.073204980649211 21.048592425785152 3 -2 1
1588 1 15.239534666521385 13.954161901040006 23.235145547819652 4 -2 1
5102 1 16.781429500102476 11.980003064770584 24.159028385794564 5 2 0
5060 1 22.977557669651453 23.322212703505986 35.57584415336129 -2 3 0
4959 1 19.63586755502552 12.604135496362913 23.70440107654594 3 1 0
4912 1 21.34275995649573 9.929216167397996 38.6275284668329 0 0 0
2820 1 24.013631045877247 10.8534888390025 23.339626176683844 -5 -1 0
2988 1 3.505843849528405 14.372520417458729 23.341481382861627 3 -2 1
3109 1 7.058900075159797 16.971744334068184 23.09493183842886 0 -2 0
3282 1 20.309800251513334 22.864444194714423 36.12173680207671 0 -1 0
1346 1 8.469676689308999 14.87680131296916 24.106310488052753 2 1 1
4611 1 10.956604255170749 15.220764378412833 23.198418149522393 -4 -2 1
3481 1 23.274938570992145 15.038564646169668 20.70483848607007 5 2 0
1548 1 16.384747809354767 16.068316046522263 24.50165574272025 1 -3 1
3700 1 19.1009738692363 16.770029065931713 23.680914394127562 1 0 1
2961 1 20.756093069259343 14.754965648356967 24.401116332251906 1 1 1
3365 1 1.5800630288657154 22.5735776673765 20.76268881141934 1 -4 1
342 1 23.277241811476156 15.004978447376462 23.432357445930222 -3 0 0
3347 1 14.183702413485921 22.065448837150946 35.49383960728886 2 4 -1
4897 1 24.379827504411015 17.53438213705961 24.261194731155253 0 -3 1