LAMMPS data file via write_data, version 29 Oct 2020, timestep = 100000

6328 atoms
2 atom types

0.0 49.22 xlo xhi
0.0 49.019635930410494 ylo yhi
3.3998653171463857 56.6621346828513 zlo zhi

Masses

1 18.015
2 12.01

Atoms # atomic

5025 1 2.44428826987635 23.046777513393504 16.943775714533068 1 0 0
3675 1 7.754596152912918 11.533355887584843 21.013750246956292 1 -1 1
1508 1 0.6104064147200955 3.8012289766329874 17.75343795529612 1 0 1
3551 1 5.6573554527806875 2.9092625206226437 4.654412738628431 1 2 0
3161 1 8.404161802856198 0.1464946320243323 3.8938593973237428 1 1 1
1716 1 0.12092712563453034 2.3314633650536383 20.222207296590824 1 1 1
3419 1 19.60453826578763 4.046786525421621 5.65679954080749 0 0 0
1928 1 18.084865580431323 2.0594351733707956 4.3659403267998185 1 0 0
3188 1 12.881999521711473 13.146329761374213 4.058870977322167 1 -1 0
1707 1 22.000614073397088 3.0475344504370394 4.934243175433847 0 1 0
126 1 1.6088649992772077 5.093409185441931 5.595663236503615 1 -1 0
3494 1 6.141618417497173 6.22321465054472 7.141279517706694 1 1 0
3034 1 3.749811141932617 4.49302665497195 3.7939047500612473 1 1 1
3459 1 9.196971009762743 4.670713956933246 5.054885631078457 2 0 0
2974 1 23.26447845612823 4.554125703291531 6.780651305728612 1 1 1
396 1 18.810715422671606 23.889965018609367 3.9003224865058668 0 -1 0
5159 1 14.33440881786409 2.2341993539954745 5.7256211305190625 0 1 0
10 1 24.05631319056548 10.794075660060926 18.348563166380217 0 0 0
2032 1 24.071153702917496 1.7237908040043965 14.02607457234885 1 -1 0
4522 1 0.24190140959402423 7.615214220880819 5.210355155975473 0 1 1
352 1 3.264384772777263 8.055897541819105 5.43445661437017 0 1 0
1568 1 5.171156425621603 6.849198121231433 3.7752130294807897 0 0 1
4726 1 7.861376298429057 7.304527368280902 4.385929017454255 0 1 0
4426 1 10.04184507895166 9.67852564048124 3.4920151121137044 1 0 1
111 1 0.2315067747475649 24.18739140391106 19.50564697787551 1 1 1
3170 1 14.107631225938906 8.75453237396268 6.337493351443822 1 0 1
3105 1 20.946009632888163 1.797676711555 21.031474820343917 -1 1 1
4892 1 24.53841735593395 5.434516759695163 16.637229591333412 0 0 0
4816 1 18.81848251244697 10.518811427211674 6.5420951557186555 1 0 1
4593 1 20.25334832076485 9.112275925452735 3.991062344520394 0 1 1
1322 1 0.4605283211941631 21.24936275323099 16.34404730513628 1 2 1
401 1 22.861439468509502 10.213231745859044 4.2903646428686635 -1 0 0
3397 1 1.8334739380478247 10.886179338746498 8.21870756597152 0 0 0
280 1 18.92926898570407 6.236092119684405 3.961559734260847 -1 2 1
3086 1 2.8025147087438294 13.407469579842974 6.158861663314381 1 0 1
3375 1 4.455617856725794 9.062004662514171 19.590236887879314 1 0 1
254 1 8.010724021157912 9.579558962702778 6.78688704242974 1 0 0
1640 1 24.239171526351917 7.76495534142192 4.813009849309672 -1 -1 0
4677 1 16.607270040542453 11.526015661928822 4.8824242400059585 -1 0 1
366 1 10.534692502710243 13.184368694470816 5.462258347207763 0 0 0
35 1 16.765830092533303 14.368189341762063 5.730442405650862 0 0 0
119 1 13.727119318424952 11.26926551580419 5.886197673190271 0 1 0
2967 1 22.296053397881057 12.915843210983297 5.565370556478811 0 0 1
1898 1 1.546171924795781 8.72751688750184 20.546686745813737 0 0 0
1932 1 22.437454020648367 11.133719524116378 12.998234608468248 0 1 0
3309 1 4.2981028988872705 15.964273286839518 5.439956875157668 1 1 0
4613 1 14.477448198512793 15.297556291998676 4.472572344151338 0 0 1
4495 1 18.827560261709138 15.384662890002932 4.238444466009737 1 1 1
3218 1 20.654812063283234 16.78210433648531 6.07019561974936 0 0 1
2938 1 23.20972746342261 17.432342986186857 5.003241386539722 1 0 0
6237 1 2.916695413701815 19.91612551983265 4.702453361390464 1 1 0
500 1 7.883847693588703 13.504863442646174 17.69051061135019 1 1 1
3411 1 7.197320370913973 18.751271167919693 6.742552599635886 1 -1 0
3104 1 7.214858257331636 21.441018627231447 6.00680795548541 0 -1 1
3186 1 9.511642197322212 17.691271746996847 5.9143247181769745 0 1 0
2914 1 13.74857271153698 17.434341015759486 6.287618935960675 1 0 0
182 1 16.611116135907483 18.240076215855954 7.262913115245695 1 0 1
5169 1 19.582149870293513 19.24441686568499 6.256667217762338 -1 1 0
6058 1 21.24903882451024 20.713100575867653 4.366170257417984 1 0 1
5963 1 4.374015523273438 22.54409917268895 5.025696378017202 1 -1 1
3000 1 16.756024500952645 23.928336951669195 18.610687707993613 0 0 1
6187 1 16.466030713026445 0.8965342009304084 14.07215461189558 1 1 0
328 1 13.928903531236251 24.24656894932865 3.6486701101779335 0 -1 0
4621 1 13.603969180733218 23.689929947996877 13.952258481612542 2 0 1
5187 1 13.647782571189564 21.952258744615868 5.429232361459731 0 0 0
3424 1 16.58633946855504 20.621346554481487 5.564756203288114 1 -1 0
3127 1 10.053866991003733 1.074426656931984 14.536519629422257 0 0 0
3014 1 0.3409685971406049 10.897856143628008 5.770980789522939 1 0 1
1453 1 16.66127663168576 23.40170393114038 5.726008069965866 -1 -1 1
3157 1 21.183314629647395 23.466541365059772 4.727594979202322 0 0 0
60 1 2.468012188644545 0.9175381651064363 9.052228612111715 0 1 1
6075 1 22.37816525090698 9.63997258607084 20.569965658572553 0 -1 1
1576 1 7.08505557182769 3.608871377831375 6.848302174925406 1 0 1
6246 1 5.074170457950975 2.1889553797106465 8.674117412890855 2 1 1
3594 1 10.512697971814275 0.2686184365766691 7.355372137922551 0 1 0
1300 1 7.096165972084487 2.051952962690433 10.958377054932573 1 0 0
3387 1 12.907437829635631 19.206757399052243 4.363076725258175 0 0 0
1801 1 11.468417949683316 2.7703877171929108 6.362388629036525 0 0 0
5142 1 15.725756292042776 1.8062661127589157 8.297848616438912 1 1 1
1523 1 18.4275206434926 1.4684748807956896 7.332762202848626 0 1 1
391 1 23.100617012785516 0.34729978666035705 8.922835583876385 0 1 0
294 1 18.525399562008964 2.0282483919447234 10.48635536837723 2 0 0
3564 1 22.075612826576425 2.751227505522527 10.298482414185257 1 1 0
2150 1 21.11705528917471 24.095642589215448 10.896056331993359 0 0 1
337 1 4.309315316908822 4.622889126008185 9.730106172328366 0 0 0
1973 1 1.3918646735701243 0.07355331497918305 20.89640360035032 0 0 1
2087 1 9.0937729147549 2.2672768322556585 8.86222824306318 0 0 1
1563 1 12.00488352692606 6.455624258531733 5.677309535572798 0 0 0
4492 1 13.73638384240718 5.085614689756232 6.933810151859528 -1 0 1
6286 1 20.063904482610262 6.027233990948947 7.585194990566005 0 1 0
2031 1 19.92743484913386 4.47813200908588 10.053970874866057 0 0 0
1602 1 22.65566021880782 7.208045075170537 7.156193027066019 0 0 0
1977 1 20.204749945713907 0.1094762486752259 9.15372565289022 1 0 0
305 1 3.0637519056989584 6.327446067539552 7.958762004532997 1 1 0
3478 1 7.3921850459413925 7.53389796005333 9.352104608353812 0 0 0
1240 1 9.847801054216248 6.891089585375172 7.28464166103222 -1 1 0
1552 1 8.916154260303475 11.39434845409022 8.489029728350287 -1 0 1
1261 1 10.777506263989272 10.587113707535682 6.127154703253634 0 1 1
3363 1 11.872650682727718 8.695110524066402 8.395459879223864 -1 0 0
6003 1 17.497980545998033 8.558817440825944 10.161173912051582 1 0 0
4731 1 16.05913703834408 6.424657288922811 5.680027779577113 0 0 0
5260 1 17.843633595408427 7.72384964974727 7.402573481382307 -1 1 0
4605 1 3.9936116173060245 13.112553852164012 9.427756227572704 -1 0 1
5318 1 5.112314398549505 9.320638094519346 7.202670904265336 0 1 0
1344 1 6.0118333941552216 14.815532890001316 10.251686334347275 1 0 1
4707 1 7.5102767941010775 13.73853867991292 7.989943533154525 1 0 1
1832 1 14.188110005425546 12.561429713375047 8.045907488859672 -2 0 0
4785 1 20.659825843952135 12.881024798909834 7.890495337810926 0 0 0
3147 1 17.456318377600297 12.548262719662175 7.9913370779890345 0 1 0
1554 1 21.623003062804802 8.679434535124614 11.744528694743705 2 0 1
34 1 21.416010291731865 9.72850638501579 8.370577110045918 1 0 1
5069 1 24.041142225706892 13.483619439124878 10.969276791699306 -1 1 0
3093 1 0.9695341616762623 14.772544522347198 7.6586166926517585 0 -1 1
1515 1 9.715520363152418 0.6456688042773169 11.624586201171933 0 1 1
1297 1 2.2028580133754323 18.558358728176252 11.553837914387948 1 0 1
1273 1 4.956049206360036 17.779512910575225 7.810696271296946 0 0 1
3609 1 5.226790276489182 12.249190005066044 6.897273674775866 1 -1 0
1361 1 10.076050855616312 16.80845320905801 10.355809736122723 0 -1 0
3429 1 9.838570877557126 15.271356652570232 7.768769451357818 1 0 0
5099 1 12.615630636549636 15.215034236787222 7.440327400693026 0 0 0
1363 1 16.483134092599585 15.901140565150415 10.697221696171038 0 1 0
4739 1 17.829278247033322 15.771750830638243 8.25935266677023 1 0 1
3328 1 20.573093334445915 15.597185407822307 8.499764078647951 0 0 1
4646 1 21.615834401428778 12.856516323443048 10.578781642810092 0 -1 0
3476 1 2.7487649349163923 19.40612616943486 7.382188245204514 1 0 1
4953 1 8.672203089037776 19.22523023089692 8.973417545306049 1 -1 0
3121 1 8.570814964129028 22.243055648546665 9.864582758603165 0 0 0
3717 1 11.409095864747801 18.9624910283461 7.672572900033248 0 0 1
2071 1 14.200531922555333 21.061277125130374 9.829365497737047 0 0 1
4918 1 13.557487405464585 16.086591039772404 9.993702063450034 0 0 0
5026 1 19.521255606126168 19.929393560701772 10.002611583086503 0 -1 1
229 1 21.127037031243194 20.68378471669797 7.936440444027878 0 0 0
5179 1 23.466156338536557 19.342298648261124 8.811391844962227 0 0 0
203 1 7.474856331162796 22.68826300254201 18.649753384274796 0 0 0
3601 1 10.490071288750302 22.3668308671252 20.88602353842529 0 1 0
2838 1 2.513550946496614 21.775265560226536 9.140465471742312 0 -1 1
4680 1 9.668603052466727 22.71699324071616 7.121433697719755 2 0 0
1733 1 12.418411077692339 22.413331296889385 7.754966320591655 -1 0 0
1546 1 3.5624350952038295 24.07148889112479 7.345168206526644 0 0 1
312 1 2.3844828985877986 22.192116515177535 19.71087729824477 1 1 0
1497 1 16.779638528053773 19.26036130941355 10.024911868211749 1 0 1
3570 1 21.0279719487508 23.49519335903664 7.9205493983579025 0 0 0
5050 1 11.070788721676012 1.9367603742609691 3.4017766885432685 0 1 1
3413 1 3.0876196111841394 17.599584990961244 3.6045037113811023 1 1 0
4618 1 1.915453672362745 9.91949160337437 3.5299464631829673 1 0 1
3264 1 6.894589735017544 5.121154529695007 10.812763667513218 1 1 1
1939 1 7.8048193350191175 2.8167268104661054 13.713352907707774 0 1 0
5090 1 10.539960719476033 4.674756963695274 15.95260537207951 -1 1 0
6103 1 12.11411243079782 4.463535790635435 10.82518461575306 1 1 0
1269 1 6.929178305531453 15.625895081964494 5.631467748470414 0 1 1
3530 1 14.301168185214179 1.1958526867266306 12.474888565378187 0 -1 0
6243 1 18.383959560813548 2.7411343747768866 13.320366387432408 0 0 0
4664 1 18.64298435421075 6.364960147438738 13.91303148703356 1 1 0
6079 1 1.0124445285994472 3.314240483616997 7.861883447321596 1 0 1
3362 1 24.571408283628525 22.94016778783658 17.04065118486022 -1 1 0
2037 1 0.6137882403638332 0.26741419738973665 11.308086366175639 1 1 0
3401 1 15.703854359477727 24.264010544724538 11.308029808076002 0 1 1
444 1 2.780017731014799 4.840981471526075 12.101932032073238 1 -1 1
5999 1 4.53713361444729 8.945362194626638 9.982021591491113 0 0 1
2825 1 9.761271783953132 4.956857560783756 9.59882718335189 1 0 1
4514 1 11.590076624672585 7.435688190848128 12.685889366005155 1 0 1
1760 1 14.38012229171952 5.54417600337542 9.538181877964178 -1 2 0
3536 1 15.36189831937975 3.1093313719543763 10.81987097051092 0 0 1
6290 1 22.663566967943716 3.6652522316742915 12.873101880903343 0 2 1
1528 1 10.072862007751748 24.486134047518306 10.807960257769118 0 0 0
304 1 1.5978842537824862 8.325852480541558 9.16479006445569 1 0 0
6029 1 2.13614545957923 8.84002537157675 13.95945710101295 -1 0 1
258 1 6.702249353300704 6.7267702441548956 13.179338436767308 0 0 0
1860 1 8.940266452596601 7.750327813196854 11.836156483207565 0 1 0
2927 1 13.393322675501846 8.109422957878241 10.679247526881838 -1 0 1
6273 1 15.838302818832632 7.164953204857188 11.912752653043297 0 0 1
1689 1 16.588512840408864 9.047593762888974 13.95125305839252 0 1 1
3262 1 13.704958618574238 7.292130366252415 16.84690766840868 0 0 0
4693 1 19.49248190058661 6.888046060812119 11.302895159993673 2 0 0
3477 1 17.75042696105952 11.531553859404122 13.922063037824614 -1 0 0
1244 1 23.072631699624555 7.720300989647875 14.000126348444203 0 -1 1
3504 1 23.263932205242916 24.3081889244518 12.523364239455471 0 0 0
24 1 2.6746702072883966 11.574257522072024 13.467607279125968 0 -1 1
70 1 2.3971106467408516 13.831343930240498 11.695899588413909 0 0 1
5066 1 5.609389455557559 11.325489980757787 11.426605631958628 1 1 0
2054 1 8.308672003813593 10.49840126411992 10.855683550046471 2 0 1
4977 1 9.146348245579027 11.637416465731917 13.629540504058632 0 0 0
130 1 11.797622706496993 11.559960112745557 9.244985935031094 0 0 1
309 1 14.147001571274266 10.826621450233157 10.80855989084879 0 0 0
1678 1 16.793418729616587 11.579022087414442 10.487586363855215 0 1 0
1251 1 19.720101947402963 10.639751802196832 10.579025587627156 0 1 0
4647 1 0.3593768467930493 11.544694561409253 10.4339696061359 1 1 1
3561 1 4.970703127826374 17.274398459674703 10.790681533705303 1 1 1
4475 1 9.20700334536552 16.137229810873052 12.988018539527536 0 1 1
5123 1 12.570427028811437 18.6682675470416 10.485669152050722 1 0 0
5122 1 11.467579679098431 14.006177758785674 10.544277585975935 2 0 1
4595 1 16.465651946519692 19.27555315782782 12.984358175084227 0 0 0
4986 1 20.293181602100198 14.82214837277084 12.001631925633887 0 -1 1
4962 1 20.749357500680862 17.662482274061606 11.108509884190902 0 0 0
2988 1 17.705485767999555 13.674730654592201 12.280171692257472 -1 0 1
4939 1 23.128412693810507 16.838077384184988 9.530798200937024 0 0 1
6080 1 1.4591625947956355 23.37522009835045 12.398234667726761 0 0 0
1308 1 3.194751096255461 21.46374758016528 11.706720109603289 0 -1 1
6161 1 6.793360258420835 19.512250311243402 11.415903004692492 1 0 1
6115 1 10.339191150531768 20.227572490428752 11.39681854248429 0 0 0
3111 1 8.637411706819165 18.967703506737845 13.765849859333938 2 1 1
2050 1 14.062275288647232 18.086865132628997 12.929842386743788 0 0 0
3568 1 13.696236977706404 21.27155982248105 12.58741596754023 1 0 1
2025 1 20.78305892764077 17.20920846733822 21.002601061330086 1 1 0
6185 1 23.31626981542414 2.1547657349363476 16.751829290907274 1 1 1
5264 1 5.27503244995 23.511204567420922 13.883443939973148 0 0 1
3470 1 6.06460008454137 22.261782292995967 11.42598102533679 1 0 0
2106 1 0.08174299034568122 14.878107052697626 10.306889286633657 0 1 0
3197 1 6.30675015862743 13.120701958075065 4.258561310895129 2 -1 0
3200 1 22.344401203107985 3.556325238672795 19.39815480906026 0 1 0
5253 1 23.904818251669436 19.95532800684531 6.036811497517551 0 0 0
3623 1 18.404706483281526 7.083558996558187 20.488244503838775 1 1 -1
2026 1 15.438105878440922 23.554000692131766 8.842784896410421 1 1 1
3553 1 16.612985094237 22.063556094760138 12.84092055248707 0 1 0
4885 1 19.37727289997559 22.192532075892217 11.819878530813504 -1 1 1
112 1 23.913052305739953 21.238266009470824 11.949785260120988 0 2 1
3546 1 24.367231921102444 18.387920445800216 14.56239140284003 0 0 0
4637 1 1.7731077709758092 1.9515559189556615 15.313931202615914 0 0 1
468 1 3.5688114978814616 3.8339003830384946 14.741221946228848 1 0 1
3150 1 5.62803654281664 1.7951308244791877 14.568658128048684 0 1 1
1645 1 6.420564719715167 4.875262588782853 17.695761447633558 0 0 1
5315 1 17.302890765084346 22.96925389390715 15.627307937779559 2 0 0
289 1 9.995636900724492 2.603731553022687 17.186731516467326 1 0 1
3560 1 12.923055515883167 1.8426785255513023 14.626011708471545 2 1 1
3332 1 14.400884429579898 2.693194284603634 17.443168854121506 0 0 0
1985 1 16.564004852165553 1.079901682263781 17.025172512395905 2 2 0
1841 1 18.827071516455433 0.8698416857822211 18.919336578012544 -1 -1 0
6231 1 20.369809462791956 4.445215948422581 14.754704673402337 -1 0 1
3537 1 0.3544574132298217 12.022170466622294 18.479963330944152 1 0 0
5021 1 3.995657153538675 7.474324366999791 12.50692323614643 1 -1 1
169 1 23.3988233098942 8.058294218435266 9.848515731250515 1 0 1
3451 1 7.826171806104004 5.2182490903763465 15.125568412896337 2 1 0
2826 1 8.801326715356787 8.895426134660799 17.33949083346947 1 0 0
1248 1 12.288104576086512 4.501337528523035 13.722527996150163 0 -1 1
3216 1 15.213121819726389 5.19899712535092 19.15043758514959 0 1 0
5203 1 17.395462301491325 3.970867173017966 16.193847652183422 1 1 1
4812 1 16.092859346036192 4.661506544518694 13.201933997828446 1 0 0
1701 1 17.38759837742273 8.416134984823278 16.45517796287289 0 1 1
2042 1 21.023047456055266 5.39367680406593 17.475934676741495 0 -1 1
321 1 5.2011860448819345 8.582122899474632 15.024311061504058 0 0 0
1722 1 12.340367211124173 8.980170882685893 15.187896680531752 0 1 1
455 1 14.411029607240566 4.950667728436031 15.702522908833702 0 1 0
4837 1 14.208095438182276 10.815907239915328 13.86152265375968 0 1 0
3148 1 16.80185324678942 12.691839742067774 16.20836480107144 0 0 0
2812 1 17.06271440192327 10.768223052481957 18.034516374001115 1 0 0
4725 1 20.40903119681079 8.270468076547878 15.441692581051244 0 1 0
4600 1 22.44751337405812 8.192999519099857 17.514183567997147 -1 2 1
1993 1 2.0600680699103915 12.671767605233718 16.183675250665928 1 1 0
3285 1 7.58392169905558 13.705027143380992 12.448696844965852 0 0 0
3367 1 5.2562180553398 11.18382894477 14.240232575843343 2 1 0
2015 1 9.16982267791096 11.291564684314856 16.39004898553189 0 1 0
234 1 11.217032120767737 15.03100753791341 14.511256896426696 1 0 0
406 1 11.806615817994981 12.63426364836055 13.0743654832104 1 1 0
3312 1 16.812795518504217 16.06116746902555 14.57692767518148 1 0 0
3391 1 20.234856919064846 11.075490936599858 14.999942144005068 0 1 1
3485 1 18.706356925665578 14.342198055426485 17.32456698324408 0 1 0
3406 1 21.14197539299785 13.693490294327365 16.199751079308378 0 0 0
267 1 23.740612002698917 12.045043012517777 15.305474897655731 0 1 1
4652 1 3.3750292752025954 15.348036901351222 17.432794212582365 0 0 1
1654 1 1.8306152651519645 15.865629422249366 15.276290954576044 1 1 0
1524 1 3.5196764622106502 15.910922008204254 13.078694321318102 1 0 1
1648 1 10.544958371880073 18.39266882968986 18.057693496481352 1 -1 0
3 1 13.861970495323689 15.826553712293139 14.396550608675788 0 1 0
5096 1 12.954338148835173 17.325405281656455 16.788202071498088 0 0 0
1737 1 15.35954800768809 17.789070922173202 18.121861268097692 0 1 1
331 1 18.965022078398295 17.84004894977577 13.521806859851642 0 0 0
4826 1 23.537376773966145 17.012784791546558 16.971363997563095 1 -1 1
5193 1 21.079989901372475 17.732395889291872 15.573947579314694 1 0 0
1880 1 7.697319804561964 15.579137350776 19.154455327466774 0 1 0
1684 1 3.636273158061251 18.974574825260802 13.9739195998721 2 0 1
5973 1 1.686438446881748 18.684900550608898 15.904006596725582 1 0 0
2831 1 6.242294337315917 17.691827711394144 14.565968492164512 0 0 1
6052 1 6.471075985227828 19.11509896316757 16.942498406911714 0 1 0
4920 1 7.264291379035055 21.811525386486224 16.105510494033645 -1 -1 0
3331 1 10.214608173451747 20.035689172722805 15.72469517135761 1 0 0
5110 1 12.85893959292351 19.720669229562937 15.164516731409833 -1 -1 0
3070 1 14.092390453681087 21.945099880457004 16.43503641315578 1 0 1
1982 1 20.597155680106674 21.2407822281285 14.336272774068414 0 1 0
4653 1 16.277470875494895 20.643135073915612 17.967159109433695 1 0 0
3343 1 18.551202024628825 20.111367266560173 15.772577980199571 0 0 0
5074 1 22.21279326570304 19.17450749889392 13.038860943634088 1 0 0
3714 1 23.141510885066268 19.30424417561069 19.056632086007212 0 0 0
5163 1 9.548354958991975 22.982201556343302 3.7579666107672662 0 1 1
3107 1 4.443066332177805 21.54962760228817 15.372204118814663 1 0 0
338 1 5.1600166044254925 21.788755534473758 20.493022775816193 1 -1 1
1543 1 10.011021366203707 22.756943675477665 15.53557737737092 0 0 0
3480 1 10.790321441187903 22.692016817886504 12.831637909570228 1 1 0
1458 1 21.9038744395232 15.599063723342365 14.141371687993539 1 0 0
3176 1 3.5969438758735928 0.9233505339086813 17.15286795762674 0 0 0
350 1 23.703882182594164 10.965667180231371 7.273207905460649 0 1 0
3024 1 24.49761043442684 5.3849359851244465 13.744511472639656 1 1 0
1658 1 15.88989511510274 15.895003779047421 20.17189873477132 1 0 0
4855 1 16.03281079901386 3.6706644004176012 4.238620770462644 0 0 0
6174 1 7.636242685412848 2.273737827619757 18.586579450368152 0 1 0
6198 1 23.135293241231725 21.932351977024382 19.297807515286877 0 0 1
5085 1 11.958484844060404 1.0690801254690145 18.389463154419047 1 1 1
1873 1 13.595025991326985 3.0241705415238047 20.416969027576336 0 1 0
3124 1 7.97573793454182 20.766634362346103 20.927232792694635 0 0 1
3203 1 24.38886139751293 3.80971916500292 9.320716278149625 0 0 0
4938 1 6.582452988418181 10.178892399084488 4.236312043126476 1 1 0
1467 1 20.126096535172394 2.2098889907118973 16.876377713872984 1 0 1
2060 1 20.883083950802725 23.541320536029136 19.413316572920614 0 -1 1
3138 1 3.2565981690118604 5.032314654189207 17.168963082066554 2 0 0
1482 1 11.000285938700925 6.787190960696459 17.5127388503172 1 0 0
2077 1 12.601582171094146 6.693622926546181 19.861246427161408 1 -1 -1
3154 1 2.6157128008840727 6.054061630858701 20.897974575781213 0 1 1
1710 1 18.170868910676173 6.093327788738393 17.84965061144574 -2 1 0
1851 1 12.005320630148923 18.842943051690753 20.529533046918324 0 1 1
3023 1 20.378157606809083 18.676346248759153 18.323120061238992 0 0 1
437 1 12.100656117226427 23.38052610958089 18.085160467536017 0 0 0
2120 1 3.5936382814925674 7.915451406794522 17.169613183421333 0 0 0
3062 1 6.676907299364199 7.377558080336541 18.90852895544639 1 2 1
6067 1 13.340666023442388 21.238404939060064 19.669779036063332 0 0 1
1597 1 11.795292075963054 14.61843361078699 20.679254171824137 -1 0 0
5174 1 15.163665059002406 8.933163013752392 18.93405376948617 -1 1 0
1878 1 13.036857724688673 10.626371228336826 19.39821203518555 1 2 0
4778 1 18.51694780629351 10.091143057614953 20.60454271892349 0 1 0
3695 1 23.781939072855806 15.086214348446415 6.709395014267132 0 0 0
6223 1 21.34419964722394 7.043016301493531 20.27406170863989 0 -1 0
2948 1 2.0919633473364065 14.332682115069101 19.82635928157911 1 0 0
506 1 10.582462249960257 20.62300861390107 4.963785883362366 1 0 0
1281 1 5.391301866417504 13.045467034308283 16.567039408191818 0 0 1
3500 1 23.009106528731046 0.6178071663249908 5.751559190607299 -1 0 0
1371 1 5.549043674295779 11.671977277227382 19.27450655006877 0 0 1
3128 1 14.125662114072519 13.258364126758147 15.363904334557539 1 1 1
6228 1 11.814502182235023 11.344251189022375 16.865137900055174 1 1 1
4923 1 17.895636908382933 17.23276325631667 17.105476833705342 0 1 0
4998 1 18.416286656075933 14.108971944671548 20.07329629374852 0 1 0
534 1 22.95756654157949 13.553682930443092 18.547928495856034 0 0 1
3033 1 19.09950516318072 21.198175454967465 18.9910082230484 0 1 0
3498 1 5.75611560942881 14.824923810557017 14.289323447732171 1 0 0
1355 1 3.9696970977935013 18.014332420654235 17.63208537436 0 0 1
4919 1 10.07890377894348 15.683692294099973 17.21542910591991 1 0 1
3187 1 7.838531449666093 18.599539055922342 19.148496655138757 1 1 0
1764 1 11.774002268722533 1.7173348191460773 10.062619349982324 -1 1 0
1636 1 13.937872467383604 0.16170313789648447 9.447975206548449 0 0 0
1820 1 12.560445851683038 14.192027885454946 18.01224329951709 0 1 1
4525 1 1.2840646221177079 9.63208166372647 16.780271262422595 1 2 1
188 1 15.258130658924454 13.372711070587048 18.93433032559888 1 0 0
5994 1 11.769891598924195 9.044551420150981 20.88436269218407 -1 1 0
3137 1 4.4094811526531945 4.014964094531265 19.751641331268655 0 1 0
1607 1 24.461643516582804 15.552561836934096 21.145179541545783 0 1 1
5976 1 22.49398503571749 23.31549475632018 14.956849089067019 0 0 1
5197 1 5.309458092472756 0.495290017530095 6.401293365518821 0 -1 1
5097 1 3.157640832490284 18.97276504304232 20.072954282452738 1 1 0
104 1 9.0948310389196 9.289282782446197 20.196410085520093 1 0 0
3452 1 6.608549054608086 0.0667251875635428 16.4133191963097 1 1 1
4580 1 3.785383440898231 1.26148405108361 20.444165619427455 -1 1 0
4961 1 15.251599627399587 9.347271141577929 3.5463258811496376 0 1 0
459 1 21.0874561682542 14.50451107098757 20.612950718579444 0 0 0
4908 1 20.607132300851134 11.617650204135634 21.03952833680944 0 2 1
1641 1 15.269370027779534 23.42863457956241 21.096695357215715 1 0 1
6130 1 0.6787913905351167 20.236200587609986 20.96716349988028 1 1 1
253 1 10.788333235458463 2.7514398178524857 21.084765259217463 0 1 0
1794 1 12.340484430796698 8.14454372809453 3.4439036290721887 0 0 1
1924 1 4.615962354740484 3.227423063860029 24.713055934136754 0 0 1
2875 1 24.60452655359591 14.012223345921418 38.55190700533722 0 0 0
4701 1 5.746735636652048 15.449302228333078 21.35852659831779 1 0 1
2795 1 9.007924764598394 1.0525198490418424 23.939426166366957 1 0 1
2912 1 7.35430685084698 3.4424158673050482 24.14825564683163 0 0 0
5172 1 24.189756444797524 2.5159793449498835 21.518191732282435 0 -1 1
5014 1 11.35742156073185 2.3720364030490924 23.927252835939672 1 1 0
4922 1 22.891618751954212 24.450114231167568 24.59775689326638 -1 0 0
3252 1 17.179543560271032 4.591248242978593 21.64612340899053 0 1 1
5084 1 8.037298743676498 6.916673496424575 21.691275311245196 1 1 0
6267 1 3.6077748199225517 0.13782024926539949 38.89992590748125 1 0 0
3591 1 7.838381010318368 1.820906883878525 21.16272538034207 -1 0 0
4907 1 20.833418547137104 2.8014549237327557 24.19216268241493 1 1 1
5111 1 8.948500340346518 14.024175538743464 21.454812546089247 1 1 0
1666 1 20.459845068809987 22.16980050503332 36.0453770271853 1 0 -1
4881 1 5.951342575039373 20.956918642062917 38.41720014340456 -1 0 -1
5237 1 3.9758666618160086 5.589189099560089 23.561227244797692 2 1 1
1566 1 15.807548873966462 0.32903138712621643 35.80780405287402 -1 0 0
1772 1 11.629294073724692 5.071233378656471 24.19062349587292 0 1 0
5267 1 16.09952710450088 3.3946441320158725 24.442293107104057 0 1 1
1351 1 18.507057295190958 1.6647559973262034 24.27625254774289 0 0 0
1837 1 17.538232505164494 6.34991317793782 23.921335917920455 0 1 0
4461 1 21.498201722127934 5.4429191452565355 24.29590842208514 -1 0 1
6264 1 5.593886024661144 18.54865155631972 21.357919687944467 0 1 1
403 1 1.8375484925016627 8.806676293313965 23.35651718954831 -1 1 -1
5116 1 5.918852618872119 8.039504614965136 23.486309548909823 0 1 0
1962 1 8.97089079600749 8.574060898828616 24.475444889067067 0 1 0
4824 1 7.167181777437297 11.184031381708294 23.723318383137975 -1 0 0
2814 1 1.9843689002865283 23.621346299639168 35.91855956176775 0 0 0
452 1 13.176229732309785 7.451747975140092 24.217704062573578 0 0 1
1680 1 24.426061714676276 15.381070971824077 24.34778749031457 1 1 1
1804 1 15.617759917733897 8.368156071099218 23.974950009508763 -1 0 0
96 1 19.88922427030937 7.2788242498465365 23.26918626435881 -1 0 1
6301 1 18.34729907713607 1.3025105323225832 38.67384716514611 -1 -1 0
5966 1 21.453667247060658 9.71742045573444 23.791431365395027 1 0 1
3050 1 1.4320416287863822 18.66484828173147 35.992455759115714 2 0 -1
2091 1 1.7446715954387328 12.446810405412235 23.170414488581216 1 -1 1
5231 1 3.9434951005049075 10.318768839520969 24.10220601877316 0 1 1
4963 1 4.983835101534744 13.222848034868813 23.961329496818376 0 1 0
395 1 8.378552643459665 14.443031568573046 38.30951399246324 0 0 -1
210 1 14.94760066360177 23.981234486560478 24.022963371199147 0 0 0
3610 1 4.035340395688806 0.8282337797968667 23.313320316200738 0 2 0
6309 1 10.199874114383316 11.032198072328347 38.49384829662487 1 0 0
1511 1 11.41965715213562 9.379242014866728 23.554028478240568 0 0 1
3340 1 12.992684824643318 11.995296117303232 24.1454108384794 1 0 1
5100 1 15.716940387037374 11.053376177031195 24.457266526254994 1 1 0
5109 1 15.57175973080679 7.761529089546266 21.275277571188127 1 1 0
3224 1 17.627550775860012 13.19129631536737 24.231449349492646 0 -1 0
5240 1 20.34582551543132 12.591446354189136 23.770897312923044 0 0 0
3523 1 2.2219295332752234 23.44662415984961 38.688952366110165 1 0 -1
1577 1 17.712064920876394 1.6243073523270055 21.53042271078735 1 0 1
2925 1 11.48226861093477 19.844402073324396 24.10395961564572 1 0 1
453 1 21.878880329258294 14.858950370714123 38.711274821851305 0 0 0
3681 1 7.397294396933057 15.080123604266344 23.816248188445762 0 0 1
5313 1 2.506966423601864 15.13507797516182 24.622027713169263 0 1 0
1682 1 9.900213973049127 12.153664521445423 23.95120293522053 0 1 0
1616 1 12.678559779350769 14.860405754185576 24.401735479298484 1 0 0
3373 1 10.14069774393103 15.807616544408493 23.74068175856844 0 -1 0
5104 1 14.71574568388592 16.70154384234542 24.44140040703288 1 1 0
5023 1 17.476786766231168 16.18782658189194 24.22306872129096 0 1 0
6234 1 20.034864030005906 17.293334507801312 24.116892538082556 0 0 1
3180 1 21.66465729137791 15.019351122126528 23.45359705939164 -1 0 1
73 1 0.8076535752280344 20.466602983872804 23.966924344082454 1 0 0
3543 1 12.11436961898347 23.804008126861767 24.661981922272755 1 0 0
6253 1 4.281488489387126 17.468680335234694 24.36022794024789 1 0 1
1621 1 3.7783587778733074 20.1996636922173 24.42680925241646 -1 0 0
1596 1 15.912581702355368 24.1453387695922 35.65678173817069 1 0 0
1692 1 7.188194813955555 18.095978350226787 24.084255159081042 0 -1 0
3569 1 17.714007558695112 22.18562732627117 36.02037548227974 0 0 -1
384 1 18.09898430969031 1.7309756363690176 35.748385279532506 0 1 -1
6158 1 10.40484935178957 22.218269476823785 23.47749497253544 0 1 1
6046 1 14.222536071130282 19.33516350775476 23.58982439611009 2 0 0
520 1 1.9784986273713927 20.651227705617742 38.53792591771703 1 0 0
3441 1 20.55390125153864 19.830634361609526 24.22259133974891 -1 1 0
2905 1 13.434725180739894 22.832248404087135 36.11004515454091 1 0 0
11 1 0.9655857177542841 6.131762941020291 24.26975732676809 2 1 1
1498 1 13.935980769756357 1.13958874353223 24.141587467618358 0 0 1
3296 1 15.141747540850664 1.2176776317659546 21.67613871599244 1 1 0
4686 1 5.485002756833201 22.31281193564702 23.30943391103443 -1 0 0