
# Create simulation box and atoms

read_data data.ML_graphite_1atm_240K
Reading data file ...
  orthogonal box = (0.0000000 0.0000000 3.5420216) to (49.220000 49.019636 56.519978)
  2 by 2 by 3 MPI processor grid
  reading atoms ...
  6328 atoms
  reading velocities ...
  6328 velocities
  read_data CPU = 0.014 seconds
group water type 1
3568 atoms in group water
group graphite type 2
2760 atoms in group graphite

# Define potential

pair_style sw
pair_coeff * * MLC_e.sw mW C


# Fix graphite atoms in place

fix 5 graphite setforce 0.0 0.0 0.0
velocity graphite set 0.0 0.0 0.0


# Equilibration of molecular water

# Add velocity/set timestep

velocity	    water create ${TEMP} ${SEED} rot yes dist gaussian
velocity	    water create 240 ${SEED} rot yes dist gaussian
velocity	    water create 240 12333 rot yes dist gaussian
timestep	    5.0

# Define output

compute			1 water msd
compute			3 water temp
thermo	    	50
thermo_style	custom step temp press vol etotal ke pe c_1[4] c_3

# Neighbor lists

neigh_modify    delay 0 every 1 check yes

# Set fixes

fix             1 water momentum 10 linear 1 1 1 rescale
fix             2 water nve
fix             3 water temp/csvr ${TEMP} ${TEMP} 500.0 ${SEED}
fix             3 water temp/csvr 240 ${TEMP} 500.0 ${SEED}
fix             3 water temp/csvr 240 240 500.0 ${SEED}
fix             3 water temp/csvr 240 240 500.0 12333
fix             4 water press/berendsen z ${PRES} ${PRES} 1000.0 modulus 20000
fix             4 water press/berendsen z 1 ${PRES} 1000.0 modulus 20000
fix             4 water press/berendsen z 1 1 1000.0 modulus 20000

# Run 0.5 ns equilibration

dump		    1 all atom 2000 ${DIR}/eq.${NAME}-${TEMP}.dump
dump		    1 all atom 2000 run_0/eq.${NAME}-${TEMP}.dump
dump		    1 all atom 2000 run_0/eq.het_freeze_0-${TEMP}.dump
dump		    1 all atom 2000 run_0/eq.het_freeze_0-240.dump

reset_timestep  0

run	            100000
Neighbor list info ...
  update every 1 steps, delay 0 steps, check yes
  max neighbors/atom: 2000, page size: 100000
  master list distance cutoff = 6.6747184
  ghost atom cutoff = 6.6747184
  binsize = 3.3373592, bins = 15 15 16
  1 neighbor lists, perpetual/occasional/extra = 1 0 0
  (1) pair sw, perpetual
      attributes: full, newton on
      pair build: full/bin/atomonly
      stencil: full/bin/3d
      bin: standard
Per MPI rank memory allocation (min/avg/max) = 4.546 | 4.677 | 4.941 Mbytes
Step Temp Press Volume TotEng KinEng PotEng c_1[4] c_3 
       0    135.30583    -313.6114    127822.38   -33814.648    2551.8119    -36366.46            0          240 
      50    135.39633   -230.06658    127835.07   -33815.078    2553.5186   -36368.596   0.51656599    240.16052 
     100    135.46515   -161.89461    127827.53   -33823.641    2554.8166   -36378.457   0.89125899     240.2826 
     150    135.42664   -11.256276    127899.26   -33803.083    2554.0903   -36357.173    1.1361623    240.21429 
     200    139.30667   -221.01078    128019.75   -33811.172     2627.266   -36438.438    1.3569716    247.09652 
     250    137.92124   -185.51244    127992.84   -33778.837    2601.1374   -36379.974    1.6206917    244.63911 
     300    133.93142   -384.78374    127969.57   -33842.386     2525.891   -36368.277     1.875664    237.56212 
     350     133.0705   -354.70137    127996.38    -33877.98    2509.6544   -36387.635     2.114609    236.03506 
     400    134.02254   -179.84614    128058.66   -33810.831    2527.6095   -36338.441    2.3531202    237.72375 
     450    138.05642   -129.81251    128082.11    -33791.44    2603.6869   -36395.127    2.5940387    244.87889 
     500    134.28217    -383.4224     128085.5   -33804.272    2532.5061   -36336.778    2.8224481    238.18428 
     550    135.70959   -386.29806    128089.86    -33761.45    2559.4265   -36320.877    3.0877169    240.71617 
     600    131.02799   -367.23152    128057.55   -33855.152    2471.1336   -36326.286    3.3163755    232.41214 
     650    130.43014   -299.66338    128108.56   -33829.484    2459.8584   -36289.343    3.5428668     231.3517 
     700    138.64461   -60.653327    128081.11   -33816.753    2614.7798   -36431.533    3.7172543    245.92219 
     750    133.19948   -161.23805    128121.21     -33820.7    2512.0869   -36332.787    3.9447265    236.26384 
     800    136.94648   -398.53449    128054.03   -33855.171    2582.7537   -36437.925    4.1354845    242.91011 
     850    136.64821   -422.17003    127985.47   -33821.174    2577.1286   -36398.303    4.3625265    242.38106 
     900    132.90234   -401.59212    127799.21   -33842.233    2506.4831   -36348.716    4.5561631    235.73679 
     950     134.6555   -490.26616    127793.91   -33900.096    2539.5469   -36439.643    4.7567457    238.84647 
    1000    132.52584   -326.30802    127780.99   -33893.786    2499.3823   -36393.168    5.0218776    235.06896 
    1050    132.27185   -453.36325    127763.29   -33925.729    2494.5923   -36420.321    5.2917163    234.61845 
    1100    134.49379   -281.69355    127785.63   -33867.445    2536.4971   -36403.942    5.5078293    238.55964 
    1150    136.85566   -537.22462    127726.75   -33820.181    2581.0409   -36401.222    5.8222319    242.74902 
    1200    133.32996   -207.58693    127666.68   -33859.982    2514.5477    -36374.53    6.0746887    236.49528 
    1250    131.47312   -201.17056    127708.55   -33930.432    2479.5286    -36409.96    6.2527142     233.2017 
    1300    131.38755   -336.70379    127829.74   -33952.179    2477.9147   -36430.094    6.4745192    233.04991 
    1350    127.75086   -250.00602    127774.31   -33975.617    2409.3282   -36384.945    6.7336185    226.59929 
    1400    128.93576   -121.93619    127765.83   -33961.955    2431.6749    -36393.63    6.8507003    228.70102 
    1450    131.39947    -122.0374     127786.6    -33912.69    2478.1396   -36390.829     6.982587    233.07106 
    1500    130.40508    -99.71679    127846.77   -33939.166    2459.3857   -36398.552    7.2194435    231.30724 
    1550    133.46318   -582.80452    127820.36   -33919.792    2517.0602   -36436.852    7.4069007    236.73158 
    1600    132.84686   -364.47064    127814.37   -33889.392    2505.4367   -36394.829    7.6460866    235.63838 
    1650    134.32164   -222.75235    127827.38   -33885.153    2533.2504   -36418.403    8.0144842    238.25427 
    1700    133.03016   -153.84626    127793.25   -33885.617    2508.8937   -36394.511    8.2260455    235.96351 
    1750    135.48154   -112.18236    127809.28   -33858.857    2555.1256   -36413.983    8.4662421    240.31166 
    1800    136.50877   -429.99876    127759.61   -33835.816    2574.4989   -36410.315    8.7096911    242.13373 
    1850     134.5385   -318.36086    127780.42   -33849.452    2537.3403   -36386.793    8.9075511    238.63893 
    1900    135.83436   -13.309488    127823.68   -33860.669    2561.7797   -36422.449    9.1320498    240.93748 
    1950    134.66105   -163.58998    127849.85   -33805.165    2539.6516   -36344.817    9.2809567    238.85632 
    2000    137.08434   -290.09963    127753.18   -33769.696    2585.3539    -36355.05    9.4475484    243.15465 
    2050    136.41112   -317.81275    127685.89   -33823.175    2572.6571   -36395.832    9.6737384    241.96052 
    2100    136.00077   -247.93618    127659.38   -33853.234    2564.9181   -36418.152    9.9759123    241.23265 
    2150    137.73625   -93.103536    127670.75   -33826.741    2597.6486   -36424.389    10.195369    244.31098 
    2200    137.72113   -192.02232    127733.39   -33811.815    2597.3633   -36409.178    10.445481    244.28415 
    2250    136.40198   -210.27805    127789.17   -33814.384    2572.4849   -36386.869    10.764385    241.94431 
    2300    134.83044   -492.75718    127725.65   -33849.247    2542.8462   -36392.094    11.054733    239.15677 
    2350    137.47941   -297.61814    127652.03   -33809.983    2592.8046   -36402.788    11.255018     243.8554 
    2400     136.2374   -208.95792    127664.37   -33788.582    2569.3808   -36357.963    11.423916    241.65237 
    2450    138.36722   -340.68861    127699.25   -33820.088    2609.5483   -36429.636    11.633391    245.43016 
    2500    135.77007   -262.81842    127647.45   -33821.251    2560.5671   -36381.818      11.8548    240.82344 
    2550     137.9434   -217.65408    127586.94   -33843.633    2601.5552   -36445.188    12.091402    244.67841 
    2600    132.12091   -338.92645    127511.83   -33909.878    2491.7456   -36401.623    12.367036    234.35072 
    2650    135.11583   -322.34728    127454.28   -33923.657    2548.2285   -36471.885    12.502976    239.66298 
    2700    134.08145    30.522726    127456.58     -33926.8    2528.7206    -36455.52    12.650308    237.82824 
    2750    133.10464   -3.4777649    127527.92   -33900.208    2510.2982   -36410.506    12.893112    236.09561 
    2800    134.40575   -190.32665    127564.18   -33901.404    2534.8367    -36436.24    13.064466    238.40347 
    2850    134.10947   -198.21308    127576.36   -33898.357     2529.249   -36427.606    13.244251    237.87794 
    2900    136.32895   -116.60003    127666.43   -33883.009    2571.1074   -36454.116    13.362863    241.81476 
    2950    134.39611   -238.04756    127607.57   -33861.977    2534.6549   -36396.632    13.628104    238.38638 
    3000    134.10247   -357.31233    127476.97   -33863.984     2529.117   -36393.101    13.779048    237.86553 
    3050    134.68369   -106.58637    127425.28   -33844.022    2540.0785     -36384.1    13.940154    238.89647 
    3100    137.28112    37.350194    127495.77   -33790.435     2589.065     -36379.5    14.113346    243.50369 
    3150    138.33977    6.5411426    127656.24   -33802.993    2609.0307   -36412.024    14.371327    245.38147 
    3200    132.95362   -397.69845    127626.42   -33789.306    2507.4501   -36296.757       14.664    235.82774 
    3250    134.88625    -286.7798    127496.53   -33746.173    2543.8988   -36290.072    14.871056    239.25577 
    3300    136.60334   -379.68936    127474.37   -33714.885    2576.2823   -36291.168    15.215905    242.30146 
    3350    137.61818   -201.16154    127481.19   -33753.803    2595.4218   -36349.225    15.396051    244.10155 
    3400    134.47647   -205.19338    127516.77   -33753.423    2536.1705   -36289.594    15.562115    238.52892 
    3450     138.0266   -428.73011     127488.8   -33737.392    2603.1245   -36340.516     15.84761    244.82599 
    3500    135.20058   -376.03549    127414.91   -33746.304    2549.8269   -36296.131    16.090683    239.81331 
    3550    134.92012   -314.65646    127442.73   -33772.505    2544.5374   -36317.042    16.311972    239.31583 
    3600    134.26133   -252.05217     127435.2   -33827.123    2532.1129   -36359.236     16.62114     238.1473 
    3650    133.77893   -70.352475    127413.59   -33891.178    2523.0152   -36414.193    16.910045    237.29165 
    3700    133.20044   -52.678792    127406.46   -33888.925    2512.1051    -36401.03    17.072006    236.26554 
    3750    129.54016   -184.88345    127479.46    -33908.74    2443.0737   -36351.814    17.147463    229.77308 
    3800    132.32141   -109.17698    127500.63   -33894.064     2495.527   -36389.591    17.351513    234.70636 
    3850     134.6992   -101.63183    127612.01   -33891.446    2540.3711   -36431.817    17.627936    238.92398 
    3900    134.20195   -245.28121     127640.4   -33860.736    2530.9931   -36391.729     17.88655    238.04198 
    3950    134.26536   -478.90977    127646.82     -33903.1     2532.189   -36435.289    18.120715    238.15445 
    4000    136.98156   -31.158631    127658.51   -33805.206    2583.4154   -36388.621    18.434974    242.97234 
    4050    135.16224   -34.290748    127713.86   -33823.896    2549.1038       -36373     18.76034     239.7453 
    4100    133.41201   -332.24043    127764.74   -33853.572    2516.0951   -36369.667    18.912179    236.64081 
    4150    131.97747   -216.77932    127777.68   -33873.351    2489.0404   -36362.391    19.203867    234.09629 
    4200    133.09891   -192.56217    127824.26   -33952.903    2510.1903   -36463.094    19.400094    236.08546 
    4250    131.71843   -173.55496    127814.16   -33968.667    2484.1549   -36452.822    19.574716     233.6368 
    4300    133.27417   -165.30486    127875.81   -33945.012    2513.4955   -36458.507    19.800563    236.39632 
    4350    131.44783   -391.28077    127900.14   -33956.801    2479.0515   -36435.853    20.107198    233.15683 
    4400    134.78985   -266.25099    127909.66    -33947.78    2542.0807   -36489.861    20.414523    239.08477 
    4450     137.1971   -396.62804    127870.47   -33909.908    2587.4804   -36497.389    20.727959    243.35465 
    4500    135.63436   -227.68961    127800.64   -33901.447    2558.0079   -36459.455    21.043732    240.58274 
    4550    137.40753   -182.12471    127813.35   -33903.258    2591.4491   -36494.707    21.277009    243.72792 
    4600    133.78278   -80.687045    127837.77   -33933.662    2523.0878    -36456.75    21.299628    237.29848 
    4650    135.15675   -394.33784    127865.99    -33976.86    2549.0003    -36525.86    21.514043    239.73557 
    4700    134.13436   -319.68516    127894.83    -33972.13    2529.7184   -36501.848    21.762017    237.92209 
    4750    134.14748     -286.847    127922.06    -33953.02    2529.9658   -36482.986    22.036663    237.94536 
    4800    134.58054   -179.44574    127926.36   -33959.857    2538.1331    -36497.99    22.187288     238.7135 
    4850    132.63155   -111.58634    128034.78   -33969.791     2501.376   -36471.167    22.463694    235.25647 
    4900    131.82027    47.919762    128152.57   -33935.451    2486.0755   -36421.527    22.807361    233.81744 
    4950    135.05039   -568.75412    128089.13   -33903.844    2546.9943   -36450.839    23.063331    239.54691 
    5000    137.93023   -560.58484     127968.2   -33831.664    2601.3068   -36432.971    23.116841    244.65504 
    5050    134.88649   -273.66285    127994.94   -33873.628    2543.9032   -36417.531    23.345073    239.25618 
    5100    135.45737      37.3063    127994.51    -33859.45    2554.6697    -36414.12    23.549312    240.26879 
    5150    136.16212    -555.3433    127970.95   -33882.304    2567.9611   -36450.266    23.658162    241.51885 
    5200    133.51566   -214.73949    127905.78   -33861.551      2518.05   -36379.601    24.009554    236.82467 
    5250    135.06694     -345.063       127994   -33871.205    2547.3064   -36418.511    24.230635    239.57626 
    5300    131.26747   -154.46048    127981.37   -33886.347    2475.6501   -36361.997    24.478256    232.83692 
    5350    136.36193   -331.80927    128027.26   -33855.072    2571.7295   -36426.802    24.697206    241.87327 
    5400    132.14219   -316.77343    127935.88   -33830.415    2492.1469   -36322.562    24.913934    234.38846 
    5450    131.81565   -343.61508    127880.26   -33867.693    2485.9885   -36353.682    25.101312    233.80926 
    5500    135.78856   -258.62484    127870.24   -33804.255    2560.9159   -36365.171    25.354818    240.85624 
    5550    135.72005   -229.06509    127855.96   -33794.348    2559.6239   -36353.972    25.602396    240.73473 
    5600     134.9483   -434.62957     127856.2   -33801.836     2545.069   -36346.905    25.797647    239.36583 
    5650    132.24965   -111.85704    127796.06   -33782.916    2494.1735    -36277.09    26.029487    234.57906 
    5700    136.80371   -673.32791    127780.01   -33717.875    2580.0612   -36297.936    26.145299    242.65687 
    5750    135.80138   -269.02029    127819.35   -33732.544    2561.1577   -36293.702    26.358537    240.87898 
    5800    136.85437    -422.1505    127743.36   -33736.853    2581.0167   -36317.869    26.511678    242.74674 
    5850     141.7135   -144.27966    127789.18   -33663.449    2672.6578   -36336.107    26.786462    251.36566 
    5900    141.13807    -137.5032    127874.33   -33675.015    2661.8054   -36336.821    27.085368    250.34498 
    5950    136.44054   -174.00956    127879.04   -33697.468     2573.212    -36270.68    27.409613     242.0127 
    6000    136.89739   -421.22049    127798.42   -33718.738    2581.8281   -36300.566    27.592709    242.82305 
    6050    136.35697   -296.65483    127780.86   -33701.483    2571.6358   -36273.119    27.927203    241.86446 
    6100    137.09534   -366.29393    127820.52   -33698.462    2585.5613   -36284.023     28.14511    243.17416 
    6150    137.63068   -217.20228    127866.17   -33757.759    2595.6576   -36353.417    28.191795    244.12373 
    6200    134.47284   -326.21432    127930.47   -33772.254     2536.102   -36308.356    28.113339    238.52247 
    6250    137.79589   -336.05951    127916.79   -33775.958    2598.7734   -36374.731    28.199815    244.41677 
    6300    136.11864   -380.55281    127900.17   -33770.209    2567.1411    -36337.35    28.294757    241.44173 
    6350    134.42922   -864.39969    127831.59   -33831.396    2535.2793   -36366.675    28.452432     238.4451 
    6400    137.62436   -512.86884    127839.48   -33815.343    2595.5384   -36410.882    28.680892    244.11252 
    6450    135.03597   -287.08893    127845.33   -33816.739    2546.7223   -36363.461     29.02729    239.52132 
    6500    135.68408   -217.15724    127823.42   -33801.021    2558.9454   -36359.966    29.308024    240.67092 
    6550    138.11436   -336.38081       127829   -33803.635    2604.7795   -36408.414    29.554645    244.98165 
    6600    134.26139   -375.24775     127827.2   -33827.082    2532.1142   -36359.196    29.859045    238.14741 
    6650    134.32982   -542.93655    127751.67   -33869.907    2533.4046   -36403.312    30.142289    238.26878 
    6700    135.77366   -424.00229    127651.72   -33835.717    2560.6349   -36396.352     30.44168    240.82981 
    6750     136.8992   -86.679348    127640.99   -33839.383    2581.8621   -36421.245    30.681352    242.82625 
    6800    135.79746    76.581225    127702.23   -33844.617    2561.0838     -36405.7    30.966302    240.87204 
    6850    131.53252   -117.50542    127771.76   -33865.932    2480.6487   -36346.581    31.154973    233.30705 
    6900    132.90636   -270.06604    127777.76   -33866.613    2506.5588   -36373.172    31.279423    235.74391 
    6950    136.17597   -150.83619    127803.84   -33862.505    2568.2224   -36430.727    31.507685    241.54342 
    7000    137.56439   -471.98258    127771.64   -33842.576    2594.4074   -36436.984    31.620132    244.00614 
    7050    136.66036   -41.844804    127748.72     -33856.8    2577.3577   -36434.157    31.910413    242.40261 
    7100    135.10189   -186.25447    127852.96   -33826.856    2547.9656   -36374.821     32.21233    239.63825 
    7150      133.136   -281.55537    127898.92   -33873.498    2510.8897   -36384.388    32.366104    236.15124 
    7200    132.59755   -492.82843    127950.35   -33864.934    2500.7348   -36365.669    32.598998    235.19616 
    7250    133.09327   -181.78027    127942.26    -33876.67    2510.0839   -36386.754     32.81681    236.07545 
    7300    134.01448   -305.67102    127895.41   -33890.765    2527.4575   -36418.223    32.952692    237.70945 
    7350    133.95998   -547.10296    127867.88   -33851.488    2526.4297   -36377.917     33.09211    237.61279 
    7400    135.06367   -158.97418     127884.6   -33912.539    2547.2449   -36459.784    33.405136    239.57047 
    7450    133.23515   -180.74716    128056.15   -33913.087    2512.7597   -36425.846    33.633355    236.32711 
    7500    136.73984   -304.40205    128036.33    -33907.98    2578.8566   -36486.837    33.850905    242.54358 
    7550    134.01407    -442.2082    127985.28   -33903.809    2527.4499   -36431.259    34.043331    237.70873 
    7600    133.34753   -122.75419    127961.45   -33940.919    2514.8791   -36455.798    34.132481    236.52644 
    7650    135.94906   -325.16446    127932.17   -33924.816    2563.9428   -36488.759     34.19352    241.14093 
    7700    134.13085   -157.90891     128012.7   -33962.507    2529.6522   -36492.159    34.497425    237.91586 
    7750    133.77532   -213.05745    128079.81   -33963.584    2522.9471   -36486.531    34.908465    237.28524 
    7800    133.03204   -303.64352    128174.27    -33956.03     2508.929   -36464.959    35.303619    235.96683 
    7850     133.5358   -253.98581    128130.58   -33963.775    2518.4297   -36482.205    35.613444    236.86038 
    7900    133.25102   -163.05773    128039.29   -33951.592     2513.059   -36464.651    35.916444    236.35526 
    7950    134.89861   -79.815684    128124.89   -33952.398    2544.1317    -36496.53    36.027427    239.27768 
    8000    133.01254   -49.285235    128144.64   -33973.533    2508.5613   -36482.094    36.206896    235.93225 
    8050    134.63464   -283.78022    128116.97    -33968.96    2539.1534   -36508.113    36.329701    238.80946 
    8100    135.08811    -66.29663    128170.55   -33932.875    2547.7058   -36480.581    36.592081    239.61382 
    8150    133.05587   -159.18179     128170.7   -33946.346    2509.3786   -36455.725    36.932301    236.00912 
    8200    136.28901   -256.05794    128176.32   -33907.333    2570.3542   -36477.687     37.09903    241.74392 
    8250    137.99075   -288.54649    128113.15   -33852.141    2602.4482   -36454.589    37.233245    244.76239 
    8300     133.8008   -265.53752    128094.32   -33915.325    2523.4276   -36438.752    37.586108    237.33044 
    8350    135.01187   -289.13281    128047.33   -33905.793    2546.2679   -36452.061    37.822178    239.47858 
    8400    134.50927   -151.03511    128063.65   -33931.973     2536.789   -36468.762    38.237863    238.58709 
    8450    133.52936   -171.36253    128059.91   -33951.383    2518.3084   -36469.691    38.505542    236.84897 
    8500    133.79502   -226.88981    128035.48   -33923.809    2523.3186   -36447.128    38.750695    237.32019 
    8550    135.89234     61.24697    127970.66   -33895.094    2562.8732   -36457.967    38.864399    241.04033 
    8600    133.58817    -51.43371    127996.98   -33959.889    2519.4174   -36479.307    39.029909    236.95328 
    8650    136.32028   -8.1826687    128029.61   -33952.844     2570.944   -36523.788    39.221913    241.79939 
    8700    133.17931   -67.987696    128023.85   -33974.351    2511.7065   -36486.058     39.54513    236.22805 
    8750    133.15281   -274.03082    128001.02   -33963.682    2511.2068   -36474.889    39.850952    236.18106 
    8800     134.2572   -487.60346    127943.89   -33956.178     2532.035   -36488.213    40.042584    238.13997 
    8850    131.74973   -208.91434    127906.77   -33966.405    2484.7453    -36451.15    40.312941    233.69234 
    8900    134.25069   -337.24103    127932.41   -33988.422    2531.9124   -36520.335     40.78511    238.12844 
    8950    133.59754   -295.66102    127957.05   -33983.373    2519.5941   -36502.967     41.06436    236.96989 
    9000     133.5562   -241.12667    128064.51   -33985.576    2518.8145   -36504.391    41.383808    236.89657 
    9050    134.57543   -321.68643    128097.49   -33943.821    2538.0368   -36481.858    41.675731    238.70444 
    9100    132.24141    -179.3747     128153.7   -33941.333    2494.0181   -36435.351    41.985274    234.56445 
    9150    133.87979   -311.19515    128170.31   -33912.223    2524.9173    -36437.14    42.198654    237.47054 
    9200    135.14797   -551.91467    128097.96   -33851.732    2548.8346   -36400.566    42.392787    239.71998 
    9250    133.56361   -352.39519    128036.84   -33855.021    2518.9542   -36373.975    42.659254    236.90971 
    9300    138.52845   -389.99939    128091.76   -33768.508     2612.589   -36381.097    42.889839    245.71614 
    9350    139.47541   -317.04811    128060.47   -33758.806    2630.4484   -36389.254    42.850734    247.39583 
    9400    134.48175   -467.69547    128084.43   -33791.257    2536.2701   -36327.527     42.97851    238.53828 
    9450    137.60199   -159.72967    128143.75    -33841.33    2595.1164   -36436.447     43.30094    244.07283 
    9500    134.84546   -200.99544    128193.68   -33826.401    2543.1295   -36369.531    43.451259    239.18342 
    9550    136.39202   -221.99097     128281.5   -33802.398    2572.2969   -36374.695    43.572931    241.92663 
    9600    133.69349   -448.76983    128244.04   -33830.391    2521.4038   -36351.795    43.752643     237.1401 
    9650    133.88377   -559.41913    128158.47   -33800.321    2524.9924   -36325.313    43.815147     237.4776 
    9700    136.46434   -481.87145    128093.92   -33807.086    2573.6609   -36380.747    43.861455    242.05492 
    9750    136.17715   -471.02276    128097.03   -33824.658    2568.2446   -36392.902    44.129477    241.54551 
    9800     135.2548   -508.65011    128070.11   -33805.933    2550.8495   -36356.782    44.318137    239.90948 
    9850    135.66355   -75.316856    128053.11   -33786.241    2558.5583   -36344.799    44.407511    240.63451 
    9900    136.10129   -231.72587    128116.52   -33823.025    2566.8139   -36389.839    44.757954    241.41096 
    9950    137.85015   -317.38806    128081.83   -33857.772    2599.7966   -36457.568    44.909424    244.51301 
   10000    137.01672   -115.83705    127961.52    -33852.99    2584.0786   -36437.068    45.192244    243.03471 
   10050    137.05473     25.91801    127969.32   -33784.611    2584.7954   -36369.407    45.376879    243.10213 
   10100    137.57355   -168.21211    128040.17   -33752.965    2594.5801   -36347.546    45.555508    244.02238 
   10150    135.11133   -228.02082    128024.76   -33777.768    2548.1437   -36325.912    45.780887    239.65501 
   10200    136.90619   -260.58557    128022.09     -33794.1    2581.9939   -36376.094    45.891009    242.83865 
   10250    134.67735    2.5313363    127994.89   -33833.933    2539.9589   -36373.892    45.989386    238.88522 
   10300    136.11007   -298.90058    127996.96   -33795.091    2566.9795   -36362.071     46.03487    241.42653 
   10350    136.95266   -71.852062    128115.47   -33774.378    2582.8703   -36357.248     46.34517    242.92108 
   10400    134.15236   -148.55051    128145.87   -33791.482    2530.0578   -36321.539    46.470055    237.95402 
   10450    138.32484     94.63237    128099.19   -33773.689    2608.7491   -36382.438    46.419868    245.35499 
   10500    138.82088    -302.0612    128183.93   -33727.977    2618.1042   -36346.081    46.491171    246.23485 
   10550    134.74407   -301.79389    128164.48   -33793.922    2541.2173   -36335.139    46.606903    239.00357 
   10600    135.74195   -245.82254    128146.01   -33803.997    2560.0368   -36364.033    46.875346    240.77356 
   10650    139.09199   -77.320571    128147.02   -33854.337    2623.2173   -36477.554    47.003373    246.71574 
   10700    133.36338   -256.84287    128164.38   -33873.974     2515.178   -36389.152    47.237452    236.55456 
   10750    135.98312   -117.96871    128184.93    -33834.57    2564.5852   -36399.155    47.560116    241.20134 
   10800    138.59364   -140.81308    128169.43   -33788.408    2613.8186   -36402.226    47.453805    245.83179 
   10850    136.79142   -424.14269    128184.05   -33783.159    2579.8295   -36362.988    47.583779    242.63508 
   10900    137.55507   -403.62842     128129.7   -33827.612    2594.2316   -36421.844    47.713792    243.98961 
   10950     136.0029   -374.20011    128131.43    -33839.86    2564.9582   -36404.818    47.806353    241.23642 
   11000    132.17378   -330.78656    128037.34   -33876.948    2492.7426    -36369.69    48.048944    234.44449 
   11050    132.07397   -224.24331    127981.47   -33898.831    2490.8604   -36389.691    48.293452    234.26746 
   11100    134.11365   -237.23297    127932.49   -33912.191    2529.3278   -36441.519    48.489282    237.88535 
   11150    135.17785   -310.67357     128004.8   -33880.644    2549.3982   -36430.042    48.496108    239.77299 
   11200    135.19077    -200.7363    128036.91   -33933.174    2549.6419   -36482.816    48.603431    239.79591 
   11250    132.98159   -359.72573     128025.7     -33908.1    2507.9775   -36416.078    48.848242    235.87735 
   11300    134.11831   -154.17945    128078.73   -33870.336    2529.4157   -36399.751    49.242811    237.89362 
   11350    133.33406   -620.31753    128084.55   -33881.687    2514.6252   -36396.312    49.355255    236.50256 
   11400     135.5846   -157.54371    128059.97   -33904.332    2557.0694   -36461.402    49.466641    240.49447 
   11450    134.45843   -26.461067    128054.95   -33937.505    2535.8302   -36473.335    49.577692    238.49691 
   11500    133.26459   -170.29058    128106.97   -33884.472    2513.3148   -36397.787    49.603353    236.37932 
   11550    137.61336   -212.74707    128159.47     -33825.9     2595.331   -36421.231    49.745682    244.09301 
   11600    137.98473    -364.3551    128129.04   -33802.979    2602.3348   -36405.314    49.864983    244.75172 
   11650    135.37262    -271.6925    128154.99   -33810.626    2553.0715   -36363.698    50.081617    240.11847 
   11700    133.92866   -533.03063     128192.3   -33797.132     2525.839   -36322.971    50.138897    237.55723 
   11750    137.00802   -253.02045    128154.98   -33751.786    2583.9144   -36335.701    50.480349    243.01927 
   11800    138.47026   -455.66023     128097.1   -33731.311    2611.4917   -36342.803    50.796261    245.61294 
   11850    134.81739   -97.784147    127999.59   -33786.673       2542.6   -36329.273    50.896717    239.13362 
   11900    132.47318   -117.95816    128089.43   -33824.543    2498.3892   -36322.932    51.318492    234.97555 
   11950    135.16959    -201.7424    128091.86   -33883.178    2549.2425    -36432.42     51.69898    239.75834 
   12000    134.02506   -412.19318    128077.27   -33835.463     2527.657    -36363.12     52.16947    237.72821 
   12050    135.72143   -177.46398    128037.42   -33794.978    2559.6499   -36354.628    52.421765    240.73717 
   12100     135.8957   -376.15917    128007.11    -33824.88    2562.9365   -36387.817     52.54672    241.04628 
   12150    134.19306   -227.25751    127941.79   -33892.971    2530.8255   -36423.796    52.973436    238.02622 
   12200    133.90803   -423.46605    127964.32   -33849.479    2525.4498   -36374.929     53.33217    237.52063 
   12250    133.33044   -198.36678    128028.11   -33842.272    2514.5567   -36356.829    53.699626    236.49612 
   12300    132.65648     -54.8936    128076.15   -33849.672    2501.8463   -36351.518    53.928207    235.30069 
   12350    133.95351   -232.71393    127967.13    -33833.04    2526.3076   -36359.348    54.188712     237.6013 
   12400    133.69882   -245.32581    127940.65   -33781.955    2521.5043    -36303.46    54.295836    237.14955 
   12450    133.72442   -497.85329    127939.18   -33815.206     2521.987   -36337.193     54.67154    237.19495 
   12500    137.42217   -141.00268    127955.36   -33850.858    2591.7252   -36442.583    55.111365    243.75388 
   12550     135.6733   -615.15261    127933.73   -33833.038    2558.7422    -36391.78    55.306141    240.65181 
   12600    135.31768   -392.53676    127862.39    -33837.48    2552.0352   -36389.515    55.599489    240.02101 
   12650    137.11094   -9.9386847    127885.06   -33801.083    2585.8555   -36386.938    55.840757    243.20183 
   12700    134.94331    52.332592    127965.58   -33795.644    2544.9749   -36340.619    56.230172    239.35697 
   12750    135.04715   -83.500946     128064.2   -33853.803    2546.9332   -36400.736    56.672263    239.54116 
   12800    136.11581   -336.97209       128111   -33871.298    2567.0877   -36438.386    56.872816    241.43671 
   12850    137.11369   -207.13409    128193.82   -33814.027    2585.9072   -36399.934    57.132504     243.2067 
   12900    137.88158   -156.96305    128268.66   -33790.098    2600.3893   -36390.487    57.477944    244.56875 
   12950    140.03887   -191.98388    128267.75   -33712.957    2641.0749   -36354.032    57.579009    248.39526 
   13000     138.5629   -392.70914    128179.28   -33767.639    2613.2389   -36380.878    57.725063    245.77726 
   13050    132.92526   -328.26347    128177.62   -33812.795    2506.9153    -36319.71    57.726289    235.77744 
   13100    137.73587   -112.21287    128153.03   -33803.774    2597.6414   -36401.416    58.092704    244.31031 
   13150    136.71241   -325.05859    128134.22   -33761.897    2578.3394   -36340.236    58.364796    242.49494 
   13200    135.24359   -109.30874    128213.43   -33831.007     2550.638   -36381.645      58.4719    239.88959 
   13250    134.22587   -484.51004    128247.12   -33870.567    2531.4443   -36402.011    58.719363    238.08441 
   13300     135.7153   -380.23979     128136.9   -33897.502    2559.5343   -36457.037    58.900825     240.7263 
   13350    133.33177   -387.44887    128066.42   -33935.546    2514.5819   -36450.128    59.131875    236.49849 
   13400    131.03971   -303.57534    128120.57   -33920.715    2471.3546    -36392.07    59.098763    232.43293 
   13450     136.4287   -125.18623    128129.11   -33863.001    2572.9886    -36435.99    59.197668    241.99169 
   13500    137.97353   -135.30321    128119.08    -33833.22    2602.1236   -36435.344    59.402031    244.73186 
   13550    138.61489   -253.66272    128217.23   -33797.906    2614.2193   -36412.125     59.64785    245.86947 
   13600     133.6985   -401.76009    128280.95   -33796.926    2521.4982   -36318.425    59.825042    237.14898 
   13650    135.81972   -174.97416    128286.35   -33795.053    2561.5035   -36356.557    59.808282    240.91151 
   13700    133.94654     -178.589    128279.44   -33848.028    2526.1762   -36374.204    60.097265    237.58895 
   13750    134.66981   -288.17383    128282.89   -33822.716    2539.8167   -36362.533    60.344131    238.87185 
   13800    138.68689   -313.34556    128326.22   -33808.105    2615.5772   -36423.682    60.493996    245.99718 
   13850    137.23928   -447.75094     128290.6   -33817.917    2588.2759   -36406.193    60.584998    243.42947 
   13900    135.44545   -391.48139    128297.66   -33807.527    2554.4451   -36361.972    60.735439    240.24765 
   13950    135.38369   -265.35688    128319.38   -33886.636    2553.2803   -36439.917    60.767225     240.1381 
   14000    134.42645   -455.68822    128352.32   -33844.863    2535.2271    -36380.09    60.944106    238.44019 
   14050    135.40475   -660.65632    128324.72    -33881.56    2553.6774   -36435.237    61.399865    240.17546 
   14100    134.37027   -669.08746    128245.73   -33853.247    2534.1676   -36387.414    61.692007    238.34054 
   14150     137.5521   -402.59321    128234.56    -33826.09    2594.1755   -36420.266    62.086737    243.98433 
   14200     139.5346   -459.57717    128255.99   -33838.019    2631.5646   -36469.583    62.466626    247.50081 
   14250    134.48645   -171.92684    128274.39   -33883.319    2536.3586   -36419.677    62.835024    238.54661 
   14300    133.53573   -418.53435    128183.19   -33913.985    2518.4284   -36432.414     63.18143    236.86026 
   14350    135.40792   -249.92396     128188.4     -33863.8    2553.7371   -36417.538    63.410317    240.18107 
   14400    136.36308   -73.928064    128153.42   -33826.097     2571.751   -36397.848    63.610041     241.8753 
   14450    133.63605   -173.99433    128110.67   -33782.424    2520.3205   -36302.744    63.945815    237.03821 
   14500    132.85582   -335.17714    128040.76   -33786.112    2505.6057   -36291.718    64.229758    235.65427 
   14550    137.64187   -453.28244    127947.91   -33773.793    2595.8686   -36369.662    64.486185    244.14358 
   14600     136.8429   -258.98053    127933.88   -33716.932    2580.8003   -36297.732    64.750022    242.72639 
   14650    138.01847   -321.03691    127916.54   -33724.839     2602.971    -36327.81    65.094371    244.81156 
   14700    134.09817   -59.871334    127958.76   -33762.635    2529.0359   -36291.671    65.290223     237.8579 
   14750    136.27806    -261.9779    128033.71   -33795.635    2570.1477   -36365.783    65.285298     241.7245 
   14800    135.13116   -121.48152     128064.3   -33783.777    2548.5177   -36332.294     65.41329    239.69018 
   14850    136.74231   -281.10475    128051.76   -33789.296    2578.9033   -36368.199    65.666664    242.54797 
   14900    135.20371    -246.0851    127998.27   -33774.394    2549.8858    -36324.28     66.00284    239.81885 
   14950    136.06013    114.40435    128020.85    -33807.27    2566.0376   -36373.308    66.180578    241.33794 
   15000     139.0206    -131.3069    128116.82   -33780.211    2621.8708   -36402.082    66.503874     246.5891 
   15050     134.9151     -181.723    128167.26   -33784.059    2544.4428   -36328.502    67.041704    239.30694 
   15100    132.46881   -331.61711    128167.52    -33829.62    2498.3069   -36327.927     67.27107    234.96781 
   15150    134.10909   -306.69632    128100.66   -33817.226    2529.2418   -36346.468     67.49484    237.87726 
   15200    134.69922    -87.60562    128074.75   -33820.328    2540.3714   -36360.699    67.632504    238.92401 
   15250    135.00926   -191.26247    128040.39   -33838.508    2546.2186   -36384.727    67.784991    239.47395 
   15300    138.06674   -258.44835    128157.87   -33766.845    2603.8814   -36370.726    67.911184    244.89718 
   15350    133.77689   -199.45341    128174.05   -33827.517    2522.9767   -36350.494    68.194965    237.28803 
   15400    134.52565   -709.78009    128032.92   -33847.538    2537.0979   -36384.636    68.275171    238.61614 
   15450    135.50696   -553.25928    127897.09   -33883.701    2555.6051   -36439.306    68.449885    240.35676 
   15500    133.98034   -393.85863    127793.73    -33872.18    2526.8135   -36398.994    68.616426    237.64889 
   15550    134.25353   -307.33114    127738.53   -33835.719    2531.9659   -36367.685    68.724489    238.13347 
   15600    136.60765   -69.563761    127737.71   -33834.175    2576.3635   -36410.538    68.773331     242.3091 
   15650    136.01749   -192.65146     127790.8   -33760.091    2565.2334   -36325.325    68.841959    241.26231 
   15700    136.19332   -40.938431     127839.4   -33741.515    2568.5495   -36310.064    69.005382    241.57419 
   15750    136.28928   -501.11259    127856.75   -33770.796    2570.3592   -36341.155    69.476667    241.74439 
   15800     137.9874   -264.85425    127882.18   -33744.633     2602.385   -36347.018    69.785014    244.75645 
   15850    136.89954   -332.15091    127879.62   -33775.336    2581.8686   -36357.205    70.153587    242.82686 
   15900    138.79255   -142.11439    127995.45   -33771.188    2617.5698   -36388.758    70.377138    246.18459 
   15950    140.47163    -42.20265    128196.14    -33753.24    2649.2367   -36402.477    70.586856    249.16289 
   16000    140.64083   -149.84167    128247.09   -33751.868    2652.4278   -36404.296    70.678528    249.46301 
   16050    136.08154   -161.18886    128215.56   -33766.186    2566.4413   -36332.627    70.825558    241.37591 
   16100    137.52626   -285.20511    128216.69   -33755.044    2593.6882   -36348.732    70.759307     243.9385 
   16150    135.42569   -464.07167    128308.45   -33764.084    2554.0724   -36318.156    71.133261    240.21261 
   16200    136.22132    -170.7551    128280.78   -33764.507    2569.0776   -36333.585    71.496366    241.62386 
   16250    137.56743   -352.29586    128311.46   -33780.812    2594.4646   -36375.277    71.727928    244.01152 
   16300    136.84068   -520.18284    128275.86   -33829.795    2580.7584   -36410.553    72.036939    242.72245 
   16350    137.99151   -316.99839       128249   -33815.749    2602.4626   -36418.212    72.408714    244.76375 
   16400     135.9683    133.79929    128177.07   -33830.731    2564.3057   -36395.036    72.767012    241.17506 
   16450    136.01343   -71.604426    128190.37   -33831.569    2565.1568   -36396.726     73.02104     241.2551 
   16500    137.40313   -89.620312    128165.92   -33812.936    2591.3661   -36404.302    73.265384    243.72011 
   16550    135.34564   -323.15445    128087.29    -33808.87    2552.5626   -36361.433    73.254432     240.0706 
   16600     136.8708   -5.4553446    127967.39   -33839.646    2581.3266   -36420.972    73.471877    242.77588 
   16650    133.00525     156.4335    127943.21     -33873.8    2508.4239   -36382.223    73.725445    235.91932 
   16700    138.21908   -230.99836     127935.6   -33848.828    2606.7545   -36455.582     73.99211     245.1674 
   16750    134.74366   -298.38352    127862.42   -33819.413    2541.2096   -36360.623     74.36191    239.00285 
   16800     137.9073   -297.07477    127882.88   -33814.505    2600.8745   -36415.379     74.43907    244.61438 
   16850    136.80821   -137.71086       127881   -33784.932    2580.1461   -36365.078    74.640504    242.66486 
   16900     135.9526   -219.84764     127932.8   -33813.257    2564.0096   -36377.267    74.638017    241.14721 
   16950    137.51928   -237.52755       127942   -33781.952    2593.5566   -36375.509    74.583825    243.92613 
   17000    136.51139   -570.85126    127909.78   -33827.399    2574.5483   -36401.948    74.552125    242.13838 
   17050    135.66454    -528.2783     127859.7   -33826.866    2558.5769   -36385.443    74.794762    240.63626 
   17100    136.30135   -424.41127       127766   -33813.863    2570.5869    -36384.45    75.367415    241.76581 
   17150    134.97867   -324.63501    127740.69    -33875.92    2545.6418   -36421.561    75.557071     239.4197 
   17200    132.07394   -306.74578    127722.62   -33903.491    2490.8596   -36394.351    75.866689    234.26739 
   17250    135.12878   -263.16026    127712.23   -33871.739    2548.4727   -36420.212    76.065338    239.68595 
   17300     135.6536   -104.94287    127727.03   -33871.356    2558.3707   -36429.727    76.213146    240.61686 
   17350    134.66375    85.794548    127736.36   -33884.031    2539.7024   -36423.734    76.485484     238.8611 
   17400    133.20554   -428.29305    127765.18   -33878.918    2512.2013   -36391.119    76.585604    236.27459 
   17450     134.9734    -501.7755    127681.06   -33882.168    2545.5424   -36427.711    76.953809    239.41035 
   17500    133.90705   -351.29206     127609.9   -33836.811    2525.4314   -36362.243    77.314988     237.5189 
   17550    134.96844   -334.12453    127620.88   -33811.342    2545.4488    -36356.79    77.723959    239.40155 
   17600    137.72771   -194.75272     127625.3    -33776.25    2597.4875   -36373.738    78.036372    244.29583 
   17650    137.20891     -62.9656    127729.25   -33767.042    2587.7031   -36354.745    78.243759     243.3756 
   17700    134.22047   -355.60599    127694.19    -33806.78    2531.3423   -36338.123    78.469641    238.07482 
   17750    136.61996   -122.00577     127580.1   -33845.517    2576.5958   -36422.113     78.77799    242.33095 
   17800    137.08144   -357.00572    127641.49   -33791.326     2585.299   -36376.625    79.088234    243.14949 
   17850    136.90852    -308.7081    127638.15   -33836.391     2582.038   -36418.429    79.080646    242.84279 
   17900    137.58366    -48.61747    127765.34   -33814.936    2594.7707   -36409.707    79.167798    244.04031 
   17950    136.89861    -418.1476    127862.01    -33854.73     2581.851   -36436.582    79.497573    242.82521 
   18000    134.51914   -355.94161    127849.52   -33884.839    2536.9752   -36421.814    79.776252     238.6046 
   18050    134.36222   -248.34366    127863.08   -33823.419    2534.0158   -36357.435     80.06368    238.32627 
   18100    135.88785   -137.02604    127867.33    -33834.78    2562.7884   -36397.569    80.428172    241.03236 
   18150    136.08695   -323.74247    127900.94    -33822.16    2566.5435   -36388.703    80.616278    241.38552 
   18200     135.4677   -163.50645    127890.76   -33838.452    2554.8646   -36393.317     80.68229    240.28711 
   18250    133.90296   -310.24544    127860.72   -33869.046    2525.3542     -36394.4    80.752138    237.51163 
   18300    133.24736   -278.61455    127850.84   -33907.252    2512.9899   -36420.242    80.989514    236.34877 
   18350    134.13821    -408.6808    127813.33   -33889.276    2529.7911   -36419.067    81.371876    237.92893 
   18400    133.98466    -284.5062    127816.44   -33891.424    2526.8952   -36418.319    81.585172    237.65656 
   18450    136.44439   -336.79294    127800.52   -33869.584    2573.2847   -36442.869      81.7166    242.01953 
   18500    132.53708   -283.15125    127821.31    -33888.61    2499.5943   -36388.204    82.008358     235.0889 
   18550    135.99602   -97.871282    127732.66   -33853.637    2564.8285   -36418.465    82.031043    241.22422 
   18600    136.72265   -359.37852    127777.07   -33811.841    2578.5325   -36390.373    82.244161     242.5131 
   18650    137.25589   -198.03371     127793.3   -33826.197    2588.5891   -36414.786    82.218308    243.45893 
   18700    137.60368   -236.12328    127869.14   -33860.273    2595.1484   -36455.422    82.428189    244.07584 
   18750    134.91183   -34.854557    127983.51   -33822.027    2544.3811   -36366.408    82.729926    239.30113 
   18800    135.26314   -162.59919    127997.71   -33762.959    2551.0068   -36313.965    83.018203    239.92428 
   18850    135.39886   -215.68957    128012.97   -33755.412    2553.5664   -36308.979    83.151741    240.16502 
   18900    137.82106   -214.68751     128070.5   -33756.081     2599.248   -36355.329    83.488552    244.46141 
   18950    137.42516   -381.59095    128094.09    -33762.05    2591.7815   -36353.832    83.929576    243.75918 
   19000    132.01731   -179.80739    128089.37   -33797.911    2489.7918   -36287.703    84.182834    234.16696 
   19050    136.37034   -420.61934    128026.75   -33810.484     2571.888   -36382.372    84.349412    241.88818 
   19100    134.11701    130.66792    128096.44   -33786.271    2529.3912   -36315.662    84.631428    237.89132 
   19150    135.74856   -363.09029    128204.46   -33769.605    2560.1615   -36329.766    84.932668    240.78529 
   19200    136.06814   -397.87567    128183.78   -33747.977    2566.1887   -36314.166    85.273235    241.35216 
   19250    138.09463   -82.397225    128153.55   -33711.424    2604.4073   -36315.831    85.494238    244.94665 
   19300     136.9923   -238.81582    128214.73   -33676.003     2583.618   -36259.621    85.670009     242.9914 
   19350     139.8899   -357.50377    128325.42   -33702.179    2638.2654   -36340.444    86.026613    248.13103 
   19400       135.81   -257.60448    128321.07   -33725.432    2561.3202   -36286.752     86.07303    240.89427 
   19450     138.2422   -135.96933     128395.3   -33694.607    2607.1905   -36301.797    86.564208    245.20841 
   19500    137.51772   -220.03927    128361.39   -33743.079    2593.5272   -36336.606    86.862106    243.92337 
   19550    136.03967   -137.71988    128431.16   -33838.828    2565.6518    -36404.48    87.262791    241.30166 
   19600    133.21716   -115.96419    128443.36   -33845.236    2512.4203   -36357.657    87.376027    236.29519 
   19650    136.48119   -23.347575    128441.53   -33831.856    2573.9786   -36405.835    87.588664     242.0848 
   19700     138.0759   -136.08203    128482.01    -33822.29    2604.0542   -36426.344    87.888667    244.91343 
   19750    132.07098   -299.05826    128428.09   -33892.769    2490.8039   -36383.573    88.053525    234.26215 
   19800    135.18292    -280.2529    128352.12   -33890.179    2549.4939   -36439.673     88.26031    239.78199 
   19850    132.91986   -398.16129    128305.21   -33877.809    2506.8135   -36384.623    88.447628    235.76787 
   19900    136.05406   -282.34091    128247.59   -33857.886    2565.9232   -36423.809    88.577079    241.32718 
   19950    134.99166   -320.30715    128144.25   -33853.016    2545.8867   -36398.903    88.749739    239.44273 
   20000    136.78965   -215.60427    128211.69   -33841.767    2579.7961   -36421.563    89.134029    242.63194 
   20050    134.41097   -366.24933    128094.91   -33825.458    2534.9352   -36360.393     89.32429    238.41273 
   20100    139.44404   -69.886938    128077.43   -33826.854    2629.8568   -36456.711    89.455469    247.34019 
   20150    133.85312   -109.38667    128174.17   -33813.828    2524.4143   -36338.243    89.191956    237.42324 
   20200     135.0507   -315.32634    128147.49   -33865.018    2547.0002   -36412.018    89.498406    239.54746 
   20250    135.20628   -452.97366    128017.15   -33832.389    2549.9343   -36382.323     89.66603    239.82341 
   20300    136.49226   -184.44174    127973.38    -33813.44    2574.1873   -36387.627    89.971433    242.10443 
   20350    134.74365   -350.79788    127952.54    -33834.73    2541.2093   -36375.939    90.364337    239.00282 
   20400    134.77983    -640.1491    127927.91   -33800.852    2541.8916   -36342.744    90.310603    239.06699 
   20450    138.24816   -180.72037     127926.2   -33772.533    2607.3029   -36379.836    90.446938    245.21897 
   20500    140.27852   -226.17301    127925.41   -33795.883    2645.5947   -36441.477    90.455615    248.82035 
   20550    138.82513   -349.56335    127904.79   -33760.762    2618.1844   -36378.947    90.577156     246.2424 
   20600    137.14434   -53.999669    127919.16   -33763.895    2586.4853    -36350.38    90.630484    243.26106 
   20650    139.10166   -311.17103    127994.59   -33784.747    2623.3996   -36408.146    90.773128    246.73288 
   20700    139.34001   -413.09137    127985.48    -33852.49    2627.8947   -36480.384    90.956518    247.15565 
   20750    136.08644     -310.093    127989.03   -33845.862    2566.5338   -36412.395    91.356033    241.38461 
   20800    136.84135    -324.9846     128024.9   -33828.995    2580.7712   -36409.766    91.374335    242.72365 
   20850    137.72824   -278.10499    128068.77   -33781.509    2597.4974   -36379.007    91.530681    244.29677 
   20900    136.64404   -112.97713    128036.76   -33823.202    2577.0499   -36400.252    91.834761    242.37366 
   20950    138.71449   -359.76043    128110.66   -33771.259    2616.0978   -36387.357    91.903273    246.04614 
   21000    134.66725   -260.26511    128055.94   -33796.113    2539.7684   -36335.882    92.072318    238.86731 
   21050    137.22466     9.382801    128129.15   -33797.156    2588.0001   -36385.156    92.425215    243.40353 
   21100    137.23661    -195.7126    128175.58   -33770.702    2588.2255   -36358.928    92.827817    243.42474 
   21150    136.52532    -126.5193    128194.14   -33783.789    2574.8109     -36358.6    93.025727    242.16308 
   21200    134.86787    -339.5441    128150.53   -33783.407    2543.5521   -36326.959    93.362653    239.22316 
   21250    138.39748    -218.3068     128068.8   -33749.356    2610.1191   -36359.475    93.832278    245.48384 
   21300    137.44084   -214.52267    128001.88   -33743.679    2592.0772   -36335.756    93.778941    243.78699 
   21350    135.32245   -391.18194    127925.35   -33791.033    2552.1254   -36343.158    93.981441    240.02948 
   21400    137.21353   -154.75004    127870.87   -33866.641    2587.7903   -36454.431     94.19231     243.3838 
   21450    135.84334   -11.075724     127886.9   -33879.545    2561.9491   -36441.494    94.192696    240.95341 
   21500    134.89854   -117.32028    127849.98   -33851.197    2544.1305   -36395.328     94.11216    239.27756 
   21550    134.97444   -117.57537    127891.25   -33833.217     2545.562   -36378.779    94.224937    239.41219 
   21600    136.16928   -212.22395    127846.15   -33800.592    2568.0961   -36368.688    94.437314    241.53154 
   21650    135.65256   -236.03318    127807.41   -33819.633     2558.351   -36377.984    94.631707    240.61501 
   21700    138.82784   -49.783513    127707.39    -33815.82    2618.2355   -36434.056    95.149268     246.2472 
   21750    134.25479   -110.85772    127628.64   -33845.737    2531.9897   -36377.726    95.208664    238.13571 
   21800    137.23324   -336.20359    127532.61   -33856.529     2588.162   -36444.691    95.350107    243.41876 
   21850    135.59339   -102.40612    127666.05   -33888.316    2557.2351   -36445.551    95.607338    240.51006 
   21900    134.86598   -309.51046    127614.05   -33907.832    2543.5165   -36451.348    95.651061    239.21982 
   21950    133.13236   -259.47445    127552.66   -33944.139    2510.8211    -36454.96    95.995671    236.14478 
   22000    134.37453    -50.93536    127560.71   -33904.544     2534.248   -36438.792    96.394128     238.3481 
   22050    136.88368   -79.923033    127587.61    -33879.58    2581.5695   -36461.149    96.507597    242.79873 
   22100    135.93196   -72.934336    127705.58   -33876.254    2563.6204   -36439.875    96.863246    241.11061 
   22150     135.5535    135.11867    127784.79   -33827.237    2556.4828    -36383.72    97.363505     240.4393 
   22200     137.8907   -141.26928    127875.22   -33862.084    2600.5615   -36462.646    97.804916    244.58494 
   22250    134.11793   -300.84573    127908.61   -33863.577    2529.4085   -36392.985    97.938076    237.89295 
   22300    135.42109   -317.54893    127930.95   -33874.109    2553.9855   -36428.094    98.084469    240.20443 
   22350    134.97671   -414.51045    127878.25   -33862.607    2545.6047   -36408.212    98.222596    239.41621 
   22400    137.72442   -229.67009    127773.92   -33857.704    2597.4255   -36455.129    98.372953       244.29 
   22450    136.77247   -133.79381    127812.83   -33826.571     2579.472   -36406.043     98.74466    242.60145 
   22500    135.28865   -161.08397    127844.31   -33768.609    2551.4879   -36320.097    99.230565    239.96953 
   22550    134.72721    -47.84491    127834.46   -33755.178    2540.8993   -36296.077     99.53745    238.97366 
   22600    139.25619   -5.3004931    127841.45   -33719.605    2626.3139   -36345.919    99.570355    247.00698 
   22650     137.1122   -299.42239    127903.37   -33758.052    2585.8793   -36343.932    99.929233    243.20407 
   22700    134.60347   -108.65167    127939.36   -33770.222    2538.5656   -36308.787    99.999048    238.75417 
   22750    137.38077   -286.74925    128006.43   -33774.014    2590.9444   -36364.958    100.08206    243.68044 
   22800     133.5658   -550.77687    127976.14   -33798.987    2518.9956   -36317.983    100.35271    236.91361 
   22850    137.89662   -481.76215    127897.84   -33766.772     2600.673   -36367.445     100.6682    244.59543 
   22900    135.78305   -330.14969    127843.95   -33781.736     2560.812   -36342.548    101.03325    240.84647 
   22950    135.22636   -334.00841    127773.28   -33800.701    2550.3131   -36351.014    101.22994    239.85904 
   23000    140.30457    19.243622    127889.89   -33723.162     2646.086   -36369.248    101.47062    248.86656 
   23050    137.48739   -188.47487    127916.13   -33767.885    2592.9552   -36360.841    101.49737    243.86956 
   23100     138.6392   -124.56081    127905.09   -33679.279    2614.6778   -36293.957    101.45048    245.91259 
   23150    135.58571   -122.23568    127973.75   -33724.755    2557.0902   -36281.846    101.37573    240.49643 
   23200    137.81521   -209.26778    127932.56   -33749.019    2599.1377   -36348.157    101.36208    244.45104 
   23250    137.52995   -285.47275    127889.99    -33778.84    2593.7579   -36372.598     101.6232    243.94506 
   23300    136.09192    -62.87269    127966.91   -33737.193    2566.6372    -36303.83    102.00093    241.39433 
   23350     134.7955   -398.13088    127972.21   -33792.992    2542.1873   -36335.179    102.07589     239.0948 
   23400    135.58331   -537.72428    127871.83   -33752.336     2557.045   -36309.381    102.22496    240.49218 
   23450          137    27.717926    127859.87   -33758.059    2583.7632   -36341.822    102.42087    243.00505 
   23500    135.77854    -263.5678    127866.11   -33792.617    2560.7269   -36353.344    102.69325    240.83847 
   23550    135.98869   -158.00998    127809.25   -33777.882    2564.6902   -36342.573    102.62042    241.21122 
   23600    135.16173   -430.96945    127755.76   -33790.435    2549.0942   -36339.529    102.60989     239.7444 
   23650    134.06726   -587.31756    127682.48   -33793.363    2528.4529   -36321.816    102.79958    237.80307 
   23700    136.04384   -310.14427    127604.91   -33772.493    2565.7304   -36338.224    102.90955    241.30905 
   23750    135.38701   -132.66336    127609.17   -33757.837    2553.3428    -36311.18    103.02307    240.14399 
   23800    135.94838   -9.1772987    127685.69    -33802.89    2563.9301   -36366.821    103.16485    241.13973 
   23850    135.37391   -227.09907    127749.88   -33794.793    2553.0958   -36347.889    103.37185    240.12075 
   23900    135.19993   -79.609675     127845.4   -33824.459    2549.8145   -36374.273    103.63199    239.81215 
   23950    134.91471   -264.30003    127912.26   -33858.929    2544.4354   -36403.365    103.95262    239.30624 
   24000    133.96433   -200.86372    127844.88   -33846.282    2526.5117   -36372.793    104.04331     237.6205 
   24050    136.44444   -178.68766    127898.06   -33858.932    2573.2855   -36432.218    104.20859    242.01962 
   24100    135.88489    -63.95333    127972.73   -33876.995    2562.7326   -36439.728    104.39988    241.02711 
   24150    133.18702   -189.69305    127981.89   -33924.836    2511.8519   -36436.688    104.66029    236.24173 
   24200    133.61138   -315.09194    127930.09   -33922.084    2519.8552   -36441.939    104.77985    236.99445 
   24250    132.68811   -373.68137    127905.55   -33901.168    2502.4426    -36403.61    104.93555    235.35678 
   24300    135.51462   -295.40207    127912.83   -33885.701    2555.7494    -36441.45    105.13083    240.37033 
   24350    135.44787   -533.16112    127895.35   -33890.845    2554.4906   -36445.335    105.00357    240.25193 
   24400    133.99428    -477.3636    127782.88   -33888.803    2527.0765    -36415.88    105.29025    237.67362 
   24450     134.1104   -384.95145    127678.69   -33881.072    2529.2666   -36410.338    105.57658     237.8796 
   24500    134.68074    -99.31206    127728.74   -33870.895    2540.0228   -36410.917    105.64863    238.89123 
   24550    132.67199   -317.35901    127736.79   -33870.982    2502.1388   -36373.121     106.0939    235.32821 
   24600    135.38328   -231.32451    127719.55   -33836.948    2553.2725    -36390.22    106.64849    240.13737 
   24650    135.02195   -485.55121    127665.59   -33817.114     2546.458   -36363.572    106.91461    239.49646 
   24700    137.75707    -206.2723    127691.08   -33818.421    2598.0412   -36416.462    106.94958     244.3479 
   24750    135.13515   -506.49262    127678.38   -33808.706    2548.5929   -36357.299    107.33363    239.69725 
   24800    133.92546   -363.03308    127709.06    -33811.21    2525.7787   -36336.988    107.76307    237.55156 
   24850    137.69818   -365.36283    127687.98    -33801.04    2596.9305    -36397.97    108.11253    244.24344 
   24900     136.5272   -326.54878    127705.83   -33787.821    2574.8465   -36362.667    108.35437    242.16642 
   24950     135.2795   -103.08459    127868.06   -33750.893    2551.3153   -36302.208    108.76231     239.9533 
   25000     135.4065   -548.99868    127767.16   -33760.659    2553.7104    -36314.37    109.29536    240.17855 
   25050    139.14921   -247.89631    127777.06    -33723.45    2624.2963   -36347.746    109.75112    246.81722 
   25100    137.26703   -240.29786    127776.54   -33717.851    2588.7993    -36306.65    110.15377     243.4787 
   25150    136.03643    5.4714758    127861.48   -33777.428    2565.5906   -36343.018    110.48739     241.2959 
   25200    135.14532    48.950642    127935.47   -33876.284    2548.7847   -36425.069    110.74109    239.71529 
   25250    135.92321   -288.87002    127918.14     -33790.6    2563.4553   -36354.055    110.71975    241.09507 
   25300    134.31398   -515.04845    127940.67   -33837.877     2533.106   -36370.983    111.27466    238.24069 
   25350    134.76615   -420.93353    127926.86   -33886.996    2541.6337   -36428.629    111.44749    239.04273 
   25400    135.24309   -131.21556    127853.81   -33851.616    2550.6285   -36402.244    111.64172     239.8887 
   25450    132.24537   -314.33261     127828.4   -33823.134    2494.0929   -36317.226    112.05181    234.57148 
   25500    136.79291   -553.03491    127737.88   -33793.879    2579.8575   -36373.736    112.04755    242.63771 
   25550    135.18711   -278.30847    127771.81   -33813.323    2549.5728   -36362.895     112.2858    239.78941 
   25600    135.43455   -280.89321    127696.07   -33807.879    2554.2393   -36362.118    112.26784    240.22831 
   25650    136.15146   -265.51599    127614.57   -33855.729      2567.76   -36423.489     112.5779    241.49993 
   25700    134.92669   -452.74322    127506.79   -33857.964    2544.6614   -36402.626    112.92988     239.3275 
   25750    135.11943   -47.130008    127459.52   -33833.247    2548.2965   -36381.544    112.70808    239.66937 
   25800    133.51566    28.739069    127513.51   -33848.447    2518.0499   -36366.497    112.98659    236.82466 
   25850    135.34864   -94.834858    127517.73   -33834.907    2552.6192   -36387.526    113.35388    240.07593 
   25900    133.65253   -376.56743    127486.79   -33877.565    2520.6313   -36398.196    113.34009    237.06744 
   25950    134.37902   -446.29062    127489.32   -33865.831    2534.3326   -36400.163    113.62139    238.35606 
   26000    136.19878   -316.62706    127388.95   -33853.382    2568.6524   -36422.035    113.75465    241.58387 
   26050    134.82835    -134.3769    127415.31   -33846.975    2542.8068   -36389.781    113.73883    239.15307 
   26100    135.63891   -302.43255    127422.65   -33833.965    2558.0936   -36392.058    113.64577     240.5908 
   26150    138.16191   -70.026992    127504.14   -33877.912    2605.6764   -36483.589    113.70056      245.066 
   26200    136.24583   -219.10031    127494.96    -33856.18    2569.5399    -36425.72    114.15034    241.66734 
   26250    135.48493    65.273172    127530.42   -33842.916    2555.1896   -36398.106    114.61511    240.31768 
   26300    134.35525   -383.25112    127570.21    -33869.31    2533.8843   -36403.194    114.99778     238.3139 
   26350    133.32114   -379.75769    127642.33   -33859.347    2514.3814   -36373.729    115.16061    236.47963 
   26400    133.49386   -353.85798    127679.01   -33877.131    2517.6387   -36394.769    115.25967    236.78599 
   26450    137.39056   -146.96831       127667   -33864.353     2591.129   -36455.482    115.41077    243.69781 
   26500    136.47992    111.02514    127677.41   -33854.673    2573.9546   -36428.628    115.61162    242.08255 
   26550    136.49738    48.110726    127832.73   -33865.991    2574.2839   -36440.275     116.0285    242.11351 
   26600    135.64952   -174.11697    127936.36   -33855.229    2558.2937   -36413.522     116.3285    240.60962 
   26650    136.38278   -200.68397    127929.15    -33857.66    2572.1226   -36429.783     116.5078    241.91025 
   26700    135.06983   -261.62475     128041.6   -33869.606    2547.3609   -36416.967    116.96799    239.58139 
   26750    136.80769    101.30873    128105.98   -33912.945    2580.1363   -36493.082    116.92394    242.66394 
   26800    134.88186   -298.56332    128117.54   -33924.049    2543.8159   -36467.865    117.11727    239.24797 
   26850    137.90581     47.13282    128171.96    -33885.52    2600.8464   -36486.367    117.45536    244.61174 
   26900    132.79805    4.4546482    128315.57   -33928.525    2504.5162   -36433.041    117.85374     235.5518 
   26950    137.20397   -108.80829    128310.42   -33838.344    2587.6099   -36425.954    118.28897    243.36683 
   27000     135.1131   -301.83788    128315.37   -33818.064     2548.177   -36366.241    118.70123    239.65814 
   27050    135.23932   -355.00608    128239.83    -33861.97    2550.5574   -36412.528    118.88125    239.88202 
   27100    135.30015    126.32192    128185.69   -33926.861    2551.7047   -36478.566    119.21847    239.98992 
   27150      132.905   -421.92021    128212.12   -33945.224    2506.5332   -36451.758    119.40937    235.74151 
   27200    134.71681   -223.75984    128214.69   -33895.104    2540.7031   -36435.807    119.55324    238.95521 
   27250    134.96628   -292.42657    128283.79   -33867.181    2545.4081   -36412.589    119.83377    239.39772 
   27300    135.36599   -186.64181    128288.61   -33863.991    2552.9464   -36416.937    120.23881     240.1067 
   27350     134.5359   -360.90636    128323.02   -33872.351    2537.2913   -36409.643    120.57044    238.63433 
   27400    132.73225    -378.4445    128261.33   -33891.941    2503.2752   -36395.217     120.9528    235.43509 
   27450    136.58073   -240.31531    128174.71   -33833.833    2575.8559   -36409.689    121.24321    242.26137 
   27500    135.90149   -366.06948    128219.92   -33828.006    2563.0457   -36391.052    121.28538    241.05655 
   27550    134.81364   -258.70331    128286.91   -33883.265    2542.5294   -36425.794    121.38932    239.12697 
   27600    134.46244   -380.03353    128314.96    -33888.83    2535.9058   -36424.735    121.72288    238.50403 
   27650     133.9288   -533.22159     128231.9   -33891.523    2525.8416   -36417.365    121.76213    237.55747 
   27700    135.19811   -449.90525     128212.8   -33900.966    2549.7802   -36450.746    121.77521    239.80892 
   27750     134.8394   -272.56654    128195.06   -33881.806    2543.0151   -36424.821    121.96122    239.17265 
   27800     135.5441   -536.08179    128107.34   -33831.991    2556.3054   -36388.296    122.33023    240.42262 
   27850    140.66129   -239.99188    128061.79   -33793.126    2652.8136    -36445.94    122.53364    249.49929 
   27900    134.57564   -189.23757    128003.03   -33812.549    2538.0407    -36350.59    122.75951    238.70481 
   27950    133.71793   -84.901664    127978.59   -33849.411    2521.8648   -36371.276    123.10029    237.18345 
   28000    136.46989   -94.374369    128107.54   -33815.781    2573.7655   -36389.547    123.42703    242.06476 
   28050    132.91775   -254.97348    128100.59   -33857.189    2506.7736   -36363.963    123.89178    235.76412 
   28100    131.85571    -85.60536    128191.92   -33864.884     2486.744   -36351.628    124.38624    233.88031 
   28150    136.18513   -135.02287    128300.79    -33828.17    2568.3951   -36396.565    124.74309    241.55966 
   28200    135.27335   -384.68737    128303.12   -33855.445    2551.1993   -36406.644     124.6937    239.94239 
   28250    133.94448    -445.7753     128223.1   -33858.227    2526.1373   -36384.365    124.70355    237.58528 
   28300    136.09162   -373.91795    128136.82   -33841.099    2566.6315   -36407.731    124.61101     241.3938 
   28350    136.13155   -244.72897    128198.76   -33836.161    2567.3845   -36403.545    124.77717    241.46462 
   28400     136.9529    -503.6345    128211.47   -33849.517    2582.8749   -36432.392     125.0372     242.9215 
   28450    133.98188   -634.28063    128137.17    -33896.64    2526.8427   -36423.482    125.16462    237.65163 
   28500    132.65885   -304.08823    128121.54   -33905.944    2501.8909   -36407.834    125.22224    235.30489 
   28550     139.0625    -265.0379    128135.93   -33853.897    2622.6611   -36476.558    125.35851    246.66343 
   28600    135.61319    -130.5909    128150.17   -33844.068    2557.6084   -36401.677    125.60712    240.54517 
   28650     135.4629   -333.19761    128126.76   -33856.166    2554.7741    -36410.94    125.62455     240.2786 
   28700    135.39025   -347.66408    128168.17   -33826.057    2553.4039   -36379.461    125.70598    240.14973 
   28750    133.51632   -251.68775    128173.99    -33788.01    2518.0624   -36306.072    126.23023    236.82584 
   28800    139.97705   -76.856424    128138.35   -33790.516    2639.9091   -36430.425    126.63527    248.28561 
   28850    136.60044   -89.726814    128123.12   -33805.981    2576.2277   -36382.209    126.93086    242.29633 
   28900    135.52761    -269.4229    128179.38   -33840.668    2555.9945   -36396.662    127.17848    240.39338 
   28950    135.75805   -73.490232    128234.27   -33886.918    2560.3404   -36447.259    127.28163    240.80212 
   29000    135.36163   -287.09342     128191.7   -33844.016    2552.8643    -36396.88    127.22186    240.09898 
   29050    134.39873     -392.954    128214.31   -33870.839    2534.7044   -36405.543    127.40464    238.39103 
   29100    136.40017   -262.83906     128216.9   -33884.154    2572.4506   -36456.605    127.75971    241.94109 
   29150     135.4181   -95.730186    128290.04   -33870.618    2553.9293   -36424.547    127.92718    240.19914 
   29200    136.24667   -269.16355    128306.13   -33807.467    2569.5557   -36377.023    128.21012    241.66883 
   29250     137.6033   -325.44169    128338.63   -33787.754    2595.1412   -36382.896    128.51432    244.07516 
   29300    136.33836   -373.26196    128339.73   -33813.132    2571.2849   -36384.416    128.92247    241.83145 
   29350    135.10531   -341.72691    128232.53   -33826.671    2548.0302   -36374.702    129.39695    239.64433 
   29400    135.64806   -232.27938    128315.09   -33895.207    2558.2662   -36453.473    129.47568    240.60703 
   29450    136.75692    -114.2373    128317.87   -33916.235    2579.1787   -36495.414     129.6551    242.57388 
   29500    134.38718   -349.83039    128349.47   -33931.327    2534.4865   -36465.813    130.03153    238.37053 
   29550    135.46664   -245.12611    128340.26    -33861.23    2554.8447   -36416.075    130.19022    240.28524 
   29600     137.5099   -317.83968    128352.72   -33860.847    2593.3797   -36454.226    130.49958    243.90949 
   29650    136.05011   -160.95423    128256.72   -33864.078    2565.8486   -36429.926    130.72419    241.32017 
   29700    133.45574   -324.22338    128229.99   -33919.783      2516.92   -36436.703    131.02701    236.71839 
   29750    133.29406   -83.604145    128123.31   -33911.731    2513.8707   -36425.602    131.20201    236.43161 
   29800    135.21031   -62.279262    128093.82   -33861.391    2550.0104   -36411.401    131.52268    239.83057 
   29850    138.32887   -202.04883    128064.12   -33850.884     2608.825   -36459.709    131.85804    245.36213 
   29900    135.57523   -173.25573    128105.25    -33873.11    2556.8926   -36430.003    132.50401    240.47784 
   29950    133.89335   -381.68315    128045.72   -33913.991    2525.1731   -36439.164    133.04915     237.4946 
   30000    132.40265   -595.54237    127952.55    -33872.82    2497.0591   -36369.879    133.39463    234.85046 
   30050    138.64001   -425.48305    127910.16    -33837.92     2614.693   -36452.613    133.58197    245.91403 
   30100    134.69812   -171.55978     127842.5   -33828.814    2540.3507   -36369.165    133.88195    238.92207 
   30150    140.94097   -74.671808    127830.09   -33768.996    2658.0882   -36427.084    133.78274    249.99538 
   30200    135.36027   -415.67299     127889.6   -33805.336    2552.8385   -36358.175    133.83553    240.09655 
   30250    136.20598   -276.55787    127926.87   -33895.098    2568.7882   -36463.886    133.86737    241.59664 
   30300    138.91098   -558.96229    127822.48   -33933.628    2619.8035   -36553.431    134.23107    246.39467 
   30350    135.74219   -457.58658    127693.16   -33971.651    2560.0414   -36531.692    134.18271    240.77399 
   30400    134.79713   -187.69996    127778.55    -34003.91    2542.2179   -36546.127    134.42723    239.09768 
   30450    132.33299   -157.30359    127820.93   -33979.905    2495.7452    -36475.65    134.85159    234.72689 
   30500    132.12875   -46.416587    127887.17   -34009.624    2491.8934   -36501.518    135.09175    234.36462 
   30550    135.48004   -53.867088    128044.77   -34004.919    2555.0974   -36560.017    135.33277      240.309 
   30600      133.367   -88.153249    128055.63    -33960.35    2515.2464   -36475.597    135.43716    236.56098 
   30650    132.99151   -269.31671    128040.64   -33966.056    2508.1647    -36474.22     135.3524    235.89495 
   30700    133.25765   -354.82637    128037.05   -33973.484    2513.1839   -36486.668    135.51114    236.36701 
   30750     133.0547   -546.37205    128003.55   -34001.949    2509.3565   -36511.305    136.03979    236.00704 
   30800    132.56534   -300.97197    127956.41   -33967.209    2500.1274   -36467.336     136.2077    235.13903 
   30850    133.67253   -509.72563    127912.98   -33907.702    2521.0084    -36428.71    136.42909    237.10291 
   30900      135.663   -234.38445    127905.64   -33888.678    2558.5478   -36447.226    136.96285    240.63352 
   30950    135.23495    -346.6121     127946.1   -33864.312     2550.475   -36414.787    137.62532    239.87427 
   31000    134.05249   -271.24533    127913.63   -33858.783    2528.1744   -36386.958    137.69951    237.77688 
   31050    136.54711   -210.08978    127968.89   -33830.945    2575.2218   -36406.167    138.34948    242.20173 
   31100    136.86105   -276.91511    127980.37     -33835.6    2581.1427   -36416.743    138.86334    242.75859 
   31150     134.8792   -403.67379    128002.97   -33793.689    2543.7658   -36337.455    138.91719    239.24326 
   31200     140.1744   -542.77126    128070.64     -33789.5    2643.6311   -36433.131     138.8161    248.63567 
   31250     136.1431   -646.05139    127995.59   -33816.932    2567.6025   -36384.535    138.88498    241.48512 
   31300    136.39419   -492.73254    128015.17   -33829.672    2572.3378   -36402.009     138.3099    241.93048 
   31350    134.03102   -240.63199    127941.21    -33847.24    2527.7695    -36375.01    138.44799    237.73879 
   31400    134.58461   -480.90075    127961.92   -33857.974    2538.2099   -36396.184    138.92896    238.72072 
   31450    137.05469   -287.41815    127952.09   -33873.343    2584.7946   -36458.137    138.97837    243.10205 
   31500    134.56882   -377.68267    127919.29   -33884.753    2537.9122   -36422.665     139.0494    238.69273 
   31550    135.91429   -465.63732    127825.92   -33805.795    2563.2872   -36369.082    139.25041    241.07926 
   31600    137.75863   -211.89293    127829.36   -33825.836    2598.0707   -36423.906    139.62915    244.35068 
   31650    134.57556   -229.93871    127880.07   -33813.682    2538.0393   -36351.721    140.04864    238.70468 
   31700    133.00382   -157.95255     127814.1   -33852.172    2508.3969   -36360.569    140.04413    235.91678 
   31750    134.79393   -219.65541     127866.9    -33834.77    2542.1576   -36376.927    140.01542    239.09201 
   31800     137.6226   -71.672837    127806.97    -33846.54    2595.5052   -36442.045    140.21181     244.1094 
   31850    134.64731   -414.86808    127725.93   -33846.025    2539.3925   -36385.417    140.04039    238.83195 
   31900    136.13135   -285.04423    127758.55   -33818.843    2567.3808   -36386.223    140.23709    241.46427 
   31950     134.7191   -380.64063    127768.72    -33841.01    2540.7463   -36381.756    140.41209    238.95927 
   32000    137.11756   -342.58987    127758.59   -33856.881    2585.9804   -36442.861    140.70098    243.21358 
   32050    133.78151   -508.18538    127677.48   -33834.129    2523.0638   -36357.192    140.75841    237.29622 
   32100    134.90237   -548.85968    127554.58   -33829.027    2544.2028   -36373.229    140.55222    239.28436 
   32150     136.9305   -435.67763    127534.94   -33805.436    2582.4524   -36387.888      140.789    242.88177 
   32200    136.24858    -436.0931    127542.11   -33813.896    2569.5917   -36383.488    141.32165    241.67221 
   32250    134.26207    -534.0642     127505.7   -33781.307    2532.1269   -36313.434    141.22217    238.14861 
   32300    139.10889   -55.743901    127506.74   -33761.876    2623.5359   -36385.412    141.63903    246.74571 
   32350    141.10448   -328.34497    127600.76   -33781.383     2661.172   -36442.555    141.93086    250.28541 
   32400    137.20806   -274.86652    127620.74   -33793.185    2587.6871   -36380.873    141.99184     243.3741 
   32450    135.39466   -250.20757    127727.99   -33816.072    2553.4872    -36369.56    142.22835    240.15757 
   32500    137.99948   -233.32543    127788.77   -33761.099    2602.6129   -36363.712    142.66728    244.77788 
   32550    138.75251   -279.96166    127912.99   -33778.738    2616.8148   -36395.552    142.77853    246.11358 
   32600    135.59374   -239.15703    127874.93   -33795.891    2557.2417   -36353.133    142.97198    240.51068 
   32650    136.37065    -241.1473     127886.7   -33790.077    2571.8939   -36361.971    143.11536    241.88874 
   32700    135.94791   -498.16854    127851.16    -33861.77    2563.9212   -36425.691    143.31777    241.13889 
   32750    133.88818   -390.41316    127857.09    -33887.44    2525.0756   -36412.516    143.20452    237.48543 
   32800    134.93771   -272.47536    127829.33   -33874.246    2544.8692   -36419.116     143.3926    239.34704 
   32850    137.19668   -372.71164    127696.96   -33820.208    2587.4725    -36407.68     143.8169    243.35392 
   32900     135.1644   -372.83442    127719.21   -33882.968    2549.1445   -36432.113    143.92386    239.74913 
   32950    132.39557   -452.22548    127754.63   -33948.823    2496.9256   -36445.748    144.09412     234.8379 
   33000    134.78204   -125.17085    127784.28   -33913.465    2541.9333   -36455.399    143.93487    239.07091 
   33050    132.59208    35.087125    127857.06   -33943.642    2500.6317   -36444.274    144.08123    235.18646 
   33100    132.83316   -275.09827    127861.64   -33935.592    2505.1783    -36440.77    144.27593    235.61408 
   33150    133.29963   -315.07905    127880.67   -33908.403    2513.9757   -36422.379    144.60457    236.44147 
   33200    135.15062   -426.06345    128028.89   -33942.527    2548.8846   -36491.412    144.73513    239.72469 
   33250    135.97911   -141.33745    128090.82   -33889.153    2564.5096   -36453.663    144.59177    241.19423 
   33300    135.62139   -496.05606    128076.08   -33896.914    2557.7631   -36454.678    144.84836    240.55972 
   33350    133.50798   -73.566022    128064.42   -33953.047    2517.9051   -36470.952    144.29989    236.81104 
   33400    135.03796   -439.01595    128062.59   -33934.986    2546.7599   -36481.746    144.53355    239.52486 
   33450    134.14639   -297.64846    127987.56   -33906.862    2529.9453   -36436.807    144.63995    237.94343 
   33500    134.38957    67.120776    128021.82   -33942.219    2534.5315   -36476.751    144.69553    238.37477 
   33550     132.1973    75.032897    128114.95   -33936.022    2493.1862   -36429.208    144.44715     234.4862 
   33600    134.16057   -219.90394    128112.77   -33917.049    2530.2127   -36447.262     144.6716    237.96858 
   33650    133.18464   -261.12018    128050.97    -33916.44     2511.807   -36428.247    144.75009    236.23751 
   33700    136.90254   -465.00732    128048.46    -33870.08    2581.9251   -36452.005    144.56341    242.83217 
   33750    134.26424   -282.34793    128008.61   -33856.972    2532.1679   -36389.139    144.51784    238.15247 
   33800    130.84388   -175.84427    128021.91   -33964.898    2467.6613    -36432.56    144.96313    232.08557 
   33850    131.68052   -487.88467    127989.87   -33972.496      2483.44   -36455.936    145.31906    233.56957 
   33900    130.44067   -511.63745    127944.61   -33954.626    2460.0569   -36414.682    145.36433    231.37037 
   33950    129.62665   -195.99458    127846.05   -33916.984    2444.7048   -36361.689    145.86029    229.92649 
[...]
   92050    137.10091   -169.84841    127823.12    -33750.37    2585.6663   -36336.036    375.84026    243.18403 
   92100    137.48755   -274.06012    127862.56   -33799.113    2592.9582   -36392.072    376.39404    243.86985 
   92150     135.9007   -441.58765     127849.6   -33786.225    2563.0308   -36349.255     376.1973    241.05515 
   92200    138.59688   -113.06966    127906.97   -33749.134    2613.8798   -36363.013    376.57946    245.83754 
   92250    138.45332    48.788701    127994.34   -33775.963    2611.1721   -36387.135    376.76951    245.58288 
   92300    135.97515   -154.53257    128049.36   -33775.724    2564.4348   -36340.158    376.44166     241.1872 
   92350    135.68927   -121.35952    128090.02   -33822.011    2559.0433   -36381.054    377.00494    240.68012 
   92400    133.59527   -380.28665    128044.49   -33821.427    2519.5514   -36340.979    377.19429    236.96588 
   92450    137.17029   -362.23869    128032.67   -33788.424    2586.9749   -36375.399    377.36735    243.30711 
   92500    134.97106   -254.81543    128081.61   -33796.016    2545.4982   -36341.515    377.99747     239.4062 
   92550    131.35359   -145.14484     128101.6   -33801.784    2477.2743   -36279.058    378.06746    232.98968 
   92600    132.10963   -316.47032    128166.79   -33872.074    2491.5327   -36363.607    377.74408     234.3307 
   92650    132.99293    -587.0571    128127.65   -33875.857    2508.1914   -36384.049    377.87807    235.89746 
   92700    136.04272   -483.09606    128182.47   -33846.774    2565.7093   -36412.484    378.52805    241.30706 
   92750    133.88519   -287.61084    128183.63   -33912.706    2525.0191   -36437.726    378.74031    237.48012 
   92800    133.54799   -575.01641    128135.15   -33918.919    2518.6596   -36437.579    378.88759      236.882 
   92850    137.03828   -371.46829    128075.82   -33867.308    2584.4852   -36451.793    379.19143    243.07295 
   92900     135.9204    37.859783    128084.88       -33780    2563.4024   -36343.402    379.26375     241.0901 
   92950    135.62876   -183.97104    128057.89   -33773.165    2557.9021   -36331.067    379.01951    240.57279 
   93000    133.89087   -162.52694    128067.02   -33719.415    2525.1262   -36244.542    378.93001     237.4902 
   93050    135.78518   -298.23457    128084.15   -33739.575    2560.8521   -36300.427    379.42661    240.85024 
   93100    134.50883   -343.67166    128075.46   -33800.924    2536.7808   -36337.705    379.54404    238.58632 
   93150    134.29026   -169.42917     128063.9   -33795.061    2532.6585   -36327.719    379.71299    238.19861 
   93200    137.43313   -196.30187    128150.87   -33734.068    2591.9317       -36326    380.53919    243.77331 
   93250    135.47021   -131.15115       128207   -33738.704     2554.912   -36293.616    380.83535    240.29157 
   93300    137.78035   -150.32002     128226.2   -33722.447    2598.4802   -36320.927    380.99321    244.38919 
   93350    135.14116    91.777117    128202.86    -33719.74    2548.7061   -36268.446     381.3795     239.7079 
   93400    134.22834   -387.46858    128146.39   -33725.846    2531.4908   -36257.336    381.59685    238.08879 
   93450     137.7173   -37.154659    128126.35   -33698.979    2597.2911    -36296.27    382.23962    244.27736 
   93500     137.4716   -294.68611    128066.67   -33693.413    2592.6573    -36286.07      382.651    243.84155 
   93550    138.18541   -210.25405    128074.41    -33687.43    2606.1195    -36293.55     382.7563    245.10768 
   93600     137.4947   -366.40507     127993.1   -33769.733     2593.093   -36362.826    382.58534    243.88253 
   93650    135.98772   -383.25063    127939.78   -33785.057     2564.672   -36349.729    382.25195     241.2095 
   93700    135.80993    110.81492    127944.23    -33776.26    2561.3189   -36337.579    382.35592    240.89415 
   93750    134.06345   -150.89376    128053.02   -33797.015    2528.3811   -36325.396    383.21692    237.79632 
   93800    134.46402    -269.1564    128093.93   -33741.202    2535.9357   -36277.138    383.39657    238.50683 
   93850    134.45694   -254.49058    128149.15   -33773.396    2535.8022   -36309.198    384.03768    238.49428 
   93900    137.02024   -361.77862    128077.96    -33785.25    2584.1449   -36369.395    384.17982    243.04095 
   93950    133.36629   -453.71064    128013.05   -33786.813    2515.2329   -36302.046    383.90934    236.55972 
   94000    136.38332   -192.26045    128009.27   -33806.039    2572.1327   -36378.172    384.29929     241.9112 
   94050    135.92663   -117.87499     128086.4   -33795.486    2563.5199   -36359.006    384.10114    241.10115 
   94100    137.00172   -239.16708    128019.07   -33801.832    2583.7957   -36385.628    384.33902     243.0081 
   94150    134.54917    -200.7617    127934.79   -33818.987    2537.5416   -36356.528    384.73925    238.65787 
   94200    136.25081   -277.76204    127990.27       -33812    2569.6338   -36381.634    384.81299    241.67617 
   94250     136.7184   -227.41593    128029.54   -33841.162    2578.4523   -36419.614    384.92403    242.50555 
   94300    132.87765   -105.99384    127984.95   -33831.444    2506.0173   -36337.461    385.25954    235.69298 
   94350    132.68671   -255.21757    127938.02   -33828.178    2502.4163   -36330.594    385.32522     235.3543 
   94400    133.29886   -200.56582    127932.21   -33889.132    2513.9612   -36403.093    385.01559    236.44011 
   94450    133.54805   -137.29064    128012.54   -33846.561    2518.6608   -36365.222    385.05218    236.88212 
   94500    134.99911   -352.15292    128024.52   -33836.725    2546.0272   -36382.752    385.28814    239.45595 
   94550    132.41889   -218.61772    128089.86   -33821.354    2497.3653    -36318.72    385.15492    234.87926 
   94600    133.55317   -87.468412    128126.65   -33816.559    2518.7573   -36335.316    384.65216     236.8912 
   94650    132.09375   -315.16674    128112.38    -33849.99    2491.2334   -36341.224    384.87045    234.30255 
   94700    136.30699   -364.86779    128031.49   -33820.327    2570.6932   -36391.021    385.15016    241.77581 
   94750    133.71794   -223.46667    128046.24   -33817.974    2521.8649   -36339.839    385.90685    237.18346 
   94800    135.32865   -186.29038    128023.07   -33812.531    2552.2422   -36364.773    385.96664    240.04048 
   94850    133.91994   -191.40543    127961.15   -33846.799    2525.6746   -36372.473    385.57063    237.54177 
   94900     136.9891   -185.94759    127953.22   -33852.745    2583.5576   -36436.303    386.14334    242.98571 
   94950    134.53584   -256.19709    127922.06   -33853.826    2537.2902   -36391.116    386.32342    238.63422 
   95000    137.22545   -250.08214    127911.98   -33871.503    2588.0151   -36459.518    386.28187    243.40494 
   95050    134.80608   -257.08934    127874.08    -33910.13    2542.3868   -36452.517    386.56223    239.11357 
   95100     132.1878   -339.21876    127786.62   -33916.273    2493.0071    -36409.28    386.78057    234.46937 
   95150    132.15492   -787.51087    127695.98   -33914.737     2492.387   -36407.124     386.7787    234.41104 
   95200    133.46854   -225.68928     127651.8   -33923.625    2517.1614   -36440.786    387.36156    236.74109 
   95250    133.89812   -281.09753    127615.35   -33909.577     2525.263    -36434.84    387.19275    237.50306 
   95300    134.44444   -265.58531    127620.67   -33832.688    2535.5664   -36368.254    387.46134     238.4721 
   95350    133.24521   -254.62742    127582.14   -33883.948    2512.9493   -36396.898    387.75591    236.34494 
   95400    133.91492   -87.829509    127556.13   -33910.578    2525.5799   -36436.158    387.86644    237.53286 
   95450    137.03519   -109.60028    127643.88   -33885.218    2584.4269   -36469.645    388.12394    243.06747 
   95500    133.16264    73.166677    127657.89   -33864.629    2511.3922   -36376.021    388.53377     236.1985 
   95550    135.76647    113.48591    127787.46   -33845.643    2560.4993   -36406.143    388.98292    240.81706 
   95600    133.57126   -208.30742    127848.22    -33814.88    2519.0986   -36333.979    389.52688    236.92329 
   95650    138.11527   -60.049572       127840   -33776.841    2604.7966   -36381.637    389.36583    244.98326 
   95700    134.03748    53.368442     127908.3   -33838.349    2527.8913    -36366.24    389.40452    237.75026 
   95750    136.21383   -208.18442    127967.97   -33853.701    2568.9364   -36422.637    389.73938    241.61057 
   95800    136.08571   -305.93094    127992.61   -33879.997    2566.5201   -36446.517     390.2321    241.38332 
   95850     133.0352   -458.24415    127979.27   -33839.292    2508.9886   -36348.281    390.00975    235.97244 
   95900    136.39578   -224.88412    127966.13   -33782.104    2572.3678   -36354.471    389.71991     241.9333 
   95950    134.70082   -128.10048    127973.95   -33798.716    2540.4017   -36339.118    389.65627    238.92686 
   96000    134.38642   -13.652612    127993.25   -33806.117    2534.4721   -36340.589    389.94777    238.36918 
   96050    136.95051   -320.36016     128053.3   -33819.277    2582.8297   -36402.107    390.25818    242.91726 
   96100    135.75887   -257.59449    127950.87   -33835.287    2560.3559   -36395.642    390.43958    240.80358 
   96150    134.19757   -239.73114    127957.49   -33836.259    2530.9105    -36367.17    390.29872    238.03421 
   96200    136.23801   -146.58147    127920.38   -33804.047    2569.3924   -36373.439    389.69499    241.65347 
   96250    135.42952   -300.95788    127828.98    -33811.43    2554.1446   -36365.575    389.98391     240.2194 
   96300    134.15421   -197.60147    127854.41   -33779.433    2530.0927   -36309.526    390.63918    237.95729 
   96350    135.89222   -60.510602    127842.01   -33755.932    2562.8709   -36318.803    390.47325    241.04011 
   96400     136.1063   -276.11597     127858.8   -33719.174    2566.9083   -36286.082    390.79745    241.41983 
   96450    138.40456   -194.61759    127816.42   -33788.324    2610.2525   -36398.576    391.47744    245.49639 
   96500    137.11291   -332.28355    127745.81   -33823.996    2585.8927   -36409.889    391.34184    243.20533 
   96550     136.3545    -58.99954    127675.66   -33843.905    2571.5894   -36415.494    391.07924    241.86009 
   96600     133.1618   -379.54807    127637.03   -33823.975    2511.3763   -36335.351    391.24619      236.197 
   96650     133.1875   -130.27534    127583.72   -33896.288    2511.8609   -36408.149    391.75965    236.24258 
   96700    133.83936   -382.71336    127604.37   -33915.641    2524.1549   -36439.795    391.83177    237.39884 
   96750    133.71785   -226.05412    127634.75   -33903.013    2521.8632   -36424.876     391.4758     237.1833 
   96800    133.53364   -475.30479    127667.44    -33870.76    2518.3891   -36389.149    391.76506    236.85656 
   96850    135.94747   -408.58906    127708.71   -33873.559    2563.9128   -36437.471    391.82841     241.1381 
   96900    135.58787   -508.13507    127796.48   -33899.167    2557.1309   -36456.298    391.93324    240.50026 
   96950    135.73865   -301.83881    127800.63   -33862.544    2559.9746   -36422.519    392.10077    240.76771 
   97000    131.74576   -440.90998    127782.21    -33866.61    2484.6705   -36351.281    392.56101     233.6853 
   97050    133.46182   -146.96887    127689.23   -33834.612    2517.0346   -36351.646    392.70542    236.72917 
   97100    136.80416    17.158409    127711.55   -33841.893    2580.0697   -36421.963     392.5858    242.65767 
   97150    134.66886   -332.51641    127670.44   -33900.011    2539.7989    -36439.81    393.50644    238.87017 
   97200    136.51006   -67.568018    127774.56   -33894.088    2574.5232   -36468.611    393.61588    242.13602 
   97250    136.08562   -236.37716     127850.6   -33843.177    2566.5184   -36409.695    394.44365    241.38316 
   97300    136.11877    14.170583    127957.69   -33827.042    2567.1435   -36394.186    394.86459    241.44195 
   97350    135.20908   -222.88738    128007.93   -33855.744    2549.9872   -36405.731    394.95107    239.82839 
   97400    133.92621   -449.59614    127979.91   -33831.547    2525.7928    -36357.34    395.50534    237.55289 
   97450    135.64119   -441.81711    127902.45   -33874.899    2558.1367   -36433.036    395.38432    240.59485 
   97500    135.15914    -100.5371     127849.6   -33881.059    2549.0453   -36430.104    395.40708     239.7398 
   97550    134.48883   -331.79467    127919.74   -33955.111    2536.4035   -36491.515    395.70466    238.55083 
   97600    135.11415   -41.552602    127907.06   -33921.093    2548.1968    -36469.29    396.02792       239.66 
   97650    135.21097   -116.28765    127907.33   -33890.887    2550.0228    -36440.91    396.11324    239.83174 
   97700    134.22392   -36.579974     127952.6   -33933.621    2531.4074   -36465.029    396.15695    238.08094 
   97750    137.45875   -352.58226    128025.35   -33918.625     2592.415    -36511.04    396.15399    243.81876 
   97800    133.46008   -193.76668    127875.38   -33944.381    2517.0018   -36461.383    396.21293    236.72609 
   97850    136.05784   -197.85104    127919.31   -33884.109    2565.9945   -36450.103    396.36873    241.33389 
   97900    133.64796   -217.43342     127961.1   -33949.544    2520.5451   -36470.089     396.8799    237.05933 
   97950    132.30182   -141.95776     127998.8   -34009.941    2495.1575   -36505.098     397.4255    234.67161 
   98000     135.9318   -95.358281    128079.45   -33971.794    2563.6173   -36535.411    396.92126    241.11031 
   98050    132.50849   -123.34287       128167   -34006.916    2499.0552   -36505.971    397.67144    235.03819 
   98100    133.64581   -216.31567    128118.88   -33995.045    2520.5046   -36515.549    397.89815    237.05552 
   98150    131.47888    -103.6551    128130.37    -34011.67    2479.6371   -36491.307    398.00436     233.2119 
   98200    133.57671   -199.88593    128147.62   -33983.051    2519.2013   -36502.252    398.42473    236.93295 
   98250    134.54352   -311.36048    128231.05   -33890.127    2537.4349   -36427.561    398.60645    238.64783 
   98300    135.27814   -135.00438    128193.55   -33875.811    2551.2897   -36427.101     398.5498    239.95089 
   98350    133.00157   -150.75181    128297.76   -33899.393    2508.3545   -36407.748    398.74308     235.9128 
   98400    137.83955   -283.05691    128306.36   -33908.833    2599.5967    -36508.43    398.85085     244.4942 
   98450    136.85502   -295.82183    128325.14   -33910.885    2581.0289   -36491.914    398.90154    242.74789 
   98500    134.65489   -321.75258    128210.68   -33904.086    2539.5354   -36443.621    399.07285    238.84539 
   98550    135.06257   -361.18792    128169.77   -33912.132    2547.2241   -36459.356    399.47223    239.56852 
   98600    135.46111   -129.55552    128186.93   -33891.326    2554.7403   -36446.066     399.4574    240.27542 
   98650    136.30722    -244.4475    128253.99    -33920.22    2570.6977   -36490.917    400.00914    241.77623 
   98700    135.85607   -336.55262    128270.19   -33921.012     2562.189   -36483.201    400.46951    240.97598 
   98750    134.78257   -466.78206    128250.32   -34014.891    2541.9434   -36556.835    400.30252    239.07187 
   98800    135.07786   -586.81242    128253.52   -34004.861    2547.5124   -36552.373    400.66115    239.59563 
   98850    132.07746   -382.34951    128250.24   -34015.627    2490.9261   -36506.553     400.7439    234.27364 
   98900    133.28468   -206.77787     128279.5   -33994.008    2513.6937   -36507.701    400.63759    236.41496 
   98950    133.92821   -145.91363    128287.51   -33936.176    2525.8305   -36462.007    400.89102    237.55643 
   99000    134.90572   -284.18207    128347.26   -33929.837    2544.2658   -36474.103      400.931    239.29029 
   99050    135.78838   -7.9858146       128394   -33904.578    2560.9125   -36465.491    400.89403    240.85592 
   99100    132.19542   -237.01143    128384.31   -33886.598    2493.1507   -36379.748    400.48626    234.48287 
   99150     135.9976   -625.96084    128300.56   -33882.739    2564.8584   -36447.598    400.86784    241.22704 
   99200    135.39613   -113.65672    128321.54   -33876.773    2553.5149   -36430.288    401.38064    240.16017 
   99250    135.45413   -454.93932    128352.65   -33916.172    2554.6087    -36470.78    401.43221    240.26305 
   99300    135.77911    -203.5923    128295.67   -33966.114    2560.7378   -36526.852    401.96829    240.83949 
   99350    132.85839   -509.02319    128290.28   -33902.444    2505.6541   -36408.098    401.63425    235.65882 
   99400    135.37133   -287.07389    128295.33   -33915.039    2553.0472   -36468.086    401.98145    240.11618 
   99450    134.59424   -312.54551    128331.33   -33941.683    2538.3915   -36480.075    401.98406    238.73781 
   99500    138.33319     -328.849    128344.99   -33874.024    2608.9065    -36482.93    402.10728     245.3698 
   99550    133.22712   -299.73695    128333.22   -33857.889    2512.6083   -36370.497    402.46631    236.31287 
   99600    132.38657    36.525117    128338.32   -33922.689    2496.7557   -36419.445    402.31779    234.82192 
   99650    134.24402   -255.81829    128359.73   -33996.995    2531.7865   -36528.781    402.48876     238.1166 
   99700    136.71938    50.009233    128330.93   -33982.076    2578.4709   -36560.547    402.25123     242.5073 
   99750    133.07444     -72.0989    128448.82   -33984.779    2509.7288   -36494.507    402.80656    236.04205 
   99800    135.73346   -276.32135       128536   -33959.103    2559.8768   -36518.979    402.79623    240.75851 
   99850    137.66438   -182.04455    128571.14   -33934.979    2596.2931   -36531.272    403.17512    244.18349 
   99900    135.54908   -30.620064    128626.12   -33903.811    2556.3993   -36460.211    403.48015    240.43146 
   99950    135.00031   -439.73453     128570.6   -33943.692    2546.0498   -36489.742    403.77784    239.45808 
  100000    135.15038   -278.83433    128508.35   -33977.696      2548.88   -36526.576    404.33547    239.72426 
Loop time of 344.941 on 12 procs for 100000 steps with 6328 atoms

Performance: 125.239 ns/day, 0.192 hours/ns, 289.904 timesteps/s
97.4% CPU use with 12 MPI tasks x no OpenMP threads

MPI task timing breakdown:
Section |  min time  |  avg time  |  max time  |%varavg| %total
---------------------------------------------------------------
Pair    | 66.784     | 131.25     | 266.92     | 767.4 | 38.05
Neigh   | 4.9028     | 9.1014     | 18.09      | 187.9 |  2.64
Comm    | 45.884     | 189.52     | 257.59     | 674.7 | 54.94
Output  | 0.15747    | 0.16956    | 0.22512    |   4.2 |  0.05
Modify  | 11.195     | 12.15      | 12.77      |  16.8 |  3.52
Other   |            | 2.749      |            |       |  0.80

Nlocal:        527.333 ave         903 max         343 min
Histogram: 8 0 0 0 0 0 0 0 1 3
Nghost:        1660.42 ave        1869 max        1547 min
Histogram: 5 3 0 0 0 0 0 0 2 2
Neighs:        0.00000 ave           0 max           0 min
Histogram: 12 0 0 0 0 0 0 0 0 0
FullNghs:      43089.2 ave      103848 max       13642 min
Histogram: 8 0 0 0 0 0 0 0 0 4

Total # of neighbors = 517070
Ave neighs/atom = 81.711441
Neighbor list builds = 6003
Dangerous builds = 0

write_data		${DIR}/data.eq-${NAME}-${TEMP}
write_data		run_0/data.eq-${NAME}-${TEMP}
write_data		run_0/data.eq-het_freeze_0-${TEMP}
write_data		run_0/data.eq-het_freeze_0-240
System init for write_data ...
undump          1

reset_timestep  0

unfix           2
unfix           3
unfix           4


################################################
#######         Run Simulation         #########
################################################

log				${DIR}/log.run_${NAME}
log				run_0/log.run_${NAME}
log				run_0/log.run_het_freeze_0
