LAMMPS data file via write_data, version 16 Mar 2018, timestep = 100000

5021 atoms
2 atom types

0.0000000000000000e+00 4.9219999999999999e+01 xlo xhi
0.0000000000000000e+00 4.9019635930410494e+01 ylo yhi
1.5348380289968837e+00 3.8465161971005543e+01 zlo zhi

Masses

1 18.015
2 12.01

Atoms # atomic

201 2 0.0000000000000000e+00 2.8417180249513345e+00 3.2128421657644939e+00 0 0 0
203 2 0.0000000000000000e+00 0.0000000000000000e+00 3.2128421657644939e+00 0 0 0
205 2 1.2305000000000001e+00 7.1042950623783474e-01 3.2128421657644939e+00 0 0 0
212 2 1.2305000000000001e+00 2.1312885187134998e+00 3.2128421657644939e+00 0 0 0
214 2 2.4610000000000003e+00 2.8417180249513345e+00 3.2128421657644939e+00 0 0 0
216 2 2.4610000000000003e+00 0.0000000000000000e+00 3.2128421657644939e+00 0 0 0
218 2 3.6915000000000004e+00 7.1042950623783474e-01 3.2128421657644939e+00 0 0 0
233 2 3.6914999999999996e+00 2.1312885187134998e+00 3.2128421657644939e+00 0 0 0
235 2 4.9220000000000006e+00 2.8417180249513332e+00 3.2128421657644939e+00 0 0 0
237 2 4.9220000000000006e+00 0.0000000000000000e+00 3.2128421657644939e+00 0 0 0
239 2 6.1524999999999999e+00 7.1042950623783407e-01 3.2128421657644939e+00 0 0 0
262 2 6.1524999999999999e+00 2.1312885187134989e+00 3.2128421657644939e+00 0 0 0
264 2 7.3829999999999991e+00 2.8417180249513345e+00 3.2128421657644939e+00 0 0 0
266 2 7.3829999999999991e+00 0.0000000000000000e+00 3.2128421657644939e+00 0 0 0
268 2 8.6134999999999984e+00 7.1042950623783407e-01 3.2128421657644939e+00 0 0 0
299 2 8.6134999999999984e+00 2.1312885187135002e+00 3.2128421657644939e+00 0 0 0
208 2 0.0000000000000000e+00 4.2625770374269996e+00 3.2128421657644939e+00 0 0 0
210 2 1.2305000000000001e+00 4.9730065436648339e+00 3.2128421657644939e+00 0 0 0
225 2 1.2305000000000001e+00 6.3938655561404980e+00 3.2128421657644939e+00 0 0 0
229 2 2.4610000000000003e+00 4.2625770374269996e+00 3.2128421657644939e+00 0 0 0
231 2 3.6914999999999996e+00 4.9730065436648339e+00 3.2128421657644939e+00 0 0 0
254 2 3.6914999999999996e+00 6.3938655561404980e+00 3.2128421657644939e+00 0 0 0
206 2 0.0000000000000000e+00 7.1042950623783341e+00 3.2128421657644939e+00 0 0 0
227 2 2.4610000000000003e+00 7.1042950623783341e+00 3.2128421657644939e+00 0 0 0
258 2 4.9220000000000006e+00 4.2625770374269978e+00 3.2128421657644939e+00 0 0 0
260 2 6.1524999999999999e+00 4.9730065436648339e+00 3.2128421657644939e+00 0 0 0
291 2 6.1524999999999999e+00 6.3938655561404980e+00 3.2128421657644939e+00 0 0 0
295 2 7.3829999999999991e+00 4.2625770374269996e+00 3.2128421657644939e+00 0 0 0
297 2 8.6135000000000002e+00 4.9730065436648339e+00 3.2128421657644939e+00 0 0 0
336 2 8.6135000000000002e+00 6.3938655561404980e+00 3.2128421657644939e+00 0 0 0
256 2 4.9220000000000006e+00 7.1042950623783341e+00 3.2128421657644939e+00 0 0 0
293 2 7.3830000000000009e+00 7.1042950623783341e+00 3.2128421657644939e+00 0 0 0
221 2 0.0000000000000000e+00 8.5251540748539991e+00 3.2128421657644939e+00 0 0 0
223 2 1.2305000000000001e+00 9.2355835810918343e+00 3.2128421657644939e+00 0 0 0
250 2 2.4610000000000003e+00 8.5251540748539991e+00 3.2128421657644939e+00 0 0 0
252 2 3.6915000000000004e+00 9.2355835810918343e+00 3.2128421657644939e+00 0 0 0
219 2 0.0000000000000000e+00 1.1366872099805333e+01 3.2128421657644939e+00 0 0 0
246 2 1.2305000000000001e+00 1.0656442593567498e+01 3.2128421657644939e+00 0 0 0
248 2 2.4610000000000003e+00 1.1366872099805333e+01 3.2128421657644939e+00 0 0 0
283 2 3.6914999999999996e+00 1.0656442593567499e+01 3.2128421657644939e+00 0 0 0
287 2 4.9220000000000006e+00 8.5251540748539991e+00 3.2128421657644939e+00 0 0 0
289 2 6.1524999999999999e+00 9.2355835810918343e+00 3.2128421657644939e+00 0 0 0
332 2 7.3830000000000009e+00 8.5251540748539991e+00 3.2128421657644939e+00 0 0 0
334 2 8.6134999999999984e+00 9.2355835810918343e+00 3.2128421657644939e+00 0 0 0
285 2 4.9220000000000006e+00 1.1366872099805333e+01 3.2128421657644939e+00 0 0 0
328 2 6.1524999999999999e+00 1.0656442593567499e+01 3.2128421657644939e+00 0 0 0
330 2 7.3829999999999991e+00 1.1366872099805333e+01 3.2128421657644939e+00 0 0 0
375 2 8.6134999999999984e+00 1.0656442593567498e+01 3.2128421657644939e+00 0 0 0
202 2 0.0000000000000000e+00 1.4208590124756650e+00 6.2857083654056689e+00 0 0 0
204 2 0.0000000000000000e+00 0.0000000000000000e+00 6.2857083654056689e+00 0 0 0
213 2 1.2305000000000001e+00 2.1312885187134998e+00 6.2857083654056689e+00 0 0 0
215 2 2.4610000000000003e+00 1.4208590124756650e+00 6.2857083654056689e+00 0 0 0
217 2 2.4610000000000003e+00 0.0000000000000000e+00 6.2857083654056689e+00 0 0 0
234 2 3.6914999999999996e+00 2.1312885187134998e+00 6.2857083654056689e+00 0 0 0
211 2 1.2305000000000001e+00 3.5521475311891644e+00 6.2857083654056689e+00 0 0 0
232 2 3.6914999999999996e+00 3.5521475311891644e+00 6.2857083654056689e+00 0 0 0
530 2 0.0000000000000000e+00 2.8417180249513345e+00 9.3585745650471814e+00 0 0 0
531 2 0.0000000000000000e+00 0.0000000000000000e+00 9.3585745650471814e+00 0 0 0
532 2 1.2305000000000001e+00 7.1042950623783474e-01 9.3585745650471814e+00 0 0 0
536 2 1.2305000000000001e+00 2.1312885187134998e+00 9.3585745650471814e+00 0 0 0
537 2 2.4610000000000003e+00 2.8417180249513345e+00 9.3585745650471814e+00 0 0 0
538 2 2.4610000000000003e+00 0.0000000000000000e+00 9.3585745650471814e+00 0 0 0
539 2 3.6915000000000004e+00 7.1042950623783474e-01 9.3585745650471814e+00 0 0 0
547 2 3.6914999999999996e+00 2.1312885187134998e+00 9.3585745650471814e+00 0 0 0
236 2 4.9220000000000006e+00 1.4208590124756650e+00 6.2857083654056689e+00 0 0 0
238 2 4.9220000000000006e+00 0.0000000000000000e+00 6.2857083654056689e+00 0 0 0
263 2 6.1524999999999999e+00 2.1312885187134989e+00 6.2857083654056689e+00 0 0 0
265 2 7.3829999999999991e+00 1.4208590124756659e+00 6.2857083654056689e+00 0 0 0
267 2 7.3829999999999991e+00 0.0000000000000000e+00 6.2857083654056689e+00 0 0 0
300 2 8.6134999999999984e+00 2.1312885187135002e+00 6.2857083654056689e+00 0 0 0
261 2 6.1524999999999999e+00 3.5521475311891644e+00 6.2857083654056689e+00 0 0 0
298 2 8.6134999999999984e+00 3.5521475311891657e+00 6.2857083654056689e+00 0 0 0
548 2 4.9220000000000006e+00 2.8417180249513332e+00 9.3585745650471814e+00 0 0 0
549 2 4.9220000000000006e+00 0.0000000000000000e+00 9.3585745650471814e+00 0 0 0
550 2 6.1524999999999999e+00 7.1042950623783407e-01 9.3585745650471814e+00 0 0 0
562 2 6.1524999999999999e+00 2.1312885187134989e+00 9.3585745650471814e+00 0 0 0
563 2 7.3829999999999991e+00 2.8417180249513345e+00 9.3585745650471814e+00 0 0 0
564 2 7.3829999999999991e+00 0.0000000000000000e+00 9.3585745650471814e+00 0 0 0
565 2 8.6134999999999984e+00 7.1042950623783407e-01 9.3585745650471814e+00 0 0 0
581 2 8.6134999999999984e+00 2.1312885187135002e+00 9.3585745650471814e+00 0 0 0
207 2 0.0000000000000000e+00 5.6834360499026637e+00 6.2857083654056689e+00 0 0 0
209 2 0.0000000000000000e+00 4.2625770374269996e+00 6.2857083654056689e+00 0 0 0
226 2 1.2305000000000001e+00 6.3938655561404980e+00 6.2857083654056689e+00 0 0 0
228 2 2.4610000000000003e+00 5.6834360499026637e+00 6.2857083654056689e+00 0 0 0
230 2 2.4610000000000003e+00 4.2625770374269996e+00 6.2857083654056689e+00 0 0 0
255 2 3.6914999999999996e+00 6.3938655561404980e+00 6.2857083654056689e+00 0 0 0
224 2 1.2305000000000001e+00 7.8147245686161639e+00 6.2857083654056689e+00 0 0 0
253 2 3.6914999999999996e+00 7.8147245686161639e+00 6.2857083654056689e+00 0 0 0
534 2 0.0000000000000000e+00 4.2625770374269996e+00 9.3585745650471814e+00 0 0 0
535 2 1.2305000000000001e+00 4.9730065436648339e+00 9.3585745650471814e+00 0 0 0
543 2 1.2305000000000001e+00 6.3938655561404980e+00 9.3585745650471814e+00 0 0 0
545 2 2.4610000000000003e+00 4.2625770374269996e+00 9.3585745650471814e+00 0 0 0
546 2 3.6914999999999996e+00 4.9730065436648339e+00 9.3585745650471814e+00 0 0 0
558 2 3.6914999999999996e+00 6.3938655561404980e+00 9.3585745650471814e+00 0 0 0
533 2 0.0000000000000000e+00 7.1042950623783341e+00 9.3585745650471814e+00 0 0 0
544 2 2.4610000000000003e+00 7.1042950623783341e+00 9.3585745650471814e+00 0 0 0
257 2 4.9220000000000006e+00 5.6834360499026637e+00 6.2857083654056689e+00 0 0 0
259 2 4.9220000000000006e+00 4.2625770374269978e+00 6.2857083654056689e+00 0 0 0
292 2 6.1524999999999999e+00 6.3938655561404980e+00 6.2857083654056689e+00 0 0 0
294 2 7.3829999999999991e+00 5.6834360499026637e+00 6.2857083654056689e+00 0 0 0
296 2 7.3829999999999991e+00 4.2625770374269996e+00 6.2857083654056689e+00 0 0 0
337 2 8.6135000000000002e+00 6.3938655561404980e+00 6.2857083654056689e+00 0 0 0
290 2 6.1524999999999999e+00 7.8147245686161639e+00 6.2857083654056689e+00 0 0 0
335 2 8.6135000000000002e+00 7.8147245686161639e+00 6.2857083654056689e+00 0 0 0
560 2 4.9220000000000006e+00 4.2625770374269978e+00 9.3585745650471814e+00 0 0 0
561 2 6.1524999999999999e+00 4.9730065436648339e+00 9.3585745650471814e+00 0 0 0
577 2 6.1524999999999999e+00 6.3938655561404980e+00 9.3585745650471814e+00 0 0 0
579 2 7.3829999999999991e+00 4.2625770374269996e+00 9.3585745650471814e+00 0 0 0
580 2 8.6135000000000002e+00 4.9730065436648339e+00 9.3585745650471814e+00 0 0 0
600 2 8.6135000000000002e+00 6.3938655561404980e+00 9.3585745650471814e+00 0 0 0
559 2 4.9220000000000006e+00 7.1042950623783341e+00 9.3585745650471814e+00 0 0 0
578 2 7.3830000000000009e+00 7.1042950623783341e+00 9.3585745650471814e+00 0 0 0
220 2 0.0000000000000000e+00 9.9460130873296642e+00 6.2857083654056689e+00 0 0 0
222 2 0.0000000000000000e+00 8.5251540748539991e+00 6.2857083654056689e+00 0 0 0
249 2 2.4610000000000003e+00 9.9460130873296642e+00 6.2857083654056689e+00 0 0 0
251 2 2.4610000000000003e+00 8.5251540748539991e+00 6.2857083654056689e+00 0 0 0
245 2 1.2305000000000001e+00 1.2077301606043163e+01 6.2857083654056689e+00 0 0 0
247 2 1.2305000000000001e+00 1.0656442593567498e+01 6.2857083654056689e+00 0 0 0
282 2 3.6914999999999996e+00 1.2077301606043163e+01 6.2857083654056689e+00 0 0 0
284 2 3.6914999999999996e+00 1.0656442593567499e+01 6.2857083654056689e+00 0 0 0
541 2 0.0000000000000000e+00 8.5251540748539991e+00 9.3585745650471814e+00 0 0 0
542 2 1.2305000000000001e+00 9.2355835810918343e+00 9.3585745650471814e+00 0 0 0
556 2 2.4610000000000003e+00 8.5251540748539991e+00 9.3585745650471814e+00 0 0 0
557 2 3.6915000000000004e+00 9.2355835810918343e+00 9.3585745650471814e+00 0 0 0
540 2 0.0000000000000000e+00 1.1366872099805333e+01 9.3585745650471814e+00 0 0 0
554 2 1.2305000000000001e+00 1.0656442593567498e+01 9.3585745650471814e+00 0 0 0
555 2 2.4610000000000003e+00 1.1366872099805333e+01 9.3585745650471814e+00 0 0 0
573 2 3.6914999999999996e+00 1.0656442593567499e+01 9.3585745650471814e+00 0 0 0
286 2 4.9220000000000006e+00 9.9460130873296642e+00 6.2857083654056689e+00 0 0 0
288 2 4.9220000000000006e+00 8.5251540748539991e+00 6.2857083654056689e+00 0 0 0
331 2 7.3830000000000009e+00 9.9460130873296642e+00 6.2857083654056689e+00 0 0 0
333 2 7.3830000000000009e+00 8.5251540748539991e+00 6.2857083654056689e+00 0 0 0
327 2 6.1524999999999999e+00 1.2077301606043163e+01 6.2857083654056689e+00 0 0 0
329 2 6.1524999999999999e+00 1.0656442593567499e+01 6.2857083654056689e+00 0 0 0
374 2 8.6135000000000002e+00 1.2077301606043163e+01 6.2857083654056689e+00 0 0 0
376 2 8.6134999999999984e+00 1.0656442593567498e+01 6.2857083654056689e+00 0 0 0
575 2 4.9220000000000006e+00 8.5251540748539991e+00 9.3585745650471814e+00 0 0 0
576 2 6.1524999999999999e+00 9.2355835810918343e+00 9.3585745650471814e+00 0 0 0
598 2 7.3830000000000009e+00 8.5251540748539991e+00 9.3585745650471814e+00 0 0 0
599 2 8.6134999999999984e+00 9.2355835810918343e+00 9.3585745650471814e+00 0 0 0
574 2 4.9220000000000006e+00 1.1366872099805333e+01 9.3585745650471814e+00 0 0 0
596 2 6.1524999999999999e+00 1.0656442593567499e+01 9.3585745650471814e+00 0 0 0
597 2 7.3829999999999991e+00 1.1366872099805333e+01 9.3585745650471814e+00 0 0 0
620 2 8.6134999999999984e+00 1.0656442593567498e+01 9.3585745650471814e+00 0 0 0
1214 1 3.3397136412635708e+00 2.3435774388829076e+00 1.5160669977381874e+01 1 1 -1
1190 1 3.7384401563234335e+00 2.9986795805745126e+00 1.1957096474365759e+01 1 0 0
2546 1 7.5019459477417056e+00 6.3248324393373045e-01 1.2157620905449077e+01 0 0 1
25 1 8.3474908450498493e+00 6.1318745749081254e+00 1.1584151044873931e+01 0 1 0
2592 1 1.3184769530388971e+00 4.2958686197714826e+00 1.2367937323573489e+01 1 0 0
1204 1 3.3967663624083189e-01 7.1620903406150607e+00 1.1824912437222535e+01 0 0 0
5019 1 5.2509441416603817e+00 5.3995897795477132e+00 1.2004567406573930e+01 1 1 0
2480 1 4.5932061928545220e+00 5.0340763157251107e+00 1.6048579354169398e+01 1 1 0
4750 1 3.0539486711290373e+00 6.8781856791959290e+00 1.2300036230445656e+01 0 1 0
4945 1 2.8045809687773917e+00 6.8637198722510888e+00 1.4997723916612458e+01 1 1 0
1172 1 7.7238914790096826e+00 6.1493368872106116e+00 1.9121734434116590e+01 0 0 0
4814 1 6.3425493826437473e-01 1.1256869125063158e+01 1.2359961533437890e+01 0 1 0
4961 1 5.7963747175020499e+00 1.1082387532854685e+01 1.4809825500874778e+01 1 0 -1
3806 1 7.7827722673657123e+00 9.2399083312125416e+00 1.1933613612272039e+01 0 1 0
14 1 7.6144443407697269e+00 8.9393680745620649e+00 1.4650931353933480e+01 0 0 1
1414 1 6.7430403398950534e-01 1.0034758137471309e+00 1.4604298658379850e+01 0 0 0
3407 1 3.0144053903797547e+00 9.7082309661787072e+00 1.2257064861433850e+01 1 1 0
2465 1 1.0513489444952482e+00 4.4704145993260287e+00 1.5132733023960464e+01 1 0 -1
2653 1 3.3432947262491610e+00 9.8647631226948480e+00 1.5372501603386901e+01 1 0 0
2670 1 2.8117319345100253e+00 8.5445827674902191e+00 1.8132028467270541e+01 0 1 0
3861 1 5.6090248056663299e+00 1.0864347015742796e+01 1.1995841752347831e+01 0 0 0
3816 1 3.0420328640195176e+00 9.1126810002221303e-01 1.8060052619276959e+01 0 1 0
3700 1 2.3007548337867956e+00 1.0810725101008249e+01 1.9660516278977472e+01 1 0 0
3463 1 8.8982985851417649e+00 3.3212208607341225e+00 1.2730496764578898e+01 0 0 0
2694 1 9.4138915005477521e+00 2.2624572034197290e+00 1.8747876095829497e+01 0 0 1
1060 1 4.7291587404373532e+00 2.3303017885817709e-01 1.1990417008527009e+01 0 0 0
2635 1 7.3748495803668153e+00 1.9956073340044878e+00 1.6905081514112496e+01 0 1 0
2431 1 5.0722539912893598e+00 2.9340277614405275e+00 1.7782576769669141e+01 0 1 0
4757 1 1.5322779492470850e+00 2.9832862900604411e+00 1.9423141494941067e+01 0 0 0
3649 1 4.3136746161634376e-01 6.6460570908874033e+00 1.8634215183690618e+01 1 0 0
3530 1 4.9943937315201499e+00 6.6268424758344775e+00 1.8443450853236413e+01 1 0 0
43 1 9.1994127466586129e+00 7.8527341537894770e+00 1.6991311059701594e+01 0 0 0
3539 1 6.6221854924530597e+00 6.0541380986222535e+00 1.4352970952065542e+01 -1 1 0
927 1 8.7073552019279656e+00 1.0451318209365466e+01 1.8425250383538220e+01 0 0 1
3621 1 8.3051985099402970e+00 4.1396590758783605e+00 1.5437759707269803e+01 1 1 -1
2506 1 1.2049748858211717e+00 1.1594241813834763e+01 1.5593578419753237e+01 1 0 -1
2581 1 1.3836214263951890e-01 1.1854761116143552e+01 1.8084735915527443e+01 0 0 0
3960 1 4.3510798295068112e-02 7.2733768407238966e+00 1.6039381967567639e+01 1 0 0
3781 1 2.1639259345912203e+00 6.1450665098352184e+00 2.3683140050902978e+01 0 0 -1
4727 1 3.3320730106651713e+00 2.8662512354743539e+00 2.3108290490734724e+01 1 0 0
4803 1 1.2166585441327478e+00 1.1079005754218054e+00 2.2866701905031483e+01 1 0 -1
3524 1 6.1180320148188514e+00 1.1983236698422868e+01 2.4171662862689942e+01 1 0 0
4733 1 9.6765414962928702e+00 5.2324951981444787e+00 2.7165732085173822e+01 -1 1 0
3720 1 6.6489243889261989e+00 6.8668957214533999e-01 2.8631437973135203e+01 0 1 -1
1164 1 8.0238162263798110e+00 3.6546064929161752e+00 2.0701433603626896e+01 1 0 0
4632 1 6.7095151791414800e+00 4.5053553927212846e+00 2.3866008840459280e+01 1 2 0
1129 1 8.7042802979764407e+00 1.8915679044295548e+00 2.4437416884732979e+01 1 0 0
2205 1 6.2420642585013617e+00 8.1851262002526930e+00 2.2164697516221828e+01 1 -1 0
3496 1 1.9406426961802907e+00 8.8197194611310579e+00 2.4216890865137263e+01 -1 0 0
906 1 5.5837388174563971e+00 2.5709212387194937e+00 2.0939500131504431e+01 0 0 0
3706 1 2.2685463937110879e+00 3.8367710649828815e+00 2.8731257936483328e+01 1 1 0
1182 1 8.7336974085500216e+00 7.2655859316091531e+00 2.3017015300255665e+01 0 1 0
1019 1 2.0101551694505164e+00 1.1399330121709253e+01 2.5382871088117117e+01 0 0 0
1349 1 5.9254016097508100e-01 9.4978376707266392e+00 2.1752629085997683e+01 -1 1 0
1081 1 2.8978688198833741e-01 2.4610631371059850e+00 2.5346697627465691e+01 0 0 0
961 1 8.0153729529455742e+00 1.0488145922122930e+01 2.1287963928764636e+01 1 1 0
935 1 5.8488946416147698e+00 8.7661944901057520e+00 2.6649745829978361e+01 0 0 0
4751 1 1.9596352276027877e+00 1.4561223614063818e+00 2.7124555963830307e+01 1 0 0
125 1 5.3939320005004054e+00 4.9295457684289143e+00 2.8481941500811327e+01 1 1 0
2404 1 4.8923262384793986e+00 9.5481480291560139e+00 2.4260810823557485e+01 0 0 0
1460 1 5.5721442796091134e+00 2.0086365274605975e+00 2.4512877079614075e+01 1 1 1
3799 1 3.6079248986124237e+00 1.1765639673171298e+01 2.9022055479101578e+01 1 1 1
2608 1 4.8425983763432949e+00 2.3774135372728060e+00 2.7179689245383212e+01 0 1 0
1074 1 8.7552198620167978e+00 9.5844077922831357e+00 2.7270640812470834e+01 0 -1 0
2519 1 4.7830141593403059e+00 5.7553381992771975e+00 2.2384884979127047e+01 0 1 0
2548 1 1.0402629918119526e+00 5.2451199841302509e+00 2.6314100006002860e+01 1 1 0
4730 1 3.4278599116061952e+00 9.1695774398517500e+00 2.7969664921472841e+01 -1 0 0
1463 1 7.0088463845054676e+00 5.9568162081346294e+00 2.6437377008310413e+01 0 1 0
4849 1 8.4589305518049052e-01 8.2619986995404009e+00 2.6661845686213823e+01 1 1 0
1146 1 9.7011271533410905e+00 4.7355493545014342e+00 2.2737559290186496e+01 1 1 -1
2270 1 8.1729411498055740e+00 1.2047100156293988e+01 2.6131396066531750e+01 0 0 0
3594 1 2.0901379013715926e-01 8.6408218398728431e-01 2.0332499726235792e+01 0 1 0
3910 1 1.1735778416683260e+00 1.2189066087696279e+01 2.2659673156401045e+01 1 1 0
180 1 8.6593779745476702e+00 1.0980840191272025e-01 2.6727878623658864e+01 0 0 0
4863 1 3.8066759729391464e+00 4.6566894490737205e+00 2.0288766031612784e+01 1 1 0
1318 1 2.1841691569833959e+00 9.3002553168972284e+00 3.3249803782689213e+01 0 1 0
2651 1 4.1284048575150214e+00 1.3952973341874819e+00 3.1824115192349748e+01 0 0 0
1256 1 6.1619124454987215e+00 1.2063849114634470e+01 3.7751723043530177e+01 0 0 0
3590 1 9.5404948017303504e+00 7.1921712845858687e+00 3.1235851229449086e+01 0 0 1
3423 1 6.8223934104041186e+00 1.7766033356906836e+00 3.1264763820636986e+01 0 0 0
29 1 9.7359792085517327e-01 8.6802686672692833e+00 3.5956667499262664e+01 0 0 0
3499 1 9.3284074307973630e-01 6.7320976740215972e+00 3.2689977809546498e+01 1 0 0
1253 1 3.2712097726035192e+00 4.2061884816950359e+00 3.1823331282034523e+01 1 0 0
4979 1 4.6518140633022869e+00 8.9110154230511949e+00 3.4785898148822909e+01 1 0 0
4885 1 8.7945651953548687e+00 1.1765744493789640e+01 3.3535408408479455e+01 0 0 0
2246 1 5.6806703809331518e+00 5.9653418628139807e+00 3.2306560426194807e+01 0 1 0
2438 1 1.8982139990332616e+00 6.3039667760494709e+00 3.6962559162914488e+01 0 0 -1
2364 1 4.7549933198276726e+00 8.4225898028722277e+00 3.1716395221154002e+01 0 1 0
3971 1 2.4611157310361159e-01 1.1058026442137168e+01 3.1965784692194372e+01 0 1 0
4877 1 5.5136766611802530e+00 1.1002647126877227e+01 3.0846596868959157e+01 -1 -1 -1
2468 1 6.8161070923118245e+00 2.4108102238952918e+00 3.3896178748918700e+01 0 0 -1
133 1 4.8389683809450181e+00 8.8417105620458125e-01 3.7684008560943539e+01 0 0 0
2470 1 6.4685486728398645e-01 7.0306789940870296e+00 2.9384758211326528e+01 1 0 0
4640 1 7.4372135223962283e+00 9.3800177094017254e+00 3.4744317281261232e+01 0 1 0
1040 1 4.5005903288414233e+00 2.4878093384703557e+00 3.5491443800831007e+01 1 1 0
2396 1 1.6583493578993744e+00 1.9402111694391702e+00 3.7672314367879636e+01 0 0 0
2322 1 7.5685593916761125e+00 1.3243719441520698e+00 3.7531760193887735e+01 0 1 0
3692 1 2.7531525653240956e+00 1.2359050680946380e+00 3.4178060494863786e+01 0 1 0
1002 1 8.0849437838951683e+00 9.6289821965571463e+00 3.0099684093408410e+01 0 0 0
4744 1 6.9012390063015054e+00 4.2772131807342832e+00 3.0358920922803261e+01 1 1 0
3867 1 3.8464250917842477e+00 8.8319484369004666e+00 3.7749665891924025e+01 0 1 0
1021 1 2.1189998045029745e+00 4.6547985972507746e+00 3.4442508221667921e+01 -1 1 0
3479 1 3.8214319337532849e+00 4.5663034250192878e+00 3.7594475109521596e+01 1 0 0
3763 1 4.6826787497306146e+00 6.2250782983728525e+00 3.4896284668253728e+01 0 0 -1
928 1 8.0564300697593083e+00 6.8247527847760887e+00 3.3358143551037458e+01 1 0 1
4780 1 6.9532112320208714e+00 8.9658087951583507e+00 3.7495286247283971e+01 1 0 0
3723 1 6.3604025334886360e+00 5.7819964927152263e+00 3.7250407332721991e+01 0 1 0
4827 1 8.8282841746673455e+00 4.3514765579323615e+00 3.4541713524008330e+01 0 0 -1
2588 1 8.7391001570094762e+00 4.0676120043961257e+00 3.7185185926468961e+01 1 0 0
4786 1 1.3661626597326120e+00 1.0830528129447435e+01 3.7423743140336896e+01 0 1 0
3798 1 9.8202949711440635e+00 4.7390607138721519e+00 3.0035258499622930e+01 0 1 0
913 1 3.4559835308616678e+00 6.7954916525957234e+00 2.9681458243407814e+01 0 1 0
1312 1 3.3183260394204106e-01 4.3582377293063930e+00 3.0886643041860616e+01 0 1 0
3438 1 9.6539489123894882e+00 9.0991614412158945e+00 3.7833152960897067e+01 -1 0 0
4735 1 2.3705919093380862e-01 2.3727534812171820e+00 3.4828090687114013e+01 1 0 0
169 1 3.1980797456656513e+00 1.1780673420385687e+01 3.4276241192778912e+01 -1 1 0
1473 1 9.7636494564148215e+00 2.5922331157924412e+00 3.2498898117655528e+01 0 1 1
242 2 0.0000000000000000e+00 1.2787731112280996e+01 3.2128421657644939e+00 0 0 0
244 2 1.2305000000000001e+00 1.3498160618518829e+01 3.2128421657644939e+00 0 0 0
279 2 2.4610000000000003e+00 1.2787731112280996e+01 3.2128421657644939e+00 0 0 0
281 2 3.6915000000000004e+00 1.3498160618518829e+01 3.2128421657644939e+00 0 0 0
240 2 0.0000000000000000e+00 1.5629449137232333e+01 3.2128421657644939e+00 0 0 0
275 2 1.2305000000000001e+00 1.4919019630994494e+01 3.2128421657644939e+00 0 0 0
277 2 2.4610000000000003e+00 1.5629449137232328e+01 3.2128421657644939e+00 0 0 0
320 2 3.6915000000000004e+00 1.4919019630994494e+01 3.2128421657644939e+00 0 0 0
324 2 4.9220000000000006e+00 1.2787731112280996e+01 3.2128421657644939e+00 0 0 0
326 2 6.1524999999999990e+00 1.3498160618518829e+01 3.2128421657644939e+00 0 0 0
371 2 7.3829999999999991e+00 1.2787731112280996e+01 3.2128421657644939e+00 0 0 0
373 2 8.6135000000000002e+00 1.3498160618518835e+01 3.2128421657644939e+00 0 0 0
322 2 4.9220000000000006e+00 1.5629449137232333e+01 3.2128421657644939e+00 0 0 0
367 2 6.1524999999999990e+00 1.4919019630994494e+01 3.2128421657644939e+00 0 0 0
369 2 7.3829999999999991e+00 1.5629449137232333e+01 3.2128421657644939e+00 0 0 0
414 2 8.6135000000000002e+00 1.4919019630994494e+01 3.2128421657644939e+00 0 0 0
271 2 0.0000000000000000e+00 1.7050308149707998e+01 3.2128421657644939e+00 0 0 0
316 2 2.4610000000000003e+00 1.7050308149707998e+01 3.2128421657644939e+00 0 0 0
269 2 0.0000000000000000e+00 1.9892026174659328e+01 3.2128421657644939e+00 0 0 0
273 2 1.2305000000000001e+00 1.7760737655945832e+01 3.2128421657644939e+00 0 0 0
312 2 1.2305000000000001e+00 1.9181596668421495e+01 3.2128421657644939e+00 0 0 0
314 2 2.4610000000000003e+00 1.9892026174659328e+01 3.2128421657644939e+00 0 0 0
318 2 3.6914999999999996e+00 1.7760737655945832e+01 3.2128421657644939e+00 0 0 0
359 2 3.6914999999999996e+00 1.9181596668421495e+01 3.2128421657644939e+00 0 0 0
363 2 4.9220000000000006e+00 1.7050308149707998e+01 3.2128421657644939e+00 0 0 0
410 2 7.3830000000000009e+00 1.7050308149707998e+01 3.2128421657644939e+00 0 0 0
361 2 4.9220000000000006e+00 1.9892026174659328e+01 3.2128421657644939e+00 0 0 0
365 2 6.1524999999999999e+00 1.7760737655945832e+01 3.2128421657644939e+00 0 0 0
406 2 6.1524999999999999e+00 1.9181596668421495e+01 3.2128421657644939e+00 0 0 0
408 2 7.3829999999999991e+00 1.9892026174659328e+01 3.2128421657644939e+00 0 0 0
412 2 8.6134999999999984e+00 1.7760737655945832e+01 3.2128421657644939e+00 0 0 0
448 2 8.6135000000000002e+00 1.9181596668421495e+01 3.2128421657644939e+00 0 0 0
306 2 0.0000000000000000e+00 2.4154603212086325e+01 3.2128421657644939e+00 0 0 0
308 2 0.0000000000000000e+00 2.1312885187134999e+01 3.2128421657644939e+00 0 0 0
310 2 1.2304999999999993e+00 2.2023314693372832e+01 3.2128421657644939e+00 0 0 0
351 2 1.2304999999999993e+00 2.3444173705848499e+01 3.2128421657644939e+00 0 0 0
353 2 2.4610000000000003e+00 2.4154603212086325e+01 3.2128421657644939e+00 0 0 0
355 2 2.4610000000000003e+00 2.1312885187134995e+01 3.2128421657644939e+00 0 0 0
357 2 3.6914999999999996e+00 2.2023314693372832e+01 3.2128421657644939e+00 0 0 0
398 2 3.6915000000000004e+00 2.3444173705848499e+01 3.2128421657644939e+00 0 0 0
400 2 4.9220000000000006e+00 2.4154603212086325e+01 3.2128421657644939e+00 0 0 0
402 2 4.9220000000000006e+00 2.1312885187134995e+01 3.2128421657644939e+00 0 0 0
404 2 6.1524999999999990e+00 2.2023314693372832e+01 3.2128421657644939e+00 0 0 0
440 2 6.1524999999999999e+00 2.3444173705848499e+01 3.2128421657644939e+00 0 0 0
442 2 7.3830000000000009e+00 2.4154603212086336e+01 3.2128421657644939e+00 0 0 0
444 2 7.3829999999999991e+00 2.1312885187134999e+01 3.2128421657644939e+00 0 0 0
446 2 8.6135000000000002e+00 2.2023314693372832e+01 3.2128421657644939e+00 0 0 0
474 2 8.6134999999999984e+00 2.3444173705848499e+01 3.2128421657644939e+00 0 0 0
243 2 0.0000000000000000e+00 1.2787731112280996e+01 6.2857083654056689e+00 0 0 0
280 2 2.4610000000000003e+00 1.2787731112280996e+01 6.2857083654056689e+00 0 0 0
241 2 0.0000000000000000e+00 1.4208590124756663e+01 6.2857083654056689e+00 0 0 0
276 2 1.2305000000000001e+00 1.4919019630994494e+01 6.2857083654056689e+00 0 0 0
278 2 2.4610000000000003e+00 1.4208590124756663e+01 6.2857083654056689e+00 0 0 0
321 2 3.6915000000000004e+00 1.4919019630994494e+01 6.2857083654056689e+00 0 0 0
552 2 0.0000000000000000e+00 1.2787731112280996e+01 9.3585745650471814e+00 0 0 0
553 2 1.2305000000000001e+00 1.3498160618518829e+01 9.3585745650471814e+00 0 0 0
571 2 2.4610000000000003e+00 1.2787731112280996e+01 9.3585745650471814e+00 0 0 0
572 2 3.6915000000000004e+00 1.3498160618518829e+01 9.3585745650471814e+00 0 0 0
551 2 0.0000000000000000e+00 1.5629449137232333e+01 9.3585745650471814e+00 0 0 0
569 2 1.2305000000000001e+00 1.4919019630994494e+01 9.3585745650471814e+00 0 0 0
570 2 2.4610000000000003e+00 1.5629449137232328e+01 9.3585745650471814e+00 0 0 0
592 2 3.6915000000000004e+00 1.4919019630994494e+01 9.3585745650471814e+00 0 0 0
325 2 4.9220000000000006e+00 1.2787731112280996e+01 6.2857083654056689e+00 0 0 0
372 2 7.3829999999999991e+00 1.2787731112280996e+01 6.2857083654056689e+00 0 0 0
323 2 4.9220000000000006e+00 1.4208590124756663e+01 6.2857083654056689e+00 0 0 0
368 2 6.1524999999999990e+00 1.4919019630994494e+01 6.2857083654056689e+00 0 0 0
370 2 7.3830000000000009e+00 1.4208590124756663e+01 6.2857083654056689e+00 0 0 0
415 2 8.6135000000000002e+00 1.4919019630994494e+01 6.2857083654056689e+00 0 0 0
594 2 4.9220000000000006e+00 1.2787731112280996e+01 9.3585745650471814e+00 0 0 0
595 2 6.1524999999999990e+00 1.3498160618518829e+01 9.3585745650471814e+00 0 0 0
618 2 7.3829999999999991e+00 1.2787731112280996e+01 9.3585745650471814e+00 0 0 0
619 2 8.6135000000000002e+00 1.3498160618518835e+01 9.3585745650471814e+00 0 0 0
593 2 4.9220000000000006e+00 1.5629449137232333e+01 9.3585745650471814e+00 0 0 0
616 2 6.1524999999999990e+00 1.4919019630994494e+01 9.3585745650471814e+00 0 0 0
617 2 7.3829999999999991e+00 1.5629449137232333e+01 9.3585745650471814e+00 0 0 0
640 2 8.6135000000000002e+00 1.4919019630994494e+01 9.3585745650471814e+00 0 0 0
272 2 0.0000000000000000e+00 1.7050308149707998e+01 6.2857083654056689e+00 0 0 0
274 2 1.2305000000000001e+00 1.6339878643470165e+01 6.2857083654056689e+00 0 0 0
317 2 2.4610000000000003e+00 1.7050308149707998e+01 6.2857083654056689e+00 0 0 0
319 2 3.6915000000000004e+00 1.6339878643470165e+01 6.2857083654056689e+00 0 0 0
270 2 0.0000000000000000e+00 1.8471167162183658e+01 6.2857083654056689e+00 0 0 0
313 2 1.2305000000000001e+00 1.9181596668421495e+01 6.2857083654056689e+00 0 0 0
315 2 2.4610000000000003e+00 1.8471167162183658e+01 6.2857083654056689e+00 0 0 0
360 2 3.6914999999999996e+00 1.9181596668421495e+01 6.2857083654056689e+00 0 0 0
567 2 0.0000000000000000e+00 1.7050308149707998e+01 9.3585745650471814e+00 0 0 0
590 2 2.4610000000000003e+00 1.7050308149707998e+01 9.3585745650471814e+00 0 0 0
566 2 0.0000000000000000e+00 1.9892026174659328e+01 9.3585745650471814e+00 0 0 0
568 2 1.2305000000000001e+00 1.7760737655945832e+01 9.3585745650471814e+00 0 0 0
588 2 1.2305000000000001e+00 1.9181596668421495e+01 9.3585745650471814e+00 0 0 0
589 2 2.4610000000000003e+00 1.9892026174659328e+01 9.3585745650471814e+00 0 0 0
591 2 3.6914999999999996e+00 1.7760737655945832e+01 9.3585745650471814e+00 0 0 0
612 2 3.6914999999999996e+00 1.9181596668421495e+01 9.3585745650471814e+00 0 0 0
364 2 4.9220000000000006e+00 1.7050308149707998e+01 6.2857083654056689e+00 0 0 0
366 2 6.1524999999999999e+00 1.6339878643470165e+01 6.2857083654056689e+00 0 0 0
411 2 7.3830000000000009e+00 1.7050308149707998e+01 6.2857083654056689e+00 0 0 0
413 2 8.6134999999999984e+00 1.6339878643470165e+01 6.2857083654056689e+00 0 0 0
362 2 4.9220000000000006e+00 1.8471167162183658e+01 6.2857083654056689e+00 0 0 0
407 2 6.1524999999999999e+00 1.9181596668421495e+01 6.2857083654056689e+00 0 0 0
409 2 7.3829999999999991e+00 1.8471167162183658e+01 6.2857083654056689e+00 0 0 0
449 2 8.6135000000000002e+00 1.9181596668421495e+01 6.2857083654056689e+00 0 0 0
614 2 4.9220000000000006e+00 1.7050308149707998e+01 9.3585745650471814e+00 0 0 0
638 2 7.3830000000000009e+00 1.7050308149707998e+01 9.3585745650471814e+00 0 0 0
613 2 4.9220000000000006e+00 1.9892026174659328e+01 9.3585745650471814e+00 0 0 0
615 2 6.1524999999999999e+00 1.7760737655945832e+01 9.3585745650471814e+00 0 0 0