
# Create simulation box and atoms

read_data data.ML_graphite_m500atm_240K
  orthogonal box = (0 0 1.53529) to (49.22 49.0196 38.4647)
  5 by 4 by 4 MPI processor grid
  reading atoms ...
  5021 atoms
  reading velocities ...
  5021 velocities
group water type 1
2261 atoms in group water
group graphite type 2
2760 atoms in group graphite

# Define potential

pair_style sw
pair_coeff * * MLC_e.sw mW C


# Fix graphite atoms in place

fix 5 graphite setforce 0.0 0.0 0.0
velocity graphite set 0.0 0.0 0.0


# Equilibration of molecular water

# Add velocity/set timestep

velocity	    water create ${TEMP} ${SEED} rot yes dist gaussian
velocity	    water create 240 ${SEED} rot yes dist gaussian
velocity	    water create 240 14059 rot yes dist gaussian
timestep	    5.0

# Define output

compute			1 water msd
compute			3 water temp
thermo	    	50
thermo_style	custom step temp press vol etotal ke pe c_1[4] c_3

# Neighbor lists

neigh_modify    delay 0 every 1 check yes

# Set fixes

fix             1 water momentum 10 linear 1 1 1 rescale
fix             2 water nve
fix             3 water temp/csvr ${TEMP} ${TEMP} 500.0 ${SEED}
fix             3 water temp/csvr 240 ${TEMP} 500.0 ${SEED}
fix             3 water temp/csvr 240 240 500.0 ${SEED}
fix             3 water temp/csvr 240 240 500.0 14059
fix             4 water press/berendsen z ${PRES} ${PRES} 1000.0 modulus 20000
fix             4 water press/berendsen z -500 ${PRES} 1000.0 modulus 20000
fix             4 water press/berendsen z -500 -500 1000.0 modulus 20000

# Run 0.5 ns equilibration

dump		    1 all atom 2000 ${DIR}/eq.${NAME}-${TEMP}.dump
dump		    1 all atom 2000 run_10/eq.${NAME}-${TEMP}.dump
dump		    1 all atom 2000 run_10/eq.het_freeze_10-${TEMP}.dump
dump		    1 all atom 2000 run_10/eq.het_freeze_10-240.dump

reset_timestep  0

run	            100000
Neighbor list info ...
  update every 1 steps, delay 0 steps, check yes
  max neighbors/atom: 2000, page size: 100000
  master list distance cutoff = 6.67472
  ghost atom cutoff = 6.67472
  binsize = 3.33736, bins = 15 15 12
  1 neighbor lists, perpetual/occasional/extra = 1 0 0
  (1) pair sw, perpetual
      attributes: full, newton on
      pair build: full/bin/atomonly
      stencil: full/bin/3d
      bin: standard
Per MPI rank memory allocation (min/avg/max) = 4.069 | 4.188 | 4.476 Mbytes
Step Temp Press Volume TotEng KinEng PotEng c_1[4] c_3 
       0    108.04781   -816.58172    89101.337   -21796.007    1616.7914   -23412.799            0          240 
      50    107.01065   -859.82819    89056.167   -21821.182    1601.2716   -23422.453   0.51029143    237.69621 
     100    108.08027   -675.41457    89033.798   -21800.881    1617.2771   -23418.158   0.84070241     240.0721 
     150     106.6301   -452.49819    89091.924   -21764.337    1595.5773   -23359.914     1.093127    236.85094 
     200     107.2357   -636.08226    89163.208   -21803.275    1604.6393   -23407.915    1.3321418    238.19612 
     250    106.93347   -779.56181     89194.09   -21772.427    1600.1167   -23372.543    1.5497764    237.52478 
     300    110.67165   -658.09545    89204.274   -21755.354    1656.0536   -23411.408    1.7276681    245.82818 
     350    108.74714   -797.64869    89168.593   -21735.077     1627.256   -23362.332    1.9349512    241.55339 
     400    110.22935    -968.1014    89175.872   -21707.148    1649.4352   -23356.583     2.160538    244.84572 
     450    108.50511   -777.71158    89187.129   -21715.231    1623.6343   -23338.866     2.286367    241.01579 
     500    112.31768   -750.49998      89160.4   -21738.592    1680.6842   -23419.276    2.4364566     249.4844 
     550    105.48996   -823.65377    89152.169   -21783.149    1578.5166   -23361.666    2.6715362    234.31841 
     600    107.70448    -713.7243    89133.567   -21793.668    1611.6539   -23405.321    2.8361665    239.23738 
     650    106.17911   -1065.9261    89116.349   -21760.059    1588.8288   -23348.888    3.0665705    235.84917 
     700    108.85208   -635.82848    89061.029   -21738.438    1628.8262   -23367.264    3.3351624    241.78647 
     750     108.9485   -641.10615    89070.291   -21767.178     1630.269   -23397.447    3.5118457    242.00065 
     800    108.10466   -756.24375    89080.701   -21748.588    1617.6421    -23366.23    3.6156706    240.12628 
     850    106.83598   -762.99629    89020.446   -21769.505    1598.6579   -23368.162    3.7983528    237.30823 
     900    111.55417   -959.04105    89013.465   -21748.074    1669.2594   -23417.334     3.965731    247.78847 
     950    109.87152   -1058.1563    88923.363   -21707.501    1644.0807   -23351.582    4.1516803    244.05089 
    1000    110.25996   -813.25182    88850.101   -21725.133    1649.8933   -23375.027    4.3594996    244.91373 
    1050    109.58032   -926.59781    88804.972   -21720.424    1639.7234   -23360.147     4.509889    243.40408 
    1100    111.67575   -1061.5478    88695.654   -21752.205    1671.0787   -23423.284    4.6165543    248.05852 
    1150    108.32109   -536.99699    88708.556    -21763.95    1620.8807    -23384.83    4.7338317    240.60703 
    1200    108.34599   -744.66722    88775.256   -21792.635    1621.2533   -23413.889    4.8337968    240.66234 
    1250    105.43117   -688.30212    88790.169    -21774.33    1577.6369   -23351.967    5.0659812    234.18782 
    1300    108.07304   -330.25474    88871.372   -21736.516    1617.1689   -23353.685    5.2599493    240.05604 
    1350    108.31705   -635.26594    88838.647   -21748.056    1620.8202   -23368.876    5.4422127    240.59805 
    1400     107.6345   -387.34313    88920.056   -21769.161    1610.6068   -23379.767    5.6302131    239.08195 
    1450    104.79482   -790.87658    88949.591   -21734.474    1568.1147   -23302.589    5.7591087    232.77434 
    1500     107.1615   -758.86181    88900.022   -21752.444    1603.5289   -23355.973     5.961263    238.03129 
    1550    110.10054   -701.64313    88927.341   -21740.176    1647.5078   -23387.683    6.1377134    244.55962 
    1600    105.53036   -734.45723     88997.59   -21766.112    1579.1211   -23345.233    6.2452145    234.40814 
    1650    104.55008   -440.21577    89074.422   -21809.162    1564.4526   -23373.614    6.3739186    232.23072 
    1700    108.87282   -774.50181    89084.832   -21808.034    1629.1365   -23437.171    6.5538099    241.83254 
    1750    105.27358   -681.31008    89120.363   -21837.698    1575.2787   -23412.977    6.7120542    233.83776 
    1800    105.78696    -787.5299    89145.868   -21833.055    1582.9607   -23416.016    6.9314012    234.97811 
    1850    107.58616   -591.28702    89114.911   -21811.251    1609.8834   -23421.135    7.0210883    238.97457 
    1900    110.99058   -607.12044    89174.346   -21819.235    1660.8261   -23480.061    7.1536839    246.53661 
    1950    109.89666   -883.45724    89257.624   -21830.488     1644.457   -23474.945     7.267313    244.10675 
    2000    108.94543   -955.91839    89187.617   -21767.444    1630.2231   -23397.667    7.5236965    241.99383 
    2050    105.78737    -663.9922    89163.569   -21743.963    1582.9669    -23326.93    7.6846128    234.97903 
    2100    110.63841   -1047.0546    89086.113    -21764.91    1655.5563   -23420.466     7.807962    245.75435 
    2150    109.86959   -714.75211    89032.111   -21735.022     1644.052   -23379.074    7.9762654    244.04662 
    2200    110.01287   -766.37572    89108.748   -21792.888    1646.1959   -23439.084    8.1942527    244.36487 
    2250    107.28718   -819.77149    89134.146   -21841.244    1605.4096   -23446.654    8.4581316    238.31047 
    2300    107.13197   -829.98004    89135.716   -21839.056     1603.087   -23442.143    8.6342368    237.96569 
    2350    108.06698   -1009.8417    89090.089   -21837.577    1617.0783   -23454.655    8.7850169    240.04259 
    2400    104.99188   -906.76728    89041.314   -21856.225    1571.0635   -23427.288    9.1229297    233.21205 
    2450    106.66525   -690.04118    89073.315    -21842.53    1596.1031   -23438.634    9.3427198      236.929 
    2500    107.09674   -554.51226    89098.721   -21826.336    1602.5599   -23428.896      9.44577    237.88746 
    2550    109.66647   -812.24918    89111.801   -21813.621    1641.0125   -23454.633    9.5554982    243.59543 
    2600    109.37897   -622.83332    89090.132   -21832.977    1636.7104   -23469.688    9.7222523    242.95683 
    2650    109.25876   -951.38519    89059.772   -21800.819    1634.9117   -23435.731    9.8885631    242.68982 
    2700    112.72032   -728.50351    89094.167   -21770.162    1686.7093   -23456.871    10.082929    250.37876 
    2750    106.58173   -876.55248    89098.915   -21755.978    1594.8534   -23350.832    10.283734    236.74348 
    2800     110.6904   -728.04601    89089.946   -21768.766    1656.3343     -23425.1    10.424502    245.86984 
    2850    107.58817   -984.82146    89075.944   -21800.944    1609.9135   -23410.857    10.613965    238.97903 
    2900    107.93891   -1117.1474    89044.975   -21797.375    1615.1618   -23412.536    10.786037    239.75811 
    2950    106.06843   -783.39599    88994.842    -21777.45    1587.1726   -23364.622    11.028596    235.60332 
    3000    107.38289   -828.42784    88994.688    -21821.78    1606.8418   -23428.621    11.209051    238.52306 
    3050    110.25136    -610.7356    88990.513   -21813.696    1649.7645   -23463.461    11.356797    244.89461 
    3100    108.12942   -530.01935    89052.745   -21833.793    1618.0125   -23451.805    11.441141    240.18127 
    3150     103.9854   -961.31433    89015.178   -21858.139    1556.0029   -23414.142    11.617022    230.97643 
    3200    105.75145   -602.56255    88981.099   -21887.218    1582.4294   -23469.647    11.633464    234.89924 
    3250    107.03867   -440.63102    89010.377   -21879.191     1601.691   -23480.882    11.708744    237.75847 
    3300    103.65881   -1002.8352    89071.999   -21892.283    1551.1158   -23443.399    11.897745    230.25098 
    3350    107.57982   -464.18603    89108.272   -21888.679    1609.7885   -23498.468    12.195788    238.96048 
    3400    104.78805   -664.53512    89253.159   -21868.314    1568.0135   -23436.327    12.211097     232.7593 
    3450    106.89429   -605.78461    89331.209   -21825.855    1599.5305   -23425.385    12.323213    237.43775 
    3500    109.01586   -774.72839    89465.852   -21795.649    1631.2769   -23426.926    12.459565    242.15026 
    3550    108.72434   -736.32865    89553.446    -21764.99    1626.9148   -23391.905    12.689342    241.50274 
    3600    111.69347   -1033.9269    89611.274   -21758.451    1671.3438   -23429.795     13.03241    248.09788 
    3650     110.8281   -1137.8172    89563.515   -21768.786    1658.3948    -23427.18    13.335527     246.1757 
    3700    106.05584   -858.41422    89562.362   -21775.869    1586.9841   -23362.853    13.481279    235.57535 
    3750    107.00782   -628.66531    89601.907   -21757.492    1601.2293   -23358.721    13.596319    237.68993 
    3800    110.19823   -766.51967    89643.352   -21763.894    1648.9696   -23412.864     13.67997     244.7766 
    3850    107.24193   -662.49662    89687.477   -21792.769    1604.7325   -23397.502     13.74606    238.20995 
    3900    106.84373   -1284.9557    89732.615   -21797.237     1598.774   -23396.011     13.99212    237.32546 
    3950     107.2558   -931.52568    89662.768   -21793.515    1604.9399   -23398.455    14.050981    238.24075 
    4000    109.44384    -739.1785    89714.293   -21791.068    1637.6812   -23428.749     14.33723    243.10093 
    4050    106.86733   -932.81471    89702.085   -21802.051     1599.127   -23401.178    14.479404    237.37787 
    4100    109.29143   -972.43722    89689.751   -21757.896    1635.4005   -23393.297    14.585668    242.76237 
    4150    108.78046   -864.18753    89604.841   -21756.408    1627.7546   -23384.162    14.729103     241.6274 
    4200    109.94861   -1143.3994    89546.227     -21767.7    1645.2344   -23412.934     14.93368    244.22214 
    4250    108.76494   -994.18079    89484.445   -21789.221    1627.5224   -23416.743    15.107554    241.59293 
    4300    108.93425    -775.6095    89464.122   -21765.762    1630.0558   -23395.818    15.126168      241.969 
    4350    107.05433   -647.00985    89477.374   -21788.572    1601.9253   -23390.497    15.323766    237.79325 
    4400    106.17766   -1042.9426    89433.668   -21804.191    1588.8071   -23392.998    15.466572    235.84596 
    4450    110.41839   -628.83138    89365.074   -21780.632     1652.264   -23432.896     15.65702    245.26564 
    4500    108.12301   -751.25065    89381.767   -21770.669    1617.9166   -23388.586    15.799771    240.16704 
    4550    109.71392   -453.17347    89452.595   -21764.515    1641.7226   -23406.237    16.007546    243.70084 
    4600    107.18108   -904.96607     89535.66   -21774.799     1603.822   -23378.621     16.14835    238.07479 
    4650    107.79246   -954.57882    89514.207   -21811.227    1612.9704   -23424.197    16.177942     239.4328 
    4700    106.78369    -1019.879     89472.29   -21808.708    1597.8754   -23406.584    16.395293    237.19208 
    4750    108.72198   -779.52794    89443.755   -21798.091    1626.8794    -23424.97    16.630655    241.49749 
    4800    109.94858   -737.58856    89466.902   -21792.931    1645.2339   -23438.165    16.827469    244.22207 
    4850     109.0898   -956.12909    89435.386   -21802.562    1632.3834   -23434.945    16.855682    242.31452 
    4900    109.60968   -689.48158    89415.669   -21821.074    1640.1627   -23461.237    17.055597    243.46929 
    4950    108.93217   -892.26433    89477.623   -21800.237    1630.0247   -23430.262    17.309072    241.96439 
    5000    109.82643   -953.17062    89498.457   -21766.479     1643.406   -23409.885    17.415922    243.95074 
    5050    108.90451   -947.15341    89475.659    -21766.56    1629.6108   -23396.171    17.658095    241.90294 
    5100    108.32694   -939.63091    89388.276   -21819.521    1620.9682   -23440.489     17.91968    240.62001 
    5150    108.28355    -1012.762    89359.913   -21791.045    1620.3189   -23411.363    17.908748    240.52364 
    5200    107.32599   -753.36584     89439.89   -21777.885    1605.9902   -23383.875    18.023882    238.39666 
    5250      110.586    -866.5152    89456.961   -21731.541     1654.772   -23386.313    18.016433    245.63792 
    5300    109.55359   -1028.6047    89441.383    -21718.41    1639.3234   -23357.733    18.254656     243.3447 
    5350    109.39618   -609.39268    89427.325   -21726.853    1636.9679    -23363.82    18.425392    242.99505 
    5400    109.40458   -777.27581    89479.916   -21763.089    1637.0936   -23400.183    18.487892     243.0137 
    5450    108.49262   -900.94092    89438.349   -21766.929    1623.4474   -23390.376    18.667857    240.98803 
    5500    111.11338   -713.86453    89448.724   -21752.744    1662.6636   -23415.408     18.71135    246.80937 
    5550    108.30631   -649.28858    89448.205   -21781.174    1620.6596   -23401.833    18.939726     240.5742 
    5600    107.64076   -937.16265    89402.154   -21773.526    1610.7005   -23384.227    19.064731    239.09585 
    5650    107.75928   -885.88993    89370.816   -21751.618     1612.474   -23364.092    19.272855    239.35911 
    5700    109.62699   -653.88755    89348.312   -21764.957    1640.4217   -23405.378    19.373772    243.50773 
    5750    109.49982   -609.28708    89414.395   -21784.959    1638.5188   -23423.477     19.54117    243.22526 
    5800     106.9336   -636.81524    89512.786   -21778.186    1600.1187   -23378.304    19.654649    237.52508 
    5850    107.42394   -712.24243    89545.475   -21773.893    1607.4559   -23381.349    19.696483    238.61423 
    5900    111.85914   -928.80096    89496.368    -21741.15    1673.8229   -23414.973    19.772364    248.46588 
    5950    108.98856   -609.45768    89508.112   -21769.785    1630.8684   -23400.653    19.974594    242.08963 
    6000    107.17176   -700.37948     89517.44   -21765.104    1603.6825   -23368.786    20.049952    238.05409 
    6050    109.05924   -1077.5691    89471.218   -21744.528    1631.9261   -23376.454     20.09229    242.24663 
    6100    108.22636   -739.38785    89509.734   -21745.661    1619.4631   -23365.124     20.22777     240.3966 
    6150    108.35818   -923.80727    89555.317   -21765.433    1621.4357   -23386.869      20.4467    240.68942 
    6200    108.29311    -1159.473    89597.634   -21780.346     1620.462   -23400.808    20.524829    240.54488 
    6250    105.24829   -1004.2445    89643.488    -21781.12    1574.9002    -23356.02    20.508474    233.78159 
    6300    108.56838   -714.50339    89612.694   -21764.275    1624.5811   -23388.856    20.544572    241.15632 
    6350    110.71305   -949.48367    89617.072   -21765.366    1656.6732   -23422.039    20.846763    245.92014 
    6400     108.0237   -670.02792    89605.263   -21775.532    1616.4307   -23391.962    21.060312    239.94646 
    6450     108.1152   -744.20431    89581.234    -21806.46    1617.7998    -23424.26    21.204475    240.14969 
    6500    112.09212   -452.47997     89623.29   -21786.571    1677.3091    -23463.88    21.215814    248.98339 
    6550    105.69112   -801.11847    89620.801   -21821.194    1581.5266   -23402.721    21.507763    234.76523 
    6600    106.13525   -765.72934    89614.985   -21828.099    1588.1724   -23416.272    21.808653    235.75174 
    6650    107.61754   -839.73198    89651.745    -21827.58    1610.3529   -23437.933    21.960775    239.04426 
    6700    107.42923   -435.53023    89733.184   -21808.851    1607.5352   -23416.387    22.230978      238.626 
    6750    106.21859   -1082.0636     89729.54   -21868.803    1589.4195   -23458.222    22.362422    235.93686 
    6800     106.7106   -1056.8879    89636.688    -21850.07    1596.7819   -23446.852    22.356173    237.02975 
    6850    107.22011   -818.71475     89600.26   -21875.835     1604.406   -23480.241    22.568065    238.16149 
    6900    105.26511   -769.73534    89621.063   -21916.659     1575.152   -23491.811    22.640791    233.81897 
    6950    108.96313   -813.36392    89607.335   -21875.368     1630.488   -23505.856    22.851138    242.03316 
    7000    106.22036    -728.2293    89633.571   -21859.309    1589.4461   -23448.756    23.281909     235.9408 
    7050    106.96704   -982.40761    89596.945   -21838.918     1600.619   -23439.537     23.38409    237.59934 
    7100    107.42641   -578.98153    89640.359   -21838.559    1607.4929   -23446.052    23.547063    238.61972 
    7150    112.54798    -978.1295      89671.2   -21820.365    1684.1305   -23504.495    23.837414    249.99596 
    7200    106.93013   -465.39582    89745.997   -21812.754    1600.0669    -23412.82    23.897643    237.51738 
    7250    110.38846   -973.00258     89765.23    -21811.27    1651.8161   -23463.086    24.041768    245.19914 
    7300    108.41431   -625.30792    89777.876   -21816.634    1622.2756   -23438.909    24.193995    240.81409 
    7350    108.10057   -733.34225     89763.05   -21838.957    1617.5809   -23456.538    24.376352    240.11719 
    7400      109.064   -592.00574    89757.032   -21821.203    1631.9973     -23453.2    24.543731     242.2572 
    7450    112.73145   -878.89741    89754.333   -21832.702    1686.8758   -23519.578    24.618351    250.40349 
    7500    105.24049   -914.05523    89734.039   -21885.594    1574.7836   -23460.378    24.873442    233.76428 
    7550    108.98667   -959.37115    89768.918   -21879.756    1630.8402   -23510.597     25.00933    242.08544 
    7600    110.08637    -1012.912    89804.961   -21859.657    1647.2958   -23506.953    25.202677    244.52814 
    7650    107.21079   -1048.9364    89707.472   -21903.647    1604.2665   -23507.913    25.283587    238.14078 
    7700    108.42704   -1024.6911    89686.654   -21920.935    1622.4661   -23543.401    25.467451    240.84237 
    7750    106.81376   -1169.3603    89733.529   -21914.774    1598.3255   -23513.099     25.92261    237.25889 
    7800    107.76406   -853.19883    89690.935    -21865.13    1612.5454   -23477.676    26.137621    239.36972 
    7850    107.66709   -750.38876    89719.776   -21886.245    1611.0944   -23497.339    26.076599    239.15433 
    7900    110.69906   -768.20897    89748.273   -21877.295    1656.4639   -23533.759    26.428462    245.88907 
    7950    110.92322   -799.45543     89826.86   -21882.643    1659.8181   -23542.461    26.535103    246.38698 
    8000    106.34047   -972.96718    89849.233   -21872.997    1591.2434    -23464.24    26.851336     236.2076 
    8050    106.41588    -962.9516    89874.677   -21882.104    1592.3718   -23474.476    26.912365     236.3751 
    8100    107.58881     -794.669    89845.453   -21890.704     1609.923   -23500.627    26.925383    238.98045 
    8150    107.02474   -1189.5392    89836.813    -21879.18    1601.4825   -23480.662    27.146776    237.72752 
    8200    106.47851   -763.88132    89804.747   -21897.926    1593.3089   -23491.235    27.420098    236.51421 
    8250    108.07368   -593.12125    89787.662   -21853.064    1617.1785   -23470.242    27.609596    240.05747 
    8300    108.45377   -565.10976    89853.064   -21906.848     1622.866   -23529.714    27.518075    240.90173 
    8350    107.64389   -951.85033    89908.767   -21895.707    1610.7473   -23506.454    27.543492     239.1028 
    8400    109.59257     -1265.84    89836.576   -21809.764    1639.9066    -23449.67    27.600566    243.43128 
    8450    112.47274   -743.25058    89805.978    -21805.03    1683.0046   -23488.034    27.822023    249.82883 
    8500    108.16188   -1073.1407    89772.602    -21864.13    1618.4983   -23482.628    27.950683    240.25339 
    8550    106.73057   -932.55228    89744.708   -21883.357    1597.0806   -23480.437    28.226699    237.07409 
    8600     106.7509   -490.70404    89802.003   -21853.059    1597.3848   -23450.444    28.154561    237.11925 
    8650    108.09794   -800.10438    89860.722   -21853.499    1617.5415   -23471.041    28.263592    240.11135 
    8700    104.99536   -872.97085    89849.588   -21874.504    1571.1155    -23445.62    28.623465    233.21978 
    8750     105.3413   -1019.9901    89821.969    -21884.99    1576.2921   -23461.282    28.721805    233.98821 
    8800    105.61522   -1184.1648    89721.328    -21891.07    1580.3909   -23471.461    28.949208    234.59663 
    8850    105.77481   -1153.3359    89664.125    -21863.03     1582.779   -23445.809    28.993385    234.95112 
    8900    104.19768   -1118.5599    89620.593   -21857.902    1559.1794   -23417.082    29.227975    231.44795 
    8950    109.06503   -900.24102    89544.669   -21850.294    1632.0127   -23482.306    29.347285    242.25948 
    9000    108.98935    -1106.264    89536.688   -21873.605    1630.8803   -23504.485    29.467953    242.09138 
    9050    109.57954   -1044.0713    89525.941   -21857.112    1639.7116   -23496.824    29.724899    243.40233 
    9100    105.65999   -1014.4414    89569.527   -21858.529    1581.0608    -23439.59    30.016481    234.69608 
    9150     104.3252   -1045.9766    89644.856   -21926.944    1561.0875   -23488.032    30.361397    231.73119 
    9200    105.72355   -802.93449    89633.587   -21918.196    1582.0119   -23500.207    30.481463    234.83727 
    9250    108.92212   -814.44474    89630.442   -21858.622    1629.8742   -23488.496     30.66071    241.94204 
    9300    108.92466   -1248.5741    89595.629   -21881.957    1629.9122   -23511.869    30.799744    241.94769 
    9350    108.02179   -1255.8666    89523.763   -21906.534     1616.402   -23522.936    30.892197    239.94221 
    9400    105.05075   -998.58813    89479.508    -21887.53    1571.9444   -23459.475    30.901052    233.34282 
    9450    106.36055   -793.36802    89519.533   -21878.832    1591.5438   -23470.376    30.974963     236.2522 
    9500    108.98643   -940.95685    89565.017   -21875.493    1630.8366   -23506.329    31.227013     242.0849 
    9550    107.10597   -788.59755    89538.004   -21902.852     1602.698    -23505.55    31.345722    237.90795 
    9600    106.74341   -878.13738    89561.748   -21889.937    1597.2728   -23487.209    31.414753    237.10262 
    9650    106.95606   -998.00154    89523.438   -21896.242    1600.4548   -23496.696    31.426373    237.57496 
    9700    109.01113   -972.24559    89556.559   -21846.373    1631.2062   -23477.579    31.694256    242.13976 
    9750    108.60398   -791.24837    89614.449   -21848.635    1625.1137   -23473.749    31.683476    241.23538 
    9800    110.59313   -1080.7858    89679.301   -21829.241    1654.8786    -23484.12    31.610209    245.65376 
    9850    108.58862   -983.49987    89673.267   -21887.157    1624.8839   -23512.041    31.613063    241.20127 
    9900    108.81806   -947.89403    89725.581   -21865.061    1628.3172   -23493.378    31.797015    241.71091 
    9950    107.04599   -623.28117    89685.276   -21873.746    1601.8005   -23475.547    31.816712    237.77472 
   10000    107.30255   -1184.9078    89674.012   -21881.354    1605.6395   -23486.994    31.944965     238.3446 
   10050    108.54049   -999.71544     89657.44   -21876.811    1624.1636   -23500.975    32.153594    241.09436 
   10100    105.48346   -1104.5783    89577.309   -21879.468    1578.4193   -23457.888    32.459984    234.30397 
   10150    108.88936   -745.17079    89497.987   -21833.598    1629.3841   -23462.982    32.712989    241.86929 
   10200    108.10808   -814.72785    89406.879   -21866.289    1617.6932   -23483.982    32.855409    240.13387 
   10250    109.42754   -495.12925     89307.43   -21875.333    1637.4372    -23512.77    32.826568    243.06472 
   10300    108.85433   -860.28577    89303.796   -21849.903    1628.8599   -23478.763    33.005409    241.79147 
   10350    106.74568   -1027.0524    89283.917   -21885.548    1597.3067   -23482.855    33.304118    237.10766 
   10400    106.46065   -723.76239    89335.801   -21852.321    1593.0416   -23445.363    33.201414    236.47454 
   10450    110.53831   -726.19283    89415.223    -21833.59    1654.0584   -23487.648    33.250683      245.532 
   10500    108.37022   -691.18171    89416.663   -21877.696    1621.6158   -23499.312    33.308249    240.71615 
   10550    109.39421   -879.44691    89417.634   -21867.763    1636.9385   -23504.701    33.556477    242.99068 
   10600    105.22822   -933.41516    89421.397   -21907.088    1574.5999   -23481.688    33.589696    233.73701 
   10650    106.85749   -883.30888     89406.23    -21892.81    1598.9798    -23491.79    33.492229    237.35602 
   10700    107.15905   -811.79273    89401.043   -21863.666    1603.4923   -23467.158    33.545851    238.02586 
   10750    105.89917   -800.78259    89384.334   -21920.413    1584.6399   -23505.053    33.786324    235.22736 
   10800    107.64554   -1021.3709    89390.831   -21905.625    1610.7719   -23516.397    33.976889    239.10646 
   10850     108.1361   -698.51296    89481.059   -21866.495    1618.1126   -23484.608    33.919098    240.19612 
   10900    107.91482   -690.18732    89510.022   -21868.167    1614.8014   -23482.969    34.004943     239.7046 
   10950    109.04517   -622.49519    89472.833   -21851.867    1631.7156   -23483.582    34.254506    242.21538 
   11000    109.27637    -998.7684    89453.808   -21873.912    1635.1752   -23509.087    34.581318    242.72893 
   11050    107.04039   -960.29439      89444.9   -21874.262    1601.7167   -23475.979    34.659425    237.76228 
   11100    108.35479   -948.86008    89412.744   -21904.503     1621.385   -23525.888    34.734526    240.68188 
   11150    109.77492    -987.5169    89375.272     -21874.4    1642.6353   -23517.035    34.607283    243.83633 
   11200    107.70894   -792.72009    89347.279   -21917.622    1611.7206   -23529.343    34.786332    239.24729 
   11250    105.11046   -689.17298    89377.688   -21902.542    1572.8379    -23475.38    34.860611    233.47544 
   11300    104.71259   -909.15407    89348.695   -21896.907    1566.8843   -23463.792    35.009895    232.59169 
   11350    108.76331   -697.21302    89328.451   -21867.546     1627.498   -23495.044    35.066681    241.58931 
   11400     108.4052   -790.25904    89367.919   -21891.429    1622.1393   -23513.568    35.220178    240.79386 
   11450    109.96903   -850.95257    89358.138   -21872.317    1645.5399   -23517.857    35.228051    244.26749 
   11500    106.19721   -850.27181    89396.428   -21891.171    1589.0996   -23480.271    35.212191    235.88937 
   11550    107.08104   -522.13674    89377.782   -21848.583     1602.325   -23450.908    35.298427    237.85258 
   11600    111.24446   -410.19604    89429.615   -21804.105     1664.625    -23468.73    35.314459    247.10053 
   11650    107.82228   -766.12815    89471.091   -21856.402    1613.4167   -23469.819    35.524186    239.49905 
   11700    110.71207   -696.88584    89442.361   -21842.838    1656.6585   -23499.496    35.665658    245.91796 
   11750      107.233   -804.95438    89391.327   -21869.707    1604.5989   -23474.306    35.849488    238.19013 
   11800    109.13676    -752.5702     89415.67   -21887.658     1633.086   -23520.744    36.168058    242.41881 
   11850    108.79638    -845.4606    89458.256   -21868.428    1627.9927    -23496.42     36.24596    241.66275 
   11900    105.90229    -1029.402    89417.419   -21886.257    1584.6866   -23470.944    36.252774     235.2343 
   11950    109.42696   -890.07911    89372.083   -21848.518    1637.4285   -23485.946    36.352392    243.06342 
   12000    109.67582   -979.19286    89397.982   -21841.759    1641.1524   -23482.912    36.594009     243.6162 
   12050    109.09816   -637.18576     89397.14   -21826.294    1632.5085   -23458.803    36.752205    242.33308 
   12100    105.10234   -868.14577    89403.144   -21855.696    1572.7163   -23428.413    36.726973     233.4574 
   12150    108.82679   -734.55541    89382.123   -21859.935    1628.4478   -23488.383    36.829169     241.7303 
   12200    107.67559   -702.49763    89366.732    -21875.57    1611.2217   -23486.791    37.025101    239.17322 
   12250    109.79232   -604.20551    89450.332    -21861.95    1642.8957   -23504.846    37.246755    243.87498 
   12300    106.37958   -483.19823    89499.912   -21841.989    1591.8286   -23433.818    37.373905    236.29447 
   12350    111.53777   -470.21168    89609.686   -21772.627     1669.014   -23441.641    37.581481    247.75205 
   12400     108.4019   -805.11675    89628.035   -21820.995    1622.0898   -23443.085    37.925475    240.78651 
   12450     105.4981   -765.20941    89633.797   -21890.475    1578.6384   -23469.114    38.302408    234.33649 
   12500    107.68879   -1075.4622    89615.557   -21880.565    1611.4192   -23491.985    38.323869    239.20254 
   12550    107.40089   -770.35589    89569.125   -21882.531    1607.1111   -23489.642    38.292889    238.56304 
   12600    108.00732   -704.32128    89537.761   -21867.595    1616.1856   -23483.781    38.386946    239.91007 
   12650    104.70866   -722.11448    89460.511   -21865.104    1566.8255   -23431.929    38.413495    232.58296 
   12700    108.83181    -705.5826    89413.827   -21859.771     1628.523   -23488.294    38.714195    241.74146 
   12750    110.07746   -925.45202    89380.324   -21837.753    1647.1625   -23484.915    38.764706    244.50835 
   12800    108.33885   -739.90323    89290.786   -21857.751    1621.1464   -23478.897    38.996014    240.64646 
   12850    106.20715     -877.296     89225.87    -21856.26    1589.2484   -23445.508    39.094583    235.91147 
   12900    110.89172   -840.89676    89208.303   -21873.265    1659.3467   -23532.612     39.15577      246.317 
   12950    109.80982   -597.12799    89226.113   -21856.801    1643.1575   -23499.958    39.387887    243.91384 
   13000    108.29453   -830.93141    89233.249   -21869.839    1620.4832   -23490.322    39.464242    240.54802 
   13050    110.02971   -614.14957    89256.337   -21877.823    1646.4479   -23524.271    39.661103    244.40228 
   13100     108.4034   -914.07612    89220.812    -21851.96    1622.1123   -23474.072    40.125214    240.78985 
   13150    108.64041    -604.9302    89224.073   -21862.621    1625.6589    -23488.28    40.321246    241.31632 
   13200    111.43516   -644.28224    89291.036   -21806.228    1667.4786   -23473.707    40.440166    247.52412 
   13250    111.68733   -891.82327    89237.434   -21800.194    1671.2519   -23471.446    40.496031    248.08424 
   13300    108.65681   -907.84934    89185.314   -21846.831    1625.9042   -23472.735    40.486546    241.35273 
   13350    110.77877   -886.90245    89166.553   -21833.044    1657.6565     -23490.7    40.842428    246.06611 
   13400    108.77986   -731.17409    89187.073   -21854.697    1627.7456   -23482.443    40.738195    241.62607 
   13450    106.21083   -974.13901    89149.529   -21851.218    1589.3034   -23440.521    41.118969    235.91963 
   13500      110.122   -830.03959     89189.86   -21860.146    1647.8288   -23507.975    41.294576    244.60727 
   13550    109.18594   -692.82773    89210.397    -21866.34     1633.822   -23500.162    41.277861    242.52806 
   13600    108.39802   -781.44195    89256.423   -21856.894    1622.0318   -23478.925    41.579764     240.7779 
   13650    108.51469   -736.13112    89282.415   -21895.097    1623.7777   -23518.874    41.662451    241.03706 
   13700    106.93702   -568.16076     89232.91     -21899.7    1600.1699   -23499.869    41.722273    237.53267 
   13750    109.00409   -623.61392    89209.035   -21871.357    1631.1008   -23502.458    41.713471    242.12413 
   13800    107.73147   -654.50096    89165.018   -21890.194    1612.0577   -23502.252     41.82534    239.29733 
   13850    105.92857   -700.53704     89228.12   -21880.523    1585.0798   -23465.603    41.920936    235.29267 
   13900    108.32739    -804.7553    89269.131   -21887.745    1620.9749    -23508.72    42.006597    240.62101 
   13950    109.21588   -710.36326    89240.473    -21879.81    1634.2701    -23514.08    42.179593    242.59457 
   14000    106.80281    -748.3877    89215.871    -21863.46    1598.1616   -23461.622    42.299276    237.23456 
   14050    107.85036    -867.9303    89264.263   -21868.319    1613.8367   -23482.156    42.636495    239.56141 
   14100    106.57267   -539.96912    89253.213    -21902.67    1594.7179   -23497.388    42.700677    236.72337 
   14150    106.74665   -812.52382    89257.891    -21879.59    1597.3213   -23476.911    42.940601    237.10982 
   14200    109.98471   -395.24599    89273.672   -21831.978    1645.7745   -23477.753    42.881064    244.30232 
   14250     107.1834   -831.97484    89300.778   -21857.623    1603.8566   -23461.479    42.825239    238.07993 
   14300    106.28132   -845.77208    89240.916   -21918.746    1590.3583   -23509.104    42.905743    236.07622 
   14350    105.35672   -745.48301    89260.655   -21944.878    1576.5228   -23521.401    43.198599    234.02245 
   14400    106.96796   -920.32393    89282.911     -21920.1    1600.6329   -23520.733    43.404139     237.6014 
   14450     105.8238   -815.16006    89216.746   -21935.436     1583.512   -23518.948    43.498503    235.05994 
   14500    108.05776   -775.36688    89227.168   -21925.548    1616.9403   -23542.488    43.897434    240.02211 
   14550    104.98423     -786.892    89226.967    -21923.83     1570.949   -23494.779    44.080734    233.19506 
   14600    105.52011   -686.66762      89269.9   -21902.491    1578.9678   -23481.459    44.139146    234.38538 
   14650     108.7256   -830.80813    89249.871   -21906.151    1626.9336   -23533.085    44.210299    241.50553 
   14700    108.58643   -763.82282    89273.461   -21859.145    1624.8511   -23483.996    44.273184    241.19641 
   14750    107.81954   -624.66871    89371.766   -21849.455    1613.3756   -23462.831    44.493953    239.49295 
   14800    105.76501   -881.19716     89394.06   -21888.982    1582.6323   -23471.615    44.460381    234.92936 
   14850    106.36322   -877.69224    89357.455   -21918.483    1591.5838   -23510.067    44.692415    236.25813 
   14900    104.73348    -813.9879    89337.084   -21938.861    1567.1969   -23506.058    44.738888    232.63809 
   14950    109.34425   -877.79925    89317.482   -21888.519    1636.1909   -23524.709    44.982738     242.8797 
   15000    106.60116    -796.8522    89338.901   -21884.477    1595.1442   -23479.622    45.078251    236.78665 
   15050    104.32505    -557.9263    89392.733   -21899.033    1561.0852   -23460.118    45.421879    231.73085 
   15100    106.95649   -731.50934    89351.179   -21860.499    1600.4612    -23460.96    45.333434    237.57591 
   15150    108.48491   -896.90388    89337.745   -21879.629    1623.3319   -23502.961    45.380476     240.9709 
   15200    108.18547   -812.65453    89315.839   -21862.535    1618.8513   -23481.387    45.544451    240.30578 
   15250    108.96347   -733.44244    89340.641   -21831.124     1630.493   -23461.617    45.576391    242.03389 
   15300    111.07644   -663.77345    89404.885   -21812.375    1662.1107   -23474.486    45.782253    246.72731 
   15350    106.95829   -505.71759    89439.384   -21819.611    1600.4882   -23420.099    45.966912    237.57992 
   15400    108.68824   -729.10021    89508.149   -21853.518    1626.3745   -23479.892    46.339965    241.42254 
   15450     109.3229   -969.49885    89523.238   -21860.227    1635.8713   -23496.098    46.565198    242.83227 
   15500    108.28135   -809.49336    89493.527   -21863.753     1620.286   -23484.039    46.657359    240.51875 
   15550    104.98829   -991.19737     89476.18   -21892.096    1571.0097   -23463.105    46.795413    233.20407 
   15600    107.93453   -825.04029    89456.598   -21878.241    1615.0963   -23493.338    46.799078    239.74837 
   15650    107.55994   -825.99869    89441.205   -21838.022     1609.491   -23447.513     46.98437    238.91632 
   15700    110.63281   -760.39847    89487.915   -21797.196    1655.4724   -23452.668    46.963954     245.7419 
   15750     109.7336    -652.4386    89515.226   -21792.629    1642.0171   -23434.646    47.111992    243.74455 
   15800    111.70785   -645.13997    89538.184   -21783.707     1671.559   -23455.266    47.197319    248.12983 
   15850    109.55037   -1182.5414    89569.684   -21789.538    1639.2752   -23428.813    47.352561    243.33755 
   15900    110.43696   -864.11641    89546.135   -21747.052    1652.5418   -23399.594    47.712375    245.30688 
   15950    109.96495   -724.77861    89566.068   -21779.027    1645.4788   -23424.506    47.800786    244.25843 
   16000    109.86515   -977.06605    89538.344   -21754.209    1643.9854   -23398.194    47.876172    244.03674 
   16050    107.85637   -1119.1493    89438.243   -21807.184    1613.9267   -23421.111    48.101166    239.57477 
   16100    108.64347   -1009.5946     89398.32   -21862.296    1625.7046       -23488    48.089489     241.3231 
   16150    104.79832   -800.31008    89380.387   -21872.252    1568.1671   -23440.419    48.029834    232.78211 
   16200    107.40887   -1128.2805    89345.486   -21844.577    1607.2304   -23451.807    48.165746    238.58076 
   16250    105.99201   -911.21232    89323.463    -21869.27     1586.029   -23455.299    48.366057    235.43357 
   16300    109.49929   -1072.2561    89301.481   -21850.204    1638.5108   -23488.715    48.576562    243.22408 
   16350     107.5574   -770.85836    89271.187   -21847.176    1609.4531   -23456.629    48.814945    238.91069 
   16400    107.90907    -1019.945    89235.846   -21826.907    1614.7154   -23441.623    48.988397    239.69183 
   16450    112.50673   -1082.1309    89256.438   -21790.358    1683.5132   -23473.871    49.351493    249.90433 
   16500    108.58769   -881.32555    89262.492   -21801.622    1624.8699   -23426.492    49.558509     241.1992 
   16550    106.55438   -953.91809    89290.441   -21812.128    1594.4442   -23406.572    49.918247    236.68274 
   16600    107.28666   -785.22051    89211.733   -21823.663    1605.4017   -23429.065      50.0605     238.3093 
   16650    110.37893   -1169.4069    89171.476   -21781.349    1651.6734   -23433.023    50.410858    245.17797 
   16700    108.17602   -706.66824    89129.943   -21799.795    1618.7099   -23418.505    50.461022    240.28478 
   16750    108.71517   -478.20285    89170.045     -21802.1    1626.7776   -23428.877    50.619923    241.48237 
   16800    108.86799   -1118.9842    89136.477   -21788.166    1629.0642    -23417.23    50.913962    241.82181 
   16850    109.19732   -696.31758    89131.606   -21798.306    1633.9922   -23432.299    50.781063    242.55333 
   16900    107.47745   -743.51096     89231.77   -21814.079    1608.2567   -23422.336    50.605698    238.73309 
   16950    110.11061   -692.84832    89203.489   -21797.787    1647.6584   -23445.446    50.898456    244.58197 
   17000    109.49203   -1102.1049    89190.403   -21807.778    1638.4023    -23446.18    50.749294    243.20797 
   17050    111.45775   -708.60154    89234.314   -21788.953    1667.8166    -23456.77    50.614522     247.5743 
   17100    107.19582   -868.80636    89280.783    -21768.43    1604.0425   -23372.473    50.629455    238.10752 
   17150     108.4965   -1019.3628     89169.64   -21802.206    1623.5054   -23425.711     50.91724    240.99664 
   17200    110.06434   -833.99214    89108.413    -21759.61    1646.9661   -23406.576    50.967489    244.47921 
   17250    107.12769   -770.56888    89059.225   -21734.095     1603.023   -23337.118    51.283678    237.95619 
   17300    107.25334   -1022.4922    89042.719   -21744.908    1604.9033   -23349.811    51.516942    238.23531 
   17350    109.83371   -594.78109    89029.929   -21713.542     1643.515   -23357.057    51.602599    243.96691 
   17400    112.11155   -874.24184    89083.789   -21714.785    1677.5998   -23392.385    51.447812    249.02653 
   17450    109.54799   -1242.0639    89102.265   -21703.803    1639.2396   -23343.043    51.396397    243.33226 
   17500    109.97111   -851.26838    89055.772   -21724.912     1645.571   -23370.483    51.464124     244.2721 
   17550     111.7587    -910.6092    89057.144   -21722.429    1672.3199   -23394.749    51.541133    248.24278 
   17600    106.60473   -1078.9841    88981.226   -21773.224    1595.1976   -23368.421    51.539801    236.79457 
   17650    108.38167    -1031.069    89003.542   -21769.679    1621.7871   -23391.466    51.694778    240.74158 
   17700    107.68415   -928.27645    89051.269   -21813.793    1611.3497   -23425.143    51.687429    239.19223 
   17750    106.86455   -903.98542    89082.828    -21815.43    1599.0854   -23414.515    51.940447    237.37169 
   17800    108.87705   -1066.2124    89124.819   -21806.646    1629.1998   -23435.846    51.903855    241.84194 
   17850    109.07322   -1080.4054    89180.751    -21814.12    1632.1352   -23446.256    51.948245    242.27768 
   17900    109.03407   -1004.6727    89177.207   -21783.814    1631.5495   -23415.364    52.109265    242.19072 
   17950     109.5773   -753.73931    89174.119   -21775.433    1639.6781   -23415.111    52.386908    243.39735 
   18000     110.4907   -1021.4975    89168.213   -21804.466     1653.346   -23457.812    52.815479    245.42624 
   18050     107.1458   -428.49016    89198.112   -21790.963     1603.294   -23394.257    53.058637    237.99642 
   18100    107.95486    -558.9681    89236.492   -21823.372    1615.4006   -23438.772    53.003814    239.79355 
   18150    107.55389   -848.69272    89257.815   -21827.279    1609.4006    -23436.68    53.228537     238.9029 
   18200    112.18314   -801.87758    89207.471   -21802.761    1678.6711   -23481.433    53.408285    249.18556 
   18250    107.86275   -871.48367    89199.236   -21811.747    1614.0222   -23425.769     53.62365    239.58894 
   18300    109.50083   -761.66768    89152.739   -21832.362    1638.5339   -23470.895    53.690291    243.22752 
   18350    109.08056   -623.33947    89021.179   -21848.981    1632.2451   -23481.226    54.053991    242.29399 
   18400     107.6688   -785.59284    89060.776   -21861.191      1611.12   -23472.311    54.287239    239.15813 
   18450    109.28075   -807.39379    89163.677   -21871.448    1635.2406   -23506.688    54.251205    242.73865 
   18500     107.7179    -700.4079    89167.265   -21886.185    1611.8547    -23498.04    54.266852     239.2672 
   18550     105.5816   -648.37575    89225.111   -21845.742    1579.8879   -23425.629    54.521568    234.52196 
   18600    107.75556   -724.57618    89305.817   -21838.288    1612.4183   -23450.707    54.650148    239.35085 
   18650    107.64938   -886.66176    89326.961   -21835.824    1610.8294   -23446.653    54.501412    239.11499 
   18700    107.15109    -1018.661    89340.632   -21868.824    1603.3731   -23472.198    54.639238    238.00817 
   18750     110.4099    -873.4066    89363.176   -21869.529    1652.1369   -23521.666    54.719491    245.24677 
   18800    109.57802   -890.66768    89406.038   -21851.574    1639.6889   -23491.263    54.933069    243.39896 
   18850    105.84228   -934.75425    89368.249   -21869.713    1583.7885   -23453.501    55.000028    235.10099 
   18900      105.813   -807.87296    89405.123   -21846.397    1583.3505   -23429.748    55.210755    235.03597 
   18950    105.89982   -930.75452     89490.59   -21841.126    1584.6496   -23425.776    55.690287    235.22881 
   19000    110.19513   -985.73242    89505.255   -21810.763    1648.9231   -23459.686    55.936663    244.76971 
   19050     109.0019   -897.93895    89529.128   -21836.135     1631.068   -23467.203    56.131461    242.11926 
   19100    108.22611    -672.0043    89550.065   -21811.288    1619.4594   -23430.747    56.251839    240.39605 
   19150    108.74325   -893.74201    89516.951   -21800.974    1627.1977   -23428.172    56.588734    241.54473 
   19200     107.1611   -711.16406    89505.379   -21825.691     1603.523   -23429.214    56.861512    238.03041 
   19250     108.5807   -958.87726    89496.853   -21787.596    1624.7654   -23412.361    57.120185    241.18368 
   19300    106.45364   -1027.5179    89550.381   -21810.625    1592.9367   -23403.562    57.445303    236.45896 
   19350    108.27173   -924.68253    89534.538     -21814.6    1620.1421   -23434.742    57.618658    240.49738 
   19400    104.53433   -981.21154    89446.284   -21838.576    1564.2169   -23402.793    57.882458    232.19573 
   19450     107.8716   -1227.8219    89356.915   -21848.439    1614.1546   -23462.594    58.128355    239.60859 
   19500    107.70201   -738.26169    89366.563    -21821.35     1611.617   -23432.967    58.363981    239.23191 
   19550      104.863   -918.73121    89426.878   -21839.685    1569.1349    -23408.82    58.761279    232.92577 
   19600    104.47323   -926.38795    89366.461   -21899.112    1563.3025   -23462.415    58.690839       232.06 
   19650    103.45403   -1210.9632    89253.497    -21915.32    1548.0516   -23463.371    58.715347    229.79612 
   19700    105.04624    -1012.381    89274.663   -21854.616    1571.8769   -23426.493    58.799853     233.3328 
   19750    106.99509   -921.46799    89269.708   -21856.547    1601.0388   -23457.586    59.031561    237.66166 
   19800    105.43627   -793.18367     89224.77   -21879.976    1577.7131   -23457.689    59.507369    234.19914 
   19850    109.39362   -720.84635    89301.741   -21828.423    1636.9297   -23465.353    60.038446    242.98937 
   19900    107.90037   -724.97394    89320.415   -21847.797    1614.5851   -23462.382    60.398935     239.6725 
   19950    107.53002   -816.88839    89324.381   -21848.816    1609.0433    -23457.86    60.524184    238.84986 
   20000    108.00863   -1039.2046    89247.909   -21849.428    1616.2052   -23465.633    60.792773    239.91299 
   20050    108.36498   -801.89963    89239.036   -21827.114    1621.5374   -23448.651    60.866168    240.70451 
   20100    107.08465   -828.44041    89214.537     -21829.5    1602.3789   -23431.879    61.203284    237.86058 
   20150    106.86874    -929.9462     89204.75   -21838.669    1599.1482   -23437.817    61.193698    237.38101 
   20200    110.95643   -744.37814    89223.763   -21821.497     1660.315   -23481.812    60.954498    246.46074 
   20250    109.11135    -715.8822    89268.149    -21810.54    1632.7058   -23443.246     60.95151    242.36238 
   20300    107.50745   -706.12014    89286.335   -21840.884    1608.7057    -23449.59    61.011387    238.79974 
   20350    108.21435   -745.11075    89340.988   -21829.185    1619.2835   -23448.468    61.167364    240.36993 
   20400     103.7578   -1079.9846    89319.661   -21836.452     1552.597   -23389.049    61.091599    230.47086 
   20450    106.86568   -987.53427    89279.803   -21828.188    1599.1024   -23427.291    61.277699    237.37421 
   20500    105.03566   -903.46807    89267.032   -21843.309    1571.7186   -23415.028    61.278994    233.30931 
   20550    108.63302   -913.88668    89286.385   -21817.991    1625.5482    -23443.54    61.485965    241.29989 
   20600    105.84047   -1205.4174     89221.53   -21819.372    1583.7615   -23403.134    61.672533    235.09697 
   20650    107.66829   -859.31466    89163.438   -21785.962    1611.1124   -23397.074    61.979403      239.157 
   20700    108.63255   -660.96362    89176.022   -21789.654    1625.5412   -23415.195    62.433757    241.29884 
   20750    108.31505     -739.427    89188.894   -21783.235    1620.7903   -23404.025    62.449936    240.59361 
   20800    109.45647   -475.59024    89209.292   -21759.712    1637.8701   -23397.582     62.76619    243.12898 
   20850    107.23864   -767.81072    89246.266   -21775.996    1604.6833    -23380.68    62.847686    238.20265 
   20900    107.41655   -1074.7119    89180.893    -21789.51    1607.3454   -23396.855    63.212843    238.59783 
   20950    110.28942   -798.98979    89194.804    -21757.58    1650.3341   -23407.914    63.710423    244.97916 
   21000    109.90838   -1024.4011    89182.979   -21760.137    1644.6323   -23404.769    64.082242    244.13277 
   21050    108.88214   -832.75922    89185.139   -21730.913     1629.276   -23360.189    63.953888    241.85324 
   21100    107.76772   -759.61427    89192.697   -21771.817    1612.6002   -23384.417    63.840784    239.37786 
   21150    109.65456   -774.14346     89195.83    -21794.08    1640.8343   -23434.915     63.99976    243.56898 
   21200    108.56724   -747.49538    89203.468    -21816.88     1624.564   -23441.444    64.106641    241.15378 
   21250    106.96599   -1185.4346    89126.584   -21810.706    1600.6034    -23411.31    64.082305    237.59703 
   21300    110.77532   -573.55607    89136.605   -21745.061     1657.605   -23402.666    64.419852    246.05846 
   21350    107.17222   -717.21137    89170.768   -21764.471    1603.6893    -23368.16    64.740365     238.0551 
   21400    110.39706   -954.50328    89162.562   -21767.945    1651.9448    -23419.89    64.755779    245.21825 
   21450    108.33248   -1029.4412    89173.949   -21807.205     1621.051   -23428.256    64.812817    240.63231 
   21500    108.25003   -1158.8669    89189.078   -21786.723    1619.8173   -23406.541    65.260416    240.44917 
   21550     106.3277   -966.69787    89054.582    -21815.37    1591.0522   -23406.423    65.226112    236.17922 
   21600     107.7637   -767.73169    89004.532   -21864.729    1612.5401   -23477.269    65.334008    239.36893 
   21650    103.06794   -735.63449    89007.395   -21885.708    1542.2743   -23427.982    65.544565    228.93853 
   21700    110.60296    -1036.284    89001.115   -21820.335    1655.0259   -23475.361    65.382791    245.67561 
   21750    108.39913   -842.04259    88969.469   -21764.194    1622.0484   -23386.242    65.561523    240.78036 
   21800    110.48281   -738.40275    88981.477   -21762.429    1653.2279   -23415.657    65.946987    245.40871 
   21850    107.72715   -786.06113    89020.964   -21787.581    1611.9932   -23399.574    66.080642    239.28775 
   21900    106.89358   -1004.8912     89056.18    -21808.57    1599.5198    -23408.09    66.315959    237.43617 
   21950    106.14025   -761.83615    89093.962   -21783.874    1588.2472   -23372.122    66.352821    235.76285 
   22000    110.59056   -668.40358    89123.381   -21784.824    1654.8402   -23439.665    66.465961    245.64806 
   22050    108.64002   -854.81429    89144.757   -21818.188     1625.653   -23443.841    66.369103    241.31545 
   22100    107.50677   -875.17304    89124.475   -21821.892    1608.6954   -23430.587      66.5517    238.79822 
   22150    106.26256   -991.94378    89215.198   -21805.016    1590.0775   -23395.093    66.720476    236.03454 
   22200    107.93109   -804.72987    89329.566   -21768.285    1615.0448    -23383.33     67.30385    239.74074 
   22250    108.80707   -745.76584    89374.685     -21746.3    1628.1527   -23374.453    67.989053    241.68651 
   22300     109.7346   -894.90108    89429.907   -21709.028    1642.0319   -23351.059    68.220828    243.74676 
   22350    107.34619   -778.51162    89459.066   -21724.232    1606.2926   -23330.525    68.536044    238.44154 
   22400    110.23509   -714.00848    89488.441   -21732.917    1649.5211   -23382.438    68.763317    244.85848 
   22450    107.99954   -685.32404    89433.192   -21761.092    1616.0692   -23377.161    68.920953    239.89279 
   22500    109.74893   -960.21632    89358.526   -21705.722    1642.2464   -23347.968    69.093835     243.7786 
   22550    110.67636   -836.79922    89263.429   -21724.147    1656.1241   -23380.271    69.330758    245.83863 
   22600    111.74301   -729.78832    89186.685    -21745.57    1672.0852   -23417.655    69.519836    248.20793 
   22650    111.81408    -725.8286     89181.94   -21722.163    1673.1486   -23395.312    69.645106    248.36579 
   22700     109.6508   -740.51124    89196.366   -21731.504     1640.778   -23372.282    69.895091    243.56062 
   22750    108.65987   -877.52511    89209.283   -21763.505    1625.9501   -23389.455    69.896514    241.35954 
   22800    109.06413   -853.46814        89203   -21797.287    1631.9993   -23429.286    69.865206    242.25749 
   22850     107.8833   -823.38082    89128.659   -21798.713    1614.3296   -23413.043     70.14581    239.63458 
   22900    106.33613    -1029.563    89092.343   -21773.042    1591.1784    -23364.22    70.306196    236.19796 
   22950    106.20303   -1095.5803    89073.238   -21804.867    1589.1867   -23394.053    70.490559    235.90231 
   23000    107.74217   -905.27964    89004.098   -21790.742    1612.2179    -23402.96    70.480561     239.3211 
   23050    108.51852   -703.55354    88966.264   -21758.947    1623.8349   -23382.781    70.539307    241.04556 
   23100    107.02186   -1101.2052    88988.083   -21778.316    1601.4394   -23379.756    70.715388    237.72112 
   23150     110.4184   -1090.0647    88947.915   -21787.251    1652.2642   -23439.515    70.722339    245.26566 
   23200      107.045   -937.04523     88959.16   -21822.449    1601.7857   -23424.235    71.095716    237.77253 
   23250    105.21283   -908.82187    88925.359   -21791.748    1574.3698   -23366.117    71.064866    233.70285 
   23300    109.07545   -1170.9104    88952.267   -21748.754    1632.1687   -23380.922    71.124298    242.28264 
   23350    111.11203   -931.83758    89024.247   -21737.127    1662.6434    -23399.77    71.104126    246.80637 
   23400    108.78337   -882.87237    89067.531   -21709.195    1627.7981   -23336.993    71.489262    241.63386 
   23450    110.16526   -1263.2781    88970.236   -21711.916    1648.4762   -23360.393    72.037048    244.70336 
   23500    111.23252    -853.9301    88899.775   -21719.539    1664.4463   -23383.985    72.393479      247.074 
   23550    106.22467    -849.8797     88867.96   -21710.467    1589.5105   -23299.977    72.661712    235.95036 
   23600    108.36115   -838.24711    88873.344   -21732.509    1621.4801   -23353.989    72.875229      240.696 
   23650    105.63969   -648.54291    88864.903   -21745.632    1580.7572   -23326.389    72.771025      234.651 
   23700    106.52611   -944.41044    88947.348   -21745.975    1594.0212   -23339.996    72.969846    236.61995 
   23750    104.84603     -822.673     88936.49   -21798.034     1568.881   -23366.915    72.791492    232.88808 
   23800    106.45795   -507.94152    88964.137   -21811.969    1593.0013    -23404.97    73.009522    236.46855 
   23850    110.01413   -981.79724    89067.478   -21796.237    1646.2147   -23442.452     73.18623    244.36767 
   23900    107.33195   -740.05614    89079.916   -21830.093    1606.0794   -23436.172    73.375052     238.4099 
   23950    105.31072   -654.15507    89181.582   -21774.946    1575.8346    -23350.78    73.285329    233.92028 
   24000    106.55888   -877.09356    89257.635   -21837.482    1594.5116   -23431.993    73.434438    236.69274 
   24050    107.25277   -846.55329    89258.782   -21832.221    1604.8946   -23437.115    73.854471    238.23402 
   24100    107.44012   -908.30541     89204.25   -21854.184    1607.6981   -23461.882    73.962786    238.65018 
   24150    105.76522   -1120.8102    89131.317   -21823.802    1582.6354   -23406.438    74.085671    234.92982 
   24200    104.56718   -801.76914    89171.248    -21837.03    1564.7084   -23401.738     74.38596    232.26869 
   24250    105.24667   -928.83694    89158.279   -21856.274    1574.8761    -23431.15    74.535612    233.77801 
   24300    105.62616   -820.75198    89220.855   -21821.773    1580.5546   -23402.328    74.538146    234.62093 
   24350    105.16997   -773.68643    89270.233   -21828.871    1573.7283   -23402.599    74.861019    233.60763 
   24400    105.03884   -784.16007    89282.689   -21771.032    1571.7661   -23342.798    75.316079    233.31635 
   24450    104.90271   -1022.9758    89366.568   -21812.317    1569.7291   -23382.046    75.485886    233.01398 
   24500    108.59403   -1019.6126    89379.984   -21801.335    1624.9648   -23426.299    75.828644    241.21328 
   24550    107.01682   -961.16942     89410.77   -21827.961     1601.364   -23429.325    75.833607    237.70992 
   24600    110.63825   -1056.7602    89358.452   -21793.898    1655.5539   -23449.451    75.995829    245.75399 
   24650    106.84994   -966.14896    89281.704   -21798.471    1598.8669   -23397.338    76.096167    237.33925 
   24700    109.56401   -1052.3814    89289.044   -21782.127    1639.4793   -23421.607    76.674015    243.36784 
   24750    109.58127   -1023.7975    89275.113   -21815.347    1639.7375   -23455.084    76.997068    243.40617 
   24800     106.7713   -830.98977     89274.56   -21849.263    1597.6901   -23446.953    77.171493    237.16457 
   24850    107.41363   -701.55238    89299.972   -21802.088    1607.3018   -23409.389    77.544154    238.59134 
   24900    104.36602    -823.0715    89250.736   -21831.593    1561.6984   -23393.292    77.506079    231.82188 
   24950    109.08394   -893.43478    89238.951   -21794.294    1632.2958    -23426.59    77.755933     242.3015 
   25000    109.19052    -948.0593    89265.276   -21801.691    1633.8905   -23435.581    77.586783    242.53823 
   25050    108.83644   -1391.4424    89238.424   -21822.922    1628.5921   -23451.514    77.483975    241.75173 
   25100    107.87707   -874.52923     89194.66   -21774.371    1614.2366   -23388.608    77.638565    239.62076 
   25150    107.69748   -975.88241     89201.06   -21789.421    1611.5492    -23400.97    77.667887    239.22184 
   25200    106.98295   -1128.2981    89174.776   -21804.112    1600.8572   -23404.969    77.767189     237.6347 
   25250    107.59561   -673.62269    89155.477   -21831.104    1610.0248   -23441.129    78.000765    238.99556 
   25300    106.71827   -873.90209    89166.928   -21787.162    1596.8966   -23384.058    78.235245    237.04678 
   25350    108.21354   -826.56369    89106.634   -21844.532    1619.2713   -23463.803    78.294386    240.36812 
   25400    107.44626   -663.63077    89133.622   -21849.035      1607.79   -23456.825     78.30213    238.66382 
   25450    107.79061    -788.4784      89127.4   -21854.727    1612.9427   -23467.669    78.485719    239.42869 
   25500     107.0984   -735.00649    89146.079    -21850.04    1602.5848   -23452.625    78.661457    237.89114 
   25550    105.26936   -834.59252    89132.308   -21845.661    1575.2156   -23420.877    78.902415     233.8284 
   25600     107.1356   -843.03299    89116.881   -21838.283    1603.1413   -23441.424    78.934251    237.97376 
   25650    106.41228   -594.72882    89118.128   -21828.984    1592.3178   -23421.302    79.076131    236.36709 
   25700    110.22286   -580.29809    89195.567   -21834.644    1649.3381   -23483.982    79.442162     244.8313 
   25750    109.58031   -767.41939    89157.712   -21844.094    1639.7233   -23483.818    79.608703    243.40406 
   25800    106.18179    -817.1573     89216.07   -21855.306    1588.8688   -23444.174    79.792335    235.85512 
   25850    108.62855   -792.37927    89222.959   -21809.283    1625.4814   -23434.765      79.7592    241.28996 
   25900    104.33464   -806.28128    89239.321   -21889.808    1561.2288   -23451.037    79.645233    231.75217 
   25950    106.49656   -969.22922    89212.481   -21911.077     1593.579   -23504.656     79.64258    236.55431 
   26000    105.44155   -751.77048    89227.589   -21901.175    1577.7921   -23478.967    79.703503    234.21087 
   26050    106.69979   -1078.4135    89244.309   -21894.527      1596.62   -23491.147     80.10369    237.00572 
   26100    108.40465   -776.16959     89233.72   -21864.991     1622.131   -23487.122    80.132394    240.79262 
   26150    106.71465   -932.48916    89248.851   -21846.055    1596.8424   -23442.897    80.203766    237.03873 
   26200    105.29212   -794.35133    89258.986   -21863.153    1575.5562   -23438.709    80.270546    233.87897 
   26250    105.31869   -769.58694    89284.769   -21879.505    1575.9538   -23455.459    80.191299    233.93798 
   26300    105.19263   -1360.1787    89201.831   -21927.568    1574.0675   -23501.636    80.350567    233.65798 
   26350    107.65139   -1033.3338    89165.607   -21890.267    1610.8594   -23501.126     80.28808    239.11945 
   26400    107.48281   -759.98227    89195.798   -21870.645    1608.3369   -23478.982    80.633723      238.745 
   26450    108.94396   -979.19854    89203.932   -21867.036     1630.201   -23497.237    80.590336    241.99056 
   26500    106.39635   -894.76642     89172.41   -21869.015    1592.0794   -23461.094    81.063798     236.3317 
   26550      109.402   -904.03302    89247.209   -21840.862     1637.055   -23477.917    81.344366    243.00798 
   26600    109.32393   -977.10903    89272.271   -21851.463    1635.8868    -23487.35    81.631239    242.83457 
   26650    107.17657   -860.03325    89198.576   -21834.754    1603.7544   -23438.508    81.892853    238.06477 
   26700    109.72572   -708.65636    89196.781   -21834.683     1641.899   -23476.582    81.982527    243.72703 
   26750     109.0685   -671.64749    89230.334   -21827.786    1632.0647   -23459.851    82.196624    242.26721 
   26800    105.07119   -658.24532    89273.345   -21852.061    1572.2502   -23424.311    82.330293    233.38821 
   26850    111.50577   -694.62244    89300.491   -21818.367    1668.5352   -23486.902     82.70523    247.68097 
   26900    106.00066   -719.39699     89287.74    -21821.86    1586.1586   -23408.019    82.932939     235.4528 
   26950    108.09767   -883.25658    89280.188   -21848.803    1617.5374   -23466.341    83.073896    240.11075 
   27000    106.74962    -828.5569    89301.755   -21849.288    1597.3657   -23446.654    83.264946    237.11641 
   27050      105.176   -868.99227    89315.948   -21871.821    1573.8187   -23445.639    83.198397    233.62104 
   27100    105.27069   -1181.5029    89307.272   -21882.756    1575.2355   -23457.992    83.297694    233.83136 
   27150    104.77109   -674.85911    89301.598   -21888.826    1567.7596   -23456.585    83.706061    232.72162 
   27200    107.44117   -753.38449    89254.488   -21879.895    1607.7138   -23487.609    83.686452     238.6525 
   27250    106.37608   -603.39318     89246.26   -21907.304    1591.7761    -23499.08    83.609772    236.28669 
   27300     108.0495   -844.10772    89263.417   -21884.743    1616.8167   -23501.559    84.290179    240.00375 
   27350     106.7854   -710.64424    89201.511   -21855.694    1597.9011   -23453.595    84.408819    237.19589 
   27400    107.79956   -904.85078    89079.247   -21846.435    1613.0767   -23459.512    84.262696    239.44859 
   27450    107.67486   -605.54487    89071.953   -21875.691    1611.2107   -23486.902    84.508967    239.17159 
   27500    105.15991   -834.55329    89067.339   -21884.496    1573.5778   -23458.073    84.517716    233.58528 
   27550    104.81946   -929.69935    89028.399   -21903.074    1568.4834   -23471.557    84.450649    232.82906 
   27600    104.87708   -785.59266    89006.836   -21910.852    1569.3456   -23480.197    84.737207    232.95704 
   27650    106.21313   -920.89568      88944.8   -21884.693    1589.3378   -23474.031    84.924481    235.92473 
   27700    107.88031   -532.20127    88940.884   -21896.174     1614.285   -23510.459    85.038627    239.62795 
   27750     106.3756    -561.8449    89009.699   -21887.151    1591.7689    -23478.92    85.243234    236.28562 
   27800    106.37162   -857.14501    89055.416   -21864.375    1591.7094   -23456.085    85.509746    236.27678 
   27850    107.97547   -966.67444    89051.157   -21815.127     1615.709   -23430.836    85.642375    239.83933 
   27900    107.48854   -955.42282    89024.495   -21832.286    1608.4227   -23440.709    85.914091    238.75773 
   27950    106.01289    -813.8631    89013.247   -21812.689    1586.3416   -23399.031    85.636344    235.47997 
   28000    108.34395   -843.00696    88975.558    -21815.79    1621.2227   -23437.012    85.746948    240.65779 
   28050    106.73583   -551.73692    88920.828   -21829.557    1597.1594   -23426.716    85.839739    237.08578 
   28100    109.30927   -742.87803     88987.61   -21820.133    1635.6674   -23455.801    85.966138      242.802 
   28150    108.53201   -724.61103    88991.069   -21828.645    1624.0368   -23452.682    86.297525    241.07553 
   28200    110.32182    -1053.515    88983.672   -21800.006    1650.8189   -23450.825    86.527079    245.05112 
   28250     107.8058   -688.52143    88956.205   -21859.016    1613.1701   -23472.186    86.634285    239.46245 
   28300     106.0161   -798.25991    88962.185   -21862.485    1586.3895   -23448.875     86.67375    235.48708 
   28350    107.08524   -613.39446    88989.231   -21825.496    1602.3878   -23427.883    86.536889     237.8619 
   28400    110.82678   -687.22722    89116.807    -21781.45    1658.3749   -23439.825    86.841717    246.17275 
   28450    109.68614   -370.10965    89193.009    -21777.49    1641.3067   -23418.797    86.643532    243.63912 
   28500    106.67384   -460.94121    89220.499   -21801.097    1596.2317   -23397.329    86.603221    236.94808 
   28550    106.44939   -616.96313    89277.043   -21794.033    1592.8732   -23386.906    86.700282    236.44954 
   28600     109.2685    -678.1797    89356.749   -21792.946    1635.0574   -23428.004    87.185074    242.71144 
   28650    112.46728   -671.58683    89318.643   -21742.339    1682.9229   -23425.262    87.344851    249.81671 
   28700    109.21413   -680.75516    89356.833   -21777.254    1634.2438   -23411.498    87.800964    242.59068 
   28750    107.58927   -860.51334    89440.819    -21777.96    1609.9299    -23387.89    88.317127    238.98147 
   28800    107.60657   -1142.0698    89438.753   -21778.776    1610.1888   -23388.965    88.597589     239.0199 
   28850    110.92253   -943.10822    89363.659   -21772.979    1659.8077   -23432.787    88.741333    246.38544 
   28900    107.44613   -515.50072    89403.916   -21794.409    1607.7881   -23402.197    88.686822    238.66353 
   28950    109.55405   -500.01516    89471.767    -21806.47    1639.3303   -23445.801    88.888584    243.34572 
   29000    111.09642   -922.56873     89495.37   -21763.706    1662.4097   -23426.116    88.764648    246.77169 
   29050    108.36253   -759.72699    89510.996   -21791.771    1621.5008   -23413.272     88.57688    240.69907 
   29100    108.90136   -661.88584    89495.874   -21811.537    1629.5637   -23441.101    88.479005    241.89595 
   29150    108.57541   -539.32844     89541.71   -21839.757    1624.6863   -23464.443     88.56141    241.17194 
   29200    110.75421   -813.22395    89511.029   -21827.354    1657.2891   -23484.644    88.769396    246.01157 
   29250    110.77339   -794.58507    89465.499   -21812.688     1657.576   -23470.264    89.021741    246.05416 
   29300    108.03095   -692.81158    89480.209   -21816.535     1616.539   -23433.074    89.137763    239.96254 
   29350    110.79376   -733.91423    89506.946   -21791.295    1657.8809   -23449.176    89.182634    246.09942 
   29400    108.23745   -827.13959    89522.317    -21805.19    1619.6291   -23424.819     89.19788    240.42124 
   29450    110.77793   -971.36699    89524.885   -21839.585    1657.6439   -23497.229    89.116839    246.06424 
   29500    106.07335   -613.48003    89509.028   -21859.541    1587.2463   -23446.788    89.502267    235.61426 
   29550    105.38646   -746.16622    89593.552   -21911.715    1576.9678   -23488.683    89.843177    234.08851 
   29600    106.97888    -836.3564    89573.097   -21888.071    1600.7962   -23488.868    90.138788    237.62564 
   29650    105.58131   -697.40657    89590.988   -21848.414    1579.8835   -23428.298    90.251748    234.52132 
   29700    107.42691   -923.35021    89635.207   -21833.612    1607.5004   -23441.113    90.445534    238.62083 
   29750    107.60362   -683.14656    89626.101   -21833.115    1610.1446   -23443.259    90.621918    239.01334 
   29800     108.2146   -862.22165    89723.447   -21862.537    1619.2871   -23481.824    91.140243    240.37048 
   29850    106.40548   -1022.6913    89706.583    -21884.21    1592.2161   -23476.426    90.829923    236.35199 
   29900    105.32869   -594.97734    89723.145    -21876.47    1576.1034   -23452.573    90.996915    233.96019 
   29950    106.51335   -869.82815    89706.913    -21863.94    1593.8302    -23457.77    91.289837     236.5916 
   30000    108.44573   -934.15492    89692.481   -21852.111    1622.7457   -23474.857    91.330678    240.88388 
   30050    108.32569    -931.2281    89644.188   -21870.549    1620.9494   -23491.499    91.642842    240.61723 
   30100    108.28526   -1134.5463    89573.825    -21864.43    1620.3445   -23484.774    91.851288    240.52743 
   30150    107.59468   -824.10073    89610.487   -21837.856    1610.0109   -23447.867    91.815375    238.99349 
   30200     106.3433   -951.03071      89655.9   -21811.618    1591.2856   -23402.904    92.221841    236.21387 
   30250    107.40611   -1119.3658    89643.467   -21820.963    1607.1892   -23428.152    92.570214    238.57463 
   30300    106.46449   -942.55608    89676.208     -21839.9    1593.0991   -23432.999    92.732332    236.48307 
   30350    104.33656   -629.14215    89720.006    -21876.75    1561.2575   -23438.007    92.828412    231.75644 
   30400    103.19826   -497.52386    89744.812   -21918.565    1544.2243    -23462.79    93.231692    229.22799 
   30450    107.88197   -903.20119    89677.537   -21895.275    1614.3098   -23509.585    93.269305    239.63163 
   30500    108.72899   -668.11211    89669.672   -21857.576    1626.9843    -23484.56    93.096821    241.51306 
   30550    109.87843   -665.75578    89683.204   -21846.016    1644.1841     -23490.2    93.420636    244.06624 
   30600    106.33972   -950.28869    89708.443   -21851.243    1591.2321   -23442.475    93.065763    236.20592 
   30650    109.88076   -820.25959     89693.71   -21848.001     1644.219    -23492.22    92.960345    244.07141 
   30700    106.47068   -929.98508    89695.221    -21884.46    1593.1918   -23477.652    93.194369    236.49682 
   30750    107.64556   -995.16126    89692.747   -21849.754    1610.7723   -23460.527    93.434124    239.10652 
   30800    112.41021    -972.3333    89715.976   -21794.996    1682.0689   -23477.065    93.133856    249.68994 
   30850    111.16225   -985.51234    89646.128   -21830.773    1663.3948   -23494.168    93.276112    246.91791 
   30900    109.76042   -841.32749    89628.894   -21844.516    1642.4183   -23486.934    93.118016    243.80412 
   30950    107.85891   -1084.6101    89612.067   -21881.558    1613.9648   -23495.523    92.952096    239.58041 
   31000    105.66635   -903.07115    89515.247   -21851.819     1581.156   -23432.975    93.326006    234.71021 
   31050    111.57275   -863.09467    89432.434   -21856.724    1669.5374   -23526.261    93.577582    247.82974 
   31100    107.63782   -722.68628    89467.954   -21862.536    1610.6564   -23473.192     93.79606    239.08931 
   31150    108.33916   -935.62474    89492.126   -21871.888    1621.1511   -23493.039    94.212059    240.64717 
   31200    109.32386   -692.72418    89447.969   -21836.759    1635.8858   -23472.644    94.248119    242.83442 
   31250     107.4383   -731.77689    89487.041   -21841.455    1607.6709   -23449.126    94.435123    238.64613 
   31300    109.24041     -531.211    89511.947   -21836.023     1634.637    -23470.66    94.709628    242.64904 
   31350    108.14731    -691.3087    89587.669   -21825.758    1618.2803   -23444.038    94.759149    240.22102 
   31400     110.5315   -670.75867    89641.221   -21825.153    1653.9565   -23479.109    95.342878    245.51687 
   31450    107.34568   -825.67743    89657.243   -21853.502     1606.285   -23459.787    95.318101     238.4404 
   31500    109.94709   -825.51241    89633.929   -21824.339    1645.2115   -23469.551     95.40666    244.21875 
   31550    109.14043   -1017.9493    89597.486   -21808.758    1633.1411   -23441.899    95.803741    242.42698 
   31600    111.36778   -746.77881    89553.829   -21766.623    1666.4703   -23433.094    95.877612    247.37445 
   31650    107.04502   -784.70999    89582.984   -21770.311    1601.7859   -23372.097    96.116719    237.77256 
   31700    110.68947   -1220.9098    89471.333   -21766.578    1656.3204   -23422.898     96.40274    245.86777 
   31750    108.52446   -743.04378    89408.078   -21767.029    1623.9238   -23390.953    96.222733    241.05875 
   31800    109.41535   -498.95668    89418.423    -21777.36    1637.2548   -23414.615    96.526508    243.03763 
   31850     106.0667   -661.62364    89445.716   -21790.196    1587.1467   -23377.343     96.53628    235.59948 
   31900    107.95879   -1090.9715    89388.817    -21800.57    1615.4594   -23416.029    96.599346    239.80227 
   31950     108.6556   -1190.7254    89347.966   -21791.742    1625.8861   -23417.628    96.949405    241.35004 
   32000    105.15205   -405.63089    89272.216   -21832.082    1573.4603   -23405.542    97.018578    233.56784 
   32050    105.82655   -950.20068    89237.666   -21790.711    1583.5531   -23374.264      97.0639    235.06605 
   32100    108.12547   -502.07406    89202.073   -21843.861    1617.9535   -23461.815    97.308446    240.17251 
   32150    108.53749   -804.73421    89153.603   -21860.513    1624.1187   -23484.632    97.160183    241.08769 
   32200    109.22703    -790.4644    89097.428   -21821.042    1634.4368   -23455.479    97.195112    242.61933 
   32250    109.26545   -794.77965    89114.844   -21832.409    1635.0117   -23467.421     97.46501    242.70467 
   32300    108.27975    -792.7564    89140.147   -21811.005    1620.2621   -23431.267    97.537941     240.5152 
   32350    105.56102   -1099.2156    89122.123   -21848.923    1579.5798   -23428.503    97.677652    234.47624 
   32400    105.36078   -698.37544     89151.87   -21868.257    1576.5835   -23444.841    98.120161    234.03146 
   32450    106.46126   -617.29961    89177.183   -21886.112    1593.0507   -23479.163    98.159826    236.47589 
   32500    105.34617   -870.55799    89165.516   -21887.576    1576.3649   -23463.941    98.185231    233.99901 
   32550    106.41294   -649.38459    89151.287   -21885.141    1592.3277   -23477.469    98.098814    236.36856 
   32600    107.12364   -620.92614    89186.927   -21829.283    1602.9624   -23432.245    98.144972     237.9472 
   32650    107.42095   -855.47901     89224.07   -21871.753    1607.4112   -23479.164    98.389341    238.60759 
   32700     109.3637   -1050.4458    89237.686   -21839.648     1636.482    -23476.13    98.051071    242.92291 
   32750    106.60804    -989.3165    89186.537   -21859.902    1595.2471   -23455.149    97.827585    236.80192 
   32800    110.28281   -793.42379    89182.409   -21882.261    1650.2351   -23532.496    97.822576    244.96446 
   32850    108.90809   -769.82039    89179.024   -21889.521    1629.6643   -23519.186     98.09474    241.91088 
   32900    106.48564   -603.22745    89285.305   -21898.536    1593.4157   -23491.951    98.402386    236.53006 
   32950    110.50683    -952.9534    89264.641   -21837.946    1653.5874   -23491.534    98.301859    245.46208 
   33000    107.54328   -642.58082    89281.513   -21841.259    1609.2418     -23450.5    98.541355    238.87933 
   33050    109.28399   -546.50764    89341.691   -21901.938    1635.2892   -23537.227    99.043772    242.74585 
   33100    104.10128   -794.82398    89344.803   -21942.766    1557.7369   -23500.503    99.290733    231.23382 
   33150    106.07586   -955.89446     89353.99   -21911.594    1587.2838   -23498.878    99.591439    235.61984 
   33200    107.84193   -1078.0804    89319.985   -21935.688    1613.7107   -23549.398    99.968374     239.5427 
   33250    107.88723   -1062.8119    89282.575   -21890.763    1614.3886   -23505.152    99.595975    239.64333 
   33300    108.20405   -1004.7558    89174.394   -21868.012    1619.1293   -23487.141    99.638059    240.34705 
   33350    108.28167   -1026.9507    89074.208   -21818.353    1620.2908   -23438.644    99.958863    240.51947 
   33400    108.21756   -860.47434     89003.15   -21802.294    1619.3315   -23421.625    100.01331    240.37706 
   33450    106.28892   -766.76019     88935.91   -21843.969    1590.4719   -23434.441    100.29902    236.09308 
   33500    110.69131   -953.37113    88893.968   -21850.496    1656.3479   -23506.844    100.82334    245.87185 
   33550    109.65824   -962.92497    88871.686   -21849.933    1640.8893   -23490.822    101.40205    243.57715 
   33600    109.96235   -725.47275    88875.999   -21789.372    1645.4399   -23434.812    101.55983    244.25266 
   33650    110.75677   -847.20265    88897.255   -21733.661    1657.3274   -23390.988    101.58438    246.01725 
   33700    109.00806   -944.75628    88881.391   -21746.888    1631.1603   -23378.048     101.7686    242.13295 
   33750     111.9824   -734.76153    88903.896   -21767.878    1675.6673   -23443.545    101.86213    248.73967 
   33800    110.32448   -664.81269    88930.229   -21695.539    1650.8587   -23346.398    101.69342    245.05702 
   33850    108.62518   -1064.2928    88890.395   -21724.671     1625.431   -23350.102    101.79913    241.28248 
   33900    110.43147   -971.23447    88859.268   -21747.146    1652.4598   -23399.606    102.16341    245.29469 
   33950    107.99311   -1015.5364    88851.058   -21807.344    1615.9729   -23423.317    102.16331    239.87851 
[...]
   92000    107.74794   -927.90952    89546.709   -21850.985    1612.3042   -23463.289    283.48047    239.33392 
   92050     107.0515   -731.80576     89515.16   -21857.254     1601.883   -23459.137    283.77298    237.78696 
   92100    106.76674   -838.08654    89492.976   -21845.844    1597.6219   -23443.466    283.57934    237.15445 
   92150     109.6177   -940.76741    89460.791   -21849.297    1640.2828    -23489.58    283.16645    243.48711 
   92200    105.22627    -1055.359    89387.843   -21850.236    1574.5709   -23424.807    282.99564     233.7327 
   92250    105.99939   -1168.8599     89351.08   -21841.189    1586.1395   -23427.329    283.55825    235.44997 
   92300    107.70446   -874.10407    89258.795   -21834.036    1611.6536    -23445.69    283.41752    239.23734 
   92350    109.55326   -495.00634     89195.65   -21805.174    1639.3184   -23444.493    283.41025    243.34396 
   92400     107.3109   -727.39064    89206.937   -21823.416    1605.7645   -23429.181    283.80118    238.36315 
   92450    108.44671   -620.95122    89150.607   -21805.135    1622.7603   -23427.895    283.49152    240.88605 
   92500    106.75199   -628.78097    89145.344   -21830.698    1597.4012   -23428.099    283.61216    237.12167 
   92550    108.17507   -1048.1299     89147.37   -21827.555    1618.6956   -23446.251    283.46947    240.28267 
   92600    108.37223    -931.1844    89087.506   -21794.468    1621.6459   -23416.114    283.06497    240.72062 
   92650    109.95559   -806.13257    89058.876   -21794.939    1645.3388   -23440.277    283.14472    244.23765 
   92700      110.555   -562.89121    89125.211   -21794.084    1654.3081   -23448.393    283.25604    245.56907 
   92750    108.34348   -587.05506    89169.373     -21793.9    1621.2157   -23415.116    283.15451    240.65675 
   92800    112.40058   -1012.1374    89177.962   -21777.103    1681.9247   -23459.028    283.12005    249.66853 
   92850    108.77346   -603.71647    89187.757   -21793.943    1627.6497   -23421.593    283.32133    241.61184 
   92900    107.60826   -830.49932    89262.037   -21801.437    1610.2141   -23411.651     283.5444    239.02366 
   92950    109.55529   -655.18414    89306.793   -21791.452    1639.3489     -23430.8    284.27696    243.34848 
   93000    107.82663   -935.49079    89308.981   -21833.446    1613.4817   -23446.928    284.10395    239.50871 
   93050    107.99337   -795.05232    89352.069   -21855.042    1615.9768   -23471.019    283.85034    239.87908 
   93100    107.48883   -1061.7848    89372.024   -21844.867     1608.427   -23453.294    284.67841    238.75838 
   93150    105.92051   -1019.9094    89301.354   -21807.157    1584.9592   -23392.116    284.61154    235.27477 
   93200    106.78076   -927.02608    89222.379   -21824.809    1597.8317    -23422.64    284.55014    237.18558 
   93250    105.13402   -883.98359    89171.146   -21872.532    1573.1905   -23445.722    285.03808    233.52779 
   93300    106.49831   -986.70493    89216.709   -21827.418    1593.6052   -23421.023    285.24495     236.5582 
   93350    108.34542   -644.49123    89274.272    -21837.49    1621.2448   -23458.735    285.32725    240.66107 
   93400    107.63792   -1078.2872    89297.601   -21836.156     1610.658   -23446.814    285.16131    239.08955 
   93450    104.95983   -1047.3102    89313.642   -21856.532    1570.5838   -23427.115    285.36877    233.14085 
   93500    103.97259    -1090.063    89230.071   -21876.382    1555.8112   -23432.193    285.33294    230.94797 
   93550    104.61239   -662.56752    89204.203   -21845.082     1565.385   -23410.467    285.32443    232.36912 
   93600    108.09139   -853.79873    89159.876   -21859.108    1617.4434   -23476.552    285.14232     240.0968 
   93650    108.52993   -765.21071    89138.004   -21833.317    1624.0057   -23457.323    285.06995    241.07091 
   93700    109.12311   -943.12274    89102.292   -21806.874    1632.8818   -23439.756     285.0672    242.38849 
   93750    108.29335   -948.65679    89175.127   -21800.432    1620.4656   -23420.897     284.9391    240.54542 
   93800    108.29604   -879.65206    89210.088   -21804.052    1620.5059   -23424.557    285.40001    240.55139 
   93850    107.93044    -556.8024    89232.152   -21825.825    1615.0351   -23440.861    285.92983     239.7393 
   93900    105.78562   -725.87818    89240.991   -21848.312    1582.9407   -23431.252    286.09506    234.97513 
   93950    105.85136   -596.52784    89339.144   -21850.061    1583.9244   -23433.986    285.68879    235.12116 
   94000    109.32413    -859.5315    89357.608   -21875.209    1635.8899   -23511.099    286.35975    242.83502 
   94050    107.35871   -1091.1701    89394.133   -21856.149    1606.4799   -23462.629     286.3926    238.46935 
   94100    108.67533   -935.23537    89399.217   -21843.465    1626.1814   -23469.646    286.33183    241.39387 
   94150    106.72396    -1087.519    89406.321   -21865.779    1596.9817   -23462.761    286.00534    237.05941 
   94200    106.82846   -945.84425    89352.619   -21851.923    1598.5454   -23450.469    285.80289    237.29153 
   94250    107.53593   -663.15119    89255.722   -21859.405    1609.1318   -23468.537    286.47006    238.86299 
   94300    106.22304   -660.17551    89185.288   -21847.594    1589.4861    -23437.08    287.05353    235.94675 
   94350     110.4876   -587.60491    89144.234   -21806.295    1653.2995   -23459.595    287.15907    245.41935 
   94400    109.52337   -544.99982    89153.443   -21810.344    1638.8712   -23449.215    287.06981    243.27758 
   94450    107.79211   -760.87949    89153.218   -21776.303    1612.9651   -23389.268    287.44428    239.43202 
   94500    102.94803   -1008.7121    89129.436   -21806.612      1540.48   -23347.092    287.79323    228.67217 
   94550      106.099   -855.24271    89053.024    -21776.78      1587.63    -23364.41    287.94037    235.67123 
   94600    111.03693   -507.87192    89089.684   -21793.838    1661.5196   -23455.358    288.20393    246.63956 
   94650    109.89364   -601.11287    89173.921   -21813.978    1644.4117    -23458.39    288.43338    244.10003 
   94700     109.2808   -622.38464    89218.134   -21829.686    1635.2414   -23464.927    288.32532    242.73876 
   94750    109.93444   -785.89527    89295.187   -21793.012    1645.0223   -23438.035    288.32765    244.19065 
   94800    110.70992   -654.60513    89336.585   -21782.066    1656.6263   -23438.692    288.78719    245.91318 
   94850     107.2327   -822.20093    89326.012   -21803.524    1604.5944   -23408.118    288.41355    238.18946 
   94900     108.3738   -567.09181    89361.333   -21768.173    1621.6694   -23389.843    288.36679    240.72411 
   94950    108.40105   -857.40417    89460.869   -21779.601    1622.0772   -23401.678    288.36766    240.78464 
   95000    108.41762   -885.64691    89478.388    -21792.49    1622.3251   -23414.815    288.45748    240.82144 
   95050    107.26371   -1077.0902    89385.433   -21769.929    1605.0583   -23374.987     288.2919    238.25832 
   95100    111.40698   -704.20298    89338.824    -21745.82    1667.0569   -23412.877    288.46532    247.46152 
   95150    108.07868   -972.41037    89302.555   -21798.085    1617.2533   -23415.339    288.78167    240.06858 
   95200    106.14381   -1004.5769    89230.564   -21800.755    1588.3006   -23389.056    288.75974    235.77076 
   95250    110.61497    -636.9803     89259.16   -21790.898    1655.2055   -23446.104    289.10851    245.70228 
   95300    108.86469   -782.85325    89331.503   -21769.215    1629.0149    -23398.23    289.19865    241.81449 
   95350    112.08576   -842.90493    89305.634   -21785.723    1677.2139   -23462.937    289.26406    248.96925 
   95400    107.74825   -725.53959    89291.236   -21764.887    1612.3088   -23377.196    289.66821     239.3346 
   95450    107.47008   -726.14377    89338.243    -21750.69    1608.1464   -23358.836    289.74206    238.71672 
   95500    110.90484    -669.7083    89429.914   -21749.741    1659.5431   -23409.284    290.00801    246.34615 
   95550    112.25805    -971.1936    89480.125   -21703.391     1679.792   -23383.183    289.76119    249.35195 
   95600    110.34166   -893.28059    89431.806   -21723.188    1651.1158   -23374.304    289.64791    245.09519 
   95650    111.30056   -643.21033    89404.515   -21754.866    1665.4644    -23420.33    290.41607    247.22514 
   95700    110.28869   -643.44942    89391.471   -21744.646    1650.3231   -23394.969    289.77516    244.97753 
   95750     110.1284    -774.1124    89384.814   -21768.835    1647.9246    -23416.76    289.37015    244.62149 
   95800    109.34096   -725.57727    89385.913   -21774.905    1636.1416   -23411.046    288.96664    242.87239 
   95850    105.99625   -1168.6452    89288.838   -21790.124    1586.0925   -23376.217    289.40704    235.44299 
   95900     110.2133   -899.04581    89185.863   -21786.234     1649.195   -23435.429    290.36073    244.81007 
   95950     107.4859   -802.78791    89259.523   -21803.651    1608.3831   -23412.034    290.90939    238.75186 
   96000    105.91896   -1081.0227    89230.268    -21810.31     1584.936   -23395.246    290.82674    235.27133 
   96050    109.00187   -743.45978    89216.711    -21763.59    1631.0676   -23394.658    290.66725     242.1192 
   96100    107.51363   -867.73663    89290.204   -21808.858    1608.7981   -23417.656    291.13907    238.81346 
   96150    107.86908   -804.37296    89324.353   -21793.411    1614.1169   -23407.528    291.58821      239.603 
   96200    108.26281   -993.47984    89333.059   -21797.519    1620.0086   -23417.528    292.00095    240.47757 
   96250    105.84077   -963.66644     89329.32   -21789.873     1583.766   -23373.639    291.04826    235.09764 
   96300    106.25956   -988.55052    89371.509   -21827.555    1590.0326   -23417.588    291.10741    236.02787 
   96350    108.06476   -824.42923    89354.748    -21813.09     1617.045   -23430.134     291.1775    240.03764 
   96400    108.40493   -789.95577    89343.351   -21783.893    1622.1352   -23406.028    291.26248    240.79325 
   96450    108.61682   -645.18231    89356.748   -21775.606    1625.3058   -23400.912    291.97377    241.26391 
   96500    111.21236   -996.12289    89306.879    -21752.94    1664.1447   -23417.084    291.76757    247.02923 
   96550    109.53053   -784.92301    89281.538   -21762.357    1638.9784   -23401.335    291.84592    243.29349 
   96600    109.60182   -808.37131    89302.147   -21772.334    1640.0451   -23412.379    291.60974    243.45183 
   96650    109.00493   -1086.0217    89257.082    -21791.35    1631.1134   -23422.464    291.71944    242.12599 
   96700    105.96019   -855.44771     89230.44   -21829.111    1585.5529   -23414.663    291.75769    235.36289 
   96750    108.83761   -757.71123    89200.798   -21794.617    1628.6096   -23423.227    291.60636    241.75433 
   96800    105.66553   -590.48427    89215.782   -21806.059    1581.1438   -23387.203    292.09379    234.70839 
   96850    109.80155   -835.33862    89194.825   -21795.728    1643.0338   -23438.762    292.56575    243.89548 
   96900    106.62009   -1115.8827    89168.235   -21779.976    1595.4275   -23375.404    292.99897     236.8287 
   96950    110.12069   -664.90299    89192.199   -21759.925    1647.8093   -23407.735    292.89828    244.60436 
   97000    109.48968    -793.7172    89211.338   -21761.686    1638.3671   -23400.054    293.83368    243.20275 
   97050    108.83891   -468.82374    89236.238   -21777.377    1628.6292   -23406.006    293.61547    241.75723 
   97100    109.71258   -738.05737    89248.499   -21766.158    1641.7025    -23407.86    293.48553    243.69786 
   97150    109.26037   -804.80514    89239.072   -21732.922    1634.9358   -23367.858    293.32565     242.6934 
   97200    110.02321   -949.63285    89304.509   -21727.344    1646.3506   -23373.695    293.38489    244.38783 
   97250    106.36253   -676.08969     89324.06     -21772.2    1591.5735   -23363.773    293.21426     236.2566 
   97300    109.95419   -499.74528    89422.618   -21745.905    1645.3178   -23391.222    293.75258    244.23453 
   97350    107.90809   -938.66319    89374.318   -21713.038    1614.7006   -23327.739    294.03783    239.68964 
   97400    108.84587   -864.43346    89362.835   -21795.415    1628.7333   -23424.148    294.07756    241.77269 
   97450    107.28561   -682.46165    89356.316    -21786.51    1605.3862   -23391.896    293.40752    238.30698 
   97500    109.46551   -658.24142    89377.458   -21789.958    1638.0054   -23427.964    294.21118    243.14905 
   97550    108.32409   -534.76631    89435.933   -21785.439    1620.9256   -23406.365    294.50773    240.61369 
   97600    111.00769   -750.53392    89447.061   -21767.689     1661.082   -23428.771    294.37424     246.5746 
   97650    111.08084   -850.26956    89428.517   -21798.622    1662.1767   -23460.799    294.72675     246.7371 
   97700    106.39325     -827.881    89364.213   -21791.062    1592.0331   -23383.095    294.39243    236.32483 
   97750     111.0279   -550.16086    89343.262   -21800.667    1661.3844   -23462.052    294.27852    246.61948 
   97800    107.18729   -821.25132    89381.678   -21801.559    1603.9148   -23405.474    294.65677    238.08858 
   97850    108.98904   -689.12646    89368.926    -21837.21    1630.8757   -23468.086    294.57414    242.09071 
   97900    110.50448   -850.55728    89363.612   -21849.706    1653.5523   -23503.258    295.09986    245.45686 
   97950    109.55281   -869.02824    89365.187   -21849.623    1639.3117   -23488.935    294.81853    243.34297 
   98000    108.92263   -892.89369    89392.498   -21872.405    1629.8819   -23502.287    294.79744    241.94319 
   98050    104.45676   -935.60359    89329.843   -21907.326    1563.0561   -23470.382    294.85025    232.02342 
   98100    107.31594   -974.45227    89331.472   -21858.128    1605.8399   -23463.968    295.10583    238.37435 
   98150    105.72901   -1310.3161    89319.312   -21872.269    1582.0936   -23454.363    295.23619    234.84938 
   98200    108.47173    -893.1484    89236.729    -21844.92    1623.1347   -23468.054    295.55415    240.94162 
   98250    108.15065   -640.53201    89184.126   -21861.141    1618.3302   -23479.471    295.46218    240.22843 
   98300     109.4565   -689.64831    89239.536   -21880.304    1637.8705   -23518.174    295.36919    243.12903 
   98350    107.09999   -748.57193    89266.425   -21875.715    1602.6086   -23478.324    295.34623    237.89467 
   98400    110.00183   -759.82431    89341.946   -21874.204    1646.0307   -23520.235    295.15332    244.34035 
   98450    107.59022   -996.35191    89316.636   -21919.722    1609.9442   -23529.667    295.52117    238.98359 
   98500    106.65681   -908.09606    89284.528   -21928.427     1595.977   -23524.404    296.39234    236.91027 
   98550    106.86423   -737.21771    89294.713   -21908.491    1599.0807   -23507.572    296.13404    237.37099 
   98600    107.40855   -783.55869    89303.479   -21878.521    1607.2258   -23485.747    295.81212    238.58006 
   98650    107.60374   -950.21182    89319.188   -21873.749    1610.1465   -23483.895    295.94146    239.01362 
   98700     110.5053   -831.84739    89320.376   -21858.174    1653.5644   -23511.739    295.87481    245.45867 
   98750    108.48371   -885.85047      89244.2   -21828.882    1623.3141   -23452.196    296.13906    240.96825 
   98800    109.81229    -870.9439    89238.686   -21827.193    1643.1944   -23470.387    295.83509    243.91932 
   98850    108.57339   -635.65304    89227.097   -21807.549     1624.656   -23432.206    295.44674    241.16745 
   98900    109.07464   -1045.5734    89219.663   -21832.007    1632.1565   -23464.163    295.28891    242.28084 
   98950    106.84579   -620.99792    89277.263    -21846.79    1598.8048   -23445.595    295.41652    237.33004 
   99000    107.55433   -1112.4073    89290.845   -21813.351    1609.4071   -23422.758    295.44448    238.90387 
   99050    107.05394   -1018.4149    89285.633   -21820.653    1601.9195   -23422.573    295.50355    237.79239 
   99100     107.3545   -1149.0221     89226.58   -21794.636    1606.4169   -23401.053    295.96645    238.45999 
   99150    106.48067    -1098.316     89230.21   -21795.814    1593.3413   -23389.155    296.05714    236.51902 
   99200    108.03692   -949.18328    89234.364   -21778.161    1616.6285   -23394.789    296.46881    239.97582 
   99250    108.85147   -1023.7903    89211.451   -21734.656    1628.8171   -23363.473    296.56519    241.78512 
   99300     113.1093   -1012.2935    89163.792   -21708.228    1692.5299   -23400.758    296.63511    251.24278 
   99350    109.00748    -980.7635    89142.094   -21768.909    1631.1515   -23400.061    297.04527    242.13165 
   99400    109.35066   -773.18941    89154.234   -21767.798    1636.2868   -23404.085    297.18319    242.89394 
   99450    110.18324   -1116.8583    89152.324   -21786.369    1648.7453   -23435.115    297.51184    244.74331 
   99500    105.84498   -717.79055    89127.089   -21795.333     1583.829   -23379.162    297.83474    235.10699 
   99550    109.52036   -853.43837    89120.989   -21818.813    1638.8261   -23457.639    297.56339    243.27089 
   99600    109.99535   -747.21546    89146.027   -21781.826    1645.9337   -23427.759    297.66558    244.32595 
   99650    109.68864   -946.91086    89111.512   -21784.593    1641.3443   -23425.937    297.96357    243.64469 
   99700    103.89928   -939.90626    89026.768    -21819.28    1554.7142   -23373.994    298.07246    230.78513 
   99750    107.10208   -542.73447      89039.1   -21801.377    1602.6398   -23404.017    298.40886     237.8993 
   99800    109.36775    -1116.716    89053.052   -21760.092    1636.5425   -23396.634    298.54975    242.93191 
   99850    107.33696   -848.69903    88978.855   -21760.005    1606.1544    -23366.16    298.02005    238.42102 
   99900    109.34598   -543.20692    88965.601   -21723.643    1636.2167    -23359.86    298.56806    242.88354 
   99950     107.6875   -978.47817    89029.296   -21768.128    1611.3999   -23379.528    299.33426    239.19967 
  100000      108.057   -455.25079    89103.509   -21746.214     1616.929   -23363.143    299.76291    240.02043 
Loop time of 44.0255 on 80 procs for 100000 steps with 5021 atoms

Performance: 981.250 ns/day, 0.024 hours/ns, 2271.412 timesteps/s
100.0% CPU use with 80 MPI tasks x no OpenMP threads

MPI task timing breakdown:
Section |  min time  |  avg time  |  max time  |%varavg| %total
---------------------------------------------------------------
Pair    | 6.184      | 18.244     | 25.747     | 175.5 | 41.44
Neigh   | 0.46783    | 1.2118     | 3.3809     |  94.4 |  2.75
Comm    | 10.663     | 17.492     | 29.371     | 171.5 | 39.73
Output  | 0.12716    | 0.13044    | 0.26831    |   4.3 |  0.30
Modify  | 4.3209     | 6.0779     | 7.5915     |  38.0 | 13.81
Other   |            | 0.8698     |            |       |  1.98

Nlocal:    62.7625 ave 144 max 31 min
Histogram: 58 2 0 0 0 0 0 0 5 15
Nghost:    675.175 ave 838 max 394 min
Histogram: 20 0 0 0 0 0 0 40 0 20
Neighs:    0 ave 0 max 0 min
Histogram: 80 0 0 0 0 0 0 0 0 0
FullNghs:  5959.9 ave 18826 max 1186 min
Histogram: 60 0 0 0 0 0 0 0 0 20

Total # of neighbors = 476792
Ave neighs/atom = 94.9596
Neighbor list builds = 5753
Dangerous builds = 0

write_data		${DIR}/data.eq-${NAME}-${TEMP}
write_data		run_10/data.eq-${NAME}-${TEMP}
write_data		run_10/data.eq-het_freeze_10-${TEMP}
write_data		run_10/data.eq-het_freeze_10-240
undump          1

reset_timestep  0

unfix           2
unfix           3
unfix           4


################################################
#######         Run Simulation         #########
################################################

log				${DIR}/log.run_${NAME}
log				run_10/log.run_${NAME}
log				run_10/log.run_het_freeze_10
