LAMMPS data file via write_data, version 16 Mar 2018, timestep = 8000000

6368 atoms
2 atom types

0.0000000000000000e+00 4.9219999999999999e+01 xlo xhi
0.0000000000000000e+00 4.9019635930410494e+01 ylo yhi
1.4095918758981014e+00 5.8652408124102820e+01 zlo zhi

Masses

1 18.015
2 12.01

Atoms # atomic

386 1 8.7585530456428284e-01 2.3498642181896687e+00 4.7518156919198002e+00 3 0 0
3087 1 8.5976985500176131e+00 1.1278429188420278e+00 1.7002170874829741e+00 1 1 1
3181 1 6.0929669719014736e+00 1.5137355016968610e+00 5.4094516807174706e+00 -2 0 1
1990 1 5.3676305559516324e+00 3.9300061805942743e+00 4.5527647557181883e+00 1 0 0
2920 1 1.1446336810556836e+01 4.3388387621534130e-01 1.2146227900513693e+01 0 2 1
2087 1 8.6087619167392919e+00 8.6614465118672068e-01 4.4096280004090982e+00 -1 0 0
3161 1 1.0090483150183312e+01 2.8130554605317446e+00 5.6069506145102705e+00 1 2 1
87 1 2.7044441431373467e-01 4.7483188298247248e+00 9.3696530449538571e+00 0 1 1
210 1 6.0306236128827484e+00 8.1778332087635910e+00 1.4741770801146350e+00 1 0 0
426 1 2.7733931270074930e+00 4.0912026776472645e+00 5.8103951978263035e+00 2 0 0
1249 1 1.6242941257683605e+00 6.2501698877271261e+00 4.5297102352538570e+00 -1 0 1
2082 1 7.0081503624185641e+00 5.8640389366881447e+00 5.5498250987473625e+00 -1 2 0
2058 1 9.7414440791039620e+00 1.6048495159113411e+01 1.2062441215832305e+01 -1 1 1
6007 1 9.3707870870418120e+00 5.2928501813612234e+00 4.6303968717405830e+00 1 2 1
4878 1 1.1126904367481151e+01 7.1658492770714695e+00 5.5395851126642031e+00 0 0 0
4839 1 9.4550404677553690e+00 5.3599866349621932e+00 1.6562093373803022e+00 3 -1 0
1825 1 3.1350047265590799e+00 8.2555809711438961e+00 5.5772201711720832e+00 -1 0 0
1583 1 2.5025885537586019e+00 1.0746055835693015e+01 4.5185009111400705e+00 3 2 1
3165 1 5.7205331643239354e+00 1.4628006997137270e+01 1.2136373781001518e+01 1 0 1
1464 1 1.8803595494471002e+00 6.3008859031516042e+00 1.7776822649937198e+00 1 1 1
1409 1 5.8905016971179345e+00 7.9647801497101822e+00 4.4211253903044136e+00 0 2 1
2982 1 7.3525709272064628e+00 1.0099693524154270e+01 5.4520216494073708e+00 2 0 1
2880 1 1.1539646803082379e+01 1.1216727046196622e+01 5.2186445184218551e+00 0 -1 0
1848 1 9.9212414350001801e+00 9.4275925553907705e+00 4.4108973549168589e+00 2 1 0
1524 1 1.1254213146004506e+01 1.3759378614339212e+01 1.5969643995877685e+00 -1 -1 1
3607 1 3.3967480885296459e+00 1.5489690458142364e+01 1.6511989178918556e+00 3 -1 1
1263 1 6.2979194133348770e-01 1.5597987052259533e+01 5.3774880083657877e+00 1 2 0
6072 1 3.1443585825061016e+00 1.5340521279401772e+01 4.3439500798563682e+00 0 -1 1
5070 1 4.0079460330605645e+00 1.2962044199452574e+01 5.3520960609696431e+00 2 1 0
4708 1 6.6013475425321415e+00 1.2346248411282305e+01 4.4684339181049220e+00 0 1 1
3525 1 8.2060281286392325e+00 1.4365117489775024e+01 5.5607151001753481e+00 2 0 0
354 1 8.8556579357555065e-01 2.3877132852923655e+00 1.9437849966549399e+00 1 1 0
2950 1 1.0824366871686459e+01 1.3958408349216397e+01 4.3896029468264892e+00 1 -1 1
2051 1 2.1413534891774830e+00 1.0853296170697815e+01 1.6718146571563490e+00 0 1 1
1746 1 3.7831508288661047e+00 1.5366419130469520e+00 1.2222387245826301e+01 1 0 1
2987 1 3.6188269749314226e+00 1.5583915573074389e+00 9.5091643024010484e+00 1 3 1
6003 1 5.1591011171104819e+00 3.8804113053102149e+00 1.7007391849944462e+00 1 0 1
1333 1 6.1955120900375613e+00 1.3594912112896562e+00 8.2658772917139327e+00 0 2 1
1284 1 7.7738775073848689e+00 3.3083834424229130e+00 9.2621660319278014e+00 1 1 1
497 1 7.6880230579233206e+00 3.2003267184974491e+00 1.2173823899016510e+01 -1 2 1
5284 1 6.6429442760042248e+00 1.2573821200592107e+01 1.4626879762682523e+00 -1 -1 0
381 1 1.2019920723393243e+01 4.9888025568173227e+00 9.3926075641881628e+00 0 1 0
3532 1 1.0274098506046670e+01 3.0797677503735912e+00 8.2742259147373503e+00 0 0 0
2832 1 8.1470344008883995e+00 1.4504663393532946e+01 8.3594364734692022e+00 0 0 1
2859 1 2.8895631619248916e+00 4.0429467481391557e+00 8.6103202763850000e+00 0 -2 1
1999 1 4.4246130556381722e+00 6.1318220369039533e+00 9.5836049446982017e+00 -1 0 0
3073 1 5.4517380235650927e+00 1.4682172139274906e+01 9.3171863738115643e+00 -1 -1 1
4921 1 4.2785653277538334e+00 5.9259090126142056e+00 1.2174060440334864e+01 0 0 0
4735 1 6.8871486037804157e+00 5.7096475655329808e+00 8.3171955419092054e+00 0 2 0
5357 1 1.1280495444129444e+01 7.5693194059871438e-01 9.2896645682853389e+00 -2 0 1
2912 1 1.1678995444051614e+01 5.0653898267587101e+00 1.2086145784326275e+01 0 0 1
2899 1 8.3640210030592836e+00 7.5928193647934510e+00 1.2126741893978677e+01 0 1 1
549 1 8.5187958199812446e+00 7.8306729073753862e+00 9.0739774023276638e+00 1 0 0
47 1 1.0964941756411134e+01 7.2892861400347675e+00 8.3730448311590386e+00 -2 -2 0
495 1 3.3315185146696664e+00 8.2622236759467373e+00 8.2938336888586903e+00 0 -1 1
3337 1 7.0483568725281343e-01 8.8547634216979496e+00 1.1928155002042137e+01 1 0 1
1458 1 8.3489671110068897e-01 8.6402318678754000e+00 9.0704140197513041e+00 -1 -1 1
1466 1 4.9136133766298880e+00 1.0192417313180213e+01 1.2201374227165582e+01 -1 -1 1
4942 1 7.1576391314675893e+00 1.0265619291811021e+01 8.2212335787973529e+00 1 0 0
3110 1 4.6899843338636149e+00 1.0674475086522257e+01 9.3595691333500248e+00 0 1 1
3017 1 1.1336703049064411e+01 1.1596259794242295e+01 8.1384857810473186e+00 -2 1 1
3336 1 8.9019744660051039e+00 1.1842248000276014e+01 1.1864160418523158e+01 3 -1 0
1964 1 9.0279068502251238e+00 1.2021955686198194e+01 9.3085246100732242e+00 0 -1 0
5343 1 3.7913285479368821e+00 1.3079766685049565e+01 8.2206629065570489e+00 0 0 1
4938 1 5.1548835873776122e-01 1.5719315507184216e+01 8.3746480613078411e+00 -2 0 1
5099 1 1.2315979193791988e+00 1.3108444556161940e+01 9.4061817507259811e+00 0 1 0
1614 1 1.4134093208583915e+00 1.3027220843110161e+01 1.2198918410489275e+01 4 0 1
3404 1 1.2301499209226225e+01 9.3351672896998004e+00 9.0126372753262203e+00 -1 -1 0
2037 1 9.8811158136007062e+00 9.5502319919508487e+00 1.2806040320183943e+01 0 0 0
5143 1 1.0021312051338709e+01 9.6913040716270746e+00 1.7378886402394826e+00 1 3 0
3169 1 8.3336458593935314e-01 2.4690299581490476e+00 1.5850277069738926e+01 3 1 0
543 1 3.3168929825351987e+00 1.9307276403534170e+00 1.7155066154736446e+01 0 -3 1
1387 1 6.5485549168568342e+00 1.2189424219953352e+01 1.3171660582121728e+01 1 2 1
3677 1 1.1509768023861660e+01 4.8629625551326106e-01 1.6750073729862763e+01 3 0 0
203 1 4.9229159975611303e+00 3.8747598341620928e+00 1.5977992836105562e+01 1 2 0
4896 1 7.5179873084132929e+00 3.4834150483576014e+00 1.7009337388594084e+01 4 1 0
5011 1 9.4762933854935625e+00 1.6221942055701255e+00 1.5594101395854137e+01 0 -2 0
3624 1 4.9661984006372117e+00 1.0485142953460269e+01 2.4157130692554706e+01 0 -2 0
4554 1 1.1399872204860216e+01 5.1936039571591697e-01 1.9443466721930886e+01 -1 1 1
1345 1 1.4526688573936239e+00 6.7753900135491474e+00 1.5680093334259675e+01 -1 0 1
3604 1 1.2181219712760198e+01 4.7641062114832611e+00 1.9563565464288615e+01 0 1 0
1536 1 4.1784226372333535e+00 6.2530718675014851e+00 1.6841213714310420e+01 2 -3 1
2827 1 6.3549252965392604e+00 8.0173670504776737e+00 1.5836303467375501e+01 -1 0 1
3639 1 9.6208562257188639e+00 1.6233619003193787e+01 1.6525441849441098e+01 0 -1 0
1291 1 8.4023949997347867e+00 7.8659910737724292e+00 1.6962207187784511e+01 -1 -2 1
2879 1 9.2123595080933409e+00 5.3856257886194898e+00 1.5918277643859096e+01 0 1 1
529 1 3.8418867262309617e+00 1.5169114817910219e+00 2.4287888866596340e+01 2 3 1
3085 1 1.2073789467402435e+01 1.6098484415714744e+01 2.0152198626085994e+01 0 2 1
2848 1 7.7281711142659648e-01 9.1912143914780788e+00 1.6624760422513056e+01 2 0 1
6016 1 2.6432287376736414e+00 1.1076808315020610e+01 1.5880079105241405e+01 1 2 1
1360 1 3.4317047367513104e-01 4.4951958243387358e+00 1.9799176746096045e+01 0 2 1
167 1 8.6898952112533738e+00 9.6412514776941982e-01 1.3038407165145374e+01 1 -3 0
2853 1 5.0057913618521965e+00 1.0223710088736809e+01 1.6664546299182902e+01 -1 2 1
2004 1 1.0101370461661217e+01 9.5412543757076342e+00 1.5564731902007310e+01 0 0 0
3130 1 9.2594275866366349e+00 1.1789818973190107e+01 1.6885679766160820e+01 -2 -2 0
5120 1 1.9619477401368752e+00 6.6952262211671494e+00 1.3051974904831692e+01 0 0 0
6198 1 1.0174164535545453e+01 1.6262449259618887e+01 2.4018319373996704e+01 1 1 1
4649 1 3.3441925986528669e+00 1.5370199144606079e+01 1.5908368075816567e+01 -2 0 1
3241 1 1.4560225385261862e+00 1.3497554889313179e+01 1.6812670862162413e+01 -1 3 0
7 1 6.8038176984276424e+00 1.2120805328888858e+01 1.5901852543905941e+01 -2 0 1
6287 1 5.8427808795066678e+00 1.4641465788037964e+01 1.6706613383418642e+01 -1 -1 1
3452 1 1.0667634036501790e+01 1.3935091642477710e+01 1.5807984762852969e+01 4 1 0
4561 1 8.0265910891810499e+00 1.4600674630323851e+01 2.0513525764599226e+01 2 -1 1
1541 1 3.7248206530572325e+00 1.7993122068659546e+00 1.9760491842206100e+01 -1 2 1
3416 1 2.8147903375789141e+00 4.0800606054080708e+00 2.3640674194648568e+01 0 0 0
367 1 8.0818495280802711e+00 1.4502237974645382e+01 2.3267446182963432e+01 2 1 0
4970 1 6.2977495798940542e+00 1.3364336056688659e+00 2.3241539897373301e+01 1 2 1
2913 1 6.3930069839039723e+00 1.0706444627890914e+00 2.0534900470512895e+01 3 -1 1
3144 1 7.8916782065322169e+00 3.2578170564212026e+00 1.9647694972803546e+01 0 -1 1
433 1 1.0360275092309839e+01 2.8892421757317384e+00 2.0286984812574921e+01 2 -1 0
2903 1 1.0555911176233312e+01 2.7219843432880348e+00 2.3164685012260886e+01 0 0 1
1819 1 8.1438775329154556e+00 3.0997038432048143e+00 2.4172719425087102e+01 0 0 0
1432 1 5.5419706041711922e+00 1.4952099146339549e+01 1.9539872327769029e+01 2 2 1
80 1 5.5113060907820044e+00 1.4918867063568248e+01 2.4134263586107327e+01 0 -2 0
3586 1 2.7561555875635753e+00 4.1940278133241069e+00 2.0873245983212108e+01 1 1 0
3361 1 3.9321406045908995e+00 1.2754497400527043e+01 2.3082623526890597e+01 0 1 0
3551 1 4.4054365297604683e+00 6.0362491129806362e+00 1.9690185684968316e+01 1 -2 0
1861 1 6.7998455143041818e+00 5.4742879424257564e+00 2.0630646163779730e+01 -1 -1 0
6314 1 6.9303968473295248e+00 5.4341771433611923e+00 2.3379367174883892e+01 3 -1 0
2077 1 8.4501079712205609e+00 7.4879240639705893e+00 1.9620417541448976e+01 0 1 0
1587 1 1.1005639679084309e+01 6.8667128015811736e+00 2.3148017236089935e+01 0 -2 0
378 1 1.1013340175006254e+01 6.9628204545872912e+00 2.0411641002124753e+01 1 0 0
6263 1 3.0473368969961285e+00 1.5236758871550622e+01 1.2934820631649178e+01 0 1 1
3270 1 2.4680238237901424e+00 1.0698001390523107e+01 1.3128649131856914e+01 1 -2 0
315 1 5.9205232899959563e+00 7.6690954820257877e+00 1.3192116589219186e+01 -1 -1 0
6294 1 3.3610408886919001e+00 8.4049508495572098e+00 2.0284002819805146e+01 0 3 1
4518 1 3.3225254049419091e+00 8.3952103878343820e+00 2.3088854529648472e+01 1 -1 1
1748 1 9.3615797953727031e-01 8.6052412178584774e+00 1.9395843660043578e+01 0 0 0
3185 1 7.4612363374866053e+00 9.7731570234944343e+00 2.0211272290721169e+01 0 2 0
4775 1 4.9346231253825961e+00 1.0223118412462728e+01 1.9280895109825600e+01 0 -1 1
348 1 7.3835083037278526e+00 1.0241790511416566e+01 2.2944562697155654e+01 4 1 0
1757 1 1.1436619824024243e+01 1.1417078104058502e+01 2.0410314557318006e+01 0 3 0
3236 1 1.1658606167442599e+01 1.1459918937653422e+01 2.3291366429442238e+01 1 -1 0
1864 1 8.8519994267245838e+00 1.2082387872124780e+01 1.9661441815003514e+01 -1 2 0
4469 1 5.0737123174874643e-01 1.5761315135252797e+01 2.0171336204634596e+01 1 0 1
2124 1 3.4145766810073169e-01 1.5732945500038626e+01 2.2996234028474408e+01 1 0 0
1281 1 3.9847668386639183e+00 1.2517053931768087e+01 2.0334145442442608e+01 -2 2 1
4553 1 1.4726489971457266e+00 1.3025073794369780e+01 1.9595062124817542e+01 2 -1 1
4623 1 1.1721734517721394e+01 4.6953415782033083e+00 1.6864310707257282e+01 2 0 1
3186 1 1.2713541306025458e+00 2.1236458750799727e+00 1.3019896277580493e+01 1 0 1
5093 1 1.2959661692197868e+00 1.3324670110617145e+01 2.3774310224526722e+01 2 1 0
3432 1 8.3491131850681697e+00 8.0313508332103360e+00 2.3885964388360396e+01 2 1 0
4523 1 8.1900975808635079e-01 8.9218964612071137e+00 2.4034303966822527e+01 1 0 1
3331 1 9.1257670119098382e+00 1.2132877834884308e+01 2.4039598104535930e+01 0 2 1
6236 1 1.0651725156135036e+01 1.3491221152582453e+01 1.3023780143037653e+01 0 -1 1
4724 1 9.2258091652821577e+00 5.2743811160570093e+00 1.3096323692662869e+01 2 2 1
3708 1 5.1398786886029093e+00 3.7331945536898670e+00 1.3206954539078160e+01 3 -3 1
3199 1 1.1907036840921538e+01 4.6155648546618027e+00 2.4279071177189692e+01 -1 -1 0
5127 1 1.1783587127120482e+01 4.7746172382721441e-01 2.4213204506051884e+01 0 -1 0
1770 1 2.4109721730294978e-01 4.4094486382256903e+00 2.4259721114064252e+01 2 -2 1
556 2 0.0000000000000000e+00 2.8417180249513345e+00 2.6794083848120170e+01 0 0 0
558 2 0.0000000000000000e+00 0.0000000000000000e+00 2.6794083848120170e+01 0 0 0
560 2 1.2305000000000001e+00 7.1042950623783474e-01 2.6794083848120170e+01 0 0 0
567 2 1.2305000000000001e+00 2.1312885187134998e+00 2.6794083848120170e+01 0 0 0
569 2 2.4610000000000003e+00 2.8417180249513345e+00 2.6794083848120170e+01 0 0 0
571 2 2.4610000000000003e+00 0.0000000000000000e+00 2.6794083848120170e+01 0 0 0
573 2 3.6915000000000004e+00 7.1042950623783474e-01 2.6794083848120170e+01 0 0 0
588 2 3.6914999999999996e+00 2.1312885187134998e+00 2.6794083848120170e+01 0 0 0
557 2 0.0000000000000000e+00 1.4208590124756650e+00 3.0031000000000446e+01 0 0 0
559 2 0.0000000000000000e+00 0.0000000000000000e+00 3.0031000000000446e+01 0 0 0
566 2 1.2305000000000001e+00 3.5521475311891644e+00 3.0031000000000446e+01 0 0 0
568 2 1.2305000000000001e+00 2.1312885187134998e+00 3.0031000000000446e+01 0 0 0
570 2 2.4610000000000003e+00 1.4208590124756650e+00 3.0031000000000446e+01 0 0 0
572 2 2.4610000000000003e+00 0.0000000000000000e+00 3.0031000000000446e+01 0 0 0
587 2 3.6914999999999996e+00 3.5521475311891644e+00 3.0031000000000446e+01 0 0 0
589 2 3.6914999999999996e+00 2.1312885187134998e+00 3.0031000000000446e+01 0 0 0
590 2 4.9220000000000006e+00 2.8417180249513332e+00 2.6794083848120170e+01 0 0 0
592 2 4.9220000000000006e+00 0.0000000000000000e+00 2.6794083848120170e+01 0 0 0
594 2 6.1524999999999999e+00 7.1042950623783407e-01 2.6794083848120170e+01 0 0 0
617 2 6.1524999999999999e+00 2.1312885187134989e+00 2.6794083848120170e+01 0 0 0
619 2 7.3829999999999991e+00 2.8417180249513345e+00 2.6794083848120170e+01 0 0 0
621 2 7.3829999999999991e+00 0.0000000000000000e+00 2.6794083848120170e+01 0 0 0
591 2 4.9220000000000006e+00 1.4208590124756650e+00 3.0031000000000446e+01 0 0 0
593 2 4.9220000000000006e+00 0.0000000000000000e+00 3.0031000000000446e+01 0 0 0
616 2 6.1524999999999999e+00 3.5521475311891644e+00 3.0031000000000446e+01 0 0 0
618 2 6.1524999999999999e+00 2.1312885187134989e+00 3.0031000000000446e+01 0 0 0
620 2 7.3829999999999991e+00 1.4208590124756659e+00 3.0031000000000446e+01 0 0 0
622 2 7.3829999999999991e+00 0.0000000000000000e+00 3.0031000000000446e+01 0 0 0
997 2 9.8440000000000012e+00 1.2787731112280996e+01 3.3267916151860213e+01 0 0 0
623 2 8.6134999999999984e+00 7.1042950623783407e-01 2.6794083848120170e+01 0 0 0
654 2 8.6134999999999984e+00 2.1312885187135002e+00 2.6794083848120170e+01 0 0 0
656 2 9.8440000000000012e+00 2.8417180249513332e+00 2.6794083848120170e+01 0 0 0
658 2 9.8440000000000012e+00 0.0000000000000000e+00 2.6794083848120170e+01 0 0 0
660 2 1.1074500000000002e+01 7.1042950623783330e-01 2.6794083848120170e+01 0 0 0
699 2 1.1074500000000002e+01 2.1312885187135002e+00 2.6794083848120170e+01 0 0 0
653 2 8.6134999999999984e+00 3.5521475311891657e+00 3.0031000000000446e+01 0 0 0
655 2 8.6134999999999984e+00 2.1312885187135002e+00 3.0031000000000446e+01 0 0 0
657 2 9.8440000000000012e+00 1.4208590124756659e+00 3.0031000000000446e+01 0 0 0
659 2 9.8440000000000012e+00 0.0000000000000000e+00 3.0031000000000446e+01 0 0 0
698 2 1.1074500000000002e+01 3.5521475311891644e+00 3.0031000000000446e+01 0 0 0
700 2 1.1074500000000002e+01 2.1312885187135002e+00 3.0031000000000446e+01 0 0 0
561 2 0.0000000000000000e+00 7.1042950623783341e+00 2.6794083848120170e+01 0 0 0
563 2 0.0000000000000000e+00 4.2625770374269996e+00 2.6794083848120170e+01 0 0 0
565 2 1.2305000000000001e+00 4.9730065436648339e+00 2.6794083848120170e+01 0 0 0
580 2 1.2305000000000001e+00 6.3938655561404980e+00 2.6794083848120170e+01 0 0 0
582 2 2.4610000000000003e+00 7.1042950623783341e+00 2.6794083848120170e+01 0 0 0
584 2 2.4610000000000003e+00 4.2625770374269996e+00 2.6794083848120170e+01 0 0 0
586 2 3.6914999999999996e+00 4.9730065436648339e+00 2.6794083848120170e+01 0 0 0
609 2 3.6914999999999996e+00 6.3938655561404980e+00 2.6794083848120170e+01 0 0 0
562 2 0.0000000000000000e+00 5.6834360499026637e+00 3.0031000000000446e+01 0 0 0
564 2 0.0000000000000000e+00 4.2625770374269996e+00 3.0031000000000446e+01 0 0 0
579 2 1.2305000000000001e+00 7.8147245686161639e+00 3.0031000000000446e+01 0 0 0
581 2 1.2305000000000001e+00 6.3938655561404980e+00 3.0031000000000446e+01 0 0 0
583 2 2.4610000000000003e+00 5.6834360499026637e+00 3.0031000000000446e+01 0 0 0
585 2 2.4610000000000003e+00 4.2625770374269996e+00 3.0031000000000446e+01 0 0 0
608 2 3.6914999999999996e+00 7.8147245686161639e+00 3.0031000000000446e+01 0 0 0
610 2 3.6914999999999996e+00 6.3938655561404980e+00 3.0031000000000446e+01 0 0 0
611 2 4.9220000000000006e+00 7.1042950623783341e+00 2.6794083848120170e+01 0 0 0
613 2 4.9220000000000006e+00 4.2625770374269978e+00 2.6794083848120170e+01 0 0 0
615 2 6.1524999999999999e+00 4.9730065436648339e+00 2.6794083848120170e+01 0 0 0
646 2 6.1524999999999999e+00 6.3938655561404980e+00 2.6794083848120170e+01 0 0 0
648 2 7.3830000000000009e+00 7.1042950623783341e+00 2.6794083848120170e+01 0 0 0
650 2 7.3829999999999991e+00 4.2625770374269996e+00 2.6794083848120170e+01 0 0 0
612 2 4.9220000000000006e+00 5.6834360499026637e+00 3.0031000000000446e+01 0 0 0
614 2 4.9220000000000006e+00 4.2625770374269978e+00 3.0031000000000446e+01 0 0 0
645 2 6.1524999999999999e+00 7.8147245686161639e+00 3.0031000000000446e+01 0 0 0
647 2 6.1524999999999999e+00 6.3938655561404980e+00 3.0031000000000446e+01 0 0 0
649 2 7.3829999999999991e+00 5.6834360499026637e+00 3.0031000000000446e+01 0 0 0
651 2 7.3829999999999991e+00 4.2625770374269996e+00 3.0031000000000446e+01 0 0 0
996 2 9.8440000000000012e+00 1.5629449137232328e+01 3.3267916151860213e+01 0 0 0
652 2 8.6135000000000002e+00 4.9730065436648339e+00 2.6794083848120170e+01 0 0 0
691 2 8.6135000000000002e+00 6.3938655561404980e+00 2.6794083848120170e+01 0 0 0
693 2 9.8440000000000012e+00 7.1042950623783341e+00 2.6794083848120170e+01 0 0 0
695 2 9.8440000000000012e+00 4.2625770374270004e+00 2.6794083848120170e+01 0 0 0
697 2 1.1074500000000002e+01 4.9730065436648339e+00 2.6794083848120170e+01 0 0 0
738 2 1.1074500000000002e+01 6.3938655561404980e+00 2.6794083848120170e+01 0 0 0
690 2 8.6135000000000002e+00 7.8147245686161639e+00 3.0031000000000446e+01 0 0 0
692 2 8.6135000000000002e+00 6.3938655561404980e+00 3.0031000000000446e+01 0 0 0
694 2 9.8440000000000012e+00 5.6834360499026637e+00 3.0031000000000446e+01 0 0 0
696 2 9.8440000000000012e+00 4.2625770374270004e+00 3.0031000000000446e+01 0 0 0
737 2 1.1074500000000002e+01 7.8147245686161639e+00 3.0031000000000446e+01 0 0 0
739 2 1.1074500000000002e+01 6.3938655561404980e+00 3.0031000000000446e+01 0 0 0
574 2 0.0000000000000000e+00 1.1366872099805333e+01 2.6794083848120170e+01 0 0 0
576 2 0.0000000000000000e+00 8.5251540748539991e+00 2.6794083848120170e+01 0 0 0
578 2 1.2305000000000001e+00 9.2355835810918343e+00 2.6794083848120170e+01 0 0 0
601 2 1.2305000000000001e+00 1.0656442593567498e+01 2.6794083848120170e+01 0 0 0
603 2 2.4610000000000003e+00 1.1366872099805333e+01 2.6794083848120170e+01 0 0 0
605 2 2.4610000000000003e+00 8.5251540748539991e+00 2.6794083848120170e+01 0 0 0
607 2 3.6915000000000004e+00 9.2355835810918343e+00 2.6794083848120170e+01 0 0 0
638 2 3.6914999999999996e+00 1.0656442593567499e+01 2.6794083848120170e+01 0 0 0
575 2 0.0000000000000000e+00 9.9460130873296642e+00 3.0031000000000446e+01 0 0 0
577 2 0.0000000000000000e+00 8.5251540748539991e+00 3.0031000000000446e+01 0 0 0
600 2 1.2305000000000001e+00 1.2077301606043163e+01 3.0031000000000446e+01 0 0 0
602 2 1.2305000000000001e+00 1.0656442593567498e+01 3.0031000000000446e+01 0 0 0
604 2 2.4610000000000003e+00 9.9460130873296642e+00 3.0031000000000446e+01 0 0 0
606 2 2.4610000000000003e+00 8.5251540748539991e+00 3.0031000000000446e+01 0 0 0
637 2 3.6914999999999996e+00 1.2077301606043163e+01 3.0031000000000446e+01 0 0 0
639 2 3.6914999999999996e+00 1.0656442593567499e+01 3.0031000000000446e+01 0 0 0
995 2 8.6135000000000002e+00 1.4919019630994494e+01 3.3267916151860213e+01 0 0 0
640 2 4.9220000000000006e+00 1.1366872099805333e+01 2.6794083848120170e+01 0 0 0
642 2 4.9220000000000006e+00 8.5251540748539991e+00 2.6794083848120170e+01 0 0 0
644 2 6.1524999999999999e+00 9.2355835810918343e+00 2.6794083848120170e+01 0 0 0
683 2 6.1524999999999999e+00 1.0656442593567499e+01 2.6794083848120170e+01 0 0 0
685 2 7.3829999999999991e+00 1.1366872099805333e+01 2.6794083848120170e+01 0 0 0
687 2 7.3830000000000009e+00 8.5251540748539991e+00 2.6794083848120170e+01 0 0 0
641 2 4.9220000000000006e+00 9.9460130873296642e+00 3.0031000000000446e+01 0 0 0
643 2 4.9220000000000006e+00 8.5251540748539991e+00 3.0031000000000446e+01 0 0 0
682 2 6.1524999999999999e+00 1.2077301606043163e+01 3.0031000000000446e+01 0 0 0
684 2 6.1524999999999999e+00 1.0656442593567499e+01 3.0031000000000446e+01 0 0 0
686 2 7.3830000000000009e+00 9.9460130873296642e+00 3.0031000000000446e+01 0 0 0
688 2 7.3830000000000009e+00 8.5251540748539991e+00 3.0031000000000446e+01 0 0 0
998 2 1.1074500000000002e+01 1.3498160618518829e+01 3.3267916151860213e+01 0 0 0
689 2 8.6134999999999984e+00 9.2355835810918343e+00 2.6794083848120170e+01 0 0 0
730 2 8.6134999999999984e+00 1.0656442593567498e+01 2.6794083848120170e+01 0 0 0
732 2 9.8440000000000012e+00 1.1366872099805333e+01 2.6794083848120170e+01 0 0 0
734 2 9.8440000000000012e+00 8.5251540748539956e+00 2.6794083848120170e+01 0 0 0
736 2 1.1074500000000002e+01 9.2355835810918343e+00 2.6794083848120170e+01 0 0 0
777 2 1.1074500000000002e+01 1.0656442593567498e+01 2.6794083848120170e+01 0 0 0
779 2 1.2304999999999998e+01 1.1366872099805333e+01 2.6794083848120170e+01 0 0 0
729 2 8.6135000000000002e+00 1.2077301606043163e+01 3.0031000000000446e+01 0 0 0
731 2 8.6134999999999984e+00 1.0656442593567498e+01 3.0031000000000446e+01 0 0 0
733 2 9.8440000000000012e+00 9.9460130873296642e+00 3.0031000000000446e+01 0 0 0
735 2 9.8440000000000012e+00 8.5251540748539956e+00 3.0031000000000446e+01 0 0 0
776 2 1.1074500000000002e+01 1.2077301606043163e+01 3.0031000000000446e+01 0 0 0
778 2 1.1074500000000002e+01 1.0656442593567498e+01 3.0031000000000446e+01 0 0 0
974 2 8.6135000000000002e+00 1.3498160618518835e+01 3.3267916151860213e+01 0 0 0
595 2 0.0000000000000000e+00 1.5629449137232333e+01 2.6794083848120170e+01 0 0 0
597 2 0.0000000000000000e+00 1.2787731112280996e+01 2.6794083848120170e+01 0 0 0
599 2 1.2305000000000001e+00 1.3498160618518829e+01 2.6794083848120170e+01 0 0 0
630 2 1.2305000000000001e+00 1.4919019630994494e+01 2.6794083848120170e+01 0 0 0
632 2 2.4610000000000003e+00 1.5629449137232328e+01 2.6794083848120170e+01 0 0 0
634 2 2.4610000000000003e+00 1.2787731112280996e+01 2.6794083848120170e+01 0 0 0
636 2 3.6915000000000004e+00 1.3498160618518829e+01 2.6794083848120170e+01 0 0 0
675 2 3.6915000000000004e+00 1.4919019630994494e+01 2.6794083848120170e+01 0 0 0
596 2 0.0000000000000000e+00 1.4208590124756663e+01 3.0031000000000446e+01 0 0 0
598 2 0.0000000000000000e+00 1.2787731112280996e+01 3.0031000000000446e+01 0 0 0
631 2 1.2305000000000001e+00 1.4919019630994494e+01 3.0031000000000446e+01 0 0 0
633 2 2.4610000000000003e+00 1.4208590124756663e+01 3.0031000000000446e+01 0 0 0
635 2 2.4610000000000003e+00 1.2787731112280996e+01 3.0031000000000446e+01 0 0 0
676 2 3.6915000000000004e+00 1.4919019630994494e+01 3.0031000000000446e+01 0 0 0
948 2 4.9220000000000006e+00 1.5629449137232333e+01 3.3267916151860213e+01 0 0 0
677 2 4.9220000000000006e+00 1.5629449137232333e+01 2.6794083848120170e+01 0 0 0
679 2 4.9220000000000006e+00 1.2787731112280996e+01 2.6794083848120170e+01 0 0 0
681 2 6.1524999999999990e+00 1.3498160618518829e+01 2.6794083848120170e+01 0 0 0
722 2 6.1524999999999990e+00 1.4919019630994494e+01 2.6794083848120170e+01 0 0 0
724 2 7.3829999999999991e+00 1.5629449137232333e+01 2.6794083848120170e+01 0 0 0
726 2 7.3829999999999991e+00 1.2787731112280996e+01 2.6794083848120170e+01 0 0 0
678 2 4.9220000000000006e+00 1.4208590124756663e+01 3.0031000000000446e+01 0 0 0
680 2 4.9220000000000006e+00 1.2787731112280996e+01 3.0031000000000446e+01 0 0 0
723 2 6.1524999999999990e+00 1.4919019630994494e+01 3.0031000000000446e+01 0 0 0
725 2 7.3830000000000009e+00 1.4208590124756663e+01 3.0031000000000446e+01 0 0 0
727 2 7.3829999999999991e+00 1.2787731112280996e+01 3.0031000000000446e+01 0 0 0
728 2 8.6135000000000002e+00 1.3498160618518835e+01 2.6794083848120170e+01 0 0 0
769 2 8.6135000000000002e+00 1.4919019630994494e+01 2.6794083848120170e+01 0 0 0
771 2 9.8440000000000012e+00 1.5629449137232328e+01 2.6794083848120170e+01 0 0 0
773 2 9.8440000000000012e+00 1.2787731112280996e+01 2.6794083848120170e+01 0 0 0
775 2 1.1074500000000002e+01 1.3498160618518829e+01 2.6794083848120170e+01 0 0 0
811 2 1.1074500000000002e+01 1.4919019630994494e+01 2.6794083848120170e+01 0 0 0
770 2 8.6135000000000002e+00 1.4919019630994494e+01 3.0031000000000446e+01 0 0 0
772 2 9.8440000000000012e+00 1.4208590124756663e+01 3.0031000000000446e+01 0 0 0
774 2 9.8440000000000012e+00 1.2787731112280996e+01 3.0031000000000446e+01 0 0 0
810 2 1.1074500000000002e+01 1.6339878643470161e+01 3.0031000000000446e+01 0 0 0
812 2 1.1074500000000002e+01 1.4919019630994494e+01 3.0031000000000446e+01 0 0 0
814 2 1.2304999999999998e+01 1.4208590124756658e+01 3.0031000000000446e+01 0 0 0
885 2 0.0000000000000000e+00 2.8417180249513345e+00 3.3267916151860213e+01 0 0 0
886 2 0.0000000000000000e+00 0.0000000000000000e+00 3.3267916151860213e+01 0 0 0
887 2 1.2305000000000001e+00 7.1042950623783474e-01 3.3267916151860213e+01 0 0 0
891 2 1.2305000000000001e+00 2.1312885187134998e+00 3.3267916151860213e+01 0 0 0
892 2 2.4610000000000003e+00 2.8417180249513345e+00 3.3267916151860213e+01 0 0 0
893 2 2.4610000000000003e+00 0.0000000000000000e+00 3.3267916151860213e+01 0 0 0
894 2 3.6915000000000004e+00 7.1042950623783474e-01 3.3267916151860213e+01 0 0 0
902 2 3.6914999999999996e+00 2.1312885187134998e+00 3.3267916151860213e+01 0 0 0
903 2 4.9220000000000006e+00 2.8417180249513332e+00 3.3267916151860213e+01 0 0 0
904 2 4.9220000000000006e+00 0.0000000000000000e+00 3.3267916151860213e+01 0 0 0
905 2 6.1524999999999999e+00 7.1042950623783407e-01 3.3267916151860213e+01 0 0 0
917 2 6.1524999999999999e+00 2.1312885187134989e+00 3.3267916151860213e+01 0 0 0
918 2 7.3829999999999991e+00 2.8417180249513345e+00 3.3267916151860213e+01 0 0 0
919 2 7.3829999999999991e+00 0.0000000000000000e+00 3.3267916151860213e+01 0 0 0
920 2 8.6134999999999984e+00 7.1042950623783407e-01 3.3267916151860213e+01 0 0 0
936 2 8.6134999999999984e+00 2.1312885187135002e+00 3.3267916151860213e+01 0 0 0
937 2 9.8440000000000012e+00 2.8417180249513332e+00 3.3267916151860213e+01 0 0 0
938 2 9.8440000000000012e+00 0.0000000000000000e+00 3.3267916151860213e+01 0 0 0
939 2 1.1074500000000002e+01 7.1042950623783330e-01 3.3267916151860213e+01 0 0 0
959 2 1.1074500000000002e+01 2.1312885187135002e+00 3.3267916151860213e+01 0 0 0
888 2 0.0000000000000000e+00 7.1042950623783341e+00 3.3267916151860213e+01 0 0 0
889 2 0.0000000000000000e+00 4.2625770374269996e+00 3.3267916151860213e+01 0 0 0
890 2 1.2305000000000001e+00 4.9730065436648339e+00 3.3267916151860213e+01 0 0 0
898 2 1.2305000000000001e+00 6.3938655561404980e+00 3.3267916151860213e+01 0 0 0
899 2 2.4610000000000003e+00 7.1042950623783341e+00 3.3267916151860213e+01 0 0 0
900 2 2.4610000000000003e+00 4.2625770374269996e+00 3.3267916151860213e+01 0 0 0
901 2 3.6914999999999996e+00 4.9730065436648339e+00 3.3267916151860213e+01 0 0 0
913 2 3.6914999999999996e+00 6.3938655561404980e+00 3.3267916151860213e+01 0 0 0
914 2 4.9220000000000006e+00 7.1042950623783341e+00 3.3267916151860213e+01 0 0 0
915 2 4.9220000000000006e+00 4.2625770374269978e+00 3.3267916151860213e+01 0 0 0
916 2 6.1524999999999999e+00 4.9730065436648339e+00 3.3267916151860213e+01 0 0 0
932 2 6.1524999999999999e+00 6.3938655561404980e+00 3.3267916151860213e+01 0 0 0
933 2 7.3830000000000009e+00 7.1042950623783341e+00 3.3267916151860213e+01 0 0 0
934 2 7.3829999999999991e+00 4.2625770374269996e+00 3.3267916151860213e+01 0 0 0
935 2 8.6135000000000002e+00 4.9730065436648339e+00 3.3267916151860213e+01 0 0 0
955 2 8.6135000000000002e+00 6.3938655561404980e+00 3.3267916151860213e+01 0 0 0
956 2 9.8440000000000012e+00 7.1042950623783341e+00 3.3267916151860213e+01 0 0 0
957 2 9.8440000000000012e+00 4.2625770374270004e+00 3.3267916151860213e+01 0 0 0
958 2 1.1074500000000002e+01 4.9730065436648339e+00 3.3267916151860213e+01 0 0 0
979 2 1.1074500000000002e+01 6.3938655561404980e+00 3.3267916151860213e+01 0 0 0
972 2 7.3829999999999991e+00 1.5629449137232333e+01 3.3267916151860213e+01 0 0 0
895 2 0.0000000000000000e+00 1.1366872099805333e+01 3.3267916151860213e+01 0 0 0
896 2 0.0000000000000000e+00 8.5251540748539991e+00 3.3267916151860213e+01 0 0 0
897 2 1.2305000000000001e+00 9.2355835810918343e+00 3.3267916151860213e+01 0 0 0
909 2 1.2305000000000001e+00 1.0656442593567498e+01 3.3267916151860213e+01 0 0 0
910 2 2.4610000000000003e+00 1.1366872099805333e+01 3.3267916151860213e+01 0 0 0
911 2 2.4610000000000003e+00 8.5251540748539991e+00 3.3267916151860213e+01 0 0 0
912 2 3.6915000000000004e+00 9.2355835810918343e+00 3.3267916151860213e+01 0 0 0
928 2 3.6914999999999996e+00 1.0656442593567499e+01 3.3267916151860213e+01 0 0 0
950 2 6.1524999999999990e+00 1.3498160618518829e+01 3.3267916151860213e+01 0 0 0