LAMMPS data file via write_data, version 16 Mar 2018, timestep = 100000

6368 atoms
2 atom types

0.0000000000000000e+00 4.9219999999999999e+01 xlo xhi
0.0000000000000000e+00 4.9019635930410494e+01 ylo yhi
1.8889502565873713e+00 5.8173049743412143e+01 zlo zhi

Masses

1 18.015
2 12.01

Atoms # atomic

1610 1 2.4084182211115048e+00 1.1084571222016836e+01 2.2043146820113546e+00 1 0 1
1560 1 2.8363063427177448e+00 3.4425496452344495e+00 6.2770623702162176e+00 2 -1 0
3540 1 8.3293194221968108e+00 1.2360351189076697e+00 6.3944977881129947e+00 -1 -1 0
50 1 1.1360433475649996e+01 1.5766039068728990e+01 9.2077799972501673e+00 0 3 0
156 1 6.4339040617416616e+00 2.4753923225678194e+00 2.3036315711004365e+00 1 2 0
5186 1 3.5027085012930564e-01 2.8775609351750731e-01 1.2961992522940804e+01 3 1 0
494 1 2.2192389710735960e+00 3.8313592118738735e+00 1.1823882507020826e+01 0 -1 1
3701 1 1.2135854453876702e+00 1.9621049452728090e+00 4.7007112670852678e+00 2 0 1
375 1 1.1358186204016899e+01 4.3264729147041310e+00 7.3531131019365246e+00 0 -1 0
3216 1 4.3586488773986973e+00 6.8791088505447133e+00 1.9550757080670031e+00 1 1 0
3461 1 7.3408980631766116e+00 6.5973371182390297e+00 1.2354525258022569e+01 1 1 0
1665 1 2.0908278299717917e+00 7.6858602801603002e+00 5.9442072707151246e+00 1 0 0
240 1 4.7686546876218108e+00 1.4952751832653490e+01 8.5840383042609201e+00 1 0 0
3152 1 5.0223986389130415e+00 4.0378842018176782e+00 4.5834149944565752e+00 1 0 0
270 1 8.7178648061632540e+00 3.7331870218522347e+00 2.9949532767661191e+00 1 1 0
4611 1 7.7233710772628088e+00 3.8784873604019925e+00 5.8571513697520654e+00 1 1 1
4993 1 7.0693009965272346e-01 1.3556167448072278e+01 9.9359796180593278e+00 -1 0 0
3335 1 4.5883447271583089e+00 6.7861157743217717e+00 4.8203079302142804e+00 2 1 0
3728 1 9.9016904578289964e+00 7.7177412692338159e+00 4.5953811380354486e+00 -1 0 1
1637 1 9.1963343328381431e+00 5.9636767321457311e+00 6.5103898809158114e+00 0 -1 0
147 1 1.0574695974634210e+01 1.6681271401015665e+00 1.9077681042569368e+00 1 -1 0
6035 1 2.4142497582510249e+00 1.0323117773935351e+01 7.1436296204158269e+00 -2 0 1
1931 1 3.2395513693662683e+00 1.1792582660936411e+01 4.6421054713622354e+00 -1 1 0
5289 1 9.9790439038783560e+00 1.1055034621015822e+00 1.0161765381686225e+01 0 -1 0
305 1 5.3650857785365353e+00 9.7802121855017674e+00 5.1958406652158429e+00 1 0 0
1641 1 6.0622543041330132e+00 9.5179001147610798e+00 7.6894940993361791e+00 0 1 0
1582 1 7.8035048365501583e+00 1.2020774923694285e+01 7.8338726871343303e+00 1 2 0
1590 1 7.3541971791793683e+00 1.1714240276136440e+01 4.5693854929850648e+00 0 -1 1
2927 1 9.9072188222606989e+00 1.0379198009894083e+01 4.5550061983121504e+00 0 1 1
3018 1 6.3276427173683842e+00 1.4265895383108035e+01 1.1236170579582309e+01 2 0 1
4754 1 6.7497160360280315e+00 1.3455031156560174e-01 4.2297241897317601e+00 1 1 0
4538 1 1.7769790662064264e+00 1.4532284356913671e+01 5.5376041375531688e+00 1 1 1
1710 1 6.4772860996450996e+00 1.4206464378856584e+01 6.4348860057034836e+00 0 0 1
6152 1 4.8488911015389133e+00 1.4315775785020495e+01 3.9784169849156417e+00 3 0 1
1292 1 4.5290582843275811e+00 1.2612136646242698e+01 1.2668633280022409e+01 0 1 1
3614 1 1.1316909190566713e+01 1.4520618816955572e+01 2.4841731521976653e+00 -1 0 0
5308 1 1.0727019437421035e+01 1.1813964125862707e+01 6.8942566935539933e+00 0 0 1
506 1 1.0447197290280737e+01 1.4174362722314495e+01 4.9873747160043074e+00 -1 0 1
1540 1 1.0874038660254083e+01 1.3129994779415213e+01 9.4832100305836757e+00 1 1 1
21 1 3.8004539093107383e+00 2.3838311878958423e+00 8.4626834982607839e+00 -1 -1 0
4626 1 2.6028995437493427e+00 1.5243882215873914e+00 1.0726963677978945e+01 0 -2 1
2849 1 6.2280893194919358e+00 2.7801361347125080e+00 8.4909286503393311e+00 0 1 1
1887 1 7.0837546970300265e+00 3.6194916009864131e+00 1.1889389126959538e+01 1 1 0
2933 1 7.0634259570133517e+00 7.8356307500498557e-01 1.0476857293010802e+01 1 -1 1
2988 1 1.9499575609346997e+00 2.9884892750772503e+00 2.2779675468191827e+00 1 1 1
1872 1 4.1507707934868504e-01 1.3971291608206494e+01 1.2578634923648439e+01 0 0 0
1936 1 1.0853337905310543e+01 1.5756910840852199e+00 7.8429689382991379e+00 1 0 0
2875 1 3.0386556601128891e+00 1.6335809464315382e+01 3.6308940423437681e+00 0 2 1
291 1 1.1867455601317868e+01 4.2058087904536112e+00 1.0490192227643986e+01 0 -1 0
4560 1 3.2882716629394366e+00 5.6383248602176250e+00 9.9018293614703357e+00 0 1 1
343 1 1.6093980550487657e+00 5.6091201365124199e+00 7.5257516720330182e+00 0 0 0
1357 1 6.1142606197977099e+00 5.4233705515461157e+00 9.8879736030116874e+00 0 0 1
2881 1 7.8425310012517127e+00 1.5977903078221210e+01 2.8537483210345114e+00 -1 0 0
1599 1 7.7506785114949910e+00 7.4597194367607687e+00 8.6171430804324984e+00 -1 -2 0
6316 1 1.0955721337869095e+01 6.6992445323877714e+00 9.2971598980924774e+00 2 -1 0
70 1 9.2978775271731777e+00 8.0027622971836863e+00 1.1108713934900026e+01 1 -1 1
4917 1 8.0961639434919768e+00 1.2611458414397941e+01 1.0438265635142701e+01 1 0 0
3267 1 2.5930889337968850e+00 8.0964867151293234e+00 1.0592853629527950e+01 -1 0 0
3646 1 3.9617490040393846e+00 1.0176748976574173e+01 9.2121249033990189e+00 1 0 1
2170 1 1.1639326134809640e+01 1.0944695728139015e+01 1.2233201953755199e+01 1 0 0
2025 1 9.1054747984469753e+00 1.0546242484482658e+01 1.2172141563475616e+01 0 -1 0
5122 1 1.9004552850926510e+00 1.5729226275214165e+01 7.9931885404207472e+00 1 0 0
4790 1 1.0235799990317952e+01 3.7215479204939258e-03 4.1908092776950863e+00 2 2 1
1380 1 3.6584667635985082e+00 1.2730614395100922e+01 1.0064395672978476e+01 -1 1 1
3082 1 1.1806209644166051e+01 1.3503528450010739e+01 1.2418684959916177e+01 1 0 1
196 1 9.6719983343005715e+00 3.4369743202707199e+00 1.2325476718566311e+01 -1 0 0
1261 1 4.3337013669288516e-01 7.3257414372374354e+00 3.5341494416483994e+00 1 1 1
4951 1 9.4643854240910343e+00 6.2197567053824665e+00 2.2507104531683262e+00 1 1 0
1425 1 6.3791527419682499e+00 1.3016938756229967e+01 2.0805011886536424e+00 1 0 0
4714 1 1.1328007625011682e+00 2.6498777907259128e+00 1.6505820815974214e+01 1 0 1
3487 1 5.4903440486885717e+00 7.7333016743868443e-01 2.0331117695355417e+01 2 0 0
4485 1 7.6085081313178407e+00 2.0930488533705192e+00 1.6272621251286211e+01 1 2 1
4792 1 5.5296768984949578e+00 9.7991548882336410e+00 2.4032615407263936e+01 1 -1 1
3050 1 5.7041485809022925e+00 3.0415811935604955e+00 1.4350262145924633e+01 2 1 1
322 1 5.4759033274641062e+00 2.4561833113537159e+00 2.3735991144536271e+01 -2 0 1
2939 1 1.0273362169579082e+01 2.3487463000217641e+00 1.5059357991186269e+01 2 0 1
3454 1 1.2186498987611623e+01 9.9969397588862972e+00 1.4619634706182374e+01 0 0 0
3538 1 2.8428042793606436e+00 4.0052557224411265e+00 1.4679741220666077e+01 1 1 0
1624 1 1.2942195676315396e+00 6.3929143477756440e+00 1.4550527755536539e+01 1 1 1
1471 1 1.0967307540432795e+01 2.6094771077491341e+00 1.9169546718234002e+01 1 0 1
1244 1 5.5200144642489839e+00 4.9186761687970808e+00 1.6504337697324004e+01 1 -1 1
3558 1 5.1374874930515642e+00 7.6294377375651505e+00 1.6403230277428342e+01 2 1 0
4860 1 8.4091079963462896e+00 5.0199916517645766e+00 1.6779051445569632e+01 0 -1 1
1901 1 5.5422699065626047e+00 8.4790173023214805e+00 1.3601925933421185e+01 0 0 0
3092 1 9.3601522292975599e+00 7.4246675149282515e+00 1.8123279877179442e+01 -1 2 1
3668 1 1.1856012957482960e+01 1.0824981328488613e+01 1.8950505724293571e+01 1 1 1
527 1 9.5080860935729969e+00 5.5436347634573622e+00 1.4159870409979865e+01 2 -1 1
3079 1 2.6839163124850756e+00 8.4389594461919657e+00 1.7162909074878019e+01 2 1 0
3567 1 2.5848091809273139e+00 1.1306859898384650e+01 1.6665173860254008e+01 0 0 0
6290 1 1.1352707892147267e+01 5.5609565226974516e+00 1.8609951376374578e+01 1 0 1
1706 1 6.9602583425046136e+00 8.8694737238780021e+00 1.7878245063308214e+01 1 1 0
4814 1 8.0298052088796084e+00 1.0801046531207801e+01 1.6336524735308309e+01 1 1 1
3090 1 3.5416866051767486e+00 1.9178095352026639e-01 2.4231660446800230e+01 1 0 1
4475 1 2.4626928016068983e+00 1.0923799585278564e+01 1.3925658099505974e+01 0 0 1
1432 1 1.0624887044023151e+01 9.6306573361494330e+00 1.6855694093264155e+01 1 2 1
5 1 2.7758915974409986e+00 8.4048946619563409e+00 1.3168820199491396e+01 1 -2 1
5182 1 2.7228891410202487e+00 1.4204401538730496e+01 1.6311405296235428e+01 1 0 0
5139 1 3.2210482295618230e+00 1.4782410150406701e+01 1.3777718869733247e+01 1 2 0
4437 1 5.8427426986101283e+00 1.2504442110715821e+01 2.3976927208089712e+01 0 0 1
6132 1 4.6966795620964294e+00 1.4796937614666845e+01 1.7916419652891708e+01 1 0 1
5080 1 7.2265203415664203e+00 1.4273912681832851e+01 1.4614763564184832e+01 1 0 0
4778 1 7.1474375638697261e+00 1.3322905637657039e+01 1.7223219225087497e+01 0 1 0
2827 1 9.8182468819106141e+00 1.5303284698301413e+01 1.3618141331997020e+01 -2 0 1
233 1 1.1477606061787309e+01 1.4753815950959488e+01 1.8068931439838074e+01 1 0 0
5012 1 8.5509782498351683e+00 1.5092762772817595e+01 1.8854120759456681e+01 1 0 0
6064 1 1.7067151344681752e+00 1.5002630284214229e+00 1.9261052015953442e+01 3 0 1
315 1 3.4856672141662650e+00 2.6499854876079101e+00 2.0949868303531222e+01 0 -1 0
6257 1 2.2590110376842869e+00 3.0095724549507237e+00 2.3444451153659305e+01 -1 0 1
1986 1 7.9106753344837850e+00 1.0366705229199262e+00 1.9060427963057819e+01 2 0 0
1265 1 6.3071740251455877e+00 5.4999904749370554e+00 2.3891133007761812e+01 1 2 0
3587 1 6.1455667839012191e+00 1.2666097323752899e+01 2.1234617831301133e+01 0 -1 0
2043 1 5.8495697482801623e-01 9.9895595616067325e+00 2.0987510785141648e+01 -1 1 0
454 1 8.8349422885118223e+00 3.1040090272770615e+00 2.1324545030114816e+01 0 1 0
1419 1 1.1930091352745857e+01 1.5991306161965966e+01 2.2758595871703026e+01 -1 0 1
3204 1 6.6071451640837764e-01 1.0026414280365945e+01 2.3827586625905802e+01 0 0 0
6341 1 4.7808461864854870e+00 4.9824722019815546e+00 1.9423053417099908e+01 1 1 1
4795 1 1.5792857117408934e+00 5.3851429437380682e+00 2.2410362315408836e+01 -2 0 0
3631 1 2.3158163258855491e+00 5.9432399406796241e+00 1.9852227495891793e+01 1 0 0
1784 1 1.2117481445175605e+01 7.0641899620263144e+00 1.4019987605300649e+01 0 0 0
4955 1 6.9975285901522399e+00 5.2175069460970054e+00 2.1171956958634880e+01 1 1 0
1687 1 6.7355067678572551e+00 8.0925288494722558e+00 2.1561835944755707e+01 2 -2 1
6365 1 3.8934236954065957e+00 1.3866413626052969e+01 2.0300992528426647e+01 0 0 1
4824 1 1.0638588438627302e+01 3.8613393993242622e+00 2.3621567181890864e+01 2 -1 0
4664 1 1.0036395203103096e+01 6.7036027412059296e+00 2.2250420953965634e+01 1 0 1
3302 1 9.4924922727899688e+00 1.5229139133533211e+01 2.3562685803151250e+01 1 -1 0
6308 1 2.2083163901004599e+00 2.5689102512528694e-01 1.5077530676880063e+01 1 0 1
6183 1 3.0704752224698013e+00 8.9256948171421175e+00 2.0199472955984188e+01 2 2 0
481 1 3.2074927590186513e+00 8.6897338973262155e+00 2.3383297972488784e+01 0 -1 1
2840 1 8.4439827132292766e+00 1.3935808691076002e+01 2.1300188954928295e+01 1 1 1
1643 1 5.6174730825864119e+00 1.0172938459614800e+01 1.9843534614701092e+01 -4 1 0
6055 1 1.4376557114150936e+00 1.2616344584753159e+01 2.0845378271705464e+01 1 2 1
5205 1 1.2115439077512418e+01 1.4279486743728778e+00 2.3629052784683918e+01 0 1 0
5062 1 9.2047187159303512e+00 8.5587121716887484e+00 2.0656295929685527e+01 2 0 0
4979 1 1.0045896954259812e+01 1.1486232820823115e+01 2.1006191808707438e+01 0 1 0
3045 1 1.0608655726575309e+01 1.1111616176120108e+01 2.3966255295618790e+01 1 1 1
4669 1 1.6573068156524795e+00 1.2711911576992387e+01 2.3390144301673427e+01 0 0 1
1899 1 4.7557777415868641e+00 4.3328755618002801e-01 1.4103104320302190e+01 0 0 0
3680 1 6.7376526612738976e+00 1.0918687861822660e+01 1.3896078804847219e+01 1 0 1
6192 1 6.1244095164968582e-01 4.9822056687179535e+00 1.8077674466147247e+01 -1 -1 1
4440 1 3.5826287003086223e+00 6.0778016950413782e+00 2.4227721585472750e+01 1 0 1
2136 1 1.1643661068669667e+01 1.6121535227292544e+01 1.5859989550795614e+01 -1 2 1
1323 1 8.1279447535003833e+00 1.9430227258118014e+00 2.3874370115838822e+01 1 2 1
3569 1 1.0983315376896444e+01 8.4664069199768228e+00 2.4247438756145986e+01 0 2 0
556 2 0.0000000000000000e+00 2.8417180249513345e+00 2.6848296515715035e+01 0 0 0
558 2 0.0000000000000000e+00 0.0000000000000000e+00 2.6848296515715035e+01 0 0 0
560 2 1.2305000000000001e+00 7.1042950623783474e-01 2.6848296515715035e+01 0 0 0
567 2 1.2305000000000001e+00 2.1312885187134998e+00 2.6848296515715035e+01 0 0 0
569 2 2.4610000000000003e+00 2.8417180249513345e+00 2.6848296515715035e+01 0 0 0
571 2 2.4610000000000003e+00 0.0000000000000000e+00 2.6848296515715035e+01 0 0 0
573 2 3.6915000000000004e+00 7.1042950623783474e-01 2.6848296515715035e+01 0 0 0
588 2 3.6914999999999996e+00 2.1312885187134998e+00 2.6848296515715035e+01 0 0 0
557 2 0.0000000000000000e+00 1.4208590124756650e+00 3.0030999999999743e+01 0 0 0
559 2 0.0000000000000000e+00 0.0000000000000000e+00 3.0030999999999743e+01 0 0 0
566 2 1.2305000000000001e+00 3.5521475311891644e+00 3.0030999999999743e+01 0 0 0
568 2 1.2305000000000001e+00 2.1312885187134998e+00 3.0030999999999743e+01 0 0 0
570 2 2.4610000000000003e+00 1.4208590124756650e+00 3.0030999999999743e+01 0 0 0
572 2 2.4610000000000003e+00 0.0000000000000000e+00 3.0030999999999743e+01 0 0 0
587 2 3.6914999999999996e+00 3.5521475311891644e+00 3.0030999999999743e+01 0 0 0
589 2 3.6914999999999996e+00 2.1312885187134998e+00 3.0030999999999743e+01 0 0 0
995 2 8.6135000000000002e+00 1.4919019630994494e+01 3.3213703484281346e+01 0 0 0
590 2 4.9220000000000006e+00 2.8417180249513332e+00 2.6848296515715035e+01 0 0 0
592 2 4.9220000000000006e+00 0.0000000000000000e+00 2.6848296515715035e+01 0 0 0
594 2 6.1524999999999999e+00 7.1042950623783407e-01 2.6848296515715035e+01 0 0 0
617 2 6.1524999999999999e+00 2.1312885187134989e+00 2.6848296515715035e+01 0 0 0
619 2 7.3829999999999991e+00 2.8417180249513345e+00 2.6848296515715035e+01 0 0 0
621 2 7.3829999999999991e+00 0.0000000000000000e+00 2.6848296515715035e+01 0 0 0
591 2 4.9220000000000006e+00 1.4208590124756650e+00 3.0030999999999743e+01 0 0 0
593 2 4.9220000000000006e+00 0.0000000000000000e+00 3.0030999999999743e+01 0 0 0
616 2 6.1524999999999999e+00 3.5521475311891644e+00 3.0030999999999743e+01 0 0 0
618 2 6.1524999999999999e+00 2.1312885187134989e+00 3.0030999999999743e+01 0 0 0
620 2 7.3829999999999991e+00 1.4208590124756659e+00 3.0030999999999743e+01 0 0 0
622 2 7.3829999999999991e+00 0.0000000000000000e+00 3.0030999999999743e+01 0 0 0
950 2 6.1524999999999990e+00 1.3498160618518829e+01 3.3213703484281346e+01 0 0 0
623 2 8.6134999999999984e+00 7.1042950623783407e-01 2.6848296515715035e+01 0 0 0
654 2 8.6134999999999984e+00 2.1312885187135002e+00 2.6848296515715035e+01 0 0 0
656 2 9.8440000000000012e+00 2.8417180249513332e+00 2.6848296515715035e+01 0 0 0
658 2 9.8440000000000012e+00 0.0000000000000000e+00 2.6848296515715035e+01 0 0 0
660 2 1.1074500000000002e+01 7.1042950623783330e-01 2.6848296515715035e+01 0 0 0
699 2 1.1074500000000002e+01 2.1312885187135002e+00 2.6848296515715035e+01 0 0 0
653 2 8.6134999999999984e+00 3.5521475311891657e+00 3.0030999999999743e+01 0 0 0
655 2 8.6134999999999984e+00 2.1312885187135002e+00 3.0030999999999743e+01 0 0 0
657 2 9.8440000000000012e+00 1.4208590124756659e+00 3.0030999999999743e+01 0 0 0
659 2 9.8440000000000012e+00 0.0000000000000000e+00 3.0030999999999743e+01 0 0 0
698 2 1.1074500000000002e+01 3.5521475311891644e+00 3.0030999999999743e+01 0 0 0
700 2 1.1074500000000002e+01 2.1312885187135002e+00 3.0030999999999743e+01 0 0 0
561 2 0.0000000000000000e+00 7.1042950623783341e+00 2.6848296515715035e+01 0 0 0
563 2 0.0000000000000000e+00 4.2625770374269996e+00 2.6848296515715035e+01 0 0 0
565 2 1.2305000000000001e+00 4.9730065436648339e+00 2.6848296515715035e+01 0 0 0
580 2 1.2305000000000001e+00 6.3938655561404980e+00 2.6848296515715035e+01 0 0 0
582 2 2.4610000000000003e+00 7.1042950623783341e+00 2.6848296515715035e+01 0 0 0
584 2 2.4610000000000003e+00 4.2625770374269996e+00 2.6848296515715035e+01 0 0 0
586 2 3.6914999999999996e+00 4.9730065436648339e+00 2.6848296515715035e+01 0 0 0
609 2 3.6914999999999996e+00 6.3938655561404980e+00 2.6848296515715035e+01 0 0 0
562 2 0.0000000000000000e+00 5.6834360499026637e+00 3.0030999999999743e+01 0 0 0
564 2 0.0000000000000000e+00 4.2625770374269996e+00 3.0030999999999743e+01 0 0 0
579 2 1.2305000000000001e+00 7.8147245686161639e+00 3.0030999999999743e+01 0 0 0
581 2 1.2305000000000001e+00 6.3938655561404980e+00 3.0030999999999743e+01 0 0 0
583 2 2.4610000000000003e+00 5.6834360499026637e+00 3.0030999999999743e+01 0 0 0
585 2 2.4610000000000003e+00 4.2625770374269996e+00 3.0030999999999743e+01 0 0 0
608 2 3.6914999999999996e+00 7.8147245686161639e+00 3.0030999999999743e+01 0 0 0
610 2 3.6914999999999996e+00 6.3938655561404980e+00 3.0030999999999743e+01 0 0 0
974 2 8.6135000000000002e+00 1.3498160618518835e+01 3.3213703484281346e+01 0 0 0
611 2 4.9220000000000006e+00 7.1042950623783341e+00 2.6848296515715035e+01 0 0 0
613 2 4.9220000000000006e+00 4.2625770374269978e+00 2.6848296515715035e+01 0 0 0
615 2 6.1524999999999999e+00 4.9730065436648339e+00 2.6848296515715035e+01 0 0 0
646 2 6.1524999999999999e+00 6.3938655561404980e+00 2.6848296515715035e+01 0 0 0
648 2 7.3830000000000009e+00 7.1042950623783341e+00 2.6848296515715035e+01 0 0 0
650 2 7.3829999999999991e+00 4.2625770374269996e+00 2.6848296515715035e+01 0 0 0
612 2 4.9220000000000006e+00 5.6834360499026637e+00 3.0030999999999743e+01 0 0 0
614 2 4.9220000000000006e+00 4.2625770374269978e+00 3.0030999999999743e+01 0 0 0
645 2 6.1524999999999999e+00 7.8147245686161639e+00 3.0030999999999743e+01 0 0 0
647 2 6.1524999999999999e+00 6.3938655561404980e+00 3.0030999999999743e+01 0 0 0
649 2 7.3829999999999991e+00 5.6834360499026637e+00 3.0030999999999743e+01 0 0 0
651 2 7.3829999999999991e+00 4.2625770374269996e+00 3.0030999999999743e+01 0 0 0
1016 2 1.1074500000000002e+01 1.4919019630994494e+01 3.3213703484281346e+01 0 0 0
652 2 8.6135000000000002e+00 4.9730065436648339e+00 2.6848296515715035e+01 0 0 0
691 2 8.6135000000000002e+00 6.3938655561404980e+00 2.6848296515715035e+01 0 0 0
693 2 9.8440000000000012e+00 7.1042950623783341e+00 2.6848296515715035e+01 0 0 0
695 2 9.8440000000000012e+00 4.2625770374270004e+00 2.6848296515715035e+01 0 0 0
697 2 1.1074500000000002e+01 4.9730065436648339e+00 2.6848296515715035e+01 0 0 0
738 2 1.1074500000000002e+01 6.3938655561404980e+00 2.6848296515715035e+01 0 0 0
690 2 8.6135000000000002e+00 7.8147245686161639e+00 3.0030999999999743e+01 0 0 0
692 2 8.6135000000000002e+00 6.3938655561404980e+00 3.0030999999999743e+01 0 0 0
694 2 9.8440000000000012e+00 5.6834360499026637e+00 3.0030999999999743e+01 0 0 0
696 2 9.8440000000000012e+00 4.2625770374270004e+00 3.0030999999999743e+01 0 0 0
737 2 1.1074500000000002e+01 7.8147245686161639e+00 3.0030999999999743e+01 0 0 0
739 2 1.1074500000000002e+01 6.3938655561404980e+00 3.0030999999999743e+01 0 0 0
574 2 0.0000000000000000e+00 1.1366872099805333e+01 2.6848296515715035e+01 0 0 0
576 2 0.0000000000000000e+00 8.5251540748539991e+00 2.6848296515715035e+01 0 0 0
578 2 1.2305000000000001e+00 9.2355835810918343e+00 2.6848296515715035e+01 0 0 0
601 2 1.2305000000000001e+00 1.0656442593567498e+01 2.6848296515715035e+01 0 0 0
603 2 2.4610000000000003e+00 1.1366872099805333e+01 2.6848296515715035e+01 0 0 0
605 2 2.4610000000000003e+00 8.5251540748539991e+00 2.6848296515715035e+01 0 0 0
607 2 3.6915000000000004e+00 9.2355835810918343e+00 2.6848296515715035e+01 0 0 0
638 2 3.6914999999999996e+00 1.0656442593567499e+01 2.6848296515715035e+01 0 0 0
575 2 0.0000000000000000e+00 9.9460130873296642e+00 3.0030999999999743e+01 0 0 0
577 2 0.0000000000000000e+00 8.5251540748539991e+00 3.0030999999999743e+01 0 0 0
600 2 1.2305000000000001e+00 1.2077301606043163e+01 3.0030999999999743e+01 0 0 0
602 2 1.2305000000000001e+00 1.0656442593567498e+01 3.0030999999999743e+01 0 0 0
604 2 2.4610000000000003e+00 9.9460130873296642e+00 3.0030999999999743e+01 0 0 0
606 2 2.4610000000000003e+00 8.5251540748539991e+00 3.0030999999999743e+01 0 0 0
637 2 3.6914999999999996e+00 1.2077301606043163e+01 3.0030999999999743e+01 0 0 0
639 2 3.6914999999999996e+00 1.0656442593567499e+01 3.0030999999999743e+01 0 0 0
640 2 4.9220000000000006e+00 1.1366872099805333e+01 2.6848296515715035e+01 0 0 0
642 2 4.9220000000000006e+00 8.5251540748539991e+00 2.6848296515715035e+01 0 0 0
644 2 6.1524999999999999e+00 9.2355835810918343e+00 2.6848296515715035e+01 0 0 0
683 2 6.1524999999999999e+00 1.0656442593567499e+01 2.6848296515715035e+01 0 0 0
685 2 7.3829999999999991e+00 1.1366872099805333e+01 2.6848296515715035e+01 0 0 0
687 2 7.3830000000000009e+00 8.5251540748539991e+00 2.6848296515715035e+01 0 0 0
641 2 4.9220000000000006e+00 9.9460130873296642e+00 3.0030999999999743e+01 0 0 0
643 2 4.9220000000000006e+00 8.5251540748539991e+00 3.0030999999999743e+01 0 0 0
682 2 6.1524999999999999e+00 1.2077301606043163e+01 3.0030999999999743e+01 0 0 0
684 2 6.1524999999999999e+00 1.0656442593567499e+01 3.0030999999999743e+01 0 0 0
686 2 7.3830000000000009e+00 9.9460130873296642e+00 3.0030999999999743e+01 0 0 0
688 2 7.3830000000000009e+00 8.5251540748539991e+00 3.0030999999999743e+01 0 0 0
689 2 8.6134999999999984e+00 9.2355835810918343e+00 2.6848296515715035e+01 0 0 0
730 2 8.6134999999999984e+00 1.0656442593567498e+01 2.6848296515715035e+01 0 0 0
732 2 9.8440000000000012e+00 1.1366872099805333e+01 2.6848296515715035e+01 0 0 0
734 2 9.8440000000000012e+00 8.5251540748539956e+00 2.6848296515715035e+01 0 0 0
736 2 1.1074500000000002e+01 9.2355835810918343e+00 2.6848296515715035e+01 0 0 0
777 2 1.1074500000000002e+01 1.0656442593567498e+01 2.6848296515715035e+01 0 0 0
779 2 1.2304999999999998e+01 1.1366872099805333e+01 2.6848296515715035e+01 0 0 0
729 2 8.6135000000000002e+00 1.2077301606043163e+01 3.0030999999999743e+01 0 0 0
731 2 8.6134999999999984e+00 1.0656442593567498e+01 3.0030999999999743e+01 0 0 0
733 2 9.8440000000000012e+00 9.9460130873296642e+00 3.0030999999999743e+01 0 0 0
735 2 9.8440000000000012e+00 8.5251540748539956e+00 3.0030999999999743e+01 0 0 0
776 2 1.1074500000000002e+01 1.2077301606043163e+01 3.0030999999999743e+01 0 0 0
778 2 1.1074500000000002e+01 1.0656442593567498e+01 3.0030999999999743e+01 0 0 0
998 2 1.1074500000000002e+01 1.3498160618518829e+01 3.3213703484281346e+01 0 0 0
595 2 0.0000000000000000e+00 1.5629449137232333e+01 2.6848296515715035e+01 0 0 0
597 2 0.0000000000000000e+00 1.2787731112280996e+01 2.6848296515715035e+01 0 0 0
599 2 1.2305000000000001e+00 1.3498160618518829e+01 2.6848296515715035e+01 0 0 0
630 2 1.2305000000000001e+00 1.4919019630994494e+01 2.6848296515715035e+01 0 0 0
632 2 2.4610000000000003e+00 1.5629449137232328e+01 2.6848296515715035e+01 0 0 0
634 2 2.4610000000000003e+00 1.2787731112280996e+01 2.6848296515715035e+01 0 0 0
636 2 3.6915000000000004e+00 1.3498160618518829e+01 2.6848296515715035e+01 0 0 0
675 2 3.6915000000000004e+00 1.4919019630994494e+01 2.6848296515715035e+01 0 0 0
596 2 0.0000000000000000e+00 1.4208590124756663e+01 3.0030999999999743e+01 0 0 0
598 2 0.0000000000000000e+00 1.2787731112280996e+01 3.0030999999999743e+01 0 0 0
631 2 1.2305000000000001e+00 1.4919019630994494e+01 3.0030999999999743e+01 0 0 0
633 2 2.4610000000000003e+00 1.4208590124756663e+01 3.0030999999999743e+01 0 0 0
635 2 2.4610000000000003e+00 1.2787731112280996e+01 3.0030999999999743e+01 0 0 0
676 2 3.6915000000000004e+00 1.4919019630994494e+01 3.0030999999999743e+01 0 0 0
677 2 4.9220000000000006e+00 1.5629449137232333e+01 2.6848296515715035e+01 0 0 0
679 2 4.9220000000000006e+00 1.2787731112280996e+01 2.6848296515715035e+01 0 0 0
681 2 6.1524999999999990e+00 1.3498160618518829e+01 2.6848296515715035e+01 0 0 0
722 2 6.1524999999999990e+00 1.4919019630994494e+01 2.6848296515715035e+01 0 0 0
724 2 7.3829999999999991e+00 1.5629449137232333e+01 2.6848296515715035e+01 0 0 0
726 2 7.3829999999999991e+00 1.2787731112280996e+01 2.6848296515715035e+01 0 0 0
678 2 4.9220000000000006e+00 1.4208590124756663e+01 3.0030999999999743e+01 0 0 0
680 2 4.9220000000000006e+00 1.2787731112280996e+01 3.0030999999999743e+01 0 0 0
723 2 6.1524999999999990e+00 1.4919019630994494e+01 3.0030999999999743e+01 0 0 0
725 2 7.3830000000000009e+00 1.4208590124756663e+01 3.0030999999999743e+01 0 0 0
727 2 7.3829999999999991e+00 1.2787731112280996e+01 3.0030999999999743e+01 0 0 0
996 2 9.8440000000000012e+00 1.5629449137232328e+01 3.3213703484281346e+01 0 0 0
728 2 8.6135000000000002e+00 1.3498160618518835e+01 2.6848296515715035e+01 0 0 0
769 2 8.6135000000000002e+00 1.4919019630994494e+01 2.6848296515715035e+01 0 0 0
771 2 9.8440000000000012e+00 1.5629449137232328e+01 2.6848296515715035e+01 0 0 0
773 2 9.8440000000000012e+00 1.2787731112280996e+01 2.6848296515715035e+01 0 0 0
775 2 1.1074500000000002e+01 1.3498160618518829e+01 2.6848296515715035e+01 0 0 0
811 2 1.1074500000000002e+01 1.4919019630994494e+01 2.6848296515715035e+01 0 0 0
770 2 8.6135000000000002e+00 1.4919019630994494e+01 3.0030999999999743e+01 0 0 0
772 2 9.8440000000000012e+00 1.4208590124756663e+01 3.0030999999999743e+01 0 0 0
774 2 9.8440000000000012e+00 1.2787731112280996e+01 3.0030999999999743e+01 0 0 0
810 2 1.1074500000000002e+01 1.6339878643470161e+01 3.0030999999999743e+01 0 0 0
812 2 1.1074500000000002e+01 1.4919019630994494e+01 3.0030999999999743e+01 0 0 0
814 2 1.2304999999999998e+01 1.4208590124756658e+01 3.0030999999999743e+01 0 0 0
885 2 0.0000000000000000e+00 2.8417180249513345e+00 3.3213703484281346e+01 0 0 0
886 2 0.0000000000000000e+00 0.0000000000000000e+00 3.3213703484281346e+01 0 0 0
887 2 1.2305000000000001e+00 7.1042950623783474e-01 3.3213703484281346e+01 0 0 0
891 2 1.2305000000000001e+00 2.1312885187134998e+00 3.3213703484281346e+01 0 0 0
892 2 2.4610000000000003e+00 2.8417180249513345e+00 3.3213703484281346e+01 0 0 0
893 2 2.4610000000000003e+00 0.0000000000000000e+00 3.3213703484281346e+01 0 0 0
894 2 3.6915000000000004e+00 7.1042950623783474e-01 3.3213703484281346e+01 0 0 0
902 2 3.6914999999999996e+00 2.1312885187134998e+00 3.3213703484281346e+01 0 0 0
903 2 4.9220000000000006e+00 2.8417180249513332e+00 3.3213703484281346e+01 0 0 0
904 2 4.9220000000000006e+00 0.0000000000000000e+00 3.3213703484281346e+01 0 0 0
905 2 6.1524999999999999e+00 7.1042950623783407e-01 3.3213703484281346e+01 0 0 0
917 2 6.1524999999999999e+00 2.1312885187134989e+00 3.3213703484281346e+01 0 0 0
918 2 7.3829999999999991e+00 2.8417180249513345e+00 3.3213703484281346e+01 0 0 0
919 2 7.3829999999999991e+00 0.0000000000000000e+00 3.3213703484281346e+01 0 0 0
920 2 8.6134999999999984e+00 7.1042950623783407e-01 3.3213703484281346e+01 0 0 0
936 2 8.6134999999999984e+00 2.1312885187135002e+00 3.3213703484281346e+01 0 0 0
937 2 9.8440000000000012e+00 2.8417180249513332e+00 3.3213703484281346e+01 0 0 0
938 2 9.8440000000000012e+00 0.0000000000000000e+00 3.3213703484281346e+01 0 0 0
939 2 1.1074500000000002e+01 7.1042950623783330e-01 3.3213703484281346e+01 0 0 0
959 2 1.1074500000000002e+01 2.1312885187135002e+00 3.3213703484281346e+01 0 0 0
888 2 0.0000000000000000e+00 7.1042950623783341e+00 3.3213703484281346e+01 0 0 0
889 2 0.0000000000000000e+00 4.2625770374269996e+00 3.3213703484281346e+01 0 0 0
890 2 1.2305000000000001e+00 4.9730065436648339e+00 3.3213703484281346e+01 0 0 0
898 2 1.2305000000000001e+00 6.3938655561404980e+00 3.3213703484281346e+01 0 0 0
899 2 2.4610000000000003e+00 7.1042950623783341e+00 3.3213703484281346e+01 0 0 0
900 2 2.4610000000000003e+00 4.2625770374269996e+00 3.3213703484281346e+01 0 0 0
901 2 3.6914999999999996e+00 4.9730065436648339e+00 3.3213703484281346e+01 0 0 0
913 2 3.6914999999999996e+00 6.3938655561404980e+00 3.3213703484281346e+01 0 0 0
914 2 4.9220000000000006e+00 7.1042950623783341e+00 3.3213703484281346e+01 0 0 0
915 2 4.9220000000000006e+00 4.2625770374269978e+00 3.3213703484281346e+01 0 0 0
916 2 6.1524999999999999e+00 4.9730065436648339e+00 3.3213703484281346e+01 0 0 0
932 2 6.1524999999999999e+00 6.3938655561404980e+00 3.3213703484281346e+01 0 0 0
933 2 7.3830000000000009e+00 7.1042950623783341e+00 3.3213703484281346e+01 0 0 0
934 2 7.3829999999999991e+00 4.2625770374269996e+00 3.3213703484281346e+01 0 0 0
997 2 9.8440000000000012e+00 1.2787731112280996e+01 3.3213703484281346e+01 0 0 0
935 2 8.6135000000000002e+00 4.9730065436648339e+00 3.3213703484281346e+01 0 0 0
955 2 8.6135000000000002e+00 6.3938655561404980e+00 3.3213703484281346e+01 0 0 0
956 2 9.8440000000000012e+00 7.1042950623783341e+00 3.3213703484281346e+01 0 0 0
957 2 9.8440000000000012e+00 4.2625770374270004e+00 3.3213703484281346e+01 0 0 0
958 2 1.1074500000000002e+01 4.9730065436648339e+00 3.3213703484281346e+01 0 0 0
979 2 1.1074500000000002e+01 6.3938655561404980e+00 3.3213703484281346e+01 0 0 0
895 2 0.0000000000000000e+00 1.1366872099805333e+01 3.3213703484281346e+01 0 0 0
896 2 0.0000000000000000e+00 8.5251540748539991e+00 3.3213703484281346e+01 0 0 0
897 2 1.2305000000000001e+00 9.2355835810918343e+00 3.3213703484281346e+01 0 0 0
909 2 1.2305000000000001e+00 1.0656442593567498e+01 3.3213703484281346e+01 0 0 0
910 2 2.4610000000000003e+00 1.1366872099805333e+01 3.3213703484281346e+01 0 0 0
911 2 2.4610000000000003e+00 8.5251540748539991e+00 3.3213703484281346e+01 0 0 0
912 2 3.6915000000000004e+00 9.2355835810918343e+00 3.3213703484281346e+01 0 0 0
928 2 3.6914999999999996e+00 1.0656442593567499e+01 3.3213703484281346e+01 0 0 0
929 2 4.9220000000000006e+00 1.1366872099805333e+01 3.3213703484281346e+01 0 0 0
930 2 4.9220000000000006e+00 8.5251540748539991e+00 3.3213703484281346e+01 0 0 0
931 2 6.1524999999999999e+00 9.2355835810918343e+00 3.3213703484281346e+01 0 0 0
951 2 6.1524999999999999e+00 1.0656442593567499e+01 3.3213703484281346e+01 0 0 0
952 2 7.3829999999999991e+00 1.1366872099805333e+01 3.3213703484281346e+01 0 0 0
953 2 7.3830000000000009e+00 8.5251540748539991e+00 3.3213703484281346e+01 0 0 0
954 2 8.6134999999999984e+00 9.2355835810918343e+00 3.3213703484281346e+01 0 0 0
975 2 8.6134999999999984e+00 1.0656442593567498e+01 3.3213703484281346e+01 0 0 0