LAMMPS data file via write_data, version 16 Mar 2018, timestep = 100000

6337 atoms
2 atom types

0.0000000000000000e+00 4.9219999999999999e+01 xlo xhi
0.0000000000000000e+00 4.9019635930410494e+01 ylo yhi
2.5019677751594678e+00 5.7560032224837641e+01 zlo zhi

Masses

1 18.015
2 12.01

Atoms # atomic

5025 1 4.4079911041832505e+00 1.5656469389334853e+00 6.8118614399713957e+00 1 1 0
2040 1 5.6074628661811357e+00 3.3606151566320719e+00 5.0695846835772560e+00 0 1 0
230 1 1.9329536437153070e+00 1.6385789957121557e+00 5.5817635907933258e+00 0 0 1
4437 1 7.1884910301861034e+00 6.9374055234912513e-01 4.0524735917987833e+00 1 1 1
3541 1 3.6492778551487437e-01 1.0716407860288962e+01 9.1148325354495832e+00 1 1 0
3464 1 2.7554088416018714e+00 6.7567785394499102e+00 6.4019442906976138e+00 0 1 1
3520 1 4.9611527346570128e+00 5.0163411710949566e+00 7.3618935452915597e+00 1 0 0
3263 1 5.2539915967950854e+00 1.5094201074804072e+01 7.4741290697230225e+00 1 0 0
149 1 8.7946343443820858e+00 1.2553541208468539e+01 8.7195583154215512e+00 1 -1 0
4967 1 8.5054556755183057e+00 3.8545123928464093e+00 4.2773526552306569e+00 0 0 0
4973 1 6.8046520358095739e+00 6.9357909001805371e+00 7.0342853630847992e+00 0 0 1
3496 1 3.0586850561420992e-01 3.1050501207379906e+00 7.2152158709227754e+00 0 0 1
4908 1 8.1734382638749992e+00 7.2792472457830790e+00 1.1422732322593795e+01 0 0 0
1841 1 1.4993437619255705e+00 9.7636337109388478e+00 3.8659866161187821e+00 0 -1 0
1442 1 4.0916668922094832e+00 1.0892764120665511e+01 5.2915249567368043e+00 1 0 1
1259 1 5.9550496905896404e+00 8.9215767022003956e+00 4.9649547893037962e+00 0 1 1
504 1 8.7997263076365115e+00 1.0165993433365978e+01 4.9049319328303644e+00 2 0 0
3361 1 4.4013488219654100e+00 1.3603568457749667e+01 4.9677031296286662e+00 -1 0 0
1762 1 1.5970572750835448e+00 1.4914006025809622e+01 1.1004638455168953e+01 0 0 0
4452 1 6.3277170231667599e+00 1.3903071106564031e+01 3.0289835944774985e+00 1 0 1
2050 1 9.1009747945469677e+00 1.4611682762952039e+01 6.6128279750419612e+00 1 0 0
4517 1 8.5330634071822313e+00 1.2814252705177619e+01 4.5029736579898181e+00 1 0 1
137 1 5.4709556112212114e+00 1.3793169323251584e+00 9.6881728370398079e+00 1 0 0
6303 1 1.3557962821270759e+00 6.7540766276574464e+00 4.1333484625273025e+00 0 0 0
3180 1 6.3558091351784123e+00 1.4348222859308651e+01 9.8066985536897349e+00 0 1 1
1830 1 8.4558689844429740e+00 4.3437892792404256e+00 1.1118819781911226e+01 0 1 1
150 1 9.2898110739480888e+00 5.4826600401449461e+00 6.7039175434993536e+00 0 0 1
299 1 2.5724311782373519e+00 1.5288836560451955e+01 3.4292843164216333e+00 0 1 0
6209 1 1.2796123699778472e+00 3.6009326208076673e+00 3.3013877016658499e+00 1 1 1
2959 1 5.9564666042233441e+00 3.1616541058958125e+00 1.1403791806809526e+01 1 1 1
1974 1 4.0144998551123203e+00 4.7996053090911595e+00 1.0030622619169616e+01 1 0 0
2846 1 2.0492229086973364e+00 2.8030500564804095e+00 9.5794618306464123e+00 0 1 1
1550 1 9.2321887079652214e+00 1.9740027291644120e+00 7.5971647032942542e+00 0 1 0
5218 1 2.5571061945055340e+00 1.4969546980760267e+01 8.3016815533355999e+00 0 0 0
4743 1 2.4901172411762573e+00 8.6816847790602409e+00 8.9869600451436682e+00 1 0 1
4791 1 4.1555355805388237e+00 1.0826193454890898e+01 8.1401019409873392e+00 1 0 1
147 1 3.9748602449989163e+00 9.0894394090515576e+00 1.1457536703977823e+01 0 0 0
2031 1 7.3230781091773993e+00 8.7068206973855471e+00 9.3426990009075190e+00 0 1 0
3278 1 9.2723593888316476e+00 1.0000541031593082e+01 7.7919049829242635e+00 1 -2 1
3001 1 6.2969893064690359e+00 1.1313661507004124e+01 9.6068096698477596e+00 0 1 0
343 1 2.7603705033774950e-01 1.3335594370344721e+01 8.0234126858501433e+00 0 1 0
4853 1 4.1052943127684891e+00 3.4550930029905356e+00 2.6928994601691096e+00 0 0 1
2876 1 3.8551263460030299e-01 5.9479791863363038e+00 7.9382728956452002e+00 0 1 0
5100 1 4.3950625955741679e-01 7.1401312854828838e+00 1.0167656671738206e+01 1 0 0
3178 1 3.0985830767981852e+00 4.9093492772429623e-02 1.0454784403691701e+01 0 1 0
88 1 8.7268331007969167e+00 9.4268224402312679e+00 1.7547566141000008e+01 0 0 0
3295 1 3.7631491886266644e+00 2.9849753515300761e+00 1.5556715110764921e+01 0 0 0
3120 1 6.0693365475936090e-01 1.3906127336272977e+01 1.5022172520354374e+01 0 1 0
1825 1 9.7111143714443049e+00 2.2347820631534816e+00 1.2146548619222234e+01 0 0 0
1905 1 7.4893170489204373e+00 1.1632773515352712e+00 1.3520100694508500e+01 0 0 0
5041 1 3.4803102458626283e+00 3.7523458365823195e+00 1.3299674349667715e+01 1 0 0
4971 1 4.8669082485016268e+00 6.1008776336726980e+00 1.4443392757700670e+01 1 0 1
198 1 8.5276708131537049e+00 3.2651902818245762e+00 1.9721023680279142e+01 0 0 1
3481 1 9.3301505823098978e+00 7.7528567890903313e+00 1.5096505379089356e+01 0 0 0
4599 1 6.2256434283020834e+00 1.0814130291085700e+01 1.2418430003843614e+01 0 0 1
1815 1 6.6728474846200374e+00 7.9966997985721537e+00 1.3768564830321685e+01 0 0 0
5993 1 2.1558818495910272e+00 7.2436652886121067e+00 1.4721525768452768e+01 0 0 0
6239 1 5.8204898084237868e+00 1.3364658973306998e+01 1.8970419145108430e+01 1 0 1
1860 1 1.6923464519821335e-01 5.9281086229158921e+00 1.2557218992562099e+01 0 1 0
217 1 6.7330798865096764e+00 1.0254941533385155e+01 1.5839825851650946e+01 0 0 1
1896 1 7.2960200664340427e+00 1.3029263840870277e+01 1.5336937464928710e+01 0 0 0
1597 1 2.5035488488594915e+00 1.1873060663398494e+01 1.4919030659163814e+01 0 0 0
1991 1 4.8718122873974457e+00 1.2797160298297600e+01 1.3712025923490110e+01 1 1 1
1795 1 8.6986428025249865e+00 1.2111368176781133e+01 1.2642560793805400e+01 1 -1 1
3480 1 5.2848886634743906e+00 1.5205215723134106e+01 1.6776987217324553e+01 1 0 0
1865 1 9.1191147640531085e+00 1.4803963678816714e+01 1.3717693750953476e+01 0 0 0
3387 1 2.3014423754417757e+00 3.6285324912421917e+00 1.8379126132679360e+01 0 0 1
5226 1 5.1619551440276978e-01 9.9566623687534539e-01 1.3625199431669270e+01 1 1 0
1750 1 7.4317614113934365e+00 4.0531186626215066e+00 1.7167079889009418e+01 0 0 0
3534 1 6.2270341317782059e+00 1.9616048252854199e+00 1.5972386223076114e+01 0 0 0
1679 1 4.1255322426863010e+00 1.5467250232359502e+00 1.9788824199255181e+01 0 1 1
2 1 6.0245191296327982e-01 9.1422720325012854e+00 1.8170026990851834e+01 1 0 0
418 1 3.7509519824940423e+00 5.8624675843047829e+00 1.7298441202030833e+01 1 0 0
4828 1 8.4494840720626119e+00 1.3735527843238600e+01 1.8050975086835997e+01 0 -1 0
1791 1 7.1477525116652201e+00 8.6378179694163197e+00 1.9727704155571562e+01 0 1 1
20 1 5.9643028197711647e+00 5.8042278437736412e+00 1.9091198609442976e+01 0 1 1
5125 1 1.7432054071980587e+00 9.6815786629875529e+00 1.3355169658519525e+01 1 -1 0
3660 1 3.3171025851164506e+00 6.4072096705297108e+00 1.1813938326383758e+01 0 1 0
1785 1 2.5226304876790993e+00 1.1209599889518595e+01 1.7689073216623292e+01 1 1 0
145 1 9.6033150864897265e-01 1.3071559843740200e+01 1.9509621616596991e+01 1 0 1
4940 1 1.2320238475892737e+00 1.6073851432738003e+01 1.9651620363198408e+01 1 1 0
2008 1 5.1606840528893771e+00 1.0850281928973311e+01 1.8178175844329559e+01 1 0 0
3348 1 4.3935060535648711e+00 1.4728908172805099e+01 1.1935566486174713e+01 0 0 0
2082 1 4.6037430397934115e-01 3.2749413348632492e+00 1.1787865522212325e+01 1 0 0
3412 1 9.7924077813865971e+00 4.7043405613432006e+00 1.5913464273208419e+01 1 0 0
208 1 9.6315040469952464e+00 7.0169564259268513e-01 2.0353306777719776e+01 0 1 0
5002 1 2.6502236055547983e+00 9.4201852397678351e-02 1.5891428127291057e+01 0 1 0
3545 1 8.8928334547813197e+00 6.3022790288925528e+00 2.0575477543747613e+01 0 0 0
103 1 7.0298969003048590e+00 1.2661770073544163e+01 2.4372154359322419e+01 -1 0 1
3226 1 5.0899456627909654e+00 1.7188826003250273e+00 2.4348948396661832e+01 0 0 1
95 1 4.6197609080495665e+00 5.0923827057355533e+00 2.1301872150601195e+01 0 0 0
3430 1 6.1825391428651164e+00 2.4406698577472810e+00 2.1478873800727911e+01 0 0 0
726 2 8.6135000000000002e+00 1.3498160618518835e+01 2.6860376133463053e+01 0 0 0
5263 1 7.7342399487578399e+00 3.0246091785306701e+00 2.4164770548926711e+01 0 1 1
3267 1 5.5220399763963943e+00 5.4116834891391923e+00 2.3706458007146665e+01 1 0 0
138 1 8.4510164410592310e+00 9.5577757910564216e+00 2.2273867081225053e+01 0 1 0
720 2 6.1524999999999990e+00 1.4919019630994494e+01 2.6860376133463053e+01 0 0 0
675 2 4.9220000000000006e+00 1.5629449137232333e+01 2.6860376133463053e+01 0 0 0
472 1 9.6799003220374935e+00 1.4499900303683230e+01 2.3948261977299662e+01 0 0 0
67 1 2.8547006503079113e+00 3.9677779592429672e+00 2.4415165109272014e+01 1 0 0
3460 1 1.6842478067666096e+00 9.9737495283826032e+00 2.2731169024597769e+01 1 0 0
3194 1 7.2747499099432424e+00 7.7245203065157773e+00 2.4257939054742835e+01 1 1 1
3570 1 8.6720125527394263e+00 5.4629863590431711e+00 2.3257698505924495e+01 1 1 0
3566 1 3.1872478392102654e+00 1.6300248612718505e+01 2.1463564195502340e+01 1 0 0
1752 1 2.2220264621791421e+00 6.9423766811621075e+00 2.4687405426453743e+01 1 0 0
722 2 7.3829999999999991e+00 1.5629449137232333e+01 2.6860376133463053e+01 0 0 0
408 1 9.5097100639219754e+00 9.6872170664471435e-01 2.3904766262140768e+01 0 0 0
3532 1 4.1562123509422646e+00 7.8494898135954756e+00 2.1698435297874543e+01 0 1 0
298 1 4.6348813279768777e+00 8.6107054275360699e+00 2.4282846724671657e+01 0 0 1
767 2 8.6135000000000002e+00 1.4919019630994494e+01 2.6860376133463053e+01 0 0 0
3174 1 1.6814512267735833e+00 7.3133624037754752e-01 2.1104548513076796e+01 0 0 0
160 1 3.3456991317797726e+00 1.3073629517998587e+01 2.1186135521610531e+01 2 0 0
417 1 7.3850795180869522e-01 1.4178340030341690e+01 2.4137506969506511e+01 0 0 0
4799 1 2.3618763342595752e+00 6.7126683851236757e-01 2.3984772044982442e+01 0 1 0
5203 1 4.1675171795289785e+00 1.1377261165577920e+01 2.3774383851427807e+01 0 0 0
5112 1 3.1346687520568652e+00 1.5632146674849452e+01 2.4089920107601060e+01 1 0 1
3539 1 5.8763280548743317e+00 1.5356525409605698e+01 2.4237946112148627e+01 0 0 0
554 2 0.0000000000000000e+00 2.8417180249513345e+00 2.6860376133463053e+01 0 0 0
556 2 0.0000000000000000e+00 0.0000000000000000e+00 2.6860376133463053e+01 0 0 0
558 2 1.2305000000000001e+00 7.1042950623783474e-01 2.6860376133463053e+01 0 0 0
565 2 1.2305000000000001e+00 2.1312885187134998e+00 2.6860376133463053e+01 0 0 0
567 2 2.4610000000000003e+00 2.8417180249513345e+00 2.6860376133463053e+01 0 0 0
569 2 2.4610000000000003e+00 0.0000000000000000e+00 2.6860376133463053e+01 0 0 0
571 2 3.6915000000000004e+00 7.1042950623783474e-01 2.6860376133463053e+01 0 0 0
586 2 3.6914999999999996e+00 2.1312885187134998e+00 2.6860376133463053e+01 0 0 0
588 2 4.9220000000000006e+00 2.8417180249513332e+00 2.6860376133463053e+01 0 0 0
590 2 4.9220000000000006e+00 0.0000000000000000e+00 2.6860376133463053e+01 0 0 0
592 2 6.1524999999999999e+00 7.1042950623783407e-01 2.6860376133463053e+01 0 0 0
615 2 6.1524999999999999e+00 2.1312885187134989e+00 2.6860376133463053e+01 0 0 0
617 2 7.3829999999999991e+00 2.8417180249513345e+00 2.6860376133463053e+01 0 0 0
619 2 7.3829999999999991e+00 0.0000000000000000e+00 2.6860376133463053e+01 0 0 0
621 2 8.6134999999999984e+00 7.1042950623783407e-01 2.6860376133463053e+01 0 0 0
652 2 8.6134999999999984e+00 2.1312885187135002e+00 2.6860376133463053e+01 0 0 0
561 2 0.0000000000000000e+00 4.2625770374269996e+00 2.6860376133463053e+01 0 0 0
563 2 1.2305000000000001e+00 4.9730065436648339e+00 2.6860376133463053e+01 0 0 0
578 2 1.2305000000000001e+00 6.3938655561404980e+00 2.6860376133463053e+01 0 0 0
582 2 2.4610000000000003e+00 4.2625770374269996e+00 2.6860376133463053e+01 0 0 0
584 2 3.6914999999999996e+00 4.9730065436648339e+00 2.6860376133463053e+01 0 0 0
607 2 3.6914999999999996e+00 6.3938655561404980e+00 2.6860376133463053e+01 0 0 0
559 2 0.0000000000000000e+00 7.1042950623783341e+00 2.6860376133463053e+01 0 0 0
580 2 2.4610000000000003e+00 7.1042950623783341e+00 2.6860376133463053e+01 0 0 0
611 2 4.9220000000000006e+00 4.2625770374269978e+00 2.6860376133463053e+01 0 0 0
613 2 6.1524999999999999e+00 4.9730065436648339e+00 2.6860376133463053e+01 0 0 0
644 2 6.1524999999999999e+00 6.3938655561404980e+00 2.6860376133463053e+01 0 0 0
648 2 7.3829999999999991e+00 4.2625770374269996e+00 2.6860376133463053e+01 0 0 0
650 2 8.6135000000000002e+00 4.9730065436648339e+00 2.6860376133463053e+01 0 0 0
689 2 8.6135000000000002e+00 6.3938655561404980e+00 2.6860376133463053e+01 0 0 0
609 2 4.9220000000000006e+00 7.1042950623783341e+00 2.6860376133463053e+01 0 0 0
646 2 7.3830000000000009e+00 7.1042950623783341e+00 2.6860376133463053e+01 0 0 0
574 2 0.0000000000000000e+00 8.5251540748539991e+00 2.6860376133463053e+01 0 0 0
576 2 1.2305000000000001e+00 9.2355835810918343e+00 2.6860376133463053e+01 0 0 0
603 2 2.4610000000000003e+00 8.5251540748539991e+00 2.6860376133463053e+01 0 0 0
605 2 3.6915000000000004e+00 9.2355835810918343e+00 2.6860376133463053e+01 0 0 0
572 2 0.0000000000000000e+00 1.1366872099805333e+01 2.6860376133463053e+01 0 0 0
599 2 1.2305000000000001e+00 1.0656442593567498e+01 2.6860376133463053e+01 0 0 0
601 2 2.4610000000000003e+00 1.1366872099805333e+01 2.6860376133463053e+01 0 0 0
636 2 3.6914999999999996e+00 1.0656442593567499e+01 2.6860376133463053e+01 0 0 0
640 2 4.9220000000000006e+00 8.5251540748539991e+00 2.6860376133463053e+01 0 0 0
642 2 6.1524999999999999e+00 9.2355835810918343e+00 2.6860376133463053e+01 0 0 0
685 2 7.3830000000000009e+00 8.5251540748539991e+00 2.6860376133463053e+01 0 0 0
687 2 8.6134999999999984e+00 9.2355835810918343e+00 2.6860376133463053e+01 0 0 0
638 2 4.9220000000000006e+00 1.1366872099805333e+01 2.6860376133463053e+01 0 0 0
681 2 6.1524999999999999e+00 1.0656442593567499e+01 2.6860376133463053e+01 0 0 0
683 2 7.3829999999999991e+00 1.1366872099805333e+01 2.6860376133463053e+01 0 0 0
728 2 8.6134999999999984e+00 1.0656442593567498e+01 2.6860376133463053e+01 0 0 0
673 2 3.6915000000000004e+00 1.4919019630994494e+01 2.6860376133463053e+01 0 0 0
595 2 0.0000000000000000e+00 1.2787731112280996e+01 2.6860376133463053e+01 0 0 0
597 2 1.2305000000000001e+00 1.3498160618518829e+01 2.6860376133463053e+01 0 0 0
632 2 2.4610000000000003e+00 1.2787731112280996e+01 2.6860376133463053e+01 0 0 0
634 2 3.6915000000000004e+00 1.3498160618518829e+01 2.6860376133463053e+01 0 0 0
630 2 2.4610000000000003e+00 1.5629449137232328e+01 2.6860376133463053e+01 0 0 0
628 2 1.2305000000000001e+00 1.4919019630994494e+01 2.6860376133463053e+01 0 0 0
593 2 0.0000000000000000e+00 1.5629449137232333e+01 2.6860376133463053e+01 0 0 0
679 2 6.1524999999999990e+00 1.3498160618518829e+01 2.6860376133463053e+01 0 0 0
724 2 7.3829999999999991e+00 1.2787731112280996e+01 2.6860376133463053e+01 0 0 0
677 2 4.9220000000000006e+00 1.2787731112280996e+01 2.6860376133463053e+01 0 0 0
3315 1 7.6289491616402492e+00 1.2441813561606125e+01 2.1455709467602208e+01 0 0 0
1577 1 5.7922406495375283e+00 1.5147619986922741e+01 2.1264468338648854e+01 0 -1 0
3554 1 9.4397060862100854e+00 1.4531557162650824e+01 2.1353296412012423e+01 1 -1 0
6207 1 1.9759147814547866e+00 3.9133917141497299e+00 2.1552683211280375e+01 1 1 1
57 1 9.8662011326892923e-02 2.7419005848025368e+00 2.4443916522595089e+01 0 0 0
5138 1 5.0636445346759142e+00 1.0670855243914165e+01 2.1057252860565111e+01 0 1 0
5078 1 9.8147000611693276e+00 1.1377617029877863e+01 2.4271166832595522e+01 1 0 0
4784 1 1.0948640317218277e+00 7.7733782909032554e+00 2.0857120606726390e+01 0 0 0
555 2 0.0000000000000000e+00 1.4208590124756650e+00 3.0030999999998588e+01 0 0 0
557 2 0.0000000000000000e+00 0.0000000000000000e+00 3.0030999999998588e+01 0 0 0
566 2 1.2305000000000001e+00 2.1312885187134998e+00 3.0030999999998588e+01 0 0 0
568 2 2.4610000000000003e+00 1.4208590124756650e+00 3.0030999999998588e+01 0 0 0
570 2 2.4610000000000003e+00 0.0000000000000000e+00 3.0030999999998588e+01 0 0 0
587 2 3.6914999999999996e+00 2.1312885187134998e+00 3.0030999999998588e+01 0 0 0
564 2 1.2305000000000001e+00 3.5521475311891644e+00 3.0030999999998588e+01 0 0 0
585 2 3.6914999999999996e+00 3.5521475311891644e+00 3.0030999999998588e+01 0 0 0
883 2 0.0000000000000000e+00 2.8417180249513345e+00 3.3201623866536480e+01 0 0 0
884 2 0.0000000000000000e+00 0.0000000000000000e+00 3.3201623866536480e+01 0 0 0
885 2 1.2305000000000001e+00 7.1042950623783474e-01 3.3201623866536480e+01 0 0 0
889 2 1.2305000000000001e+00 2.1312885187134998e+00 3.3201623866536480e+01 0 0 0
890 2 2.4610000000000003e+00 2.8417180249513345e+00 3.3201623866536480e+01 0 0 0
891 2 2.4610000000000003e+00 0.0000000000000000e+00 3.3201623866536480e+01 0 0 0
892 2 3.6915000000000004e+00 7.1042950623783474e-01 3.3201623866536480e+01 0 0 0
900 2 3.6914999999999996e+00 2.1312885187134998e+00 3.3201623866536480e+01 0 0 0
589 2 4.9220000000000006e+00 1.4208590124756650e+00 3.0030999999998588e+01 0 0 0
591 2 4.9220000000000006e+00 0.0000000000000000e+00 3.0030999999998588e+01 0 0 0
616 2 6.1524999999999999e+00 2.1312885187134989e+00 3.0030999999998588e+01 0 0 0
618 2 7.3829999999999991e+00 1.4208590124756659e+00 3.0030999999998588e+01 0 0 0
620 2 7.3829999999999991e+00 0.0000000000000000e+00 3.0030999999998588e+01 0 0 0
653 2 8.6134999999999984e+00 2.1312885187135002e+00 3.0030999999998588e+01 0 0 0
614 2 6.1524999999999999e+00 3.5521475311891644e+00 3.0030999999998588e+01 0 0 0
651 2 8.6134999999999984e+00 3.5521475311891657e+00 3.0030999999998588e+01 0 0 0
901 2 4.9220000000000006e+00 2.8417180249513332e+00 3.3201623866536480e+01 0 0 0
902 2 4.9220000000000006e+00 0.0000000000000000e+00 3.3201623866536480e+01 0 0 0
903 2 6.1524999999999999e+00 7.1042950623783407e-01 3.3201623866536480e+01 0 0 0
915 2 6.1524999999999999e+00 2.1312885187134989e+00 3.3201623866536480e+01 0 0 0
916 2 7.3829999999999991e+00 2.8417180249513345e+00 3.3201623866536480e+01 0 0 0
917 2 7.3829999999999991e+00 0.0000000000000000e+00 3.3201623866536480e+01 0 0 0
918 2 8.6134999999999984e+00 7.1042950623783407e-01 3.3201623866536480e+01 0 0 0
934 2 8.6134999999999984e+00 2.1312885187135002e+00 3.3201623866536480e+01 0 0 0
560 2 0.0000000000000000e+00 5.6834360499026637e+00 3.0030999999998588e+01 0 0 0
562 2 0.0000000000000000e+00 4.2625770374269996e+00 3.0030999999998588e+01 0 0 0
579 2 1.2305000000000001e+00 6.3938655561404980e+00 3.0030999999998588e+01 0 0 0
581 2 2.4610000000000003e+00 5.6834360499026637e+00 3.0030999999998588e+01 0 0 0
583 2 2.4610000000000003e+00 4.2625770374269996e+00 3.0030999999998588e+01 0 0 0
608 2 3.6914999999999996e+00 6.3938655561404980e+00 3.0030999999998588e+01 0 0 0
577 2 1.2305000000000001e+00 7.8147245686161639e+00 3.0030999999998588e+01 0 0 0
606 2 3.6914999999999996e+00 7.8147245686161639e+00 3.0030999999998588e+01 0 0 0
887 2 0.0000000000000000e+00 4.2625770374269996e+00 3.3201623866536480e+01 0 0 0
888 2 1.2305000000000001e+00 4.9730065436648339e+00 3.3201623866536480e+01 0 0 0
896 2 1.2305000000000001e+00 6.3938655561404980e+00 3.3201623866536480e+01 0 0 0
898 2 2.4610000000000003e+00 4.2625770374269996e+00 3.3201623866536480e+01 0 0 0
899 2 3.6914999999999996e+00 4.9730065436648339e+00 3.3201623866536480e+01 0 0 0
911 2 3.6914999999999996e+00 6.3938655561404980e+00 3.3201623866536480e+01 0 0 0
886 2 0.0000000000000000e+00 7.1042950623783341e+00 3.3201623866536480e+01 0 0 0
897 2 2.4610000000000003e+00 7.1042950623783341e+00 3.3201623866536480e+01 0 0 0
610 2 4.9220000000000006e+00 5.6834360499026637e+00 3.0030999999998588e+01 0 0 0
612 2 4.9220000000000006e+00 4.2625770374269978e+00 3.0030999999998588e+01 0 0 0
645 2 6.1524999999999999e+00 6.3938655561404980e+00 3.0030999999998588e+01 0 0 0
647 2 7.3829999999999991e+00 5.6834360499026637e+00 3.0030999999998588e+01 0 0 0
649 2 7.3829999999999991e+00 4.2625770374269996e+00 3.0030999999998588e+01 0 0 0
690 2 8.6135000000000002e+00 6.3938655561404980e+00 3.0030999999998588e+01 0 0 0
643 2 6.1524999999999999e+00 7.8147245686161639e+00 3.0030999999998588e+01 0 0 0
688 2 8.6135000000000002e+00 7.8147245686161639e+00 3.0030999999998588e+01 0 0 0
913 2 4.9220000000000006e+00 4.2625770374269978e+00 3.3201623866536480e+01 0 0 0
914 2 6.1524999999999999e+00 4.9730065436648339e+00 3.3201623866536480e+01 0 0 0
930 2 6.1524999999999999e+00 6.3938655561404980e+00 3.3201623866536480e+01 0 0 0
932 2 7.3829999999999991e+00 4.2625770374269996e+00 3.3201623866536480e+01 0 0 0
933 2 8.6135000000000002e+00 4.9730065436648339e+00 3.3201623866536480e+01 0 0 0
953 2 8.6135000000000002e+00 6.3938655561404980e+00 3.3201623866536480e+01 0 0 0
912 2 4.9220000000000006e+00 7.1042950623783341e+00 3.3201623866536480e+01 0 0 0
931 2 7.3830000000000009e+00 7.1042950623783341e+00 3.3201623866536480e+01 0 0 0
573 2 0.0000000000000000e+00 9.9460130873296642e+00 3.0030999999998588e+01 0 0 0
575 2 0.0000000000000000e+00 8.5251540748539991e+00 3.0030999999998588e+01 0 0 0
602 2 2.4610000000000003e+00 9.9460130873296642e+00 3.0030999999998588e+01 0 0 0
604 2 2.4610000000000003e+00 8.5251540748539991e+00 3.0030999999998588e+01 0 0 0
598 2 1.2305000000000001e+00 1.2077301606043163e+01 3.0030999999998588e+01 0 0 0
600 2 1.2305000000000001e+00 1.0656442593567498e+01 3.0030999999998588e+01 0 0 0
635 2 3.6914999999999996e+00 1.2077301606043163e+01 3.0030999999998588e+01 0 0 0
637 2 3.6914999999999996e+00 1.0656442593567499e+01 3.0030999999998588e+01 0 0 0
894 2 0.0000000000000000e+00 8.5251540748539991e+00 3.3201623866536480e+01 0 0 0
895 2 1.2305000000000001e+00 9.2355835810918343e+00 3.3201623866536480e+01 0 0 0
909 2 2.4610000000000003e+00 8.5251540748539991e+00 3.3201623866536480e+01 0 0 0
910 2 3.6915000000000004e+00 9.2355835810918343e+00 3.3201623866536480e+01 0 0 0
893 2 0.0000000000000000e+00 1.1366872099805333e+01 3.3201623866536480e+01 0 0 0
907 2 1.2305000000000001e+00 1.0656442593567498e+01 3.3201623866536480e+01 0 0 0
908 2 2.4610000000000003e+00 1.1366872099805333e+01 3.3201623866536480e+01 0 0 0
926 2 3.6914999999999996e+00 1.0656442593567499e+01 3.3201623866536480e+01 0 0 0
639 2 4.9220000000000006e+00 9.9460130873296642e+00 3.0030999999998588e+01 0 0 0
641 2 4.9220000000000006e+00 8.5251540748539991e+00 3.0030999999998588e+01 0 0 0
684 2 7.3830000000000009e+00 9.9460130873296642e+00 3.0030999999998588e+01 0 0 0
686 2 7.3830000000000009e+00 8.5251540748539991e+00 3.0030999999998588e+01 0 0 0
680 2 6.1524999999999999e+00 1.2077301606043163e+01 3.0030999999998588e+01 0 0 0
682 2 6.1524999999999999e+00 1.0656442593567499e+01 3.0030999999998588e+01 0 0 0
727 2 8.6135000000000002e+00 1.2077301606043163e+01 3.0030999999998588e+01 0 0 0
729 2 8.6134999999999984e+00 1.0656442593567498e+01 3.0030999999998588e+01 0 0 0
928 2 4.9220000000000006e+00 8.5251540748539991e+00 3.3201623866536480e+01 0 0 0
929 2 6.1524999999999999e+00 9.2355835810918343e+00 3.3201623866536480e+01 0 0 0
951 2 7.3830000000000009e+00 8.5251540748539991e+00 3.3201623866536480e+01 0 0 0
952 2 8.6134999999999984e+00 9.2355835810918343e+00 3.3201623866536480e+01 0 0 0
927 2 4.9220000000000006e+00 1.1366872099805333e+01 3.3201623866536480e+01 0 0 0
949 2 6.1524999999999999e+00 1.0656442593567499e+01 3.3201623866536480e+01 0 0 0
950 2 7.3829999999999991e+00 1.1366872099805333e+01 3.3201623866536480e+01 0 0 0
973 2 8.6134999999999984e+00 1.0656442593567498e+01 3.3201623866536480e+01 0 0 0
596 2 0.0000000000000000e+00 1.2787731112280996e+01 3.0030999999998588e+01 0 0 0
633 2 2.4610000000000003e+00 1.2787731112280996e+01 3.0030999999998588e+01 0 0 0
594 2 0.0000000000000000e+00 1.4208590124756663e+01 3.0030999999998588e+01 0 0 0
629 2 1.2305000000000001e+00 1.4919019630994494e+01 3.0030999999998588e+01 0 0 0
631 2 2.4610000000000003e+00 1.4208590124756663e+01 3.0030999999998588e+01 0 0 0
674 2 3.6915000000000004e+00 1.4919019630994494e+01 3.0030999999998588e+01 0 0 0
905 2 0.0000000000000000e+00 1.2787731112280996e+01 3.3201623866536480e+01 0 0 0
906 2 1.2305000000000001e+00 1.3498160618518829e+01 3.3201623866536480e+01 0 0 0
924 2 2.4610000000000003e+00 1.2787731112280996e+01 3.3201623866536480e+01 0 0 0
925 2 3.6915000000000004e+00 1.3498160618518829e+01 3.3201623866536480e+01 0 0 0
904 2 0.0000000000000000e+00 1.5629449137232333e+01 3.3201623866536480e+01 0 0 0
922 2 1.2305000000000001e+00 1.4919019630994494e+01 3.3201623866536480e+01 0 0 0
923 2 2.4610000000000003e+00 1.5629449137232328e+01 3.3201623866536480e+01 0 0 0
945 2 3.6915000000000004e+00 1.4919019630994494e+01 3.3201623866536480e+01 0 0 0
678 2 4.9220000000000006e+00 1.2787731112280996e+01 3.0030999999998588e+01 0 0 0
725 2 7.3829999999999991e+00 1.2787731112280996e+01 3.0030999999998588e+01 0 0 0
676 2 4.9220000000000006e+00 1.4208590124756663e+01 3.0030999999998588e+01 0 0 0
721 2 6.1524999999999990e+00 1.4919019630994494e+01 3.0030999999998588e+01 0 0 0
723 2 7.3830000000000009e+00 1.4208590124756663e+01 3.0030999999998588e+01 0 0 0
768 2 8.6135000000000002e+00 1.4919019630994494e+01 3.0030999999998588e+01 0 0 0
947 2 4.9220000000000006e+00 1.2787731112280996e+01 3.3201623866536480e+01 0 0 0
948 2 6.1524999999999990e+00 1.3498160618518829e+01 3.3201623866536480e+01 0 0 0
971 2 7.3829999999999991e+00 1.2787731112280996e+01 3.3201623866536480e+01 0 0 0
972 2 8.6135000000000002e+00 1.3498160618518835e+01 3.3201623866536480e+01 0 0 0
946 2 4.9220000000000006e+00 1.5629449137232333e+01 3.3201623866536480e+01 0 0 0
969 2 6.1524999999999990e+00 1.4919019630994494e+01 3.3201623866536480e+01 0 0 0
970 2 7.3829999999999991e+00 1.5629449137232333e+01 3.3201623866536480e+01 0 0 0
993 2 8.6135000000000002e+00 1.4919019630994494e+01 3.3201623866536480e+01 0 0 0
1373 1 3.7678116571013214e+00 7.8627155492118372e-01 3.5795243206367488e+01 0 1 0
1603 1 2.9443057993156061e+00 8.4645396662170391e+00 3.7856918268194974e+01 1 0 0
1606 1 1.1016507386159118e+00 1.1040035608320675e+00 3.6291422458872191e+01 0 0 -1
4494 1 1.7966768325416429e+00 1.4557571796014487e+01 3.5979033558361124e+01 1 0 -1
3002 1 7.8336078216543861e+00 4.0207257959962622e-01 3.6210867923533669e+01 0 0 0
6008 1 5.1831048895520597e+00 1.1307784971660606e+01 3.8731648015433450e+01 0 0 0
5237 1 8.5587101440337197e+00 3.5154184519255045e+00 3.8448817725139861e+01 1 1 -1
6111 1 5.6961426110204103e+00 1.2146186704980366e+00 3.8017436291057763e+01 1 1 0
541 1 8.3548711752651741e+00 3.0142967126349967e+00 3.5704301851427772e+01 0 1 0
1350 1 5.0085625486691878e+00 6.2000297556111015e+00 3.9142350390004907e+01 0 1 0
2843 1 2.9922101682316882e+00 3.8735464339361103e+00 3.5707727207119916e+01 0 0 0
1921 1 9.2230719572710971e+00 8.4276897561897819e+00 3.6502410114418637e+01 0 1 -1
1994 1 6.0694475116512123e+00 4.7566372461682098e+00 3.5740549235970263e+01 1 1 0
1670 1 2.5386309329447276e+00 1.1954425412179969e+01 3.5851927850813269e+01 1 1 -1
479 1 1.8398889540519987e+00 6.5769820192821671e+00 3.5964966641046360e+01 0 0 -1
5084 1 4.6800204089258095e+00 8.8938099167276938e+00 3.5709965347580678e+01 1 1 0
4936 1 4.3978416840963535e+00 3.5337773641904260e+00 3.8049982581109845e+01 1 1 -1
3146 1 1.6978750731571148e+00 2.1911645774150776e+00 3.8848449631160378e+01 0 0 0
1930 1 6.5447562327405535e+00 7.2577846153287444e+00 3.6693121006998268e+01 0 -1 -1
6269 1 7.6041217802031174e+00 1.5405997512271425e+01 3.8285615619166521e+01 0 1 0
5020 1 5.3745425682427435e+00 1.1747503068571149e+01 3.6019453931994406e+01 1 0 -1
3155 1 1.4505159679016104e+00 1.4372742661083656e+01 3.8737256128790364e+01 0 1 0
457 1 2.0623232401792513e+00 1.0943568380329836e+01 3.8213808535970557e+01 0 1 -1
3093 1 9.7495199454861012e+00 1.4828700055067554e+01 3.6261386724647721e+01 1 1 0
5253 1 7.7863173270101473e+00 1.2836500098447946e+01 3.9187338671256470e+01 1 0 0
222 1 5.2510310932658300e+00 1.5447052570238903e+01 4.0026532229637127e+01 0 0 -1
471 1 5.9480099599222571e+00 1.8908933908861119e+00 4.2154238069441092e+01 0 0 0
4788 1 3.7134015223855124e+00 6.7974052297503640e-01 4.0459994070959937e+01 1 1 0
4769 1 1.9036613568342480e+00 1.3565370755305193e+00 4.3248385993437950e+01 0 0 0
2143 1 9.5652584414117914e-01 6.6468675864929763e+00 4.7143536914686749e+01 0 0 0
4603 1 4.6545862708866936e+00 9.6745118971135735e+00 4.7051280613571578e+01 1 1 0
1418 1 3.2269880471902797e+00 1.6195063998731811e+01 4.6701096103324275e+01 0 0 0
6201 1 2.1836490297121727e+00 3.7709828770253733e+00 4.1555235013684907e+01 0 0 -1
2993 1 2.5825524834482083e-01 1.0506698360667148e+01 4.1380006792560039e+01 0 0 -1
5968 1 6.9287404436444175e+00 3.5942197267904370e+00 4.8114317246808426e+01 1 1 0
1968 1 4.7732643226657521e+00 4.6011090122775951e+00 4.1450153140996093e+01 0 1 -1
3367 1 8.1055745163239692e+00 5.6431537175153297e+00 4.2246160945016669e+01 0 0 -1
6050 1 3.6956565362834501e+00 1.3168827547177928e+01 4.0222270470470036e+01 0 0 0
2116 1 2.9685008229049621e+00 9.7732786853439748e+00 4.1625452805941379e+01 0 1 0
1318 1 7.2572189929524500e+00 8.4629280654119210e+00 4.2462269716289967e+01 1 0 -1
5316 1 2.3630981566286109e+00 7.3407356248820337e+00 4.3531743230464002e+01 1 0 0
6023 1 2.5562964833960644e-02 2.8322775430209370e+00 4.7694640035645847e+01 1 1 -1
3081 1 5.3007103295047635e+00 8.9628860353727582e+00 4.0389154081779580e+01 0 0 -1
1578 1 5.7214019105296543e-01 5.8549130015488107e+00 4.1992790373846702e+01 1 0 0
3687 1 9.7264577400175545e-01 1.2983457373117748e+01 4.3308092415482832e+01 0 0 0
3372 1 7.4624931070704497e+00 1.5127664730519646e+01 4.6409356327777346e+01 0 0 -1
3745 1 7.7160651973435765e+00 1.3723877226898606e+00 4.0143058981202458e+01 0 1 0
6243 1 8.1072936687265109e+00 1.4375945760372934e+01 4.3261664009827200e+01 0 0 0
6293 1 9.6483067635838857e+00 7.9186864878468191e+00 3.9298643237600857e+01 1 1 0
1248 1 2.1931131262348553e+00 2.3053477421509689e+00 4.5950015362651598e+01 1 0 0
2872 1 7.6865432574166013e+00 2.1030866943664144e+00 4.6054444068257922e+01 0 0 -1
4432 1 6.8142559569074601e+00 3.6475693393747561e+00 4.4244766295813136e+01 1 1 0
1835 1 9.5979737047897871e+00 1.3899386658528272e+01 4.7568316887046194e+01 0 0 -1
3092 1 2.9163238821335837e+00 5.2106717436666230e+00 4.6076780899126859e+01 0 1 0
2147 1 3.5855633577242436e+00 6.5604103861717034e-01 4.7583547087777617e+01 1 1 0
4725 1 5.0032534092840351e+00 5.7832912092997599e+00 4.4062923318308037e+01 0 1 0