LAMMPS data file via write_data, version 16 Mar 2018, timestep = 6000000

6337 atoms
2 atom types

0.0000000000000000e+00 4.9219999999999999e+01 xlo xhi
0.0000000000000000e+00 4.9019635930410494e+01 ylo yhi
1.8409783181296575e+00 5.8221021681871626e+01 zlo zhi

Masses

1 18.015
2 12.01

Atoms # atomic

1882 1 2.3334041276943291e+00 1.4681306366997784e+00 4.4966349638114451e+00 -1 -1 0
5166 1 3.6951698841747045e+00 3.5276798866976229e+00 5.8326089848322784e+00 4 -2 1
3510 1 1.8537068584855743e-01 1.0946065079347841e+01 8.3291648826957765e+00 2 1 0
1897 1 7.1524265287455195e+00 8.8871382690854372e-01 5.9492214768201377e+00 -1 -2 0
6293 1 6.4532998699178759e+00 3.4837057625481003e+00 5.5123037701019761e+00 0 -2 1
3072 1 3.1034398138359793e+00 1.5345018328493419e+01 1.9631587797006946e+00 4 1 1
4696 1 2.4786656572828702e+00 6.2420101078139645e+00 2.2614215016045041e+00 4 3 0
3423 1 2.5073495933818908e+00 5.9995487080253751e+00 4.9943837229144172e+00 1 -1 0
5269 1 7.6035941166505276e+00 6.0522976515955085e+00 5.8736976436814921e+00 -4 3 1
1866 1 6.3628232223631027e+00 8.0800004075459011e+00 4.7541395936547799e+00 -1 0 0
6289 1 3.4183901795661997e-01 1.1002827480110794e+01 5.7735458524043253e+00 2 1 1
4523 1 8.9063694313490482e-01 1.5719736737830949e+01 5.8687786337366621e+00 0 4 1
479 1 3.8842773160428306e+00 8.4392970703110048e+00 5.7330917323485391e+00 -4 1 0
6122 1 2.9451908932738657e+00 1.0623139607162656e+01 4.5382634465823299e+00 2 -1 1
3637 1 7.7325873114514510e+00 1.0246860805532027e+01 5.6753858112112123e+00 0 1 1
3683 1 1.7541175665307990e-01 1.5561437704941190e+01 8.7252307295488905e+00 0 1 1
3688 1 5.9957732912889856e+00 3.6299655540930860e+00 2.6904895310769517e+00 3 1 1
310 1 3.3113315478240519e+00 1.5485297895872582e+01 4.6688519021999522e+00 -1 0 0
2828 1 3.7496097638259611e+00 1.2989826353759151e+01 5.6216657745457130e+00 0 0 1
1499 1 6.5961719198559887e+00 1.2580585175522275e+01 4.8124424767853826e+00 1 -1 0
3191 1 7.8178901432443482e+00 1.4943478510204253e+01 5.5795453837013831e+00 -4 1 1
4703 1 7.8814505771705345e+00 1.4964070018717800e+01 8.4762813811986035e+00 2 3 1
4569 1 2.4050645800088555e+00 1.6957614134034276e+00 9.6436998620686722e+00 -1 2 1
6304 1 7.2915188520217491e+00 1.2261984158834587e+00 8.5690235687373679e+00 0 0 1
1704 1 6.0873759704087052e+00 3.5391051727244136e+00 9.6463080577196401e+00 1 0 0
1920 1 3.4514857952461822e+00 3.8547010287674119e+00 8.7301439960976328e+00 3 3 0
2832 1 2.3448422602095613e+00 6.2422742429765217e+00 9.7977254335100632e+00 2 1 1
3430 1 6.4058320405037099e+00 1.2847286656773644e+01 9.1619543220139033e+00 0 1 0
1502 1 6.2337614577153744e+00 8.1619616251560938e+00 9.6311300781572573e+00 1 -2 0
3114 1 7.5677221963998171e+00 5.8534574992720891e+00 8.8406696123053692e+00 -1 0 0
5191 1 2.6235915347027867e+00 1.0765816886573123e+01 9.4776225334149800e+00 -1 -1 0
229 1 3.7890652868610872e+00 8.3902892976164622e+00 8.5230941095803434e+00 -2 -1 0
110 1 7.5802884490227411e+00 1.0627521374777764e+01 8.4105710823440436e+00 -1 -1 0
3747 1 2.5901887494134872e+00 1.5139955025582198e+01 9.7425479567419586e+00 2 -2 1
247 1 3.7511642241253877e+00 1.2936179104921562e+01 8.2952364885323284e+00 1 2 1
2882 1 6.5925275274955171e+00 8.1662718948578572e+00 2.1365005429378434e+00 0 0 1
2089 1 3.4411177483974986e-02 6.4260344547797974e+00 5.7024887086355527e+00 0 1 1
5123 1 6.5813592351249808e+00 1.2680330520146141e+01 2.0413766832157823e+00 -1 0 0
4527 1 9.6115110136763828e+00 8.6721607056368089e-01 4.9936682458050594e+00 -1 2 1
3154 1 9.8408330363163934e+00 1.2358695510902713e+00 9.5964517216705119e+00 0 -1 0
4746 1 2.9407877543492584e+00 1.0690946485500744e+01 1.8829617553485594e+00 0 -2 0
3644 1 9.8317652451213196e+00 8.9265121317438989e-01 2.2478648156960124e+00 5 2 0
347 1 2.3847376069309409e+00 1.7450606047842590e+00 1.2319416315884721e+01 -3 1 0
3491 1 4.8821507599916316e+00 1.4892574291045531e+00 1.3235994638649116e+01 2 -1 1
4559 1 1.4498894791586241e+00 3.8719604799484322e+00 1.6044859192785275e+01 0 -3 0
5135 1 6.2054182953323878e+00 3.7242227602474203e+00 1.2335778558818348e+01 0 0 0
1442 1 8.6147912957043005e+00 3.5426177968672952e+00 1.3326066211942335e+01 2 0 1
124 1 5.1748811233728613e+00 1.5584473401051537e+00 1.5916809264714395e+01 -2 0 0
3574 1 7.6437729024474610e+00 1.5055896078958263e+01 1.9669528758043427e+01 -1 -3 0
4678 1 8.1690632171578093e-01 3.9306882618159058e+00 1.3355583006410740e+01 -2 4 1
3511 1 2.3604990054500421e+00 6.0224000052259976e+00 1.2576975097734612e+01 2 -1 0
3377 1 4.7519584702657047e+00 5.8420776557869090e+00 1.3472625734918763e+01 -1 3 1
2892 1 4.8150860846373744e+00 6.3378043067837497e+00 1.5956437396901169e+01 -2 0 1
4938 1 1.5028916118221951e+00 8.4419116201450191e+00 1.3236730872393997e+01 1 0 0
1697 1 2.6078743726714841e+00 1.1038759648213404e+01 1.2126707107092521e+01 -1 2 1
4854 1 1.3978552287432036e+00 8.7864322968286483e+00 1.5964635023907611e+01 1 1 0
3627 1 8.7382193281322014e+00 8.2284781356197847e+00 1.3037621979552796e+01 -2 -2 1
238 1 6.1520256122362955e+00 8.2935845173588785e+00 1.2328440680818723e+01 -1 1 0
518 1 5.1586733220280685e+00 1.0663391921788826e+01 1.2945962633346719e+01 1 1 0
19 1 4.9066375796196668e+00 1.0757562376483257e+01 1.5813939412290129e+01 0 2 0
1314 1 1.2776389401413020e+00 1.2976357802103029e+01 1.3538301531774335e+01 1 0 1
1778 1 2.5516537661269911e+00 1.5171073871396288e+01 1.2489147350470796e+01 1 -1 1
3398 1 1.3352669549974729e+00 1.3238534165223777e+01 1.6104991655884639e+01 2 0 0
1611 1 6.2357265470454308e+00 1.2764515937135661e+01 1.1910291348438113e+01 -2 2 1
4781 1 5.0947039805013938e+00 1.4989964094801625e+01 1.3283803019872877e+01 5 1 1
3549 1 8.6279861008334535e+00 1.2458286177559547e+01 1.3395563548237050e+01 1 -2 0
1708 1 3.6264504165270219e+00 4.1818676136809048e+00 1.9687673175457746e+01 -1 3 1
2056 1 4.0086197717313921e+00 3.9552138222396596e+00 1.6957035985711215e+01 -1 0 0
1401 1 8.7184100068045396e+00 3.8956454938909029e+00 1.6014629625267563e+01 -3 4 1
1661 1 7.7292574697137928e+00 1.5855417911649794e+00 1.9776560926413914e+01 1 -1 0
3641 1 7.8653784734633563e+00 1.2103373910303270e+00 1.7018973972104156e+01 1 -3 1
3021 1 3.7823262874146772e+00 8.7085104639458173e+00 1.7280462109489669e+01 1 3 1
387 1 4.9085991781294336e+00 1.5314064147265862e+01 1.5936336639699999e+01 0 -2 0
5036 1 7.4401620407651148e+00 6.2839791348257146e+00 1.7107498094013032e+01 1 -2 0
3210 1 7.5294752537759990e+00 6.0124823576828232e+00 1.9781518961799083e+01 0 4 0
403 1 3.4301006135882197e+00 8.7258155226092455e+00 2.0026033496451905e+01 1 1 0
1265 1 7.5481963421484544e+00 1.4739298821219462e+01 1.6839479326192034e+01 3 -1 1
1676 1 8.8519799111133093e+00 1.2403566983709080e+01 1.6018392202467961e+01 2 1 0
3181 1 8.5563367771778669e+00 8.3827955554733240e+00 1.5892821276828247e+01 -1 0 0
70 1 7.3519527192972429e+00 1.0458079301666078e+01 1.6985059271532286e+01 -2 -1 1
3179 1 7.5488582540130933e+00 1.0279950530998839e+01 1.9711329203780593e+01 4 2 1
6169 1 3.9203927529988976e+00 1.3254304395637234e+01 2.0016025557978757e+01 2 1 1
2011 1 3.7343460072730652e+00 1.3111650748996393e+01 1.6964159904707948e+01 -3 -1 0
4446 1 4.4303714146135276e-01 6.3926364960853403e+00 1.7144362883634436e+01 0 -2 1
294 1 1.5608666295217127e-01 1.5652047856518802e+01 1.9883387736460566e+01 -2 0 0
3313 1 2.4525987344473150e+00 1.5707790174124330e+00 2.0421575998976653e+01 1 1 0
4902 1 9.5592260487152831e+00 1.0736687346072651e+00 1.2223433114307197e+01 0 3 1
4744 1 6.1659324778934614e+00 3.8002458113944733e+00 2.0541654051667823e+01 0 -1 0
3626 1 2.3958002820538873e+00 1.4418471002505451e+00 2.3252087451970063e+01 0 2 1
3119 1 4.6276940699362363e+00 1.9769083371637366e+00 2.4457275386270062e+01 -3 1 0
724 2 7.3829999999999991e+00 1.2787731112280996e+01 2.6784247451170422e+01 0 0 0
531 1 6.2224363227931017e+00 4.0019427311218108e+00 2.3358162054691945e+01 -1 0 0
2990 1 8.6690541103059875e+00 3.8600807859116091e+00 2.4341985759713548e+01 1 -1 1
722 2 7.3829999999999991e+00 1.5629449137232333e+01 2.6784247451170422e+01 0 0 0
726 2 8.6135000000000002e+00 1.3498160618518835e+01 2.6784247451170422e+01 0 0 0
158 1 1.0132377455366666e+00 3.5891205107634163e+00 2.4383923154161124e+01 -2 -1 0
3656 1 2.4849761245335173e+00 6.0405828346883528e+00 2.3858694999458031e+01 -1 2 1
720 2 6.1524999999999990e+00 1.4919019630994494e+01 2.6784247451170422e+01 0 0 0
2982 1 4.8298692407848591e+00 6.2463426507167759e+00 2.4543582531483882e+01 1 -1 0
679 2 6.1524999999999990e+00 1.3498160618518829e+01 2.6784247451170422e+01 0 0 0
354 1 1.2050350398458585e+00 8.3483742153594722e+00 2.4659388119341454e+01 -1 2 0
1514 1 2.0775456294929309e+00 1.0810282522316719e+01 2.3670754057632585e+01 1 -1 1
677 2 4.9220000000000006e+00 1.2787731112280996e+01 2.6784247451170422e+01 0 0 0
6116 1 6.0846121066654781e+00 8.4282952208912096e+00 2.3544858677814759e+01 2 -4 1
74 1 8.6549180682168245e+00 8.2068559446653566e+00 2.4275149651917499e+01 -1 0 0
155 1 4.8944200832723483e+00 1.0720094071584125e+01 2.4291673795428508e+01 1 -2 1
767 2 8.6135000000000002e+00 1.4919019630994494e+01 2.6784247451170422e+01 0 0 0
3334 1 2.6034745835831608e+00 1.5493514976050449e+01 2.3691142623854130e+01 6 0 0
2844 1 1.0874019344928385e+00 1.3117371748197829e+01 2.4427844633950379e+01 1 -4 1
3746 1 9.2173670905705585e+00 1.2617820404946794e+01 2.4287921106745088e+01 2 1 1
4563 1 5.2335782116740983e+00 1.5151247305186546e+01 2.4287248273617916e+01 -1 1 1
1679 1 6.5953802652658489e+00 1.2734744999567365e+01 2.3660695517933725e+01 1 2 1
675 2 4.9220000000000006e+00 1.5629449137232333e+01 2.6784247451170422e+01 0 0 0
554 2 0.0000000000000000e+00 2.8417180249513345e+00 2.6784247451170422e+01 0 0 0
556 2 0.0000000000000000e+00 0.0000000000000000e+00 2.6784247451170422e+01 0 0 0
558 2 1.2305000000000001e+00 7.1042950623783474e-01 2.6784247451170422e+01 0 0 0
565 2 1.2305000000000001e+00 2.1312885187134998e+00 2.6784247451170422e+01 0 0 0
567 2 2.4610000000000003e+00 2.8417180249513345e+00 2.6784247451170422e+01 0 0 0
569 2 2.4610000000000003e+00 0.0000000000000000e+00 2.6784247451170422e+01 0 0 0
571 2 3.6915000000000004e+00 7.1042950623783474e-01 2.6784247451170422e+01 0 0 0
586 2 3.6914999999999996e+00 2.1312885187134998e+00 2.6784247451170422e+01 0 0 0
588 2 4.9220000000000006e+00 2.8417180249513332e+00 2.6784247451170422e+01 0 0 0
590 2 4.9220000000000006e+00 0.0000000000000000e+00 2.6784247451170422e+01 0 0 0
592 2 6.1524999999999999e+00 7.1042950623783407e-01 2.6784247451170422e+01 0 0 0
615 2 6.1524999999999999e+00 2.1312885187134989e+00 2.6784247451170422e+01 0 0 0
617 2 7.3829999999999991e+00 2.8417180249513345e+00 2.6784247451170422e+01 0 0 0
619 2 7.3829999999999991e+00 0.0000000000000000e+00 2.6784247451170422e+01 0 0 0
621 2 8.6134999999999984e+00 7.1042950623783407e-01 2.6784247451170422e+01 0 0 0
652 2 8.6134999999999984e+00 2.1312885187135002e+00 2.6784247451170422e+01 0 0 0
561 2 0.0000000000000000e+00 4.2625770374269996e+00 2.6784247451170422e+01 0 0 0
563 2 1.2305000000000001e+00 4.9730065436648339e+00 2.6784247451170422e+01 0 0 0
578 2 1.2305000000000001e+00 6.3938655561404980e+00 2.6784247451170422e+01 0 0 0
582 2 2.4610000000000003e+00 4.2625770374269996e+00 2.6784247451170422e+01 0 0 0
584 2 3.6914999999999996e+00 4.9730065436648339e+00 2.6784247451170422e+01 0 0 0
607 2 3.6914999999999996e+00 6.3938655561404980e+00 2.6784247451170422e+01 0 0 0
559 2 0.0000000000000000e+00 7.1042950623783341e+00 2.6784247451170422e+01 0 0 0
580 2 2.4610000000000003e+00 7.1042950623783341e+00 2.6784247451170422e+01 0 0 0
611 2 4.9220000000000006e+00 4.2625770374269978e+00 2.6784247451170422e+01 0 0 0
613 2 6.1524999999999999e+00 4.9730065436648339e+00 2.6784247451170422e+01 0 0 0
644 2 6.1524999999999999e+00 6.3938655561404980e+00 2.6784247451170422e+01 0 0 0
648 2 7.3829999999999991e+00 4.2625770374269996e+00 2.6784247451170422e+01 0 0 0
650 2 8.6135000000000002e+00 4.9730065436648339e+00 2.6784247451170422e+01 0 0 0
689 2 8.6135000000000002e+00 6.3938655561404980e+00 2.6784247451170422e+01 0 0 0
609 2 4.9220000000000006e+00 7.1042950623783341e+00 2.6784247451170422e+01 0 0 0
646 2 7.3830000000000009e+00 7.1042950623783341e+00 2.6784247451170422e+01 0 0 0
574 2 0.0000000000000000e+00 8.5251540748539991e+00 2.6784247451170422e+01 0 0 0
576 2 1.2305000000000001e+00 9.2355835810918343e+00 2.6784247451170422e+01 0 0 0
603 2 2.4610000000000003e+00 8.5251540748539991e+00 2.6784247451170422e+01 0 0 0
605 2 3.6915000000000004e+00 9.2355835810918343e+00 2.6784247451170422e+01 0 0 0
572 2 0.0000000000000000e+00 1.1366872099805333e+01 2.6784247451170422e+01 0 0 0
599 2 1.2305000000000001e+00 1.0656442593567498e+01 2.6784247451170422e+01 0 0 0
601 2 2.4610000000000003e+00 1.1366872099805333e+01 2.6784247451170422e+01 0 0 0
636 2 3.6914999999999996e+00 1.0656442593567499e+01 2.6784247451170422e+01 0 0 0
640 2 4.9220000000000006e+00 8.5251540748539991e+00 2.6784247451170422e+01 0 0 0
642 2 6.1524999999999999e+00 9.2355835810918343e+00 2.6784247451170422e+01 0 0 0
685 2 7.3830000000000009e+00 8.5251540748539991e+00 2.6784247451170422e+01 0 0 0
687 2 8.6134999999999984e+00 9.2355835810918343e+00 2.6784247451170422e+01 0 0 0
638 2 4.9220000000000006e+00 1.1366872099805333e+01 2.6784247451170422e+01 0 0 0
681 2 6.1524999999999999e+00 1.0656442593567499e+01 2.6784247451170422e+01 0 0 0
683 2 7.3829999999999991e+00 1.1366872099805333e+01 2.6784247451170422e+01 0 0 0
728 2 8.6134999999999984e+00 1.0656442593567498e+01 2.6784247451170422e+01 0 0 0
673 2 3.6915000000000004e+00 1.4919019630994494e+01 2.6784247451170422e+01 0 0 0
632 2 2.4610000000000003e+00 1.2787731112280996e+01 2.6784247451170422e+01 0 0 0
630 2 2.4610000000000003e+00 1.5629449137232328e+01 2.6784247451170422e+01 0 0 0
593 2 0.0000000000000000e+00 1.5629449137232333e+01 2.6784247451170422e+01 0 0 0
595 2 0.0000000000000000e+00 1.2787731112280996e+01 2.6784247451170422e+01 0 0 0
634 2 3.6915000000000004e+00 1.3498160618518829e+01 2.6784247451170422e+01 0 0 0
597 2 1.2305000000000001e+00 1.3498160618518829e+01 2.6784247451170422e+01 0 0 0
628 2 1.2305000000000001e+00 1.4919019630994494e+01 2.6784247451170422e+01 0 0 0
4422 1 2.5134894493945827e+00 1.5133308981546710e+01 2.0967398438299981e+01 0 2 0
3478 1 2.3213960748252713e+00 6.2893581149832087e+00 2.1015301877737055e+01 3 -1 0
2851 1 2.2794970868773654e+00 1.1143966129586504e+01 2.0891455322348612e+01 -1 -2 1
1896 1 6.0474394482229128e+00 8.2200309897193691e+00 2.0990197175156545e+01 1 -3 0
3007 1 9.7728259779305215e+00 1.5668881657126010e+00 2.3608180543824261e+01 0 -3 1
3106 1 6.4547007949454427e+00 1.2658488222180434e+01 2.1019096538862645e+01 -2 1 1
555 2 0.0000000000000000e+00 1.4208590124756650e+00 3.0031000000000684e+01 0 0 0
557 2 0.0000000000000000e+00 0.0000000000000000e+00 3.0031000000000684e+01 0 0 0
566 2 1.2305000000000001e+00 2.1312885187134998e+00 3.0031000000000684e+01 0 0 0
568 2 2.4610000000000003e+00 1.4208590124756650e+00 3.0031000000000684e+01 0 0 0
570 2 2.4610000000000003e+00 0.0000000000000000e+00 3.0031000000000684e+01 0 0 0
587 2 3.6914999999999996e+00 2.1312885187134998e+00 3.0031000000000684e+01 0 0 0
564 2 1.2305000000000001e+00 3.5521475311891644e+00 3.0031000000000684e+01 0 0 0
585 2 3.6914999999999996e+00 3.5521475311891644e+00 3.0031000000000684e+01 0 0 0
883 2 0.0000000000000000e+00 2.8417180249513345e+00 3.3277752548809723e+01 0 0 0
884 2 0.0000000000000000e+00 0.0000000000000000e+00 3.3277752548809723e+01 0 0 0
885 2 1.2305000000000001e+00 7.1042950623783474e-01 3.3277752548809723e+01 0 0 0
889 2 1.2305000000000001e+00 2.1312885187134998e+00 3.3277752548809723e+01 0 0 0
890 2 2.4610000000000003e+00 2.8417180249513345e+00 3.3277752548809723e+01 0 0 0
891 2 2.4610000000000003e+00 0.0000000000000000e+00 3.3277752548809723e+01 0 0 0
892 2 3.6915000000000004e+00 7.1042950623783474e-01 3.3277752548809723e+01 0 0 0
900 2 3.6914999999999996e+00 2.1312885187134998e+00 3.3277752548809723e+01 0 0 0
589 2 4.9220000000000006e+00 1.4208590124756650e+00 3.0031000000000684e+01 0 0 0
591 2 4.9220000000000006e+00 0.0000000000000000e+00 3.0031000000000684e+01 0 0 0
616 2 6.1524999999999999e+00 2.1312885187134989e+00 3.0031000000000684e+01 0 0 0
618 2 7.3829999999999991e+00 1.4208590124756659e+00 3.0031000000000684e+01 0 0 0
620 2 7.3829999999999991e+00 0.0000000000000000e+00 3.0031000000000684e+01 0 0 0
653 2 8.6134999999999984e+00 2.1312885187135002e+00 3.0031000000000684e+01 0 0 0
614 2 6.1524999999999999e+00 3.5521475311891644e+00 3.0031000000000684e+01 0 0 0
651 2 8.6134999999999984e+00 3.5521475311891657e+00 3.0031000000000684e+01 0 0 0
901 2 4.9220000000000006e+00 2.8417180249513332e+00 3.3277752548809723e+01 0 0 0
902 2 4.9220000000000006e+00 0.0000000000000000e+00 3.3277752548809723e+01 0 0 0
903 2 6.1524999999999999e+00 7.1042950623783407e-01 3.3277752548809723e+01 0 0 0
915 2 6.1524999999999999e+00 2.1312885187134989e+00 3.3277752548809723e+01 0 0 0
916 2 7.3829999999999991e+00 2.8417180249513345e+00 3.3277752548809723e+01 0 0 0
917 2 7.3829999999999991e+00 0.0000000000000000e+00 3.3277752548809723e+01 0 0 0
918 2 8.6134999999999984e+00 7.1042950623783407e-01 3.3277752548809723e+01 0 0 0
934 2 8.6134999999999984e+00 2.1312885187135002e+00 3.3277752548809723e+01 0 0 0
560 2 0.0000000000000000e+00 5.6834360499026637e+00 3.0031000000000684e+01 0 0 0
562 2 0.0000000000000000e+00 4.2625770374269996e+00 3.0031000000000684e+01 0 0 0
579 2 1.2305000000000001e+00 6.3938655561404980e+00 3.0031000000000684e+01 0 0 0
581 2 2.4610000000000003e+00 5.6834360499026637e+00 3.0031000000000684e+01 0 0 0
583 2 2.4610000000000003e+00 4.2625770374269996e+00 3.0031000000000684e+01 0 0 0
608 2 3.6914999999999996e+00 6.3938655561404980e+00 3.0031000000000684e+01 0 0 0
577 2 1.2305000000000001e+00 7.8147245686161639e+00 3.0031000000000684e+01 0 0 0
606 2 3.6914999999999996e+00 7.8147245686161639e+00 3.0031000000000684e+01 0 0 0
887 2 0.0000000000000000e+00 4.2625770374269996e+00 3.3277752548809723e+01 0 0 0
888 2 1.2305000000000001e+00 4.9730065436648339e+00 3.3277752548809723e+01 0 0 0
896 2 1.2305000000000001e+00 6.3938655561404980e+00 3.3277752548809723e+01 0 0 0
898 2 2.4610000000000003e+00 4.2625770374269996e+00 3.3277752548809723e+01 0 0 0
899 2 3.6914999999999996e+00 4.9730065436648339e+00 3.3277752548809723e+01 0 0 0
911 2 3.6914999999999996e+00 6.3938655561404980e+00 3.3277752548809723e+01 0 0 0
886 2 0.0000000000000000e+00 7.1042950623783341e+00 3.3277752548809723e+01 0 0 0
897 2 2.4610000000000003e+00 7.1042950623783341e+00 3.3277752548809723e+01 0 0 0
610 2 4.9220000000000006e+00 5.6834360499026637e+00 3.0031000000000684e+01 0 0 0
612 2 4.9220000000000006e+00 4.2625770374269978e+00 3.0031000000000684e+01 0 0 0
645 2 6.1524999999999999e+00 6.3938655561404980e+00 3.0031000000000684e+01 0 0 0
647 2 7.3829999999999991e+00 5.6834360499026637e+00 3.0031000000000684e+01 0 0 0
649 2 7.3829999999999991e+00 4.2625770374269996e+00 3.0031000000000684e+01 0 0 0
690 2 8.6135000000000002e+00 6.3938655561404980e+00 3.0031000000000684e+01 0 0 0
643 2 6.1524999999999999e+00 7.8147245686161639e+00 3.0031000000000684e+01 0 0 0
688 2 8.6135000000000002e+00 7.8147245686161639e+00 3.0031000000000684e+01 0 0 0
913 2 4.9220000000000006e+00 4.2625770374269978e+00 3.3277752548809723e+01 0 0 0
914 2 6.1524999999999999e+00 4.9730065436648339e+00 3.3277752548809723e+01 0 0 0
930 2 6.1524999999999999e+00 6.3938655561404980e+00 3.3277752548809723e+01 0 0 0
932 2 7.3829999999999991e+00 4.2625770374269996e+00 3.3277752548809723e+01 0 0 0
933 2 8.6135000000000002e+00 4.9730065436648339e+00 3.3277752548809723e+01 0 0 0
953 2 8.6135000000000002e+00 6.3938655561404980e+00 3.3277752548809723e+01 0 0 0
912 2 4.9220000000000006e+00 7.1042950623783341e+00 3.3277752548809723e+01 0 0 0
931 2 7.3830000000000009e+00 7.1042950623783341e+00 3.3277752548809723e+01 0 0 0
573 2 0.0000000000000000e+00 9.9460130873296642e+00 3.0031000000000684e+01 0 0 0
575 2 0.0000000000000000e+00 8.5251540748539991e+00 3.0031000000000684e+01 0 0 0
602 2 2.4610000000000003e+00 9.9460130873296642e+00 3.0031000000000684e+01 0 0 0
604 2 2.4610000000000003e+00 8.5251540748539991e+00 3.0031000000000684e+01 0 0 0
598 2 1.2305000000000001e+00 1.2077301606043163e+01 3.0031000000000684e+01 0 0 0
600 2 1.2305000000000001e+00 1.0656442593567498e+01 3.0031000000000684e+01 0 0 0
635 2 3.6914999999999996e+00 1.2077301606043163e+01 3.0031000000000684e+01 0 0 0
637 2 3.6914999999999996e+00 1.0656442593567499e+01 3.0031000000000684e+01 0 0 0
894 2 0.0000000000000000e+00 8.5251540748539991e+00 3.3277752548809723e+01 0 0 0
895 2 1.2305000000000001e+00 9.2355835810918343e+00 3.3277752548809723e+01 0 0 0
909 2 2.4610000000000003e+00 8.5251540748539991e+00 3.3277752548809723e+01 0 0 0
910 2 3.6915000000000004e+00 9.2355835810918343e+00 3.3277752548809723e+01 0 0 0
893 2 0.0000000000000000e+00 1.1366872099805333e+01 3.3277752548809723e+01 0 0 0
907 2 1.2305000000000001e+00 1.0656442593567498e+01 3.3277752548809723e+01 0 0 0
908 2 2.4610000000000003e+00 1.1366872099805333e+01 3.3277752548809723e+01 0 0 0
926 2 3.6914999999999996e+00 1.0656442593567499e+01 3.3277752548809723e+01 0 0 0
639 2 4.9220000000000006e+00 9.9460130873296642e+00 3.0031000000000684e+01 0 0 0
641 2 4.9220000000000006e+00 8.5251540748539991e+00 3.0031000000000684e+01 0 0 0
684 2 7.3830000000000009e+00 9.9460130873296642e+00 3.0031000000000684e+01 0 0 0
686 2 7.3830000000000009e+00 8.5251540748539991e+00 3.0031000000000684e+01 0 0 0
680 2 6.1524999999999999e+00 1.2077301606043163e+01 3.0031000000000684e+01 0 0 0
682 2 6.1524999999999999e+00 1.0656442593567499e+01 3.0031000000000684e+01 0 0 0
727 2 8.6135000000000002e+00 1.2077301606043163e+01 3.0031000000000684e+01 0 0 0
729 2 8.6134999999999984e+00 1.0656442593567498e+01 3.0031000000000684e+01 0 0 0
928 2 4.9220000000000006e+00 8.5251540748539991e+00 3.3277752548809723e+01 0 0 0
929 2 6.1524999999999999e+00 9.2355835810918343e+00 3.3277752548809723e+01 0 0 0
951 2 7.3830000000000009e+00 8.5251540748539991e+00 3.3277752548809723e+01 0 0 0
952 2 8.6134999999999984e+00 9.2355835810918343e+00 3.3277752548809723e+01 0 0 0
927 2 4.9220000000000006e+00 1.1366872099805333e+01 3.3277752548809723e+01 0 0 0
949 2 6.1524999999999999e+00 1.0656442593567499e+01 3.3277752548809723e+01 0 0 0
950 2 7.3829999999999991e+00 1.1366872099805333e+01 3.3277752548809723e+01 0 0 0
973 2 8.6134999999999984e+00 1.0656442593567498e+01 3.3277752548809723e+01 0 0 0
596 2 0.0000000000000000e+00 1.2787731112280996e+01 3.0031000000000684e+01 0 0 0
633 2 2.4610000000000003e+00 1.2787731112280996e+01 3.0031000000000684e+01 0 0 0
594 2 0.0000000000000000e+00 1.4208590124756663e+01 3.0031000000000684e+01 0 0 0
629 2 1.2305000000000001e+00 1.4919019630994494e+01 3.0031000000000684e+01 0 0 0
631 2 2.4610000000000003e+00 1.4208590124756663e+01 3.0031000000000684e+01 0 0 0
674 2 3.6915000000000004e+00 1.4919019630994494e+01 3.0031000000000684e+01 0 0 0
905 2 0.0000000000000000e+00 1.2787731112280996e+01 3.3277752548809723e+01 0 0 0
906 2 1.2305000000000001e+00 1.3498160618518829e+01 3.3277752548809723e+01 0 0 0
924 2 2.4610000000000003e+00 1.2787731112280996e+01 3.3277752548809723e+01 0 0 0
925 2 3.6915000000000004e+00 1.3498160618518829e+01 3.3277752548809723e+01 0 0 0
904 2 0.0000000000000000e+00 1.5629449137232333e+01 3.3277752548809723e+01 0 0 0
922 2 1.2305000000000001e+00 1.4919019630994494e+01 3.3277752548809723e+01 0 0 0
923 2 2.4610000000000003e+00 1.5629449137232328e+01 3.3277752548809723e+01 0 0 0
945 2 3.6915000000000004e+00 1.4919019630994494e+01 3.3277752548809723e+01 0 0 0
678 2 4.9220000000000006e+00 1.2787731112280996e+01 3.0031000000000684e+01 0 0 0
725 2 7.3829999999999991e+00 1.2787731112280996e+01 3.0031000000000684e+01 0 0 0
676 2 4.9220000000000006e+00 1.4208590124756663e+01 3.0031000000000684e+01 0 0 0
721 2 6.1524999999999990e+00 1.4919019630994494e+01 3.0031000000000684e+01 0 0 0
723 2 7.3830000000000009e+00 1.4208590124756663e+01 3.0031000000000684e+01 0 0 0
768 2 8.6135000000000002e+00 1.4919019630994494e+01 3.0031000000000684e+01 0 0 0
947 2 4.9220000000000006e+00 1.2787731112280996e+01 3.3277752548809723e+01 0 0 0
948 2 6.1524999999999990e+00 1.3498160618518829e+01 3.3277752548809723e+01 0 0 0
971 2 7.3829999999999991e+00 1.2787731112280996e+01 3.3277752548809723e+01 0 0 0
972 2 8.6135000000000002e+00 1.3498160618518835e+01 3.3277752548809723e+01 0 0 0
946 2 4.9220000000000006e+00 1.5629449137232333e+01 3.3277752548809723e+01 0 0 0
969 2 6.1524999999999990e+00 1.4919019630994494e+01 3.3277752548809723e+01 0 0 0
970 2 7.3829999999999991e+00 1.5629449137232333e+01 3.3277752548809723e+01 0 0 0
993 2 8.6135000000000002e+00 1.4919019630994494e+01 3.3277752548809723e+01 0 0 0
1712 1 4.6327196241111031e+00 3.2768801804464918e+00 3.5967753060332861e+01 2 1 -1
6176 1 1.8052081359930923e+00 3.6369016308137252e+00 3.6500543464664773e+01 1 -2 0
4880 1 5.7157347685824638e+00 1.0349803704404259e+01 3.9238641396395899e+01 1 2 -1
1312 1 9.2983544657430794e+00 1.4518012541827012e+01 3.5736977922851601e+01 3 3 0
1284 1 5.6205925634717619e+00 8.9483136993066503e-01 3.7085262024228314e+01 2 1 -1
5118 1 8.1802489692572333e+00 6.9461920736030625e-01 3.5768356141226704e+01 1 1 -1
3459 1 3.9639442627675797e-01 1.6538044371022143e+00 3.5517382605289008e+01 -1 -1 -1
5219 1 2.1791234559950619e+00 1.3452540037740635e+01 3.6393983081947617e+01 0 4 0
3457 1 5.7151537058939121e+00 5.6783257494942276e+00 3.9347166408218307e+01 2 -1 -1
6097 1 7.7730121187210355e-01 6.1371582056962950e+00 3.5777415207220571e+01 0 -1 0
1628 1 1.6602895520504870e+00 1.6005378329550418e+01 3.5763859803586733e+01 0 1 -1
395 1 8.0324626875824503e+00 5.2716888835377098e+00 3.5608157176269160e+01 -1 -1 -1
2965 1 5.4853516682544887e+00 5.8649436771779095e+00 3.6613547377966363e+01 1 0 0
4921 1 4.7208927534046623e+00 1.3019623134582648e+01 3.5410402035317190e+01 2 -1 -1
3403 1 9.4706824262491747e+00 3.1011782860016570e+00 3.6069362132689577e+01 -2 4 -1
416 1 5.0081530142707633e+00 8.2941606712862281e+00 3.5515654891272028e+01 0 0 -1
3321 1 2.0984496725854522e+00 8.7465010391437943e+00 3.5971902432348038e+01 1 0 0
204 1 1.1286189852906723e+00 1.1194931211577678e+01 3.5764458044850613e+01 0 -3 -1
5029 1 8.8330652087162083e+00 1.0784145050861673e+01 3.6055485377888886e+01 2 2 -1
4511 1 6.0895920301219597e+00 1.0720034847646717e+01 3.6483613653186787e+01 3 -1 0
129 1 6.5986350448045448e+00 1.4956172107280146e+01 3.6015897572265580e+01 0 3 0
1482 1 6.8279499398504262e+00 1.5015869609242442e+01 3.8872098419866902e+01 2 1 0
3113 1 9.6304890924492188e+00 2.8477831744379674e+00 3.8962680082191490e+01 -1 2 -1
5327 1 1.7762527678374440e+00 7.8387928964455496e+00 3.8756480687400462e+01 -3 0 -1
1610 1 2.3422996178260105e+00 1.2990218189384631e+01 3.9035626061420956e+01 0 -5 0
350 1 9.1510619864389007e+00 7.5833311817092737e+00 3.9034733559288505e+01 1 -1 -1
3526 1 1.5324433861490907e+00 3.6374310697647316e+00 3.9081325980780001e+01 0 1 0
1978 1 9.1191511062948383e+00 7.8407108161281087e+00 3.6421036528002801e+01 0 -2 -1
2035 1 4.1403671814707765e+00 3.3322620918145454e+00 4.2947523054895868e+01 1 1 -1
3086 1 1.3996808113877535e+00 3.5655694946895866e+00 4.3683376128249535e+01 0 2 0
1807 1 4.0901260566346593e+00 3.4200018460565436e+00 4.0289825704602258e+01 1 2 -1
6258 1 9.2975168247241644e+00 7.4971051385478606e+00 4.3478441282975382e+01 0 -2 -1
3267 1 6.1402160931618495e+00 1.0408252128202204e+01 4.6060075692313575e+01 2 1 -1
4903 1 8.0282031826626703e+00 6.5582729258287853e-01 4.2597933722946649e+01 1 4 0
4745 1 5.4805490769384155e+00 7.6673944981900399e-01 4.3447158264282642e+01 0 -1 0
3043 1 2.2686163735061089e+00 1.2823795034304645e+01 4.6173614109301184e+01 2 -2 0
3705 1 8.4897844106319376e+00 5.5813926720701279e-01 3.9924556460376195e+01 -2 2 0
6086 1 5.1933629110291613e-01 6.1030034353026128e+00 4.2936259537516875e+01 1 0 0
526 1 4.4629050801417289e+00 7.9617970509249707e+00 4.2794617904596031e+01 2 -1 0
4945 1 3.0596585649888441e-01 6.1042898074592129e+00 4.0174114508872478e+01 3 -2 -1
344 1 7.0599629316680899e+00 1.2665801502236027e+01 4.7093673602665014e+01 -1 1 0
421 1 8.1754583945749086e+00 4.9841711480501019e+00 4.0185811450567613e+01 -2 0 0
6238 1 4.3792095471308707e+00 7.9928085699412321e+00 3.9937560894583598e+01 1 0 0
5187 1 8.0206310190372765e+00 5.1525220758438381e+00 4.2904142935331699e+01 -1 -1 -1
1298 1 5.4438244652975554e+00 5.4668469915623783e+00 4.3720884328917407e+01 1 -1 0
5198 1 3.3420350513979820e+00 1.5108370752310599e+01 4.7265378425294962e+01 2 1 -1
2128 1 2.0602136839012704e+00 8.3399558297597043e+00 4.3598156431687379e+01 -1 -3 0
6096 1 1.1271291290404970e+00 1.0418646248293834e+01 3.9491317784765904e+01 -1 2 0
1745 1 9.3816569292151430e-01 1.0534250112492268e+01 4.2485574799488134e+01 -1 2 -1
3273 1 8.4861888264397560e+00 1.0130722325533148e+01 4.2802136485706576e+01 -3 -3 0
4588 1 8.3408059065491127e+00 1.0221369184606402e+01 3.9854332801108050e+01 -2 -1 0
2913 1 5.8033290644223419e+00 1.0349927769153771e+01 4.3168700837225146e+01 0 1 0
2996 1 1.5011084562686656e+00 1.5536226934821309e+01 4.0011855200698889e+01 1 -2 0
1756 1 1.4068284026224858e+00 1.5694518352182797e+01 4.2742133194806030e+01 4 -3 -1
4766 1 2.1958320357490053e+00 1.2975149108733717e+01 4.3209015625724085e+01 -2 2 -1
1769 1 4.9846752021800800e+00 1.3172276685644178e+01 3.9885342559779652e+01 1 -1 0
4747 1 6.1106964719126431e+00 1.5222802571233494e+01 4.6392163691078999e+01 1 -4 -1
486 1 9.2658598413479663e+00 1.4775012068345049e+01 4.0143728401636260e+01 2 -4 0
3199 1 4.9152784109987095e+00 1.2772523138084138e+01 4.2512658945818245e+01 1 0 0
6085 1 8.7288776222484596e+00 1.4339884475439222e+01 4.2688377969661907e+01 -1 3 0
187 1 6.1141087204174225e+00 1.5290433437925675e+01 4.3558022060114936e+01 1 1 -1
5148 1 2.5858251019565914e+00 1.4153523541432129e+00 4.7308057246910408e+01 4 -1 -1
5114 1 1.5146640435473260e+00 3.6460294118679575e+00 4.6409471818485372e+01 -2 -1 -1