LAMMPS data file via write_data, version 16 Mar 2018, timestep = 6000000

6736 atoms
2 atom types

0.0000000000000000e+00 4.9219999999999999e+01 xlo xhi
0.0000000000000000e+00 4.9019635930410494e+01 ylo yhi
5.7486763768966753e-01 5.9487132362304934e+01 zlo zhi

Masses

1 18.015
2 12.01

Atoms # atomic

1040 1 2.7100937242677809e+00 1.5608580015779170e+01 3.2761120123198197e+00 0 -3 1
2737 1 1.4186345025062244e+00 2.8584288845332106e-01 5.9345872289769686e+00 0 2 0
4251 1 4.9656925107825094e+00 2.7894463088338370e+00 3.2411564008311076e+00 0 2 1
778 1 7.4258918252631609e+00 3.4421870763328588e+00 2.2129428103564370e+00 -1 -1 1
6007 1 9.2619938722303932e+00 1.4033509572314244e+00 3.2730815578288284e+00 1 3 1
507 1 1.1540699607015958e+01 1.3123406999509100e+00 2.2177878235779929e+00 0 2 0
1217 1 9.2347538118795314e-01 4.2392462852971455e+00 3.3363017941590569e+00 1 1 1
72 1 3.2198239510958779e+00 4.7517389465019271e+00 2.1528387259495103e+00 -1 2 1
3471 1 4.3200612326607049e+00 6.8398543055333105e+00 2.8339027176872400e+00 -4 -2 0
2568 1 7.1642594555193089e+00 7.2897799286765430e+00 2.6142553608485395e+00 -3 -1 1
3787 1 8.5275325121939360e+00 5.5007863754365580e+00 3.7063915535407994e+00 -2 3 0
938 1 1.1007454897875201e+01 5.6259249737994432e+00 2.4809698580176627e+00 2 -1 1
2693 1 1.1890420966516439e+01 8.2004557690169833e+00 3.2569207418632526e+00 -4 -2 1
4292 1 2.0667295586526718e-01 8.5316572366777521e+00 3.0438238531898789e+00 1 0 1
2893 1 2.9980332512347712e+00 9.0024174647957143e+00 2.2468375857749816e+00 2 -5 1
3602 1 3.8355681239801416e+00 1.1427853720086400e+01 3.5349093253487744e+00 2 0 0
2125 1 6.0596580581359802e+00 1.1903005823776994e+01 2.3922408239690203e+00 0 0 0
2731 1 7.6291634829722756e+00 9.9735894480642688e+00 3.3844400097974141e+00 -1 1 0
42 1 1.0289426079308807e+01 1.0015236834205567e+01 2.3054740342969238e+00 0 1 0
2538 1 2.2174726153201587e+00 1.2999626120241658e+01 2.3682087229601674e+00 2 1 1
5249 1 7.2807462439001238e+00 1.4171903937449690e+01 3.2848997912896452e+00 5 1 1
982 1 5.3318170594318701e+00 1.5970871133220026e+01 2.4231428247402693e+00 -4 -3 0
1201 1 1.1007989235180972e+01 1.2554925983210381e+01 2.8119882809896741e+00 -2 -1 0
5501 1 9.5580478966523152e+00 1.4472540023197324e+01 2.0170196622935821e+00 -3 1 0
5937 1 2.1485450756761590e+00 2.4692696491683188e+00 6.9244498631461724e+00 0 -2 1
4563 1 1.1453441514366677e+01 1.2553942703131236e+01 1.0884938295775862e+01 -2 0 1
231 1 6.6084726490389478e+00 7.9828515559704627e-01 6.9650234215772597e+00 -2 -1 0
149 1 4.9693927154515700e+00 2.7142960684458219e+00 5.8705567184873066e+00 1 0 0
1079 1 9.0500087892636749e+00 1.2811749905170158e+00 5.8876474918817499e+00 1 1 1
5436 1 1.0206717981038629e+01 3.3132454734934238e+00 7.0580312073473177e+00 -2 -1 0
993 1 8.3685036086549991e-01 4.5209130384158476e+00 5.8497357382894704e+00 1 2 1
4467 1 1.9348917555094054e+00 6.6905433968341939e+00 6.7663971034377113e+00 -2 0 1
3573 1 4.3257807675290758e+00 6.9097701221691388e+00 5.6939423264597933e+00 -1 1 0
4142 1 5.8566918208376455e+00 5.0082375406171611e+00 7.0509730274424918e+00 -1 -3 1
4384 1 8.6151992514208473e+00 5.6249270295818965e+00 6.4491633385424274e+00 -3 1 1
1964 1 9.1997471899936549e+00 8.1174437205684686e+00 7.2201837442447081e+00 1 -1 1
349 1 2.7021828063783687e-01 8.8922935792834235e+00 5.9916966133279690e+00 4 -1 0
5348 1 1.2213040402465576e+00 1.1110526445647439e+01 6.8865448240639706e+00 4 0 0
4540 1 3.8581616741324134e+00 1.1395221061307982e+01 6.2477496019780672e+00 -1 4 1
4226 1 5.0608072679033871e+00 9.3610373345902165e+00 6.8748432324513900e+00 2 -1 0
3564 1 7.5523221692107931e+00 9.8015884741905097e+00 6.1644373301784228e+00 1 -2 0
922 1 1.1714728289049617e+01 8.5649978974386922e+00 5.9890438266589818e+00 2 1 1
6188 1 3.0143222591128933e+00 1.5722456604329144e+01 5.9449435629702556e+00 2 1 1
155 1 5.4961527248209530e-01 1.5365098036125733e+01 6.8272867738238210e+00 2 -3 0
232 1 4.7093408824025751e+00 1.3927438081018135e+01 7.1536889334646254e+00 -3 0 1
1869 1 7.1792010379945408e+00 1.4146740994216547e+01 6.1730933601777798e+00 0 1 0
5547 1 1.2070745038644255e+01 1.4692652895130053e+01 7.2165569137609973e+00 1 0 0
6047 1 8.7278617588234635e+00 1.2024834928683823e+01 6.9236766893521144e+00 1 -4 0
5331 1 1.0891866968519869e+01 1.2701111595672387e+01 5.8068308649134757e+00 0 0 0
4403 1 2.8397432498209678e+00 2.7262397960047013e+00 9.4086427227766993e+00 -1 0 1
5488 1 8.8677526580610238e+00 1.2365218158014880e+01 9.6846196708583800e+00 -1 2 0
3581 1 6.7686581323184285e+00 7.6643572896024148e-01 9.6782742451470103e+00 0 -1 0
757 1 5.0446381518203482e+00 2.9878014955226933e+00 1.0326038477780576e+01 1 2 1
4389 1 9.2369340724082711e+00 1.2739230948100770e+00 1.0649115391686284e+01 -2 4 1
2708 1 1.0365345533977981e+01 3.6447397547343492e+00 1.0031898841599247e+01 -4 -1 1
4449 1 1.4401457407231510e+00 4.7664503380976830e+00 1.0526379227368905e+01 1 0 1
3409 1 1.9964397742090585e+00 7.1747199283166339e+00 9.3442154632540912e+00 4 2 0
1013 1 4.5629654189620226e+00 7.4549671975554785e+00 1.0659545881077328e+01 3 -1 1
135 1 5.9737032984116496e+00 5.4484062037019187e+00 9.5597857976117702e+00 3 0 1
3793 1 8.5753824630081983e+00 5.8655027041434762e+00 1.0707691100822691e+01 2 0 0
150 1 9.4852710808201692e+00 8.0370998142661065e+00 9.6501407161709061e+00 -2 1 0
278 1 1.5099530743962277e+00 1.1083707720983430e+01 9.6527044820575316e+00 -3 0 0
4263 1 3.8755065637491684e+00 1.1498452913427538e+01 1.0436553381569430e+01 2 2 1
1909 1 7.7651976961983191e+00 1.0122925260220242e+01 1.0751740287855664e+01 2 -4 0
4490 1 5.2885471696650201e+00 9.5614653012210979e+00 9.6906694001428715e+00 -5 2 1
5477 1 1.1998023816737609e+01 8.1852697690689329e+00 1.0436851654256234e+01 3 -1 0
239 1 3.2211814791912867e+00 1.5924235117440007e+01 1.0323746923648278e+01 0 0 1
6000 1 7.0393213633495177e-01 1.5615022029901029e+01 9.5961038494872390e+00 1 0 1
246 1 5.0074712571334477e+00 1.3901564053952221e+01 9.7206454920880461e+00 0 0 0
2514 1 7.8198889215906178e+00 1.4257323645514326e+01 1.0710165118180939e+01 1 3 1
5245 1 4.5309001960114834e+00 4.7660312557951007e-01 2.1396999619531920e+00 2 -1 0
2745 1 1.2198195582446857e+01 1.4922920229745932e+01 1.0030577954222537e+01 3 -2 1
3540 1 1.8236366028130604e+00 5.7935851613536982e-01 1.0342135233043340e+01 0 -1 1
4556 1 1.9401144384553148e+00 4.8627008412252155e-02 3.2697888188863504e+00 6 -3 0
1795 1 2.6178166487823151e-01 8.8535636051163937e+00 1.0379025159464812e+01 -3 2 0
1973 1 4.1114733740184821e+00 5.3161522176033960e-01 1.4181586546596431e+01 -4 -1 0
4274 1 3.9038392282534615e+00 4.9582495418280459e-01 1.6802875270125060e+01 3 3 1
965 1 7.6764686627367196e+00 3.1232038007989864e+00 1.4050446988728886e+01 -1 3 1
1011 1 5.0826424491404705e+00 2.6162147936594775e+00 1.3171127541823026e+01 0 4 1
158 1 2.9438877295821770e+00 1.5883487533238370e+01 1.7972795701747174e+01 0 0 0
3626 1 9.4178700086643587e+00 1.0642485633255616e+00 1.3289788882331242e+01 2 2 1
5199 1 1.1914999725311654e+01 1.4379530194237393e+00 1.4126187411889665e+01 -4 -3 0
6201 1 9.0441099698244720e-01 4.6663260783218696e+00 1.3273447077980157e+01 5 1 1
1913 1 3.5768003819861294e+00 4.9889089528545227e+00 1.4054246399675099e+01 0 -3 0
1997 1 4.2920741054077904e+00 7.5819284650001322e+00 1.3542892113940326e+01 -1 -2 0
4422 1 7.0149381434485605e+00 7.5115400187200230e+00 1.4160568984282323e+01 2 2 1
11 1 8.7779851921955157e+00 5.6243349759954144e+00 1.3383599020570980e+01 1 2 0
299 1 1.1371193095216100e+01 6.0445492529071352e+00 1.4470653372952643e+01 1 0 0
4357 1 2.9145902210524262e+00 9.4937320921866100e+00 1.4137846001560051e+01 0 0 1
293 1 3.8077049868034609e+00 1.1822719291296739e+01 1.3109206076746331e+01 -1 2 0
4283 1 3.5795083547322268e+00 7.2129468401481969e+00 2.3839558872503012e+01 2 -1 1
6288 1 7.9999253027021409e+00 1.0062499056007024e+01 1.3264971416726898e+01 -2 0 0
5450 1 6.2538266506623286e+00 1.1895599225360492e+01 1.4703885073596879e+01 2 2 0
5082 1 1.0216591245809097e+01 1.0258692336166272e+01 1.4524167171840721e+01 0 -2 1
1044 1 7.2668733020354166e+00 1.4688708319357582e+01 2.0395683185707114e+01 1 3 1
6238 1 1.1791547148271118e+01 8.2626995510361745e+00 1.8317107739879919e+01 -3 1 0
6149 1 2.3600242614664975e+00 1.3778379780500320e+01 1.4115649839033711e+01 -3 0 0
21 1 7.0855704255357530e+00 1.4117071537231654e+01 1.3448694941927371e+01 3 2 0
4617 1 1.0861780079180976e+01 1.0234332379987405e+01 2.3834087186488183e+01 2 2 1
6219 1 9.6591734411227907e+00 1.4386586095648795e+01 1.4412983794916149e+01 2 2 1
5902 1 1.1246993285134216e+01 1.2259160252931787e+01 1.3555716008464840e+01 3 -5 1
2620 1 1.1553218417632941e+01 1.2734132771526765e+01 2.0930069308847170e+01 -1 3 1
2716 1 1.6335147184196832e+00 3.4768729695713135e-01 1.7886379612198713e+01 0 0 0
85 1 1.1771968675211808e+01 1.5975133993303283e+00 1.6862003812099964e+01 1 0 0
5891 1 7.9124760314705105e+00 3.4479536105622763e+00 1.6759299737881104e+01 -3 1 0
887 1 5.3235669907551948e+00 2.9671039252548730e+00 1.7412513712619788e+01 4 1 1
33 1 5.7804464075512065e+00 2.8287881230530161e+00 2.0029769625540755e+01 -3 1 0
3824 1 2.1248327374223401e+00 4.8793526860102414e+00 2.3698897960830305e+01 2 1 0
2856 1 9.2576886116573363e+00 1.4028066509769614e+00 1.7257546945426139e+01 3 1 1
6180 1 1.1347325039811245e+00 4.5391883545981582e+00 1.7758148355395402e+01 0 0 1
5809 1 3.7147656506452296e+00 4.8748089434132815e+00 1.6763579589941699e+01 -4 4 1
2852 1 2.1910882143443939e+00 4.7076124547959077e+00 2.0818891026912649e+01 -1 0 1
3847 1 4.2890726736098488e+00 7.1285785536552178e+00 1.7927526715299933e+01 -5 4 0
4464 1 6.8707069541622410e+00 7.7870009112948262e+00 1.7164796084295681e+01 -2 0 1
1803 1 7.5149244243522810e+00 4.8527635008165255e+00 2.0683259522771621e+01 -3 0 1
6260 1 8.3988155216773190e+00 5.7414478844315679e+00 1.8074185839637572e+01 -1 2 0
256 1 1.1005296521826192e+01 5.8113999876728082e+00 1.7038300498491125e+01 0 1 0
4156 1 2.1236161391599233e+00 9.7290584656999535e+00 2.3693732899210225e+01 2 -3 1
4314 1 2.5963548081583920e+00 9.1732724364647478e+00 1.7002714720415181e+01 1 -1 1
3752 1 3.3037125606720767e+00 1.1630093041139556e+01 1.8106675538303644e+01 -1 1 0
5869 1 8.1117643809453739e+00 1.0135545739605067e+01 1.8492180312345312e+01 -2 -3 1
1760 1 6.0980641184458797e+00 1.1754155770539704e+01 1.7348719149002871e+01 4 1 0
6250 1 1.0482828369096604e+01 1.0624417559157324e+01 1.7247420335943843e+01 0 0 1
5849 1 9.7463132408265967e+00 1.4979262710059102e+01 2.1035032045492379e+01 -1 0 1
3737 1 1.9255547793736900e+00 1.3665266363284420e+01 1.6921060589500019e+01 1 1 0
976 1 9.7217571530634270e+00 4.0287163661379664e+00 2.3871585706154793e+01 -1 5 1
173 1 6.9470273948345493e+00 1.4178949655213327e+01 1.8033371424167967e+01 -3 -1 1
2910 1 7.7582162101295804e+00 9.8042632014811950e+00 2.4015596436907998e+01 -1 -1 1
4328 1 1.1460226345245452e+01 1.2856470627325539e+01 1.7967483949938007e+01 1 0 1
377 1 9.6602993652884983e+00 1.4798362012652163e+01 1.7020107127415073e+01 0 -1 0
2757 1 3.8371180833142415e+00 2.5646687640119636e+00 2.1639526099922758e+01 3 -2 1
390 1 6.5399820444438905e+00 8.1034611354288799e-01 2.3497080260350391e+01 1 1 0
2685 1 6.8697503208189010e+00 6.1093513556808454e-01 2.0718679043949585e+01 -1 -2 1
1762 1 3.4876359413358975e-02 8.7718020137934367e+00 1.8047398660354446e+01 -1 2 1
1948 1 7.1134885252303510e+00 1.4708165999795744e+01 2.4061228859618538e+01 2 1 0
6098 1 9.4725268193749539e+00 1.2624137154388269e+00 2.0079990029490020e+01 0 2 1
4423 1 9.9002930657291621e+00 3.6059554016905482e+00 2.1148951165572669e+01 1 3 1
5113 1 1.7184528636307641e+00 1.4345936584982967e+01 2.3593328077016356e+01 -3 1 1
3851 1 3.4360463192315365e+00 7.1675244720050530e+00 2.0680264386119465e+01 1 1 0
3392 1 8.2490205462355262e-02 2.1672147845154606e+00 1.3704524379199290e+01 2 -1 0
2896 1 6.2074684175912820e+00 1.2207969495196545e+01 2.3973299212045120e+01 -2 0 1
4411 1 1.1941224677486943e+01 8.5404114710153092e+00 1.3259953865537849e+01 -2 0 1
5859 1 6.2342809807091042e+00 7.6200074629754067e+00 2.1272074796746146e+01 -1 3 1
5163 1 3.1753915068893273e+00 1.6132571458979665e+01 1.3213918284253751e+01 2 2 0
4541 1 1.9923741322887636e+00 9.4968998114060401e+00 2.0877979482766005e+01 0 0 0
3524 1 3.5376715599374084e+00 1.1652032696004568e+01 2.0972001880501189e+01 2 -2 1
2007 1 9.8624113190808895e+00 1.4828655062346376e+01 2.3815130484063395e+01 -1 -1 0
5225 1 1.9609770911466866e+00 1.4168425075394635e+01 2.1008272356286561e+01 -2 -1 0
824 1 7.8101889535164393e+00 9.6892891274907615e+00 2.1347628159574153e+01 3 5 1
6164 1 6.4254314844113516e+00 1.2058737552701576e+01 2.1242985150715032e+01 0 1 1
5905 1 1.4823707971275635e-01 9.0273973007699944e+00 1.3178197167349282e+01 0 3 1
4214 1 7.1287648745427630e+00 4.9315650260930051e+00 2.3388304615609499e+01 2 5 1
2790 1 1.0736906734288338e+01 1.0188664633452115e+01 2.1022513736027925e+01 1 2 1
6108 1 2.4576606389013760e+00 1.8478665493119023e-01 2.0480716868420508e+01 3 -1 1
5856 1 4.9954202970509654e+00 3.2392018777899647e+00 2.3831400516946434e+01 0 -1 1
3715 1 5.3690752534159447e+00 1.6148117359034924e+01 1.7050496053713694e+01 -1 3 0
406 1 1.9001238819180237e+00 7.4005994305513023e-01 1.2948215277980328e+01 -2 0 0
3565 1 1.1580404978318549e+01 1.2576548407025413e+01 2.4074543783138861e+01 3 2 0
2154 1 3.1857341444033840e+00 1.2165922590952240e+01 2.3904432562561986e+01 3 2 0
511 2 0.0000000000000000e+00 2.8417180249513345e+00 2.6784273925908948e+01 0 0 0
512 2 0.0000000000000000e+00 0.0000000000000000e+00 2.6784273925908948e+01 0 0 0
513 2 1.2305000000000001e+00 7.1042950623783474e-01 2.6784273925908948e+01 0 0 0
517 2 1.2305000000000001e+00 2.1312885187134998e+00 2.6784273925908948e+01 0 0 0
518 2 2.4610000000000003e+00 2.8417180249513345e+00 2.6784273925908948e+01 0 0 0
519 2 2.4610000000000003e+00 0.0000000000000000e+00 2.6784273925908948e+01 0 0 0
520 2 3.6915000000000004e+00 7.1042950623783474e-01 2.6784273925908948e+01 0 0 0
528 2 3.6914999999999996e+00 2.1312885187134998e+00 2.6784273925908948e+01 0 0 0
529 2 4.9220000000000006e+00 2.8417180249513332e+00 2.6784273925908948e+01 0 0 0
530 2 4.9220000000000006e+00 0.0000000000000000e+00 2.6784273925908948e+01 0 0 0
531 2 6.1524999999999999e+00 7.1042950623783407e-01 2.6784273925908948e+01 0 0 0
543 2 6.1524999999999999e+00 2.1312885187134989e+00 2.6784273925908948e+01 0 0 0
544 2 7.3829999999999991e+00 2.8417180249513345e+00 2.6784273925908948e+01 0 0 0
545 2 7.3829999999999991e+00 0.0000000000000000e+00 2.6784273925908948e+01 0 0 0
546 2 8.6134999999999984e+00 7.1042950623783407e-01 2.6784273925908948e+01 0 0 0
562 2 8.6134999999999984e+00 2.1312885187135002e+00 2.6784273925908948e+01 0 0 0
563 2 9.8440000000000012e+00 2.8417180249513332e+00 2.6784273925908948e+01 0 0 0
564 2 9.8440000000000012e+00 0.0000000000000000e+00 2.6784273925908948e+01 0 0 0
565 2 1.1074500000000002e+01 7.1042950623783330e-01 2.6784273925908948e+01 0 0 0
585 2 1.1074500000000002e+01 2.1312885187135002e+00 2.6784273925908948e+01 0 0 0
1856 1 9.2887336975408772e+00 1.2784349147963754e+00 2.4374398046678074e+01 2 -2 1
514 2 0.0000000000000000e+00 7.1042950623783341e+00 2.6784273925908948e+01 0 0 0
515 2 0.0000000000000000e+00 4.2625770374269996e+00 2.6784273925908948e+01 0 0 0
516 2 1.2305000000000001e+00 4.9730065436648339e+00 2.6784273925908948e+01 0 0 0
524 2 1.2305000000000001e+00 6.3938655561404980e+00 2.6784273925908948e+01 0 0 0
525 2 2.4610000000000003e+00 7.1042950623783341e+00 2.6784273925908948e+01 0 0 0
526 2 2.4610000000000003e+00 4.2625770374269996e+00 2.6784273925908948e+01 0 0 0
527 2 3.6914999999999996e+00 4.9730065436648339e+00 2.6784273925908948e+01 0 0 0
539 2 3.6914999999999996e+00 6.3938655561404980e+00 2.6784273925908948e+01 0 0 0
540 2 4.9220000000000006e+00 7.1042950623783341e+00 2.6784273925908948e+01 0 0 0
541 2 4.9220000000000006e+00 4.2625770374269978e+00 2.6784273925908948e+01 0 0 0
542 2 6.1524999999999999e+00 4.9730065436648339e+00 2.6784273925908948e+01 0 0 0
558 2 6.1524999999999999e+00 6.3938655561404980e+00 2.6784273925908948e+01 0 0 0
559 2 7.3830000000000009e+00 7.1042950623783341e+00 2.6784273925908948e+01 0 0 0
560 2 7.3829999999999991e+00 4.2625770374269996e+00 2.6784273925908948e+01 0 0 0
561 2 8.6135000000000002e+00 4.9730065436648339e+00 2.6784273925908948e+01 0 0 0
581 2 8.6135000000000002e+00 6.3938655561404980e+00 2.6784273925908948e+01 0 0 0
582 2 9.8440000000000012e+00 7.1042950623783341e+00 2.6784273925908948e+01 0 0 0
583 2 9.8440000000000012e+00 4.2625770374270004e+00 2.6784273925908948e+01 0 0 0
584 2 1.1074500000000002e+01 4.9730065436648339e+00 2.6784273925908948e+01 0 0 0
605 2 1.1074500000000002e+01 6.3938655561404980e+00 2.6784273925908948e+01 0 0 0
2083 1 2.1564966639415597e+00 2.2219252546065135e-01 3.5805042538145386e+01 -1 1 -1
521 2 0.0000000000000000e+00 1.1366872099805333e+01 2.6784273925908948e+01 0 0 0
522 2 0.0000000000000000e+00 8.5251540748539991e+00 2.6784273925908948e+01 0 0 0
523 2 1.2305000000000001e+00 9.2355835810918343e+00 2.6784273925908948e+01 0 0 0
535 2 1.2305000000000001e+00 1.0656442593567498e+01 2.6784273925908948e+01 0 0 0
536 2 2.4610000000000003e+00 1.1366872099805333e+01 2.6784273925908948e+01 0 0 0
537 2 2.4610000000000003e+00 8.5251540748539991e+00 2.6784273925908948e+01 0 0 0
538 2 3.6915000000000004e+00 9.2355835810918343e+00 2.6784273925908948e+01 0 0 0
554 2 3.6914999999999996e+00 1.0656442593567499e+01 2.6784273925908948e+01 0 0 0
555 2 4.9220000000000006e+00 1.1366872099805333e+01 2.6784273925908948e+01 0 0 0
556 2 4.9220000000000006e+00 8.5251540748539991e+00 2.6784273925908948e+01 0 0 0
557 2 6.1524999999999999e+00 9.2355835810918343e+00 2.6784273925908948e+01 0 0 0
577 2 6.1524999999999999e+00 1.0656442593567499e+01 2.6784273925908948e+01 0 0 0
578 2 7.3829999999999991e+00 1.1366872099805333e+01 2.6784273925908948e+01 0 0 0
579 2 7.3830000000000009e+00 8.5251540748539991e+00 2.6784273925908948e+01 0 0 0
580 2 8.6134999999999984e+00 9.2355835810918343e+00 2.6784273925908948e+01 0 0 0
601 2 8.6134999999999984e+00 1.0656442593567498e+01 2.6784273925908948e+01 0 0 0
602 2 9.8440000000000012e+00 1.1366872099805333e+01 2.6784273925908948e+01 0 0 0
603 2 9.8440000000000012e+00 8.5251540748539956e+00 2.6784273925908948e+01 0 0 0
604 2 1.1074500000000002e+01 9.2355835810918343e+00 2.6784273925908948e+01 0 0 0
625 2 1.1074500000000002e+01 1.0656442593567498e+01 2.6784273925908948e+01 0 0 0
626 2 1.2304999999999998e+01 1.1366872099805333e+01 2.6784273925908948e+01 0 0 0
532 2 0.0000000000000000e+00 1.5629449137232333e+01 2.6784273925908948e+01 0 0 0
533 2 0.0000000000000000e+00 1.2787731112280996e+01 2.6784273925908948e+01 0 0 0
534 2 1.2305000000000001e+00 1.3498160618518829e+01 2.6784273925908948e+01 0 0 0
550 2 1.2305000000000001e+00 1.4919019630994494e+01 2.6784273925908948e+01 0 0 0
551 2 2.4610000000000003e+00 1.5629449137232328e+01 2.6784273925908948e+01 0 0 0
552 2 2.4610000000000003e+00 1.2787731112280996e+01 2.6784273925908948e+01 0 0 0
553 2 3.6915000000000004e+00 1.3498160618518829e+01 2.6784273925908948e+01 0 0 0
573 2 3.6915000000000004e+00 1.4919019630994494e+01 2.6784273925908948e+01 0 0 0
1524 2 1.1074500000000002e+01 1.3498160618518829e+01 3.3277726074077009e+01 0 0 0
574 2 4.9220000000000006e+00 1.5629449137232333e+01 2.6784273925908948e+01 0 0 0
575 2 4.9220000000000006e+00 1.2787731112280996e+01 2.6784273925908948e+01 0 0 0
576 2 6.1524999999999990e+00 1.3498160618518829e+01 2.6784273925908948e+01 0 0 0
597 2 6.1524999999999990e+00 1.4919019630994494e+01 2.6784273925908948e+01 0 0 0
598 2 7.3829999999999991e+00 1.5629449137232333e+01 2.6784273925908948e+01 0 0 0
599 2 7.3829999999999991e+00 1.2787731112280996e+01 2.6784273925908948e+01 0 0 0
600 2 8.6135000000000002e+00 1.3498160618518835e+01 2.6784273925908948e+01 0 0 0
621 2 8.6135000000000002e+00 1.4919019630994494e+01 2.6784273925908948e+01 0 0 0
622 2 9.8440000000000012e+00 1.5629449137232328e+01 2.6784273925908948e+01 0 0 0
623 2 9.8440000000000012e+00 1.2787731112280996e+01 2.6784273925908948e+01 0 0 0
624 2 1.1074500000000002e+01 1.3498160618518829e+01 2.6784273925908948e+01 0 0 0
642 2 1.1074500000000002e+01 1.4919019630994494e+01 2.6784273925908948e+01 0 0 0
1250 2 0.0000000000000000e+00 1.4208590124756650e+00 3.0030999999997491e+01 0 0 0
1251 2 0.0000000000000000e+00 0.0000000000000000e+00 3.0030999999997491e+01 0 0 0
1254 2 1.2305000000000001e+00 3.5521475311891644e+00 3.0030999999997491e+01 0 0 0
1255 2 1.2305000000000001e+00 2.1312885187134998e+00 3.0030999999997491e+01 0 0 0
1256 2 2.4610000000000003e+00 1.4208590124756650e+00 3.0030999999997491e+01 0 0 0
1257 2 2.4610000000000003e+00 0.0000000000000000e+00 3.0030999999997491e+01 0 0 0
1264 2 3.6914999999999996e+00 3.5521475311891644e+00 3.0030999999997491e+01 0 0 0
1265 2 3.6914999999999996e+00 2.1312885187134998e+00 3.0030999999997491e+01 0 0 0
1266 2 4.9220000000000006e+00 1.4208590124756650e+00 3.0030999999997491e+01 0 0 0
1267 2 4.9220000000000006e+00 0.0000000000000000e+00 3.0030999999997491e+01 0 0 0
1278 2 6.1524999999999999e+00 3.5521475311891644e+00 3.0030999999997491e+01 0 0 0
1279 2 6.1524999999999999e+00 2.1312885187134989e+00 3.0030999999997491e+01 0 0 0
1280 2 7.3829999999999991e+00 1.4208590124756659e+00 3.0030999999997491e+01 0 0 0
1281 2 7.3829999999999991e+00 0.0000000000000000e+00 3.0030999999997491e+01 0 0 0
1296 2 8.6134999999999984e+00 3.5521475311891657e+00 3.0030999999997491e+01 0 0 0
1297 2 8.6134999999999984e+00 2.1312885187135002e+00 3.0030999999997491e+01 0 0 0
1298 2 9.8440000000000012e+00 1.4208590124756659e+00 3.0030999999997491e+01 0 0 0
1299 2 9.8440000000000012e+00 0.0000000000000000e+00 3.0030999999997491e+01 0 0 0
1318 2 1.1074500000000002e+01 3.5521475311891644e+00 3.0030999999997491e+01 0 0 0
1319 2 1.1074500000000002e+01 2.1312885187135002e+00 3.0030999999997491e+01 0 0 0
1252 2 0.0000000000000000e+00 5.6834360499026637e+00 3.0030999999997491e+01 0 0 0
1253 2 0.0000000000000000e+00 4.2625770374269996e+00 3.0030999999997491e+01 0 0 0
1260 2 1.2305000000000001e+00 7.8147245686161639e+00 3.0030999999997491e+01 0 0 0
1261 2 1.2305000000000001e+00 6.3938655561404980e+00 3.0030999999997491e+01 0 0 0
1262 2 2.4610000000000003e+00 5.6834360499026637e+00 3.0030999999997491e+01 0 0 0
1263 2 2.4610000000000003e+00 4.2625770374269996e+00 3.0030999999997491e+01 0 0 0
1274 2 3.6914999999999996e+00 7.8147245686161639e+00 3.0030999999997491e+01 0 0 0
1275 2 3.6914999999999996e+00 6.3938655561404980e+00 3.0030999999997491e+01 0 0 0
1276 2 4.9220000000000006e+00 5.6834360499026637e+00 3.0030999999997491e+01 0 0 0
1277 2 4.9220000000000006e+00 4.2625770374269978e+00 3.0030999999997491e+01 0 0 0
1292 2 6.1524999999999999e+00 7.8147245686161639e+00 3.0030999999997491e+01 0 0 0
1293 2 6.1524999999999999e+00 6.3938655561404980e+00 3.0030999999997491e+01 0 0 0
1294 2 7.3829999999999991e+00 5.6834360499026637e+00 3.0030999999997491e+01 0 0 0
1295 2 7.3829999999999991e+00 4.2625770374269996e+00 3.0030999999997491e+01 0 0 0
1314 2 8.6135000000000002e+00 7.8147245686161639e+00 3.0030999999997491e+01 0 0 0
1315 2 8.6135000000000002e+00 6.3938655561404980e+00 3.0030999999997491e+01 0 0 0
1316 2 9.8440000000000012e+00 5.6834360499026637e+00 3.0030999999997491e+01 0 0 0
1317 2 9.8440000000000012e+00 4.2625770374270004e+00 3.0030999999997491e+01 0 0 0
1337 2 1.1074500000000002e+01 7.8147245686161639e+00 3.0030999999997491e+01 0 0 0
1338 2 1.1074500000000002e+01 6.3938655561404980e+00 3.0030999999997491e+01 0 0 0
1258 2 0.0000000000000000e+00 9.9460130873296642e+00 3.0030999999997491e+01 0 0 0
1259 2 0.0000000000000000e+00 8.5251540748539991e+00 3.0030999999997491e+01 0 0 0
1270 2 1.2305000000000001e+00 1.2077301606043163e+01 3.0030999999997491e+01 0 0 0
1271 2 1.2305000000000001e+00 1.0656442593567498e+01 3.0030999999997491e+01 0 0 0
1272 2 2.4610000000000003e+00 9.9460130873296642e+00 3.0030999999997491e+01 0 0 0
1273 2 2.4610000000000003e+00 8.5251540748539991e+00 3.0030999999997491e+01 0 0 0
1288 2 3.6914999999999996e+00 1.2077301606043163e+01 3.0030999999997491e+01 0 0 0
1289 2 3.6914999999999996e+00 1.0656442593567499e+01 3.0030999999997491e+01 0 0 0
1290 2 4.9220000000000006e+00 9.9460130873296642e+00 3.0030999999997491e+01 0 0 0
1291 2 4.9220000000000006e+00 8.5251540748539991e+00 3.0030999999997491e+01 0 0 0
1310 2 6.1524999999999999e+00 1.2077301606043163e+01 3.0030999999997491e+01 0 0 0
1311 2 6.1524999999999999e+00 1.0656442593567499e+01 3.0030999999997491e+01 0 0 0
1312 2 7.3830000000000009e+00 9.9460130873296642e+00 3.0030999999997491e+01 0 0 0
1313 2 7.3830000000000009e+00 8.5251540748539991e+00 3.0030999999997491e+01 0 0 0
1333 2 8.6135000000000002e+00 1.2077301606043163e+01 3.0030999999997491e+01 0 0 0
1334 2 8.6134999999999984e+00 1.0656442593567498e+01 3.0030999999997491e+01 0 0 0
1335 2 9.8440000000000012e+00 9.9460130873296642e+00 3.0030999999997491e+01 0 0 0
1336 2 9.8440000000000012e+00 8.5251540748539956e+00 3.0030999999997491e+01 0 0 0
1356 2 1.1074500000000002e+01 1.2077301606043163e+01 3.0030999999997491e+01 0 0 0
1357 2 1.1074500000000002e+01 1.0656442593567498e+01 3.0030999999997491e+01 0 0 0
1268 2 0.0000000000000000e+00 1.4208590124756663e+01 3.0030999999997491e+01 0 0 0
1269 2 0.0000000000000000e+00 1.2787731112280996e+01 3.0030999999997491e+01 0 0 0
1285 2 1.2305000000000001e+00 1.4919019630994494e+01 3.0030999999997491e+01 0 0 0
1286 2 2.4610000000000003e+00 1.4208590124756663e+01 3.0030999999997491e+01 0 0 0
1287 2 2.4610000000000003e+00 1.2787731112280996e+01 3.0030999999997491e+01 0 0 0
1307 2 3.6915000000000004e+00 1.4919019630994494e+01 3.0030999999997491e+01 0 0 0
1308 2 4.9220000000000006e+00 1.4208590124756663e+01 3.0030999999997491e+01 0 0 0
1309 2 4.9220000000000006e+00 1.2787731112280996e+01 3.0030999999997491e+01 0 0 0
1330 2 6.1524999999999990e+00 1.4919019630994494e+01 3.0030999999997491e+01 0 0 0
1331 2 7.3830000000000009e+00 1.4208590124756663e+01 3.0030999999997491e+01 0 0 0
1332 2 7.3829999999999991e+00 1.2787731112280996e+01 3.0030999999997491e+01 0 0 0
1354 2 9.8440000000000012e+00 1.4208590124756663e+01 3.0030999999997491e+01 0 0 0
1353 2 8.6135000000000002e+00 1.4919019630994494e+01 3.0030999999997491e+01 0 0 0
1373 2 1.1074500000000002e+01 1.6339878643470161e+01 3.0030999999997491e+01 0 0 0
1374 2 1.1074500000000002e+01 1.4919019630994494e+01 3.0030999999997491e+01 0 0 0
1375 2 1.2304999999999998e+01 1.4208590124756658e+01 3.0030999999997491e+01 0 0 0
1355 2 9.8440000000000012e+00 1.2787731112280996e+01 3.0030999999997491e+01 0 0 0
1411 2 0.0000000000000000e+00 2.8417180249513345e+00 3.3277726074077009e+01 0 0 0
1412 2 0.0000000000000000e+00 0.0000000000000000e+00 3.3277726074077009e+01 0 0 0
1413 2 1.2305000000000001e+00 7.1042950623783474e-01 3.3277726074077009e+01 0 0 0
1417 2 1.2305000000000001e+00 2.1312885187134998e+00 3.3277726074077009e+01 0 0 0
1418 2 2.4610000000000003e+00 2.8417180249513345e+00 3.3277726074077009e+01 0 0 0
1419 2 2.4610000000000003e+00 0.0000000000000000e+00 3.3277726074077009e+01 0 0 0
1420 2 3.6915000000000004e+00 7.1042950623783474e-01 3.3277726074077009e+01 0 0 0
1428 2 3.6914999999999996e+00 2.1312885187134998e+00 3.3277726074077009e+01 0 0 0
1500 2 8.6135000000000002e+00 1.3498160618518835e+01 3.3277726074077009e+01 0 0 0
1429 2 4.9220000000000006e+00 2.8417180249513332e+00 3.3277726074077009e+01 0 0 0
1430 2 4.9220000000000006e+00 0.0000000000000000e+00 3.3277726074077009e+01 0 0 0
1431 2 6.1524999999999999e+00 7.1042950623783407e-01 3.3277726074077009e+01 0 0 0
1443 2 6.1524999999999999e+00 2.1312885187134989e+00 3.3277726074077009e+01 0 0 0
1444 2 7.3829999999999991e+00 2.8417180249513345e+00 3.3277726074077009e+01 0 0 0
1445 2 7.3829999999999991e+00 0.0000000000000000e+00 3.3277726074077009e+01 0 0 0
1446 2 8.6134999999999984e+00 7.1042950623783407e-01 3.3277726074077009e+01 0 0 0
1462 2 8.6134999999999984e+00 2.1312885187135002e+00 3.3277726074077009e+01 0 0 0
1463 2 9.8440000000000012e+00 2.8417180249513332e+00 3.3277726074077009e+01 0 0 0
1464 2 9.8440000000000012e+00 0.0000000000000000e+00 3.3277726074077009e+01 0 0 0
1465 2 1.1074500000000002e+01 7.1042950623783330e-01 3.3277726074077009e+01 0 0 0
1485 2 1.1074500000000002e+01 2.1312885187135002e+00 3.3277726074077009e+01 0 0 0
1474 2 4.9220000000000006e+00 1.5629449137232333e+01 3.3277726074077009e+01 0 0 0
1414 2 0.0000000000000000e+00 7.1042950623783341e+00 3.3277726074077009e+01 0 0 0
1415 2 0.0000000000000000e+00 4.2625770374269996e+00 3.3277726074077009e+01 0 0 0
1416 2 1.2305000000000001e+00 4.9730065436648339e+00 3.3277726074077009e+01 0 0 0
1424 2 1.2305000000000001e+00 6.3938655561404980e+00 3.3277726074077009e+01 0 0 0
1425 2 2.4610000000000003e+00 7.1042950623783341e+00 3.3277726074077009e+01 0 0 0
1426 2 2.4610000000000003e+00 4.2625770374269996e+00 3.3277726074077009e+01 0 0 0
1427 2 3.6914999999999996e+00 4.9730065436648339e+00 3.3277726074077009e+01 0 0 0
1439 2 3.6914999999999996e+00 6.3938655561404980e+00 3.3277726074077009e+01 0 0 0
1523 2 9.8440000000000012e+00 1.2787731112280996e+01 3.3277726074077009e+01 0 0 0
1542 2 1.1074500000000002e+01 1.4919019630994494e+01 3.3277726074077009e+01 0 0 0
1440 2 4.9220000000000006e+00 7.1042950623783341e+00 3.3277726074077009e+01 0 0 0
1441 2 4.9220000000000006e+00 4.2625770374269978e+00 3.3277726074077009e+01 0 0 0
1442 2 6.1524999999999999e+00 4.9730065436648339e+00 3.3277726074077009e+01 0 0 0
1458 2 6.1524999999999999e+00 6.3938655561404980e+00 3.3277726074077009e+01 0 0 0
1459 2 7.3830000000000009e+00 7.1042950623783341e+00 3.3277726074077009e+01 0 0 0
1460 2 7.3829999999999991e+00 4.2625770374269996e+00 3.3277726074077009e+01 0 0 0
1461 2 8.6135000000000002e+00 4.9730065436648339e+00 3.3277726074077009e+01 0 0 0
1481 2 8.6135000000000002e+00 6.3938655561404980e+00 3.3277726074077009e+01 0 0 0
1482 2 9.8440000000000012e+00 7.1042950623783341e+00 3.3277726074077009e+01 0 0 0
1483 2 9.8440000000000012e+00 4.2625770374270004e+00 3.3277726074077009e+01 0 0 0