LAMMPS data file via write_data, version 16 Mar 2018, timestep = 100000

6736 atoms
2 atom types

0.0000000000000000e+00 4.9219999999999999e+01 xlo xhi
0.0000000000000000e+00 4.9019635930410494e+01 ylo yhi
9.1991169925688965e-01 5.9142088300742749e+01 zlo zhi

Masses

1 18.015
2 12.01

Atoms # atomic

2559 1 2.1738263600512995e+00 2.6118071821781439e+00 2.3211749212767865e+00 1 1 1
5974 1 4.4807828917128276e+00 1.5791696146247747e+00 3.9126193484602036e+00 1 0 1
2648 1 7.3973097673897552e+00 2.0402409214556290e+00 1.5297772695232896e+00 0 0 1
1966 1 8.0826955196982961e+00 3.1126120538661004e+00 3.9986648527570865e+00 1 1 0
3797 1 1.1097450664038075e+01 2.2200629644538710e+00 4.4881241424999407e+00 0 1 0
132 1 1.1811284510379060e+01 1.2430406373313663e+00 1.4759035868600567e+00 1 1 0
27 1 2.1410131220071911e+00 5.4179045728332929e+00 2.4340563364262073e+00 0 0 0
964 1 8.5387617438268892e-02 5.5491829045941925e+00 4.1996173527587679e+00 1 1 1
4361 1 4.6195808809941292e+00 5.8498553305235417e+00 4.2819746550878008e+00 0 0 1
2599 1 7.1019041490995951e+00 6.4716428420370544e+00 1.1450535766022114e+00 1 2 1
4446 1 5.2176736638569139e+00 4.1853379700027862e+00 1.6121348675197482e+00 1 2 1
5814 1 9.1484160265823249e+00 5.9258188625160040e+00 3.7190432911387714e+00 -1 1 1
2896 1 1.1441582578131614e+01 4.7941525039567576e+00 2.7182547432429107e+00 0 0 1
5425 1 2.1653465845208668e+00 9.7493304191694836e+00 3.3222827106390631e+00 1 0 0
5816 1 5.6251095839508265e+00 8.5893629695373352e+00 2.5370571178344821e+00 0 0 1
240 1 7.2200745188628019e+00 1.0811417963860551e+01 1.9882833077754380e+00 -1 1 0
466 1 1.1239219079245959e+01 1.0372423210194748e+01 1.6744517459721973e+00 1 0 0
3501 1 9.0516718158413578e+00 9.0666259369998752e+00 2.7205961161735859e+00 0 1 1
1042 1 7.7933344712517727e-01 1.4056457659979689e+01 1.4553406266042312e+00 0 1 1
4307 1 3.2917492508479387e+00 1.3374460905982827e+01 2.0283089143121873e+00 0 0 1
4202 1 1.5565021011339137e+00 1.2454955550355633e+01 4.7174489342637980e+00 1 0 1
1724 1 7.5942380969983683e+00 1.2792904019406880e+01 3.7802349988376007e+00 1 0 0
6253 1 5.2146357926476901e+00 1.4006292896651283e+01 4.1377288810923236e+00 -1 0 1
2440 1 6.8771735338946325e+00 1.5715302836581300e+01 1.5686037707512930e+00 -1 0 0
124 1 1.0990921587105568e+01 1.3293894935213451e+01 2.8377294053873636e+00 -2 -1 0
6180 1 2.4969525917508415e+00 3.5952207306633146e+00 6.4061217882198820e+00 1 -1 1
1209 1 2.4636542879284322e+00 1.0260651029868704e+00 6.0289379485806593e+00 -1 1 1
5291 1 5.7925840439599234e+00 3.2768980204402061e+00 5.5177321883366863e+00 1 1 0
3463 1 6.5206524157294856e+00 1.6697114333617291e+00 7.2787394823067295e+00 2 1 0
1919 1 1.1888662735381278e+01 3.9663581915392228e+00 6.7332592204950101e+00 3 1 0
3735 1 9.1288617005479331e+00 9.0185152032777749e-01 6.3974790351155946e+00 0 1 1
191 1 2.6381420331602561e+00 7.3295349881918748e+00 5.3397678697644881e+00 -1 0 0
3592 1 1.8026296930789436e+00 6.6455427137769076e+00 7.8897295831719418e+00 2 0 0
5994 1 5.8852352480782679e+00 5.4093219246709872e+00 8.0388996839873634e+00 1 0 1
2702 1 6.7616704061039812e+00 7.0070774314986606e+00 6.0108561921597188e+00 2 0 1
1179 1 8.9696396794147759e+00 7.6937945440195596e+00 7.3538915548147470e+00 0 0 1
4582 1 1.1365815353350854e+01 6.6269370747537701e+00 6.3564384225276021e+00 1 2 1
4326 1 1.1481088648709397e+00 9.5264752119520679e+00 6.9371295302470033e+00 2 0 1
3802 1 3.6140898529415164e+00 1.0782681824499296e+01 6.1536008274088134e+00 1 -1 0
6231 1 5.5055290050569088e+00 9.2815715501272837e+00 5.0541788566797212e+00 0 0 1
5252 1 6.4486348423188442e+00 1.1960937466375526e+01 8.0326322108413457e+00 1 -1 0
1777 1 7.3541604947419126e+00 1.0984134206542411e+01 5.6472046140265313e+00 0 1 1
5810 1 1.1033378736097607e+01 1.1871173976833630e+01 5.0776092098370711e+00 1 0 1
2763 1 9.5155424132204018e+00 9.7071275602118483e+00 5.4373669950454779e+00 1 1 1
5419 1 1.2207897577797930e+00 1.6135694524957970e+01 5.6639879858484630e+00 1 1 0
3622 1 6.1064630517219642e-01 1.4055994293167313e+01 7.2492150046534123e+00 1 0 0
2093 1 6.8154904175867639e+00 1.5826763004676481e+01 6.5634412069650239e+00 2 1 0
2831 1 4.1055335497360907e+00 1.3563226763023996e+01 6.8013771257939819e+00 0 0 1
5176 1 9.3020878525982731e+00 1.5061410375912416e+01 4.9411211740117347e+00 0 0 1
180 1 1.1460415433080417e+01 1.3000000395566214e+01 7.6475160385827721e+00 1 0 0
2148 1 1.0431972953499937e+01 1.5149628069924045e+01 7.6488731860707615e+00 -1 1 0
1883 1 3.9980617065062671e+00 1.2672723511987054e+00 1.0485629699331541e+01 0 0 0
2792 1 1.2113262289222508e+00 1.0289840382351623e-01 9.2370519733316723e+00 -1 1 1
4616 1 3.1109684800735957e+00 3.7789839051431247e+00 9.2668296494156355e+00 1 0 1
2048 1 5.5783789097822667e-01 3.7106757898683362e+00 1.1956571218940018e+01 2 1 0
5543 1 7.5093514257070781e+00 3.3424912211343614e+00 8.9439823763391573e+00 0 2 0
1839 1 6.7787831692080376e+00 1.9535724896047542e+00 1.1311112177952200e+01 1 1 1
5343 1 1.1481439483164413e+01 5.5513214823025936e-01 9.7503668358506292e+00 -1 0 0
5515 1 1.0573271437151439e+01 2.9395091550703532e+00 8.8993479869039085e+00 -1 -1 0
3836 1 1.7515407223539907e+00 6.2195798976675727e+00 1.1153515591916959e+01 0 -1 0
740 1 7.3065993144838313e+00 4.5626592556987822e+00 1.2429679831755601e+01 0 0 1
6189 1 4.6925619945104629e+00 6.2515026359296213e+00 1.0590042891436129e+01 -2 1 1
6079 1 1.1403875509744536e+01 5.0196096989664207e+00 1.0346935773574190e+01 1 1 1
456 1 9.2469208500905733e+00 5.9933275108601576e+00 1.1587913530046626e+01 1 2 0
406 1 1.8035284657354498e+00 1.0710003968973028e+01 9.5077324320936292e+00 0 0 0
3789 1 4.6437992746262008e-01 9.1170756117192902e+00 1.1044349884320253e+01 0 0 0
5146 1 5.9539458094013209e-01 1.1456149319969828e+01 1.2461552504484970e+01 1 0 0
765 1 5.6950004867069559e+00 8.7512432122928043e+00 1.0795736424154406e+01 -1 1 1
343 1 4.7104697947733349e+00 1.1109708546335888e+01 9.9967262557481114e+00 0 0 0
184 1 1.1173438201942730e+01 1.1533906709200313e+01 9.6313179305358965e+00 1 1 0
970 1 1.1615826905620544e+01 8.7826030601321925e+00 1.0504778831884968e+01 -1 0 1
2764 1 8.3112810139526410e+00 8.5033830901810159e+00 1.0425766507555316e+01 0 1 1
4214 1 8.7864506344848774e+00 1.1320878164403510e+01 1.0022325815516961e+01 0 1 1
3498 1 3.0610945562548504e+00 1.4632281962166585e+01 1.1420693696157642e+01 1 1 0
3846 1 2.1453129539413145e+00 1.3244368637602101e+01 9.2391169990060913e+00 0 1 1
5367 1 7.7111741859406084e+00 1.4394484390997340e+01 8.9669205411003929e+00 2 1 0
2811 1 5.8177527841877206e+00 1.5253089604248832e+01 1.1525663931022057e+01 0 0 0
1948 1 7.1205207036328524e+00 1.3078799227351665e+01 1.1835909231707195e+01 1 1 0
2738 1 1.1446370558357348e+01 1.4742908357049805e+01 1.1984933634211020e+01 1 0 0
1149 1 2.6068269143215193e+00 2.0799384785621875e+00 1.2576720796271530e+01 0 2 1
1767 1 9.2703142223463741e-01 6.0413885396085265e-01 1.3874854039611657e+01 1 1 0
794 1 4.4027280146855885e+00 3.7006858183948164e+00 1.4362989056558536e+01 0 0 0
790 1 8.0745977071667951e+00 1.4894523798665971e+00 1.5964136375527739e+01 2 0 0
5569 1 5.8930757189944600e+00 1.4984621523886774e+00 1.4269417879397137e+01 0 1 0
5992 1 8.9335804529787097e+00 3.5919053792143201e+00 1.4822813343661492e+01 1 0 1
2913 1 1.0790862939936231e+01 2.3513353860950326e+00 1.3081665919679798e+01 0 0 1
465 1 2.4218697903973787e+00 6.4526844003682315e+00 1.4325123085500675e+01 0 0 0
1243 1 8.0013398005711167e-02 5.8216945200881094e+00 1.5885672367221318e+01 1 0 1
251 1 5.7279160378745306e+00 6.0478232612186185e+00 1.3938535564957672e+01 0 -1 1
2177 1 9.8939999609791549e+00 6.8245728446744360e+00 1.3979576450320701e+01 0 0 0
185 1 3.2719832998338791e+00 8.8711888518026996e+00 1.5274503263644192e+01 0 -1 0
427 1 1.0023307800671470e+00 1.0877605880250787e+01 1.5348341575661498e+01 0 0 0
3680 1 5.3499477116047274e+00 1.1538214745053272e+01 1.2915648078643141e+01 1 1 0
6081 1 5.7400728441054296e+00 1.1330085295447914e+01 1.5953058583486794e+01 1 1 1
5226 1 5.7307879558804533e+00 8.9119142136542262e+00 1.3600513344003614e+01 -2 1 0
5444 1 8.5594925072011172e+00 9.0183204387719726e+00 1.4470219087630637e+01 1 0 0
5088 1 9.9566638736693012e+00 1.1188429600637438e+01 1.3232704907406751e+01 1 1 1
862 1 1.7080617997713234e+00 1.4728872923044131e+01 1.5030834252791630e+01 1 -1 1
4431 1 2.9082554476891276e+00 1.2796620064880274e+01 1.3117493045151372e+01 1 0 1
5507 1 6.5495909868423281e+00 1.5133508544529539e+01 1.5975059441962134e+01 1 0 0
2751 1 8.4566811794516497e+00 1.3083346403365159e+01 1.5758159067332532e+01 0 0 1
6298 1 8.9001837581807788e+00 1.4306544226189077e+01 1.3272690601678990e+01 -1 1 0
6156 1 9.5946594736924351e-01 3.3970367058079378e+00 1.7022162933657107e+01 0 0 1
4494 1 1.3547060885455775e+00 9.2917332779299167e-01 1.9071787971360578e+01 -1 0 1
454 1 3.7066772528154508e+00 2.9546995151519839e+00 1.6899676611734492e+01 0 1 0
506 1 2.1823880930614750e+00 1.0102978633256753e-01 1.6543244439907884e+01 1 1 0
5081 1 7.9814695192752865e+00 2.0553429190721832e+00 1.8654639235719525e+01 1 2 0
1091 1 5.3399909034806674e+00 1.8676772751045367e+00 1.8857674240509688e+01 1 1 1
5188 1 2.8117249309798074e+00 7.2951335689471408e+00 1.7460598284291709e+01 1 0 0
2022 1 7.7554717690745878e-01 5.0626769030681213e+00 1.9230985293099071e+01 1 -1 0
5316 1 4.7186124744107332e+00 5.2757810005841081e+00 1.7959779498963325e+01 1 0 0
5576 1 6.4966877673509673e+00 6.6524892580488251e+00 1.6685719892365391e+01 0 -1 0
3392 1 6.8344201676634082e+00 5.7809076849788283e+00 2.0310315207001693e+01 1 0 0
2683 1 8.6350601170819861e+00 4.3045155157037227e+00 1.9199857104837967e+01 1 1 1
2463 1 9.1131430517922531e+00 5.7842671846314175e+00 1.6960956058913901e+01 0 0 1
6158 1 9.7635248552944773e+00 7.8556888211805163e+00 1.9553265826229591e+01 2 0 1
6137 1 3.4761123358564223e+00 9.4506636553092829e+00 1.8803914011506407e+01 0 0 1
4534 1 3.3181141319156584e+00 1.1676235528688000e+01 1.6982001840835746e+01 1 0 0
3817 1 1.5226919966639940e-01 8.4142247640918679e+00 1.7096964771386492e+01 0 0 0
3698 1 6.1556468609414550e+00 9.3743214065220766e+00 1.8030573463863682e+01 1 0 0
5204 1 1.0474954677735042e+01 1.2146074407446113e+01 1.9616632295808238e+01 1 1 0
5324 1 8.8618092474379182e+00 1.0385170522474303e+01 1.7221722966532869e+01 0 1 1
440 1 1.1796558151998294e+01 1.0051970574642327e+01 1.7848603791280631e+01 0 0 0
2794 1 2.5915064238086076e+00 1.2447027070267449e+01 1.9985820805539468e+01 0 0 1
6112 1 3.9344513836291721e+00 1.4855422814083854e+01 1.6934006643301867e+01 1 1 0
1913 1 9.3444383239326934e-01 1.5746921149852705e+01 1.8164307699000158e+01 2 1 0
3477 1 4.2535481791287602e+00 1.5782026035475178e+01 1.9684397981780595e+01 0 0 0
6116 1 1.0200235290467560e+01 1.4285180762461172e+01 1.7673120522800296e+01 0 0 1
104 1 8.8220501406992202e+00 1.5029348375874980e+01 2.0249582150118787e+01 1 0 1
313 1 1.4049683961809876e+00 2.1679412648480785e+00 2.3744696415920757e+01 0 1 0
2830 1 1.6500009984995259e+00 2.8410239708249190e+00 2.1096721746486711e+01 1 0 1
6138 1 4.5504951246218903e+00 3.1348364827762203e+00 2.1178044203088294e+01 1 1 0
81 1 5.0126207415389903e+00 1.0672524049814287e+00 2.2733880489244680e+01 0 0 0
1788 1 7.7062770321324514e+00 3.7723598826328484e+00 2.3872545251380693e+01 2 0 0
4364 1 1.1384767712377672e+01 3.0301129466574528e-01 2.1081948673872354e+01 1 1 1
6071 1 1.0641311463716933e+01 9.8226951369683679e-01 2.3510950941017764e+01 0 1 1
5109 1 1.0450894530093411e+01 3.7466167640487194e+00 2.3169330614333692e+01 -1 1 0
3472 1 1.0788755969659777e+01 4.0823744203739061e+00 2.0466551687135503e+01 1 1 1
5832 1 2.6553957234147751e+00 6.9384677739282568e+00 2.3602040727334536e+01 2 1 0
2164 1 1.7606577987503380e+00 7.7979415551371378e+00 2.0727638658681222e+01 1 0 1
20 1 7.8527548208291051e+00 7.9229571791667626e+00 2.3638820521965229e+01 -1 0 0
954 1 4.7814181374303448e+00 5.6030318325597657e+00 2.2289371560107465e+01 0 0 1
5435 1 1.0534730930618872e+01 7.8822101892015297e+00 2.3212414153556637e+01 0 0 0
5164 1 1.1581156917848144e+01 6.4770499001222328e+00 2.0939460266870942e+01 1 0 0
6306 1 7.9934582458313297e-01 1.0926277470761528e+01 2.3811194519004886e+01 2 -1 1
1023 1 7.7610223443701476e-01 1.0712697762589475e+01 2.0978152420491941e+01 1 1 1
897 1 7.3020771314229362e+00 8.3484941786446498e+00 2.0923522517765619e+01 0 -1 1
2736 1 7.8124741554767887e+00 1.1230972353325404e+01 2.0581194383072162e+01 -1 0 1
6173 1 4.5899129960402449e+00 9.0405561543875788e+00 2.1586961963892545e+01 1 0 1
2717 1 4.9895835135320894e+00 1.2033988794891522e+01 2.1322306049541194e+01 1 0 1
129 1 4.9298770988429892e+00 1.1642684742484327e+01 2.4026844618552705e+01 0 0 1
5294 1 9.3694441849060279e+00 1.1422239712761533e+01 2.3100345680869285e+01 -2 1 0
3773 1 1.1525509583486457e+01 9.9025016497164575e+00 2.4141378210020843e+01 1 -2 0
1037 1 1.7700391594612206e+00 1.4580233900743684e+01 2.1501499484277918e+01 1 0 1
3739 1 2.7993774580706683e+00 1.5389794554123428e+01 2.3831820398876136e+01 1 2 0
3599 1 5.3675116296761649e+00 1.4602020738901940e+01 2.4063586720157044e+01 1 0 1
1800 1 6.1178401021020674e+00 1.4343804107931380e+01 2.1470482394316075e+01 0 2 0
5092 1 1.0020655459926925e+01 1.4042986614216554e+01 2.2634707012802284e+01 0 -1 0
3697 1 1.1404872058005383e+01 1.5667103505499883e+01 2.3987225765350047e+01 2 0 0
511 2 0.0000000000000000e+00 2.8417180249513345e+00 2.6822305515994831e+01 0 0 0
512 2 0.0000000000000000e+00 0.0000000000000000e+00 2.6822305515994831e+01 0 0 0
513 2 1.2305000000000001e+00 7.1042950623783474e-01 2.6822305515994831e+01 0 0 0
517 2 1.2305000000000001e+00 2.1312885187134998e+00 2.6822305515994831e+01 0 0 0
518 2 2.4610000000000003e+00 2.8417180249513345e+00 2.6822305515994831e+01 0 0 0
519 2 2.4610000000000003e+00 0.0000000000000000e+00 2.6822305515994831e+01 0 0 0
520 2 3.6915000000000004e+00 7.1042950623783474e-01 2.6822305515994831e+01 0 0 0
528 2 3.6914999999999996e+00 2.1312885187134998e+00 2.6822305515994831e+01 0 0 0
529 2 4.9220000000000006e+00 2.8417180249513332e+00 2.6822305515994831e+01 0 0 0
530 2 4.9220000000000006e+00 0.0000000000000000e+00 2.6822305515994831e+01 0 0 0
531 2 6.1524999999999999e+00 7.1042950623783407e-01 2.6822305515994831e+01 0 0 0
543 2 6.1524999999999999e+00 2.1312885187134989e+00 2.6822305515994831e+01 0 0 0
544 2 7.3829999999999991e+00 2.8417180249513345e+00 2.6822305515994831e+01 0 0 0
545 2 7.3829999999999991e+00 0.0000000000000000e+00 2.6822305515994831e+01 0 0 0
2568 1 6.9760049914214850e+00 1.3381358539324932e+00 2.4738955219665545e+01 -1 0 1
546 2 8.6134999999999984e+00 7.1042950623783407e-01 2.6822305515994831e+01 0 0 0
562 2 8.6134999999999984e+00 2.1312885187135002e+00 2.6822305515994831e+01 0 0 0
563 2 9.8440000000000012e+00 2.8417180249513332e+00 2.6822305515994831e+01 0 0 0
564 2 9.8440000000000012e+00 0.0000000000000000e+00 2.6822305515994831e+01 0 0 0
565 2 1.1074500000000002e+01 7.1042950623783330e-01 2.6822305515994831e+01 0 0 0
585 2 1.1074500000000002e+01 2.1312885187135002e+00 2.6822305515994831e+01 0 0 0
514 2 0.0000000000000000e+00 7.1042950623783341e+00 2.6822305515994831e+01 0 0 0
515 2 0.0000000000000000e+00 4.2625770374269996e+00 2.6822305515994831e+01 0 0 0
516 2 1.2305000000000001e+00 4.9730065436648339e+00 2.6822305515994831e+01 0 0 0
524 2 1.2305000000000001e+00 6.3938655561404980e+00 2.6822305515994831e+01 0 0 0
525 2 2.4610000000000003e+00 7.1042950623783341e+00 2.6822305515994831e+01 0 0 0
526 2 2.4610000000000003e+00 4.2625770374269996e+00 2.6822305515994831e+01 0 0 0
527 2 3.6914999999999996e+00 4.9730065436648339e+00 2.6822305515994831e+01 0 0 0
539 2 3.6914999999999996e+00 6.3938655561404980e+00 2.6822305515994831e+01 0 0 0
540 2 4.9220000000000006e+00 7.1042950623783341e+00 2.6822305515994831e+01 0 0 0
541 2 4.9220000000000006e+00 4.2625770374269978e+00 2.6822305515994831e+01 0 0 0
542 2 6.1524999999999999e+00 4.9730065436648339e+00 2.6822305515994831e+01 0 0 0
558 2 6.1524999999999999e+00 6.3938655561404980e+00 2.6822305515994831e+01 0 0 0
559 2 7.3830000000000009e+00 7.1042950623783341e+00 2.6822305515994831e+01 0 0 0
560 2 7.3829999999999991e+00 4.2625770374269996e+00 2.6822305515994831e+01 0 0 0
6038 1 6.2538735050873901e+00 5.8121066078094961e+00 2.4428638280722414e+01 0 0 1
561 2 8.6135000000000002e+00 4.9730065436648339e+00 2.6822305515994831e+01 0 0 0
581 2 8.6135000000000002e+00 6.3938655561404980e+00 2.6822305515994831e+01 0 0 0
582 2 9.8440000000000012e+00 7.1042950623783341e+00 2.6822305515994831e+01 0 0 0
583 2 9.8440000000000012e+00 4.2625770374270004e+00 2.6822305515994831e+01 0 0 0
584 2 1.1074500000000002e+01 4.9730065436648339e+00 2.6822305515994831e+01 0 0 0
605 2 1.1074500000000002e+01 6.3938655561404980e+00 2.6822305515994831e+01 0 0 0
762 1 1.2198300485256921e+01 5.6595724941431795e+00 2.4382389709784228e+01 -2 0 1
521 2 0.0000000000000000e+00 1.1366872099805333e+01 2.6822305515994831e+01 0 0 0
522 2 0.0000000000000000e+00 8.5251540748539991e+00 2.6822305515994831e+01 0 0 0
523 2 1.2305000000000001e+00 9.2355835810918343e+00 2.6822305515994831e+01 0 0 0
535 2 1.2305000000000001e+00 1.0656442593567498e+01 2.6822305515994831e+01 0 0 0
536 2 2.4610000000000003e+00 1.1366872099805333e+01 2.6822305515994831e+01 0 0 0
537 2 2.4610000000000003e+00 8.5251540748539991e+00 2.6822305515994831e+01 0 0 0
538 2 3.6915000000000004e+00 9.2355835810918343e+00 2.6822305515994831e+01 0 0 0
554 2 3.6914999999999996e+00 1.0656442593567499e+01 2.6822305515994831e+01 0 0 0
5310 1 3.1753856151664670e+00 9.5422971140766126e+00 2.4397904485348747e+01 2 0 1
555 2 4.9220000000000006e+00 1.1366872099805333e+01 2.6822305515994831e+01 0 0 0
556 2 4.9220000000000006e+00 8.5251540748539991e+00 2.6822305515994831e+01 0 0 0
557 2 6.1524999999999999e+00 9.2355835810918343e+00 2.6822305515994831e+01 0 0 0
577 2 6.1524999999999999e+00 1.0656442593567499e+01 2.6822305515994831e+01 0 0 0
578 2 7.3829999999999991e+00 1.1366872099805333e+01 2.6822305515994831e+01 0 0 0
579 2 7.3830000000000009e+00 8.5251540748539991e+00 2.6822305515994831e+01 0 0 0
5246 1 7.2848903245033032e+00 1.0278619877933872e+01 2.4449847916650569e+01 2 0 0
580 2 8.6134999999999984e+00 9.2355835810918343e+00 2.6822305515994831e+01 0 0 0
601 2 8.6134999999999984e+00 1.0656442593567498e+01 2.6822305515994831e+01 0 0 0
602 2 9.8440000000000012e+00 1.1366872099805333e+01 2.6822305515994831e+01 0 0 0
603 2 9.8440000000000012e+00 8.5251540748539956e+00 2.6822305515994831e+01 0 0 0
604 2 1.1074500000000002e+01 9.2355835810918343e+00 2.6822305515994831e+01 0 0 0
625 2 1.1074500000000002e+01 1.0656442593567498e+01 2.6822305515994831e+01 0 0 0
626 2 1.2304999999999998e+01 1.1366872099805333e+01 2.6822305515994831e+01 0 0 0
492 1 8.5870799632146744e-01 1.3598529425287611e+01 2.4612922292583093e+01 0 -1 0
532 2 0.0000000000000000e+00 1.5629449137232333e+01 2.6822305515994831e+01 0 0 0
533 2 0.0000000000000000e+00 1.2787731112280996e+01 2.6822305515994831e+01 0 0 0
534 2 1.2305000000000001e+00 1.3498160618518829e+01 2.6822305515994831e+01 0 0 0
550 2 1.2305000000000001e+00 1.4919019630994494e+01 2.6822305515994831e+01 0 0 0
551 2 2.4610000000000003e+00 1.5629449137232328e+01 2.6822305515994831e+01 0 0 0
552 2 2.4610000000000003e+00 1.2787731112280996e+01 2.6822305515994831e+01 0 0 0
553 2 3.6915000000000004e+00 1.3498160618518829e+01 2.6822305515994831e+01 0 0 0
573 2 3.6915000000000004e+00 1.4919019630994494e+01 2.6822305515994831e+01 0 0 0
574 2 4.9220000000000006e+00 1.5629449137232333e+01 2.6822305515994831e+01 0 0 0
575 2 4.9220000000000006e+00 1.2787731112280996e+01 2.6822305515994831e+01 0 0 0
576 2 6.1524999999999990e+00 1.3498160618518829e+01 2.6822305515994831e+01 0 0 0
597 2 6.1524999999999990e+00 1.4919019630994494e+01 2.6822305515994831e+01 0 0 0
598 2 7.3829999999999991e+00 1.5629449137232333e+01 2.6822305515994831e+01 0 0 0
599 2 7.3829999999999991e+00 1.2787731112280996e+01 2.6822305515994831e+01 0 0 0
600 2 8.6135000000000002e+00 1.3498160618518835e+01 2.6822305515994831e+01 0 0 0
621 2 8.6135000000000002e+00 1.4919019630994494e+01 2.6822305515994831e+01 0 0 0
622 2 9.8440000000000012e+00 1.5629449137232328e+01 2.6822305515994831e+01 0 0 0
623 2 9.8440000000000012e+00 1.2787731112280996e+01 2.6822305515994831e+01 0 0 0
624 2 1.1074500000000002e+01 1.3498160618518829e+01 2.6822305515994831e+01 0 0 0
642 2 1.1074500000000002e+01 1.4919019630994494e+01 2.6822305515994831e+01 0 0 0
1250 2 0.0000000000000000e+00 1.4208590124756650e+00 3.0030999999999977e+01 0 0 0
1251 2 0.0000000000000000e+00 0.0000000000000000e+00 3.0030999999999977e+01 0 0 0
1254 2 1.2305000000000001e+00 3.5521475311891644e+00 3.0030999999999977e+01 0 0 0
1255 2 1.2305000000000001e+00 2.1312885187134998e+00 3.0030999999999977e+01 0 0 0
1256 2 2.4610000000000003e+00 1.4208590124756650e+00 3.0030999999999977e+01 0 0 0
1257 2 2.4610000000000003e+00 0.0000000000000000e+00 3.0030999999999977e+01 0 0 0
1264 2 3.6914999999999996e+00 3.5521475311891644e+00 3.0030999999999977e+01 0 0 0
1265 2 3.6914999999999996e+00 2.1312885187134998e+00 3.0030999999999977e+01 0 0 0
1266 2 4.9220000000000006e+00 1.4208590124756650e+00 3.0030999999999977e+01 0 0 0
1267 2 4.9220000000000006e+00 0.0000000000000000e+00 3.0030999999999977e+01 0 0 0
1278 2 6.1524999999999999e+00 3.5521475311891644e+00 3.0030999999999977e+01 0 0 0
1279 2 6.1524999999999999e+00 2.1312885187134989e+00 3.0030999999999977e+01 0 0 0
1280 2 7.3829999999999991e+00 1.4208590124756659e+00 3.0030999999999977e+01 0 0 0
1281 2 7.3829999999999991e+00 0.0000000000000000e+00 3.0030999999999977e+01 0 0 0
1296 2 8.6134999999999984e+00 3.5521475311891657e+00 3.0030999999999977e+01 0 0 0
1297 2 8.6134999999999984e+00 2.1312885187135002e+00 3.0030999999999977e+01 0 0 0
1298 2 9.8440000000000012e+00 1.4208590124756659e+00 3.0030999999999977e+01 0 0 0
1299 2 9.8440000000000012e+00 0.0000000000000000e+00 3.0030999999999977e+01 0 0 0
1318 2 1.1074500000000002e+01 3.5521475311891644e+00 3.0030999999999977e+01 0 0 0
1319 2 1.1074500000000002e+01 2.1312885187135002e+00 3.0030999999999977e+01 0 0 0
1252 2 0.0000000000000000e+00 5.6834360499026637e+00 3.0030999999999977e+01 0 0 0
1253 2 0.0000000000000000e+00 4.2625770374269996e+00 3.0030999999999977e+01 0 0 0
1260 2 1.2305000000000001e+00 7.8147245686161639e+00 3.0030999999999977e+01 0 0 0
1261 2 1.2305000000000001e+00 6.3938655561404980e+00 3.0030999999999977e+01 0 0 0
1262 2 2.4610000000000003e+00 5.6834360499026637e+00 3.0030999999999977e+01 0 0 0
1263 2 2.4610000000000003e+00 4.2625770374269996e+00 3.0030999999999977e+01 0 0 0
1274 2 3.6914999999999996e+00 7.8147245686161639e+00 3.0030999999999977e+01 0 0 0
1275 2 3.6914999999999996e+00 6.3938655561404980e+00 3.0030999999999977e+01 0 0 0
1276 2 4.9220000000000006e+00 5.6834360499026637e+00 3.0030999999999977e+01 0 0 0
1277 2 4.9220000000000006e+00 4.2625770374269978e+00 3.0030999999999977e+01 0 0 0
1292 2 6.1524999999999999e+00 7.8147245686161639e+00 3.0030999999999977e+01 0 0 0
1293 2 6.1524999999999999e+00 6.3938655561404980e+00 3.0030999999999977e+01 0 0 0
1294 2 7.3829999999999991e+00 5.6834360499026637e+00 3.0030999999999977e+01 0 0 0
1295 2 7.3829999999999991e+00 4.2625770374269996e+00 3.0030999999999977e+01 0 0 0
1314 2 8.6135000000000002e+00 7.8147245686161639e+00 3.0030999999999977e+01 0 0 0
1315 2 8.6135000000000002e+00 6.3938655561404980e+00 3.0030999999999977e+01 0 0 0
1316 2 9.8440000000000012e+00 5.6834360499026637e+00 3.0030999999999977e+01 0 0 0
1317 2 9.8440000000000012e+00 4.2625770374270004e+00 3.0030999999999977e+01 0 0 0
1337 2 1.1074500000000002e+01 7.8147245686161639e+00 3.0030999999999977e+01 0 0 0
1338 2 1.1074500000000002e+01 6.3938655561404980e+00 3.0030999999999977e+01 0 0 0
1258 2 0.0000000000000000e+00 9.9460130873296642e+00 3.0030999999999977e+01 0 0 0
1259 2 0.0000000000000000e+00 8.5251540748539991e+00 3.0030999999999977e+01 0 0 0
1270 2 1.2305000000000001e+00 1.2077301606043163e+01 3.0030999999999977e+01 0 0 0
1271 2 1.2305000000000001e+00 1.0656442593567498e+01 3.0030999999999977e+01 0 0 0
1272 2 2.4610000000000003e+00 9.9460130873296642e+00 3.0030999999999977e+01 0 0 0
1273 2 2.4610000000000003e+00 8.5251540748539991e+00 3.0030999999999977e+01 0 0 0
1288 2 3.6914999999999996e+00 1.2077301606043163e+01 3.0030999999999977e+01 0 0 0
1289 2 3.6914999999999996e+00 1.0656442593567499e+01 3.0030999999999977e+01 0 0 0
1290 2 4.9220000000000006e+00 9.9460130873296642e+00 3.0030999999999977e+01 0 0 0
1291 2 4.9220000000000006e+00 8.5251540748539991e+00 3.0030999999999977e+01 0 0 0
1310 2 6.1524999999999999e+00 1.2077301606043163e+01 3.0030999999999977e+01 0 0 0
1311 2 6.1524999999999999e+00 1.0656442593567499e+01 3.0030999999999977e+01 0 0 0
1312 2 7.3830000000000009e+00 9.9460130873296642e+00 3.0030999999999977e+01 0 0 0
1313 2 7.3830000000000009e+00 8.5251540748539991e+00 3.0030999999999977e+01 0 0 0
1333 2 8.6135000000000002e+00 1.2077301606043163e+01 3.0030999999999977e+01 0 0 0
1334 2 8.6134999999999984e+00 1.0656442593567498e+01 3.0030999999999977e+01 0 0 0
1335 2 9.8440000000000012e+00 9.9460130873296642e+00 3.0030999999999977e+01 0 0 0
1336 2 9.8440000000000012e+00 8.5251540748539956e+00 3.0030999999999977e+01 0 0 0
1356 2 1.1074500000000002e+01 1.2077301606043163e+01 3.0030999999999977e+01 0 0 0
1357 2 1.1074500000000002e+01 1.0656442593567498e+01 3.0030999999999977e+01 0 0 0
1268 2 0.0000000000000000e+00 1.4208590124756663e+01 3.0030999999999977e+01 0 0 0
1269 2 0.0000000000000000e+00 1.2787731112280996e+01 3.0030999999999977e+01 0 0 0
1285 2 1.2305000000000001e+00 1.4919019630994494e+01 3.0030999999999977e+01 0 0 0
1286 2 2.4610000000000003e+00 1.4208590124756663e+01 3.0030999999999977e+01 0 0 0
1287 2 2.4610000000000003e+00 1.2787731112280996e+01 3.0030999999999977e+01 0 0 0
1307 2 3.6915000000000004e+00 1.4919019630994494e+01 3.0030999999999977e+01 0 0 0
1308 2 4.9220000000000006e+00 1.4208590124756663e+01 3.0030999999999977e+01 0 0 0
1309 2 4.9220000000000006e+00 1.2787731112280996e+01 3.0030999999999977e+01 0 0 0
1330 2 6.1524999999999990e+00 1.4919019630994494e+01 3.0030999999999977e+01 0 0 0
1331 2 7.3830000000000009e+00 1.4208590124756663e+01 3.0030999999999977e+01 0 0 0
1332 2 7.3829999999999991e+00 1.2787731112280996e+01 3.0030999999999977e+01 0 0 0
1355 2 9.8440000000000012e+00 1.2787731112280996e+01 3.0030999999999977e+01 0 0 0
1374 2 1.1074500000000002e+01 1.4919019630994494e+01 3.0030999999999977e+01 0 0 0
1354 2 9.8440000000000012e+00 1.4208590124756663e+01 3.0030999999999977e+01 0 0 0
1375 2 1.2304999999999998e+01 1.4208590124756658e+01 3.0030999999999977e+01 0 0 0
1373 2 1.1074500000000002e+01 1.6339878643470161e+01 3.0030999999999977e+01 0 0 0
1353 2 8.6135000000000002e+00 1.4919019630994494e+01 3.0030999999999977e+01 0 0 0
1411 2 0.0000000000000000e+00 2.8417180249513345e+00 3.3239694484008496e+01 0 0 0
1412 2 0.0000000000000000e+00 0.0000000000000000e+00 3.3239694484008496e+01 0 0 0
1413 2 1.2305000000000001e+00 7.1042950623783474e-01 3.3239694484008496e+01 0 0 0
1417 2 1.2305000000000001e+00 2.1312885187134998e+00 3.3239694484008496e+01 0 0 0
1418 2 2.4610000000000003e+00 2.8417180249513345e+00 3.3239694484008496e+01 0 0 0
1419 2 2.4610000000000003e+00 0.0000000000000000e+00 3.3239694484008496e+01 0 0 0
1420 2 3.6915000000000004e+00 7.1042950623783474e-01 3.3239694484008496e+01 0 0 0
1428 2 3.6914999999999996e+00 2.1312885187134998e+00 3.3239694484008496e+01 0 0 0
1429 2 4.9220000000000006e+00 2.8417180249513332e+00 3.3239694484008496e+01 0 0 0
1430 2 4.9220000000000006e+00 0.0000000000000000e+00 3.3239694484008496e+01 0 0 0
1431 2 6.1524999999999999e+00 7.1042950623783407e-01 3.3239694484008496e+01 0 0 0
1443 2 6.1524999999999999e+00 2.1312885187134989e+00 3.3239694484008496e+01 0 0 0
1444 2 7.3829999999999991e+00 2.8417180249513345e+00 3.3239694484008496e+01 0 0 0
1445 2 7.3829999999999991e+00 0.0000000000000000e+00 3.3239694484008496e+01 0 0 0
1446 2 8.6134999999999984e+00 7.1042950623783407e-01 3.3239694484008496e+01 0 0 0
1462 2 8.6134999999999984e+00 2.1312885187135002e+00 3.3239694484008496e+01 0 0 0
1463 2 9.8440000000000012e+00 2.8417180249513332e+00 3.3239694484008496e+01 0 0 0
1464 2 9.8440000000000012e+00 0.0000000000000000e+00 3.3239694484008496e+01 0 0 0
1465 2 1.1074500000000002e+01 7.1042950623783330e-01 3.3239694484008496e+01 0 0 0
1485 2 1.1074500000000002e+01 2.1312885187135002e+00 3.3239694484008496e+01 0 0 0
5853 1 8.2792346522550311e+00 2.0277763017077026e+00 3.5440071682513036e+01 0 1 -1
1414 2 0.0000000000000000e+00 7.1042950623783341e+00 3.3239694484008496e+01 0 0 0
1415 2 0.0000000000000000e+00 4.2625770374269996e+00 3.3239694484008496e+01 0 0 0
1416 2 1.2305000000000001e+00 4.9730065436648339e+00 3.3239694484008496e+01 0 0 0
1424 2 1.2305000000000001e+00 6.3938655561404980e+00 3.3239694484008496e+01 0 0 0
1425 2 2.4610000000000003e+00 7.1042950623783341e+00 3.3239694484008496e+01 0 0 0
1426 2 2.4610000000000003e+00 4.2625770374269996e+00 3.3239694484008496e+01 0 0 0
1427 2 3.6914999999999996e+00 4.9730065436648339e+00 3.3239694484008496e+01 0 0 0
1439 2 3.6914999999999996e+00 6.3938655561404980e+00 3.3239694484008496e+01 0 0 0
473 1 1.2267439390930923e+00 7.8849469506739149e+00 3.5558459099753151e+01 -1 0 -1
1440 2 4.9220000000000006e+00 7.1042950623783341e+00 3.3239694484008496e+01 0 0 0
1441 2 4.9220000000000006e+00 4.2625770374269978e+00 3.3239694484008496e+01 0 0 0
1442 2 6.1524999999999999e+00 4.9730065436648339e+00 3.3239694484008496e+01 0 0 0
1458 2 6.1524999999999999e+00 6.3938655561404980e+00 3.3239694484008496e+01 0 0 0
1459 2 7.3830000000000009e+00 7.1042950623783341e+00 3.3239694484008496e+01 0 0 0
1460 2 7.3829999999999991e+00 4.2625770374269996e+00 3.3239694484008496e+01 0 0 0
3776 1 5.4490747067630689e+00 5.2137129819568582e+00 3.5846323292002680e+01 0 1 -1
1461 2 8.6135000000000002e+00 4.9730065436648339e+00 3.3239694484008496e+01 0 0 0
1481 2 8.6135000000000002e+00 6.3938655561404980e+00 3.3239694484008496e+01 0 0 0
1482 2 9.8440000000000012e+00 7.1042950623783341e+00 3.3239694484008496e+01 0 0 0