LAMMPS data file via write_data, version 16 Mar 2018, timestep = 6000000

6768 atoms
2 atom types

0.0000000000000000e+00 4.9219999999999999e+01 xlo xhi
0.0000000000000000e+00 4.9019635930410494e+01 ylo yhi
7.4983393192905368e-02 5.9987016606802939e+01 zlo zhi

Masses

1 18.015
2 12.01

Atoms # atomic

3934 1 2.8877393368479942e+00 1.8981916336460007e+00 2.2974128179046249e+00 2 -1 1
1596 1 8.5331540756675661e-01 1.6342444977071093e+00 4.5129384015784435e-01 2 1 1
6677 1 1.7581005449949902e+00 2.2318441576848187e+00 4.9543755056645145e+00 1 2 1
3095 1 4.8304006940508479e+00 3.5725561222032112e+00 1.3760698394713484e+00 -1 3 1
3650 1 6.7945963113964822e+00 2.2843714319087089e+00 2.8916877559409855e+00 1 0 0
3506 1 1.0672232636105168e+01 2.3770649840318705e+00 3.1382720125042876e+00 1 -1 0
5457 1 8.7491662891113258e+00 3.5660075386966437e+00 1.8395419882867605e+00 0 2 0
5134 1 1.4813437301946397e+00 6.8791590094116009e+00 1.6625490566587922e+00 2 1 1
1542 1 4.0026950240486441e+00 5.9797040187812751e+00 2.4139709570837811e+00 1 1 1
6380 1 6.5147290796714623e+00 7.1648766488199946e+00 1.4816769512602603e+00 3 -1 1
407 1 8.7821035378361572e+00 6.1885565138642455e+00 2.7389301432301711e+00 -1 -2 0
255 1 1.0781462299377754e+01 7.5718463134420659e+00 1.5133202015246618e+00 -1 0 1
1696 1 1.5281750888390784e+00 9.5974882685899754e+00 2.6613770761351767e+00 -1 0 0
4015 1 3.6438994035435157e+00 1.0740224636958787e+01 1.7144787642570769e+00 0 3 0
3352 1 6.3910032774751055e+00 9.8011432009886388e+00 2.3081734570239463e+00 -1 1 0
2134 1 8.7076110234860362e+00 1.1067175536033732e+01 1.4006261332191583e+00 1 0 0
4896 1 1.0815318253236061e+01 1.0125770389864970e+01 2.7406018078469021e+00 1 1 1
6557 1 4.0210381150868688e+00 1.1897606075743556e+00 6.4039785659434525e+00 0 -3 1
41 1 3.7127421219122931e+00 7.6346958672368193e-01 9.1476791570415283e+00 0 -1 0
3703 1 6.3746966598398247e+00 2.4985282486428360e+00 5.5346358296938201e+00 2 -1 0
6511 1 8.0102625501918201e+00 8.5439935156264712e-01 6.6132629703832917e+00 2 1 1
1622 1 6.0304362584282707e+00 2.1324338066597126e+00 9.9061694731339003e+00 0 0 0
3002 1 8.4994822757040343e+00 1.0584963445361475e+00 9.0977346532656220e+00 3 -2 1
1883 1 1.0681208566088296e+01 1.8402108545715197e+00 5.7891264547960972e+00 2 0 1
3636 1 1.0953994082727442e+01 2.0266872992258609e+00 9.8880702009973689e+00 -3 -2 0
1551 1 1.9049102486508089e+00 4.7136200572839293e+00 6.2530817563729384e+00 -1 -1 0
1687 1 1.7324074394906523e+00 4.6162193457784912e+00 8.9896234412753824e+00 2 1 1
87 1 4.0247475750216664e+00 6.0617012777044010e+00 5.3047862504301246e+00 2 2 0
157 1 6.2576350468919442e+00 4.6258823708120218e+00 8.9899840553430614e+00 0 2 0
1410 1 6.3220119910472095e+00 5.2031039437929207e+00 6.2230809536334144e+00 -3 -1 1
2091 1 4.1375020301470480e+00 8.1453221904435189e+00 8.8083510714409012e+00 2 3 0
3554 1 8.7955800769375472e+00 6.0080946720229518e+00 5.5904225562314247e+00 3 -1 0
3411 1 1.0858635422116194e+01 4.7989660900440594e+00 8.9315818450817410e+00 0 0 0
3066 1 1.1048437326062794e+01 4.5791619774874706e+00 6.0514806073349536e+00 1 2 1
6458 1 8.5571403408433291e+00 5.9088797130877406e+00 9.7842543900950094e+00 1 1 1
4799 1 1.4699248722115776e+00 9.4087240227429447e+00 5.5416463186463121e+00 -1 1 1
3355 1 3.9380639201513583e+00 8.3913048971744466e+00 6.2425237014829111e+00 2 2 1
3418 1 1.8956215846369437e+00 9.3447091395641610e+00 9.7140948872167208e+00 3 -2 0
194 1 1.9317395777452162e+00 1.1980574493106062e+01 6.0611585926047464e+00 0 1 0
3481 1 2.0850596245693374e+00 1.2015168743797325e+01 8.8478404861241557e+00 1 -2 0
487 1 6.2000053691593635e+00 9.9065987115366045e+00 5.2107596100579361e+00 -1 -2 1
1425 1 6.2315563429414311e+00 9.6547673744219331e+00 9.8251522215701073e+00 0 2 1
5216 1 8.4153893958304344e+00 8.4445791266652712e+00 9.0059549496880731e+00 -1 2 0
1568 1 1.0492443515655696e+01 1.0039955159881915e+01 5.5870755085797912e+00 -1 0 0
202 1 8.5673355929108528e+00 8.5790302667270701e+00 6.3766600886590270e+00 0 0 0
1996 1 1.0474789270938125e+01 9.8397310219103034e+00 9.8858629000822731e+00 -1 3 0
2059 1 1.0788067337482987e+01 1.2252695001676877e+01 8.7336375425150337e+00 0 2 0
3867 1 1.6608518508513475e+00 2.2209525708904323e+00 1.0270084230727923e+01 2 0 0
5554 1 1.6569594197592394e+00 2.0207064417334863e+00 1.2886852274314178e+01 1 1 0
3900 1 3.8833790891651825e+00 7.8047895332204054e-01 1.3546296397068060e+01 2 1 0
4864 1 6.2893723937237427e+00 2.1904676921737187e+00 1.2647519596960000e+01 3 0 1
4003 1 8.6421992550579620e+00 8.9444759887232750e-01 1.3639265117166458e+01 4 0 0
1853 1 1.0666007586077397e+01 2.2949427480921742e+00 1.2678410474470974e+01 -2 -1 1
3712 1 3.9609285419246145e+00 6.0310509895297733e+00 1.0099460043859764e+01 1 -3 0
5097 1 1.8990436225302223e+00 4.6096238647330230e+00 1.3468510060699256e+01 0 1 1
3835 1 4.1892069489026094e+00 6.0508691857143786e+00 1.2779285230591391e+01 0 -1 1
5236 1 6.4298303175373714e+00 4.6990524443256421e+00 1.3573617148607065e+01 -2 -3 0
2274 1 1.0894499669083917e+01 4.6673146554930041e+00 1.3672257434189842e+01 0 1 1
3962 1 8.6949852110099126e+00 6.1323938507112796e+00 1.2777962030382563e+01 3 3 1
4 1 1.8792853297694057e+00 9.6860136433792299e+00 1.2541741699579749e+01 0 2 0
1915 1 4.2429767051890259e+00 8.7533310438580028e+00 1.3412718819680071e+01 0 2 0
1400 1 6.6112699005408766e+00 9.8764539347411233e+00 1.2621348180256868e+01 0 -2 1
513 1 8.7854068771338696e+00 8.7971768886464510e+00 1.3531903141068780e+01 -1 1 1
3331 1 1.1052082641850232e+01 9.8494474555327240e+00 1.2587617734043080e+01 3 3 0
3562 1 1.1071610098252579e+01 1.2208087311831099e+01 1.3420492468830540e+01 4 -2 1
3548 1 3.9900560008658306e+00 7.2485007338431584e-01 1.6561785423266620e+01 1 0 0
4996 1 3.9454388857948754e+00 3.4124986526579364e+00 1.7153831543938512e+01 3 -1 1
6747 1 3.7628841506975705e+00 3.4798107172758832e+00 1.9878370720940996e+01 0 0 0
593 1 8.4117828582654308e+00 3.2607808516787276e+00 1.9782250517326808e+01 -2 0 1
3156 1 8.6918344722480576e+00 8.4546720389193430e-01 1.6351160825444570e+01 0 0 1
4954 1 8.4893781398603458e+00 3.6372663309379210e+00 1.7192165428992649e+01 0 -2 1
3566 1 1.6094572330731605e+00 4.8117553380051321e+00 1.6115785376753891e+01 2 -4 0
6358 1 1.9986215947172306e+00 7.3126537696168601e+00 1.7016928169104510e+01 -1 -1 1
3484 1 1.6856743773446345e+00 7.4347288307891413e+00 1.9781051382414752e+01 0 3 0
1822 1 6.3059147261838735e+00 4.8931414684843633e+00 1.6320095569120632e+01 2 1 0
3382 1 6.3544966690870828e+00 7.5569167233033525e+00 1.6937013852957669e+01 -1 3 1
120 1 6.4500823019666624e+00 7.2569565234953650e+00 1.9548556553997706e+01 1 2 0
6368 1 1.0753088226254450e+01 4.6129797663012244e+00 1.6502862882413165e+01 2 0 1
4733 1 1.0856783222693691e+01 7.2510263351272162e+00 1.7001812969422406e+01 0 -1 1
215 1 1.1007969341956288e+01 7.0518818617074466e+00 1.9869040770843760e+01 4 0 0
1930 1 4.1012228507669528e+00 1.0993958436751317e+01 1.7182043683321933e+01 1 2 1
3872 1 2.0470000415308189e+00 1.2060241359513798e+01 1.6338272872243675e+01 0 0 1
411 1 4.1902555714436653e+00 8.6492300713526244e+00 1.6063681612495323e+01 3 -1 0
5266 1 4.2793431926632808e+00 1.0868954568216315e+01 1.9699978502282423e+01 2 1 0
3711 1 8.7937776608874394e+00 8.7845453135222709e+00 1.6345016045343787e+01 -1 1 0
3467 1 8.7843763913659956e+00 1.1364617420326326e+01 1.7142088777938842e+01 0 0 1
446 1 8.3692040211154364e+00 1.0991534379621768e+01 1.9599486122771868e+01 1 0 0
4826 1 1.7132588425856097e+00 2.2744994303840844e+00 2.1077852110753650e+01 0 -1 1
1603 1 1.5548268350802517e+00 2.3173274846286644e+00 2.3701714588451672e+01 -1 -1 1
2117 1 4.1053196172274351e+00 3.5585677362162693e+00 2.4136253237639998e+01 -1 0 1
3509 1 6.0479121563347817e+00 1.8843146837400704e+00 2.0744929328365249e+01 1 -1 0
522 1 6.3798163608923071e+00 1.8842503247717868e+00 2.3520991571075108e+01 1 1 0
6405 1 8.4501208851126357e+00 3.7877530186571775e+00 2.4070665774735595e+01 2 1 1
6593 1 1.0862969644040035e+01 2.5628300010246736e+00 2.3937183590856915e+01 1 -1 1
5199 1 1.0840035196554103e+01 2.1675169265175684e+00 2.1193630317943441e+01 1 -3 0
3069 1 4.1321662049428234e+00 6.3100609901089983e+00 2.0429053054749826e+01 2 0 1
127 1 5.2255336597597504e+00 6.0213127500768229e+00 2.3209072429434645e+01 0 0 0
4935 1 8.0024898497242720e+00 6.0041502569310587e+00 2.3020546027003387e+01 -1 1 1
3162 1 8.6568340974940270e+00 5.8275867281207301e+00 2.0457457414055970e+01 -1 1 0
403 1 1.9911596702995737e+00 1.2250277633459444e+01 2.4582896796252196e+01 2 1 0
277 1 1.9009081282819393e+00 1.0159339350465206e+01 2.0851249511026619e+01 0 1 1
3977 1 1.9994854848173913e+00 9.7160944290705924e+00 2.3540909650621920e+01 1 -1 1
3746 1 4.3685559172713555e+00 8.4685225051820048e+00 2.4421983156432781e+01 1 1 0
1578 1 6.3705972431897671e+00 9.2805310626975732e+00 2.0887510706609330e+01 -1 3 1
3870 1 6.8417880701431573e+00 9.2252921317037337e+00 2.3559436643685540e+01 3 -1 0
6512 1 6.6662980484546779e+00 1.1863806908759926e+01 2.4095705826428034e+01 -2 0 1
33 1 8.9757969093636323e+00 8.2042107417420667e+00 2.4633059579652596e+01 -1 3 0
5512 1 1.1044059849089860e+01 9.6490977538004810e+00 2.3592273283956544e+01 4 -2 0
3720 1 1.0492891932624634e+01 9.3662660076184086e+00 2.0882456789576914e+01 1 0 0
1701 1 1.0926981014875267e+01 1.2233585403321662e+01 2.4517358876855937e+01 1 1 1
623 2 0.0000000000000000e+00 2.8417180249513345e+00 2.6830849718685023e+01 0 0 0
625 2 0.0000000000000000e+00 0.0000000000000000e+00 2.6830849718685023e+01 0 0 0
627 2 1.2305000000000001e+00 7.1042950623783474e-01 2.6830849718685023e+01 0 0 0
634 2 1.2305000000000001e+00 2.1312885187134998e+00 2.6830849718685023e+01 0 0 0
636 2 2.4610000000000003e+00 2.8417180249513345e+00 2.6830849718685023e+01 0 0 0
638 2 2.4610000000000003e+00 0.0000000000000000e+00 2.6830849718685023e+01 0 0 0
640 2 3.6915000000000004e+00 7.1042950623783474e-01 2.6830849718685023e+01 0 0 0
655 2 3.6914999999999996e+00 2.1312885187134998e+00 2.6830849718685023e+01 0 0 0
624 2 0.0000000000000000e+00 1.4208590124756650e+00 3.0030999999997842e+01 0 0 0
626 2 0.0000000000000000e+00 0.0000000000000000e+00 3.0030999999997842e+01 0 0 0
633 2 1.2305000000000001e+00 3.5521475311891644e+00 3.0030999999997842e+01 0 0 0
635 2 1.2305000000000001e+00 2.1312885187134998e+00 3.0030999999997842e+01 0 0 0
637 2 2.4610000000000003e+00 1.4208590124756650e+00 3.0030999999997842e+01 0 0 0
639 2 2.4610000000000003e+00 0.0000000000000000e+00 3.0030999999997842e+01 0 0 0
654 2 3.6914999999999996e+00 3.5521475311891644e+00 3.0030999999997842e+01 0 0 0
656 2 3.6914999999999996e+00 2.1312885187134998e+00 3.0030999999997842e+01 0 0 0
657 2 4.9220000000000006e+00 2.8417180249513332e+00 2.6830849718685023e+01 0 0 0
659 2 4.9220000000000006e+00 0.0000000000000000e+00 2.6830849718685023e+01 0 0 0
661 2 6.1524999999999999e+00 7.1042950623783407e-01 2.6830849718685023e+01 0 0 0
684 2 6.1524999999999999e+00 2.1312885187134989e+00 2.6830849718685023e+01 0 0 0
686 2 7.3829999999999991e+00 2.8417180249513345e+00 2.6830849718685023e+01 0 0 0
688 2 7.3829999999999991e+00 0.0000000000000000e+00 2.6830849718685023e+01 0 0 0
658 2 4.9220000000000006e+00 1.4208590124756650e+00 3.0030999999997842e+01 0 0 0
660 2 4.9220000000000006e+00 0.0000000000000000e+00 3.0030999999997842e+01 0 0 0
683 2 6.1524999999999999e+00 3.5521475311891644e+00 3.0030999999997842e+01 0 0 0
685 2 6.1524999999999999e+00 2.1312885187134989e+00 3.0030999999997842e+01 0 0 0
687 2 7.3829999999999991e+00 1.4208590124756659e+00 3.0030999999997842e+01 0 0 0
689 2 7.3829999999999991e+00 0.0000000000000000e+00 3.0030999999997842e+01 0 0 0
690 2 8.6134999999999984e+00 7.1042950623783407e-01 2.6830849718685023e+01 0 0 0
721 2 8.6134999999999984e+00 2.1312885187135002e+00 2.6830849718685023e+01 0 0 0
723 2 9.8440000000000012e+00 2.8417180249513332e+00 2.6830849718685023e+01 0 0 0
725 2 9.8440000000000012e+00 0.0000000000000000e+00 2.6830849718685023e+01 0 0 0
727 2 1.1074500000000002e+01 7.1042950623783330e-01 2.6830849718685023e+01 0 0 0
766 2 1.1074500000000002e+01 2.1312885187135002e+00 2.6830849718685023e+01 0 0 0
720 2 8.6134999999999984e+00 3.5521475311891657e+00 3.0030999999997842e+01 0 0 0
722 2 8.6134999999999984e+00 2.1312885187135002e+00 3.0030999999997842e+01 0 0 0
724 2 9.8440000000000012e+00 1.4208590124756659e+00 3.0030999999997842e+01 0 0 0
726 2 9.8440000000000012e+00 0.0000000000000000e+00 3.0030999999997842e+01 0 0 0
765 2 1.1074500000000002e+01 3.5521475311891644e+00 3.0030999999997842e+01 0 0 0
767 2 1.1074500000000002e+01 2.1312885187135002e+00 3.0030999999997842e+01 0 0 0
628 2 0.0000000000000000e+00 7.1042950623783341e+00 2.6830849718685023e+01 0 0 0
630 2 0.0000000000000000e+00 4.2625770374269996e+00 2.6830849718685023e+01 0 0 0
632 2 1.2305000000000001e+00 4.9730065436648339e+00 2.6830849718685023e+01 0 0 0
647 2 1.2305000000000001e+00 6.3938655561404980e+00 2.6830849718685023e+01 0 0 0
649 2 2.4610000000000003e+00 7.1042950623783341e+00 2.6830849718685023e+01 0 0 0
651 2 2.4610000000000003e+00 4.2625770374269996e+00 2.6830849718685023e+01 0 0 0
653 2 3.6914999999999996e+00 4.9730065436648339e+00 2.6830849718685023e+01 0 0 0
676 2 3.6914999999999996e+00 6.3938655561404980e+00 2.6830849718685023e+01 0 0 0
629 2 0.0000000000000000e+00 5.6834360499026637e+00 3.0030999999997842e+01 0 0 0
631 2 0.0000000000000000e+00 4.2625770374269996e+00 3.0030999999997842e+01 0 0 0
646 2 1.2305000000000001e+00 7.8147245686161639e+00 3.0030999999997842e+01 0 0 0
648 2 1.2305000000000001e+00 6.3938655561404980e+00 3.0030999999997842e+01 0 0 0
650 2 2.4610000000000003e+00 5.6834360499026637e+00 3.0030999999997842e+01 0 0 0
652 2 2.4610000000000003e+00 4.2625770374269996e+00 3.0030999999997842e+01 0 0 0
675 2 3.6914999999999996e+00 7.8147245686161639e+00 3.0030999999997842e+01 0 0 0
677 2 3.6914999999999996e+00 6.3938655561404980e+00 3.0030999999997842e+01 0 0 0
678 2 4.9220000000000006e+00 7.1042950623783341e+00 2.6830849718685023e+01 0 0 0
680 2 4.9220000000000006e+00 4.2625770374269978e+00 2.6830849718685023e+01 0 0 0
682 2 6.1524999999999999e+00 4.9730065436648339e+00 2.6830849718685023e+01 0 0 0
713 2 6.1524999999999999e+00 6.3938655561404980e+00 2.6830849718685023e+01 0 0 0
715 2 7.3830000000000009e+00 7.1042950623783341e+00 2.6830849718685023e+01 0 0 0
717 2 7.3829999999999991e+00 4.2625770374269996e+00 2.6830849718685023e+01 0 0 0
679 2 4.9220000000000006e+00 5.6834360499026637e+00 3.0030999999997842e+01 0 0 0
681 2 4.9220000000000006e+00 4.2625770374269978e+00 3.0030999999997842e+01 0 0 0
712 2 6.1524999999999999e+00 7.8147245686161639e+00 3.0030999999997842e+01 0 0 0
714 2 6.1524999999999999e+00 6.3938655561404980e+00 3.0030999999997842e+01 0 0 0
716 2 7.3829999999999991e+00 5.6834360499026637e+00 3.0030999999997842e+01 0 0 0
718 2 7.3829999999999991e+00 4.2625770374269996e+00 3.0030999999997842e+01 0 0 0
719 2 8.6135000000000002e+00 4.9730065436648339e+00 2.6830849718685023e+01 0 0 0
758 2 8.6135000000000002e+00 6.3938655561404980e+00 2.6830849718685023e+01 0 0 0
760 2 9.8440000000000012e+00 7.1042950623783341e+00 2.6830849718685023e+01 0 0 0
762 2 9.8440000000000012e+00 4.2625770374270004e+00 2.6830849718685023e+01 0 0 0
764 2 1.1074500000000002e+01 4.9730065436648339e+00 2.6830849718685023e+01 0 0 0
805 2 1.1074500000000002e+01 6.3938655561404980e+00 2.6830849718685023e+01 0 0 0
757 2 8.6135000000000002e+00 7.8147245686161639e+00 3.0030999999997842e+01 0 0 0
759 2 8.6135000000000002e+00 6.3938655561404980e+00 3.0030999999997842e+01 0 0 0
761 2 9.8440000000000012e+00 5.6834360499026637e+00 3.0030999999997842e+01 0 0 0
763 2 9.8440000000000012e+00 4.2625770374270004e+00 3.0030999999997842e+01 0 0 0
804 2 1.1074500000000002e+01 7.8147245686161639e+00 3.0030999999997842e+01 0 0 0
806 2 1.1074500000000002e+01 6.3938655561404980e+00 3.0030999999997842e+01 0 0 0
641 2 0.0000000000000000e+00 1.1366872099805333e+01 2.6830849718685023e+01 0 0 0
643 2 0.0000000000000000e+00 8.5251540748539991e+00 2.6830849718685023e+01 0 0 0
645 2 1.2305000000000001e+00 9.2355835810918343e+00 2.6830849718685023e+01 0 0 0
668 2 1.2305000000000001e+00 1.0656442593567498e+01 2.6830849718685023e+01 0 0 0
670 2 2.4610000000000003e+00 1.1366872099805333e+01 2.6830849718685023e+01 0 0 0
672 2 2.4610000000000003e+00 8.5251540748539991e+00 2.6830849718685023e+01 0 0 0
674 2 3.6915000000000004e+00 9.2355835810918343e+00 2.6830849718685023e+01 0 0 0
705 2 3.6914999999999996e+00 1.0656442593567499e+01 2.6830849718685023e+01 0 0 0
642 2 0.0000000000000000e+00 9.9460130873296642e+00 3.0030999999997842e+01 0 0 0
644 2 0.0000000000000000e+00 8.5251540748539991e+00 3.0030999999997842e+01 0 0 0
667 2 1.2305000000000001e+00 1.2077301606043163e+01 3.0030999999997842e+01 0 0 0
669 2 1.2305000000000001e+00 1.0656442593567498e+01 3.0030999999997842e+01 0 0 0
671 2 2.4610000000000003e+00 9.9460130873296642e+00 3.0030999999997842e+01 0 0 0
673 2 2.4610000000000003e+00 8.5251540748539991e+00 3.0030999999997842e+01 0 0 0
704 2 3.6914999999999996e+00 1.2077301606043163e+01 3.0030999999997842e+01 0 0 0
706 2 3.6914999999999996e+00 1.0656442593567499e+01 3.0030999999997842e+01 0 0 0
749 2 6.1524999999999999e+00 1.2077301606043163e+01 3.0030999999997842e+01 0 0 0
755 2 7.3830000000000009e+00 8.5251540748539991e+00 3.0030999999997842e+01 0 0 0
707 2 4.9220000000000006e+00 1.1366872099805333e+01 2.6830849718685023e+01 0 0 0
709 2 4.9220000000000006e+00 8.5251540748539991e+00 2.6830849718685023e+01 0 0 0
711 2 6.1524999999999999e+00 9.2355835810918343e+00 2.6830849718685023e+01 0 0 0
750 2 6.1524999999999999e+00 1.0656442593567499e+01 2.6830849718685023e+01 0 0 0
752 2 7.3829999999999991e+00 1.1366872099805333e+01 2.6830849718685023e+01 0 0 0
708 2 4.9220000000000006e+00 9.9460130873296642e+00 3.0030999999997842e+01 0 0 0
754 2 7.3830000000000009e+00 8.5251540748539991e+00 2.6830849718685023e+01 0 0 0
751 2 6.1524999999999999e+00 1.0656442593567499e+01 3.0030999999997842e+01 0 0 0
710 2 4.9220000000000006e+00 8.5251540748539991e+00 3.0030999999997842e+01 0 0 0
753 2 7.3830000000000009e+00 9.9460130873296642e+00 3.0030999999997842e+01 0 0 0
846 2 1.2304999999999998e+01 1.1366872099805333e+01 2.6830849718685023e+01 0 0 0
844 2 1.1074500000000002e+01 1.0656442593567498e+01 2.6830849718685023e+01 0 0 0
843 2 1.1074500000000002e+01 1.2077301606043163e+01 3.0030999999997842e+01 0 0 0
803 2 1.1074500000000002e+01 9.2355835810918343e+00 2.6830849718685023e+01 0 0 0
800 2 9.8440000000000012e+00 9.9460130873296642e+00 3.0030999999997842e+01 0 0 0
802 2 9.8440000000000012e+00 8.5251540748539956e+00 3.0030999999997842e+01 0 0 0
799 2 9.8440000000000012e+00 1.1366872099805333e+01 2.6830849718685023e+01 0 0 0
797 2 8.6134999999999984e+00 1.0656442593567498e+01 2.6830849718685023e+01 0 0 0
798 2 8.6134999999999984e+00 1.0656442593567498e+01 3.0030999999997842e+01 0 0 0
845 2 1.1074500000000002e+01 1.0656442593567498e+01 3.0030999999997842e+01 0 0 0
796 2 8.6135000000000002e+00 1.2077301606043163e+01 3.0030999999997842e+01 0 0 0
756 2 8.6134999999999984e+00 9.2355835810918343e+00 2.6830849718685023e+01 0 0 0
801 2 9.8440000000000012e+00 8.5251540748539956e+00 2.6830849718685023e+01 0 0 0
952 2 0.0000000000000000e+00 2.8417180249513345e+00 3.3231150281320325e+01 0 0 0
953 2 0.0000000000000000e+00 0.0000000000000000e+00 3.3231150281320325e+01 0 0 0
954 2 1.2305000000000001e+00 7.1042950623783474e-01 3.3231150281320325e+01 0 0 0
958 2 1.2305000000000001e+00 2.1312885187134998e+00 3.3231150281320325e+01 0 0 0
959 2 2.4610000000000003e+00 2.8417180249513345e+00 3.3231150281320325e+01 0 0 0
960 2 2.4610000000000003e+00 0.0000000000000000e+00 3.3231150281320325e+01 0 0 0
961 2 3.6915000000000004e+00 7.1042950623783474e-01 3.3231150281320325e+01 0 0 0
969 2 3.6914999999999996e+00 2.1312885187134998e+00 3.3231150281320325e+01 0 0 0
970 2 4.9220000000000006e+00 2.8417180249513332e+00 3.3231150281320325e+01 0 0 0
971 2 4.9220000000000006e+00 0.0000000000000000e+00 3.3231150281320325e+01 0 0 0
972 2 6.1524999999999999e+00 7.1042950623783407e-01 3.3231150281320325e+01 0 0 0
984 2 6.1524999999999999e+00 2.1312885187134989e+00 3.3231150281320325e+01 0 0 0
985 2 7.3829999999999991e+00 2.8417180249513345e+00 3.3231150281320325e+01 0 0 0
986 2 7.3829999999999991e+00 0.0000000000000000e+00 3.3231150281320325e+01 0 0 0
987 2 8.6134999999999984e+00 7.1042950623783407e-01 3.3231150281320325e+01 0 0 0
1003 2 8.6134999999999984e+00 2.1312885187135002e+00 3.3231150281320325e+01 0 0 0
1004 2 9.8440000000000012e+00 2.8417180249513332e+00 3.3231150281320325e+01 0 0 0
1005 2 9.8440000000000012e+00 0.0000000000000000e+00 3.3231150281320325e+01 0 0 0
1006 2 1.1074500000000002e+01 7.1042950623783330e-01 3.3231150281320325e+01 0 0 0
1026 2 1.1074500000000002e+01 2.1312885187135002e+00 3.3231150281320325e+01 0 0 0
955 2 0.0000000000000000e+00 7.1042950623783341e+00 3.3231150281320325e+01 0 0 0
956 2 0.0000000000000000e+00 4.2625770374269996e+00 3.3231150281320325e+01 0 0 0
957 2 1.2305000000000001e+00 4.9730065436648339e+00 3.3231150281320325e+01 0 0 0
965 2 1.2305000000000001e+00 6.3938655561404980e+00 3.3231150281320325e+01 0 0 0
966 2 2.4610000000000003e+00 7.1042950623783341e+00 3.3231150281320325e+01 0 0 0
967 2 2.4610000000000003e+00 4.2625770374269996e+00 3.3231150281320325e+01 0 0 0
968 2 3.6914999999999996e+00 4.9730065436648339e+00 3.3231150281320325e+01 0 0 0
980 2 3.6914999999999996e+00 6.3938655561404980e+00 3.3231150281320325e+01 0 0 0
981 2 4.9220000000000006e+00 7.1042950623783341e+00 3.3231150281320325e+01 0 0 0
982 2 4.9220000000000006e+00 4.2625770374269978e+00 3.3231150281320325e+01 0 0 0
983 2 6.1524999999999999e+00 4.9730065436648339e+00 3.3231150281320325e+01 0 0 0
999 2 6.1524999999999999e+00 6.3938655561404980e+00 3.3231150281320325e+01 0 0 0
1000 2 7.3830000000000009e+00 7.1042950623783341e+00 3.3231150281320325e+01 0 0 0
1001 2 7.3829999999999991e+00 4.2625770374269996e+00 3.3231150281320325e+01 0 0 0
1002 2 8.6135000000000002e+00 4.9730065436648339e+00 3.3231150281320325e+01 0 0 0
1022 2 8.6135000000000002e+00 6.3938655561404980e+00 3.3231150281320325e+01 0 0 0
1023 2 9.8440000000000012e+00 7.1042950623783341e+00 3.3231150281320325e+01 0 0 0
1024 2 9.8440000000000012e+00 4.2625770374270004e+00 3.3231150281320325e+01 0 0 0
1025 2 1.1074500000000002e+01 4.9730065436648339e+00 3.3231150281320325e+01 0 0 0
1046 2 1.1074500000000002e+01 6.3938655561404980e+00 3.3231150281320325e+01 0 0 0
962 2 0.0000000000000000e+00 1.1366872099805333e+01 3.3231150281320325e+01 0 0 0
963 2 0.0000000000000000e+00 8.5251540748539991e+00 3.3231150281320325e+01 0 0 0
964 2 1.2305000000000001e+00 9.2355835810918343e+00 3.3231150281320325e+01 0 0 0
976 2 1.2305000000000001e+00 1.0656442593567498e+01 3.3231150281320325e+01 0 0 0
977 2 2.4610000000000003e+00 1.1366872099805333e+01 3.3231150281320325e+01 0 0 0
978 2 2.4610000000000003e+00 8.5251540748539991e+00 3.3231150281320325e+01 0 0 0
979 2 3.6915000000000004e+00 9.2355835810918343e+00 3.3231150281320325e+01 0 0 0
995 2 3.6914999999999996e+00 1.0656442593567499e+01 3.3231150281320325e+01 0 0 0
996 2 4.9220000000000006e+00 1.1366872099805333e+01 3.3231150281320325e+01 0 0 0
997 2 4.9220000000000006e+00 8.5251540748539991e+00 3.3231150281320325e+01 0 0 0
998 2 6.1524999999999999e+00 9.2355835810918343e+00 3.3231150281320325e+01 0 0 0
1018 2 6.1524999999999999e+00 1.0656442593567499e+01 3.3231150281320325e+01 0 0 0
1019 2 7.3829999999999991e+00 1.1366872099805333e+01 3.3231150281320325e+01 0 0 0
1020 2 7.3830000000000009e+00 8.5251540748539991e+00 3.3231150281320325e+01 0 0 0
1021 2 8.6134999999999984e+00 9.2355835810918343e+00 3.3231150281320325e+01 0 0 0
1042 2 8.6134999999999984e+00 1.0656442593567498e+01 3.3231150281320325e+01 0 0 0
1043 2 9.8440000000000012e+00 1.1366872099805333e+01 3.3231150281320325e+01 0 0 0
1044 2 9.8440000000000012e+00 8.5251540748539956e+00 3.3231150281320325e+01 0 0 0
1045 2 1.1074500000000002e+01 9.2355835810918343e+00 3.3231150281320325e+01 0 0 0
1066 2 1.1074500000000002e+01 1.0656442593567498e+01 3.3231150281320325e+01 0 0 0
1067 2 1.2304999999999998e+01 1.1366872099805333e+01 3.3231150281320325e+01 0 0 0
6724 1 8.4436886412991219e-01 2.8454707773896240e+00 3.8933551504137569e+01 1 -1 0
6566 1 2.3248422273072911e-01 2.3081569318327819e+00 3.6207452092283830e+01 0 1 0
3071 1 4.3922009094656991e+00 3.6884769004650049e+00 3.6688242911744638e+01 3 0 0
4974 1 5.4470367386236704e+00 1.2647091359981832e+00 3.5657191782963224e+01 1 0 -1
1684 1 4.5850564027001726e+00 3.9234162877458965e+00 3.9426669241471672e+01 2 -1 0
1466 1 7.8359869982290098e+00 6.9244196708475947e-01 3.9503927059060942e+01 0 -2 0
1378 1 7.8003143866755602e+00 5.7967902665870996e-01 3.6840491277255268e+01 0 0 0
3545 1 9.5201194912583542e+00 2.2088716294147006e+00 3.5562635086407681e+01 1 1 0
2169 1 1.1907692624460379e+01 2.3635934688338511e+00 3.9408207021534068e+01 2 3 -1
2293 1 1.1947620815384839e+01 2.3301918416653544e+00 3.6485672045836580e+01 0 -2 0
348 1 1.7774431202319569e+00 4.3724912060155603e+00 3.5623509974954558e+01 -1 1 -1
3464 1 1.4040224363444935e+00 7.1150818661105379e+00 3.9231071509944655e+01 2 -2 -1
3875 1 1.0265488544315584e+00 6.6769490147413686e+00 3.6567037819681659e+01 0 0 -1
6426 1 6.4507701904678942e+00 5.2651492784646026e+00 3.5728833809008179e+01 -1 1 0
3851 1 5.6191823895558324e+00 7.8177326479690183e+00 3.6702491279104478e+01 0 -1 -1
316 1 5.5376275136223105e+00 8.0269346727857318e+00 3.9129999412297437e+01 3 -1 0
44 1 8.7326733439180497e+00 5.1382394019293294e+00 3.9327665103609618e+01 1 1 -1
5268 1 9.0713333243437724e+00 5.0688684308478962e+00 3.6516051054351564e+01 2 -1 -1
438 1 1.1101813619372850e+01 6.6004539332335463e+00 3.5813747319382060e+01 1 -4 0
437 1 2.9891910531635162e+00 8.5325365920934537e+00 3.5850556851983583e+01 0 0 -1
3279 1 2.3784193710587207e+00 1.1148137417101655e+01 3.6429130471464589e+01 3 -2 0
4820 1 2.6621190152234160e+00 1.1341056017057996e+01 3.9302038783827925e+01 -1 0 0
1656 1 7.3574117044686673e+00 9.8255309549859149e+00 3.5786567653914034e+01 1 -1 0
5165 1 4.9816535544154084e+00 1.0477629975327236e+01 3.9925889209242698e+01 1 1 -1
5377 1 6.5234113147494091e+00 1.2069523396757896e+01 3.6916756473128075e+01 1 -4 -1
6600 1 1.2056734309537099e+01 1.1368693192938691e+01 3.6195255423067906e+01 1 -1 0
1888 1 1.0053342002669984e+01 9.1437741591820441e+00 3.6408907544140902e+01 0 1 -1
6561 1 9.6586129014094269e+00 9.3869372058813383e+00 3.9223901886632902e+01 -2 0 0
6423 1 9.0548893735867715e+00 1.1970407533199964e+01 3.9819322381542932e+01 -1 1 0
6559 1 3.0056476579663887e+00 1.9714970654032518e+00 4.0052984450129856e+01 -1 0 -1
6535 1 2.9512200650078779e+00 2.1430933406427597e+00 4.2943138723950156e+01 1 1 0
5692 1 4.5077060506326933e-01 2.3348822624554626e+00 4.3597387738306608e+01 1 3 0
2051 1 7.1756236378904434e+00 3.1297990790115620e+00 4.0512380714348566e+01 1 1 -1
4945 1 6.8746115993898416e+00 3.2293682229474037e+00 4.2941531899657619e+01 0 1 0
284 1 7.4726332459168798e+00 8.6944133127783241e-01 4.3938040010964258e+01 -1 3 -1
3199 1 4.6395805857895080e+00 3.7687370680263337e+00 4.4066001913724122e+01 1 1 0
1310 1 1.0067532325570495e+01 1.4758313254504285e-01 4.2979998274177987e+01 0 1 -1
1695 1 1.1955411075505353e+01 2.0311745185429646e+00 4.3985354345279760e+01 1 1 0
5360 1 1.0303295849908340e+01 5.2060638681642424e-01 4.0264880748309679e+01 1 0 0
1821 1 1.8123215730959024e+00 7.1440817893427608e+00 4.3953236528846489e+01 0 -1 -1
4877 1 3.7423329816296897e+00 6.2700770696838477e+00 4.0296944488529149e+01 2 1 0
5543 1 4.0761852134023018e+00 6.2826088118845282e+00 4.3158635628718883e+01 1 1 -1
342 1 6.4526360877647057e-02 5.0792112383988828e+00 4.3059428944365592e+01 5 3 -1
2166 1 4.2084788815415664e-02 5.1531290136863834e+00 4.0177914353482123e+01 1 2 -1
2167 1 7.8134798586351950e+00 7.6307064885011959e+00 4.0281596804590890e+01 -1 -1 -1
3825 1 7.9170163096914754e+00 7.6870837374678755e+00 4.3089608657798522e+01 1 1 -1
3421 1 8.5870863830338706e+00 5.1866844525160909e+00 4.3715661942634526e+01 1 2 -1
3218 1 1.1358872985712891e+01 4.7197250605551817e+00 4.0318505309680646e+01 2 0 -1
2102 1 1.1117531460459070e+01 4.5506332770993483e+00 4.2955137204260041e+01 0 2 -1
3172 1 8.4327637728581606e-01 9.5538835688508268e+00 4.0062732653951898e+01 3 3 0
3684 1 2.6397637532368639e+00 1.1427112413119628e+01 4.3665183899850803e+01 -2 -1 -1
3341 1 7.8559909540366002e-01 9.5925457797299671e+00 4.2672291332500052e+01 0 -2 -1
1394 1 5.0288113751067449e+00 1.0508764889033785e+01 4.2866531199616986e+01 -2 0 0
201 1 5.6183663217891979e+00 8.2639463752471976e+00 4.4111077154160910e+01 -1 1 -1
5424 1 9.1088831910454680e+00 1.1901903280781445e+01 4.2541947389368900e+01 2 1 -1
5054 1 9.7186304833709496e+00 9.6052478248144713e+00 4.3675333394635203e+01 -2 0 0
18 1 1.2281509303618934e+01 8.9013171804733666e+00 4.2852050675947098e+01 -1 0 -1
3005 1 1.2203611813111154e+01 8.9100047796787560e+00 4.0279696891093408e+01 2 2 0
1680 1 6.1046871328500962e-01 2.2582887282597888e+00 4.6482486299122669e+01 -2 1 -1
22 1 1.0688018010086118e+00 1.1109517021373522e-01 4.9861065133144251e+01 1 2 0
1325 1 5.3847515482442629e+00 1.5536390194499903e+00 4.7277105574914088e+01 1 -1 0
3769 1 4.5299324779485852e+00 3.7872830979161578e+00 4.6711799703194700e+01 1 -1 -1
6400 1 7.9194575640782379e+00 8.2171364075443032e-01 4.6739564739164763e+01 3 -2 0
3682 1 9.6048892635354388e+00 2.6292427740242741e+00 4.7358571630956860e+01 0 -1 -1
6445 1 1.1834638726478563e+01 1.9876647396268310e+00 4.6551809533472237e+01 1 2 0
3564 1 1.9105984088489372e+00 4.1200687535168372e+00 4.7598791184373269e+01 2 0 0
3781 1 1.7777303831400642e+00 6.8596862485666037e+00 4.6726870997500768e+01 1 1 -1
375 1 6.2906593332231235e+00 5.5255451477311794e+00 4.7726444063522706e+01 1 1 -1
3922 1 5.7425423180915693e+00 8.0607447480327075e+00 4.6970658953325056e+01 1 -2 -1
5088 1 8.4074340421162894e+00 4.9382431217623459e+00 4.6370330556295386e+01 -2 1 -1