LAMMPS data file via write_data, version 16 Mar 2018, timestep = 100000

6768 atoms
2 atom types

0.0000000000000000e+00 4.9219999999999999e+01 xlo xhi
0.0000000000000000e+00 4.9019635930410494e+01 ylo yhi
-2.1993056651095344e-01 6.0281930566511257e+01 zlo zhi

Masses

1 18.015
2 12.01

Atoms # atomic

406 1 2.8838166128902913e+00 2.7075280682696894e+00 1.5071159400114020e+00 0 1 0
2109 1 6.3778510336947516e+00 6.5636298068047794e-01 9.7466625886665936e-02 1 1 1
2025 1 9.9232224469254096e+00 1.1809212584177107e+00 1.2454091247007165e+01 0 1 0
6403 1 1.0871242946896408e-02 5.3499757114622319e+00 9.2953274513734776e+00 1 -1 1
146 1 4.7992843288747338e+00 1.8684751298155238e+00 3.5676197247894508e+00 1 0 0
5310 1 1.1359728642835533e+01 7.0444713336903524e+00 5.9250893196495911e+00 1 0 0
1640 1 9.6895870855826001e+00 8.6277954254915218e-02 2.2361578608715083e+00 0 1 0
228 1 7.3762632877205547e-01 4.4001737319124761e+00 2.1863488137961116e+00 0 1 0
5532 1 2.6505402559313000e+00 6.2682721770673551e+00 8.3531308310634533e-01 1 0 0
1834 1 1.0060090752499931e+01 2.9067575469460207e+00 6.0236131089765674e+00 0 1 1
3544 1 6.7336227513577054e+00 3.6527893445752899e+00 3.2389747609632047e+00 1 1 0
4813 1 5.9705860666402941e+00 7.4737484827822804e+00 3.8684664448162343e+00 1 0 1
230 1 5.7967125701899223e+00 5.9327860648567698e+00 1.5601466527745838e+00 0 0 0
5320 1 9.7992698605974304e+00 2.9478555153834423e+00 2.8777875415540279e+00 1 0 1
3057 1 8.5645120615131578e+00 8.1123545264150039e+00 3.0709145256854673e+00 1 2 1
355 1 9.8532249832165313e+00 5.9748476290016583e+00 3.7794434774641181e+00 0 1 0
1805 1 1.2269544203092812e+01 1.7079717985288875e-01 3.7717212626570911e+00 1 0 0
3410 1 9.7153932323083509e+00 1.0363019940856109e+01 7.1975044607936036e+00 0 0 0
1555 1 2.9387222390473982e+00 1.0059680507514948e+01 4.8017171012870135e+00 0 0 1
532 1 5.0668555409179277e+00 9.9473022308130350e+00 3.1635294946100272e+00 -1 0 0
5140 1 5.2186026092350595e+00 1.0345289335833945e+01 5.2639638424042678e-01 0 -1 1
5139 1 8.9327911468268901e+00 1.0289120656905407e+01 4.6340744351608274e+00 1 1 0
1426 1 9.0088169778657399e+00 8.7642315301953175e+00 3.3890354425745672e-01 1 -1 1
1807 1 5.2958892147856167e+00 2.2876325494417373e+00 1.1077743774630934e+01 0 1 0
1887 1 9.3484285623998908e-02 2.1332401959630301e+00 7.9507614719103419e+00 1 1 0
3760 1 5.2374598205529139e+00 7.6490828204725292e-01 6.1887648015357657e+00 0 0 0
1682 1 2.6969806988773248e+00 3.7714787419174209e+00 8.7478428584671519e+00 0 1 1
1323 1 6.5290718076752183e+00 2.1407881714094379e+00 8.4625821421102856e+00 1 0 1
6699 1 6.4924700583134864e+00 1.1270118230560048e+01 1.3938317869849788e+01 0 1 0
3211 1 1.0309090871192605e+01 5.5251364809996717e-01 9.5927828581079275e+00 1 1 1
5481 1 8.9406746942666544e+00 6.0924307045609327e-01 7.3543643467702582e+00 0 -1 0
4973 1 4.5942123293488635e+00 5.7587657520405999e+00 1.4261117772201056e+01 0 1 1
1848 1 2.2246233952594991e+00 2.8509754644556882e+00 4.8222500943625732e+00 1 1 0
245 1 7.9785765358183696e+00 9.7165378817093533e+00 9.2637216940753344e+00 0 0 0
405 1 4.1459683166459751e+00 3.8984639962612810e+00 6.6241614057342728e+00 -1 -1 0
1728 1 7.0748389275711636e+00 4.8977387422641012e+00 8.8205513106380966e+00 0 1 0
6457 1 7.8371728503878106e+00 5.6642235011278235e+00 6.0359450984409220e+00 0 0 1
1798 1 1.1924018070371325e+01 4.3439269480155041e+00 7.8469966257218537e+00 0 1 1
1877 1 1.0113021579495376e+01 5.3637649933281031e+00 9.9156267506886788e+00 0 1 0
2161 1 9.9965349361946654e-01 9.7166113612914202e+00 8.6878963129032183e+00 1 1 0
3435 1 2.1092823540368832e+00 8.0385272426836405e+00 6.7628425328750001e+00 0 -1 0
150 1 1.2129970291738124e+01 3.5112362265788839e+00 1.8512964275454435e+00 0 1 0
2222 1 5.4744309764975201e+00 8.2828359679983254e+00 8.7417785138298107e+00 1 1 0
29 1 8.8515184013272368e+00 1.1732803091492540e+01 7.5478307982941029e-02 0 0 0
1476 1 9.4311336521834690e+00 7.3352141548059748e+00 7.8623461845549372e+00 1 2 1
2999 1 4.8775847299869133e+00 6.4350823658331349e+00 6.3516237885785669e+00 1 1 1
5316 1 9.5374206818752629e+00 8.0669232010560137e+00 1.1652110951808952e+01 1 1 0
6617 1 3.4497121332249820e+00 1.2023863321190396e+01 6.7675647577778966e+00 2 1 1
4861 1 5.5480111451721132e+00 8.6360080662135452e+00 1.2957972153790667e+01 1 0 1
4929 1 6.7195292506428101e+00 3.3917425991889929e+00 -3.9184978207883803e-02 1 -1 0
5453 1 3.5494169374279285e+00 1.0594941811421055e+01 8.7085960757034773e+00 0 1 0
6360 1 7.9240390314836195e-01 5.6929596574095120e-01 4.1281128515695151e+00 0 0 1
368 1 2.1128419070757332e-01 9.7546265783195292e+00 3.7866394919085913e+00 1 0 0
5003 1 5.5943352650659861e+00 2.6343838146498939e+00 1.3915758953206986e+01 1 0 1
6555 1 6.5911975579170665e+00 1.1700195409082818e+01 4.1580024541449196e+00 1 0 1
5404 1 1.1774031791108523e+01 1.0219452573862844e+01 1.2226858387036364e+01 1 1 0
4724 1 7.3538523723564069e+00 1.3853521154445944e-01 1.3573834308911215e+01 1 1 1
6366 1 9.8464897847792248e+00 3.7871465215754303e+00 1.2401892515052888e+01 0 1 1
1624 1 7.7121557547011879e+00 4.6489523686134806e+00 1.3900691592140600e+01 1 1 1
3929 1 3.2089546506311359e+00 1.4322830182830784e+00 9.8619720455870414e+00 -1 0 1
189 1 1.9929623022984808e+00 4.8597522207109822e+00 1.4504193426368410e+01 1 -1 0
3021 1 1.2795736352225322e+00 5.8529464885074489e+00 1.1991452795968277e+01 1 1 1
487 1 8.0594654815067912e+00 7.3872354525800823e+00 1.3990867362584355e+01 -1 0 1
6630 1 2.5894637469338222e+00 1.1736017197100605e+01 1.1134985302041981e+01 1 1 1
1561 1 6.0433432367760753e-01 1.0158593574503906e+01 4.3230844278185698e-01 1 0 1
3506 1 3.6220539472135931e+00 4.8158525727622852e+00 1.0907107949655352e+01 1 0 0
3879 1 5.5731148656769056e+00 6.7869974913010402e+00 1.0720946732663254e+01 1 1 1
2277 1 2.4490391971498084e+00 9.4776086842301979e+00 1.2470803969975314e+01 1 1 1
1933 1 1.2195827046229674e+01 4.4595337794695444e+00 1.3554385575187899e+01 0 2 0
5648 1 5.0027155777485055e-01 8.4516868290778007e+00 1.1088814030639995e+01 0 -1 1
3648 1 8.2015639824828295e+00 1.1665270178799927e+01 1.1502668994436613e+01 2 0 0
4916 1 1.1308147036495978e+01 1.1115978000353094e+01 3.6487157849185601e+00 2 1 1
1376 1 9.6311425577302734e-01 1.0355024731821883e+01 1.4784101088682059e+01 2 0 1
6515 1 3.7012063763832934e+00 8.4467061408251833e+00 1.5309234276650065e+01 0 0 0
800 2 9.8440000000000012e+00 9.9460130873296642e+00 3.0031000000000059e+01 0 0 0
6415 1 9.0546000562661018e+00 1.1439968741245037e+01 1.7376505843756870e+01 0 0 1
4779 1 4.7970201295874535e+00 4.7374986855645123e+00 1.7315669061294997e+01 0 1 1
5377 1 6.8178447146286114e+00 2.7144532227577760e+00 2.0972735747841959e+01 1 0 0
4834 1 9.0207002701376933e+00 3.2676529256683127e+00 1.6297140695147704e+01 0 0 1
3468 1 1.0477817169643712e+01 8.7898355274602502e-01 1.8011291639953470e+01 2 0 0
528 1 4.7336135979747507e-01 1.4922019623816323e+00 1.7347812706599058e+01 0 1 0
2341 1 2.6367579299455004e+00 6.2251222697601332e+00 1.8033875201013252e+01 0 1 1
1392 1 5.0428442066317480e-01 5.9868220558667744e+00 1.6438235017845422e+01 1 -1 1
3927 1 6.7270216678052579e+00 4.9263798264079979e+00 1.9433883580317758e+01 1 2 0
5606 1 9.0992245429815206e+00 4.8854712606220270e+00 1.8310771753777814e+01 1 0 1
5480 1 1.0068660199232159e+01 6.7871417909055554e+00 1.5971481662424384e+01 2 2 0
1814 1 3.4996801484989128e+00 1.1660787778102929e+01 2.4026731123879198e+01 1 2 0
5537 1 4.1243443618401914e+00 1.9507657274210173e+00 1.7512269104867570e+01 1 1 1
3076 1 4.0801460732546353e+00 8.5476983958262966e+00 1.9634463371671274e+01 2 1 1
1974 1 2.7987319304638758e+00 1.1712228968036705e+01 1.6981722405550748e+01 0 1 0
797 2 8.6134999999999984e+00 1.0656442593567498e+01 2.6799344562191401e+01 0 0 0
3793 1 5.3204861444052618e+00 9.2234142571845723e+00 1.7030562824758068e+01 1 1 0
1939 1 7.9885312206763608e+00 8.3416489198714068e+00 1.7048976258377998e+01 0 0 0
2202 1 8.3473980416848192e+00 8.6025360908092896e+00 1.9713267356627977e+01 0 0 0
799 2 9.8440000000000012e+00 1.1366872099805333e+01 2.6799344562191401e+01 0 0 0
5649 1 5.5656302685342052e+00 1.2016317766539196e+01 1.7221939186654723e+01 1 2 1
620 1 1.2055110798995194e+01 2.9613360792074408e+00 1.5749212963007638e+01 -1 0 0
756 2 8.6134999999999984e+00 9.2355835810918343e+00 2.6799344562191401e+01 0 0 0
5188 1 2.7882599527853849e+00 2.9048172591436661e+00 2.2152790295144133e+01 0 2 0
6655 1 1.7243167842424036e+00 1.2773473080609641e+00 2.4041431745012371e+01 0 0 0
3611 1 5.4457970036421006e+00 3.4290797465264324e+00 2.3133489579881417e+01 1 1 0
5552 1 9.1237334824361902e+00 3.5311565956744091e+00 2.2683654793133549e+01 0 1 0
3237 1 8.4433105846129752e+00 1.1054697332170541e+01 2.0600369880877480e+01 0 0 0
844 2 1.1074500000000002e+01 1.0656442593567498e+01 2.6799344562191401e+01 0 0 0
2297 1 7.8812318000358665e+00 6.0107071738803119e-01 1.9612221629597652e+01 0 1 1
3941 1 9.9718523192029789e+00 1.3379309121010290e+00 2.4147788187297973e+01 0 1 0
5408 1 2.5057898066801876e+00 5.9700638156013497e+00 2.3385123066406479e+01 2 1 0
2263 1 7.5677342919034869e+00 9.5958005410003544e-01 1.6354901184326163e+01 0 1 0
3578 1 1.3975633623497059e+00 5.2278466104340842e+00 2.0447034186048011e+01 0 1 0
5338 1 7.5852781845457642e+00 5.6783245501522988e+00 2.4675194870515909e+01 1 2 0
5479 1 5.2568880975766596e+00 6.1415681327452347e+00 2.3325663563731560e+01 2 0 0
3605 1 6.4078099321601130e+00 6.8847739154802605e+00 2.0909023085040520e+01 1 1 0
1903 1 1.0610296644580842e+01 3.9553076780023937e+00 2.0329302814922947e+01 0 0 0
4994 1 1.0375771950255274e+01 6.1288146249302891e+00 2.4375230227202319e+01 1 1 0
798 2 8.6134999999999984e+00 1.0656442593567498e+01 3.0031000000000059e+01 0 0 0
5226 1 4.4451236873329680e+00 1.0813810582022176e+01 2.1436273871384905e+01 2 1 1
1382 1 1.4374252095258333e+00 8.2213306670191066e+00 2.0312841242719198e+01 1 -1 1
3536 1 1.2191425444700045e+01 2.3683408976892877e+00 1.9345154262264987e+01 1 0 0
145 1 2.1280876943693094e+00 8.5336663392658618e+00 2.2988549403471538e+01 0 1 0
5306 1 5.1781396982455936e+00 2.6004331695522309e-01 2.4133202919591788e+01 1 2 1
30 1 5.5979702882843334e+00 9.2532582909108942e+00 2.3156606148203497e+01 1 1 0
1989 1 8.2699724290223600e+00 1.0278091867097919e+01 2.3468420337938344e+01 1 0 0
1735 1 1.0845774638364206e+01 8.1777476691870028e+00 2.1063531888528228e+01 1 0 0
387 1 1.0490924287478599e+01 8.5805269942416480e+00 2.3600189148498156e+01 0 0 0
1740 1 2.1044476476143656e+00 1.1469304763207882e+01 1.9694057350399536e+01 1 0 0
623 2 0.0000000000000000e+00 2.8417180249513345e+00 2.6799344562191401e+01 0 0 0
625 2 0.0000000000000000e+00 0.0000000000000000e+00 2.6799344562191401e+01 0 0 0
627 2 1.2305000000000001e+00 7.1042950623783474e-01 2.6799344562191401e+01 0 0 0
634 2 1.2305000000000001e+00 2.1312885187134998e+00 2.6799344562191401e+01 0 0 0
636 2 2.4610000000000003e+00 2.8417180249513345e+00 2.6799344562191401e+01 0 0 0
638 2 2.4610000000000003e+00 0.0000000000000000e+00 2.6799344562191401e+01 0 0 0
640 2 3.6915000000000004e+00 7.1042950623783474e-01 2.6799344562191401e+01 0 0 0
655 2 3.6914999999999996e+00 2.1312885187134998e+00 2.6799344562191401e+01 0 0 0
624 2 0.0000000000000000e+00 1.4208590124756650e+00 3.0031000000000059e+01 0 0 0
626 2 0.0000000000000000e+00 0.0000000000000000e+00 3.0031000000000059e+01 0 0 0
633 2 1.2305000000000001e+00 3.5521475311891644e+00 3.0031000000000059e+01 0 0 0
635 2 1.2305000000000001e+00 2.1312885187134998e+00 3.0031000000000059e+01 0 0 0
637 2 2.4610000000000003e+00 1.4208590124756650e+00 3.0031000000000059e+01 0 0 0
639 2 2.4610000000000003e+00 0.0000000000000000e+00 3.0031000000000059e+01 0 0 0
654 2 3.6914999999999996e+00 3.5521475311891644e+00 3.0031000000000059e+01 0 0 0
656 2 3.6914999999999996e+00 2.1312885187134998e+00 3.0031000000000059e+01 0 0 0
657 2 4.9220000000000006e+00 2.8417180249513332e+00 2.6799344562191401e+01 0 0 0
659 2 4.9220000000000006e+00 0.0000000000000000e+00 2.6799344562191401e+01 0 0 0
661 2 6.1524999999999999e+00 7.1042950623783407e-01 2.6799344562191401e+01 0 0 0
684 2 6.1524999999999999e+00 2.1312885187134989e+00 2.6799344562191401e+01 0 0 0
686 2 7.3829999999999991e+00 2.8417180249513345e+00 2.6799344562191401e+01 0 0 0
688 2 7.3829999999999991e+00 0.0000000000000000e+00 2.6799344562191401e+01 0 0 0
658 2 4.9220000000000006e+00 1.4208590124756650e+00 3.0031000000000059e+01 0 0 0
660 2 4.9220000000000006e+00 0.0000000000000000e+00 3.0031000000000059e+01 0 0 0
683 2 6.1524999999999999e+00 3.5521475311891644e+00 3.0031000000000059e+01 0 0 0
685 2 6.1524999999999999e+00 2.1312885187134989e+00 3.0031000000000059e+01 0 0 0
687 2 7.3829999999999991e+00 1.4208590124756659e+00 3.0031000000000059e+01 0 0 0
689 2 7.3829999999999991e+00 0.0000000000000000e+00 3.0031000000000059e+01 0 0 0
690 2 8.6134999999999984e+00 7.1042950623783407e-01 2.6799344562191401e+01 0 0 0
721 2 8.6134999999999984e+00 2.1312885187135002e+00 2.6799344562191401e+01 0 0 0
723 2 9.8440000000000012e+00 2.8417180249513332e+00 2.6799344562191401e+01 0 0 0
725 2 9.8440000000000012e+00 0.0000000000000000e+00 2.6799344562191401e+01 0 0 0
727 2 1.1074500000000002e+01 7.1042950623783330e-01 2.6799344562191401e+01 0 0 0
766 2 1.1074500000000002e+01 2.1312885187135002e+00 2.6799344562191401e+01 0 0 0
720 2 8.6134999999999984e+00 3.5521475311891657e+00 3.0031000000000059e+01 0 0 0
722 2 8.6134999999999984e+00 2.1312885187135002e+00 3.0031000000000059e+01 0 0 0
724 2 9.8440000000000012e+00 1.4208590124756659e+00 3.0031000000000059e+01 0 0 0
726 2 9.8440000000000012e+00 0.0000000000000000e+00 3.0031000000000059e+01 0 0 0
765 2 1.1074500000000002e+01 3.5521475311891644e+00 3.0031000000000059e+01 0 0 0
767 2 1.1074500000000002e+01 2.1312885187135002e+00 3.0031000000000059e+01 0 0 0
628 2 0.0000000000000000e+00 7.1042950623783341e+00 2.6799344562191401e+01 0 0 0
630 2 0.0000000000000000e+00 4.2625770374269996e+00 2.6799344562191401e+01 0 0 0
632 2 1.2305000000000001e+00 4.9730065436648339e+00 2.6799344562191401e+01 0 0 0
647 2 1.2305000000000001e+00 6.3938655561404980e+00 2.6799344562191401e+01 0 0 0
649 2 2.4610000000000003e+00 7.1042950623783341e+00 2.6799344562191401e+01 0 0 0
651 2 2.4610000000000003e+00 4.2625770374269996e+00 2.6799344562191401e+01 0 0 0
653 2 3.6914999999999996e+00 4.9730065436648339e+00 2.6799344562191401e+01 0 0 0
676 2 3.6914999999999996e+00 6.3938655561404980e+00 2.6799344562191401e+01 0 0 0
629 2 0.0000000000000000e+00 5.6834360499026637e+00 3.0031000000000059e+01 0 0 0
631 2 0.0000000000000000e+00 4.2625770374269996e+00 3.0031000000000059e+01 0 0 0
646 2 1.2305000000000001e+00 7.8147245686161639e+00 3.0031000000000059e+01 0 0 0
648 2 1.2305000000000001e+00 6.3938655561404980e+00 3.0031000000000059e+01 0 0 0
650 2 2.4610000000000003e+00 5.6834360499026637e+00 3.0031000000000059e+01 0 0 0
652 2 2.4610000000000003e+00 4.2625770374269996e+00 3.0031000000000059e+01 0 0 0
675 2 3.6914999999999996e+00 7.8147245686161639e+00 3.0031000000000059e+01 0 0 0
677 2 3.6914999999999996e+00 6.3938655561404980e+00 3.0031000000000059e+01 0 0 0
678 2 4.9220000000000006e+00 7.1042950623783341e+00 2.6799344562191401e+01 0 0 0
680 2 4.9220000000000006e+00 4.2625770374269978e+00 2.6799344562191401e+01 0 0 0
682 2 6.1524999999999999e+00 4.9730065436648339e+00 2.6799344562191401e+01 0 0 0
713 2 6.1524999999999999e+00 6.3938655561404980e+00 2.6799344562191401e+01 0 0 0
715 2 7.3830000000000009e+00 7.1042950623783341e+00 2.6799344562191401e+01 0 0 0
717 2 7.3829999999999991e+00 4.2625770374269996e+00 2.6799344562191401e+01 0 0 0
679 2 4.9220000000000006e+00 5.6834360499026637e+00 3.0031000000000059e+01 0 0 0
681 2 4.9220000000000006e+00 4.2625770374269978e+00 3.0031000000000059e+01 0 0 0
712 2 6.1524999999999999e+00 7.8147245686161639e+00 3.0031000000000059e+01 0 0 0
714 2 6.1524999999999999e+00 6.3938655561404980e+00 3.0031000000000059e+01 0 0 0
716 2 7.3829999999999991e+00 5.6834360499026637e+00 3.0031000000000059e+01 0 0 0
718 2 7.3829999999999991e+00 4.2625770374269996e+00 3.0031000000000059e+01 0 0 0
719 2 8.6135000000000002e+00 4.9730065436648339e+00 2.6799344562191401e+01 0 0 0
758 2 8.6135000000000002e+00 6.3938655561404980e+00 2.6799344562191401e+01 0 0 0
760 2 9.8440000000000012e+00 7.1042950623783341e+00 2.6799344562191401e+01 0 0 0
762 2 9.8440000000000012e+00 4.2625770374270004e+00 2.6799344562191401e+01 0 0 0
764 2 1.1074500000000002e+01 4.9730065436648339e+00 2.6799344562191401e+01 0 0 0
805 2 1.1074500000000002e+01 6.3938655561404980e+00 2.6799344562191401e+01 0 0 0
757 2 8.6135000000000002e+00 7.8147245686161639e+00 3.0031000000000059e+01 0 0 0
759 2 8.6135000000000002e+00 6.3938655561404980e+00 3.0031000000000059e+01 0 0 0
761 2 9.8440000000000012e+00 5.6834360499026637e+00 3.0031000000000059e+01 0 0 0
763 2 9.8440000000000012e+00 4.2625770374270004e+00 3.0031000000000059e+01 0 0 0
804 2 1.1074500000000002e+01 7.8147245686161639e+00 3.0031000000000059e+01 0 0 0
806 2 1.1074500000000002e+01 6.3938655561404980e+00 3.0031000000000059e+01 0 0 0
641 2 0.0000000000000000e+00 1.1366872099805333e+01 2.6799344562191401e+01 0 0 0
643 2 0.0000000000000000e+00 8.5251540748539991e+00 2.6799344562191401e+01 0 0 0
645 2 1.2305000000000001e+00 9.2355835810918343e+00 2.6799344562191401e+01 0 0 0
668 2 1.2305000000000001e+00 1.0656442593567498e+01 2.6799344562191401e+01 0 0 0
670 2 2.4610000000000003e+00 1.1366872099805333e+01 2.6799344562191401e+01 0 0 0
672 2 2.4610000000000003e+00 8.5251540748539991e+00 2.6799344562191401e+01 0 0 0
674 2 3.6915000000000004e+00 9.2355835810918343e+00 2.6799344562191401e+01 0 0 0
705 2 3.6914999999999996e+00 1.0656442593567499e+01 2.6799344562191401e+01 0 0 0
642 2 0.0000000000000000e+00 9.9460130873296642e+00 3.0031000000000059e+01 0 0 0
644 2 0.0000000000000000e+00 8.5251540748539991e+00 3.0031000000000059e+01 0 0 0
667 2 1.2305000000000001e+00 1.2077301606043163e+01 3.0031000000000059e+01 0 0 0
669 2 1.2305000000000001e+00 1.0656442593567498e+01 3.0031000000000059e+01 0 0 0
671 2 2.4610000000000003e+00 9.9460130873296642e+00 3.0031000000000059e+01 0 0 0
673 2 2.4610000000000003e+00 8.5251540748539991e+00 3.0031000000000059e+01 0 0 0
704 2 3.6914999999999996e+00 1.2077301606043163e+01 3.0031000000000059e+01 0 0 0
706 2 3.6914999999999996e+00 1.0656442593567499e+01 3.0031000000000059e+01 0 0 0
707 2 4.9220000000000006e+00 1.1366872099805333e+01 2.6799344562191401e+01 0 0 0
709 2 4.9220000000000006e+00 8.5251540748539991e+00 2.6799344562191401e+01 0 0 0
711 2 6.1524999999999999e+00 9.2355835810918343e+00 2.6799344562191401e+01 0 0 0
750 2 6.1524999999999999e+00 1.0656442593567499e+01 2.6799344562191401e+01 0 0 0
752 2 7.3829999999999991e+00 1.1366872099805333e+01 2.6799344562191401e+01 0 0 0
754 2 7.3830000000000009e+00 8.5251540748539991e+00 2.6799344562191401e+01 0 0 0
708 2 4.9220000000000006e+00 9.9460130873296642e+00 3.0031000000000059e+01 0 0 0
710 2 4.9220000000000006e+00 8.5251540748539991e+00 3.0031000000000059e+01 0 0 0
749 2 6.1524999999999999e+00 1.2077301606043163e+01 3.0031000000000059e+01 0 0 0
751 2 6.1524999999999999e+00 1.0656442593567499e+01 3.0031000000000059e+01 0 0 0
753 2 7.3830000000000009e+00 9.9460130873296642e+00 3.0031000000000059e+01 0 0 0
755 2 7.3830000000000009e+00 8.5251540748539991e+00 3.0031000000000059e+01 0 0 0
796 2 8.6135000000000002e+00 1.2077301606043163e+01 3.0031000000000059e+01 0 0 0
801 2 9.8440000000000012e+00 8.5251540748539956e+00 2.6799344562191401e+01 0 0 0
846 2 1.2304999999999998e+01 1.1366872099805333e+01 2.6799344562191401e+01 0 0 0
845 2 1.1074500000000002e+01 1.0656442593567498e+01 3.0031000000000059e+01 0 0 0
803 2 1.1074500000000002e+01 9.2355835810918343e+00 2.6799344562191401e+01 0 0 0
843 2 1.1074500000000002e+01 1.2077301606043163e+01 3.0031000000000059e+01 0 0 0
802 2 9.8440000000000012e+00 8.5251540748539956e+00 3.0031000000000059e+01 0 0 0
5131 1 2.4290353064684771e+00 1.7315950945681342e+00 1.9563747707880111e+01 1 1 0
1963 1 1.1928661700049444e+01 1.0960316652448260e+01 1.7155358032200056e+01 -1 0 0
3023 1 2.9195392952193884e+00 2.1077168128443757e+00 1.4912672951383200e+01 0 2 1
952 2 0.0000000000000000e+00 2.8417180249513345e+00 3.3262655437809279e+01 0 0 0
953 2 0.0000000000000000e+00 0.0000000000000000e+00 3.3262655437809279e+01 0 0 0
954 2 1.2305000000000001e+00 7.1042950623783474e-01 3.3262655437809279e+01 0 0 0
958 2 1.2305000000000001e+00 2.1312885187134998e+00 3.3262655437809279e+01 0 0 0
959 2 2.4610000000000003e+00 2.8417180249513345e+00 3.3262655437809279e+01 0 0 0
960 2 2.4610000000000003e+00 0.0000000000000000e+00 3.3262655437809279e+01 0 0 0
961 2 3.6915000000000004e+00 7.1042950623783474e-01 3.3262655437809279e+01 0 0 0
969 2 3.6914999999999996e+00 2.1312885187134998e+00 3.3262655437809279e+01 0 0 0
970 2 4.9220000000000006e+00 2.8417180249513332e+00 3.3262655437809279e+01 0 0 0
971 2 4.9220000000000006e+00 0.0000000000000000e+00 3.3262655437809279e+01 0 0 0
972 2 6.1524999999999999e+00 7.1042950623783407e-01 3.3262655437809279e+01 0 0 0
984 2 6.1524999999999999e+00 2.1312885187134989e+00 3.3262655437809279e+01 0 0 0
985 2 7.3829999999999991e+00 2.8417180249513345e+00 3.3262655437809279e+01 0 0 0
986 2 7.3829999999999991e+00 0.0000000000000000e+00 3.3262655437809279e+01 0 0 0
987 2 8.6134999999999984e+00 7.1042950623783407e-01 3.3262655437809279e+01 0 0 0
1003 2 8.6134999999999984e+00 2.1312885187135002e+00 3.3262655437809279e+01 0 0 0
1004 2 9.8440000000000012e+00 2.8417180249513332e+00 3.3262655437809279e+01 0 0 0
1005 2 9.8440000000000012e+00 0.0000000000000000e+00 3.3262655437809279e+01 0 0 0
1006 2 1.1074500000000002e+01 7.1042950623783330e-01 3.3262655437809279e+01 0 0 0
1026 2 1.1074500000000002e+01 2.1312885187135002e+00 3.3262655437809279e+01 0 0 0
955 2 0.0000000000000000e+00 7.1042950623783341e+00 3.3262655437809279e+01 0 0 0
956 2 0.0000000000000000e+00 4.2625770374269996e+00 3.3262655437809279e+01 0 0 0
957 2 1.2305000000000001e+00 4.9730065436648339e+00 3.3262655437809279e+01 0 0 0
965 2 1.2305000000000001e+00 6.3938655561404980e+00 3.3262655437809279e+01 0 0 0
966 2 2.4610000000000003e+00 7.1042950623783341e+00 3.3262655437809279e+01 0 0 0
967 2 2.4610000000000003e+00 4.2625770374269996e+00 3.3262655437809279e+01 0 0 0
968 2 3.6914999999999996e+00 4.9730065436648339e+00 3.3262655437809279e+01 0 0 0
980 2 3.6914999999999996e+00 6.3938655561404980e+00 3.3262655437809279e+01 0 0 0
981 2 4.9220000000000006e+00 7.1042950623783341e+00 3.3262655437809279e+01 0 0 0
982 2 4.9220000000000006e+00 4.2625770374269978e+00 3.3262655437809279e+01 0 0 0
983 2 6.1524999999999999e+00 4.9730065436648339e+00 3.3262655437809279e+01 0 0 0
999 2 6.1524999999999999e+00 6.3938655561404980e+00 3.3262655437809279e+01 0 0 0
1000 2 7.3830000000000009e+00 7.1042950623783341e+00 3.3262655437809279e+01 0 0 0
1001 2 7.3829999999999991e+00 4.2625770374269996e+00 3.3262655437809279e+01 0 0 0
1002 2 8.6135000000000002e+00 4.9730065436648339e+00 3.3262655437809279e+01 0 0 0
1022 2 8.6135000000000002e+00 6.3938655561404980e+00 3.3262655437809279e+01 0 0 0
1023 2 9.8440000000000012e+00 7.1042950623783341e+00 3.3262655437809279e+01 0 0 0
1024 2 9.8440000000000012e+00 4.2625770374270004e+00 3.3262655437809279e+01 0 0 0
1025 2 1.1074500000000002e+01 4.9730065436648339e+00 3.3262655437809279e+01 0 0 0
1046 2 1.1074500000000002e+01 6.3938655561404980e+00 3.3262655437809279e+01 0 0 0
962 2 0.0000000000000000e+00 1.1366872099805333e+01 3.3262655437809279e+01 0 0 0
963 2 0.0000000000000000e+00 8.5251540748539991e+00 3.3262655437809279e+01 0 0 0
964 2 1.2305000000000001e+00 9.2355835810918343e+00 3.3262655437809279e+01 0 0 0
976 2 1.2305000000000001e+00 1.0656442593567498e+01 3.3262655437809279e+01 0 0 0
977 2 2.4610000000000003e+00 1.1366872099805333e+01 3.3262655437809279e+01 0 0 0
978 2 2.4610000000000003e+00 8.5251540748539991e+00 3.3262655437809279e+01 0 0 0
979 2 3.6915000000000004e+00 9.2355835810918343e+00 3.3262655437809279e+01 0 0 0
995 2 3.6914999999999996e+00 1.0656442593567499e+01 3.3262655437809279e+01 0 0 0
996 2 4.9220000000000006e+00 1.1366872099805333e+01 3.3262655437809279e+01 0 0 0
997 2 4.9220000000000006e+00 8.5251540748539991e+00 3.3262655437809279e+01 0 0 0
998 2 6.1524999999999999e+00 9.2355835810918343e+00 3.3262655437809279e+01 0 0 0
1018 2 6.1524999999999999e+00 1.0656442593567499e+01 3.3262655437809279e+01 0 0 0
1019 2 7.3829999999999991e+00 1.1366872099805333e+01 3.3262655437809279e+01 0 0 0
1020 2 7.3830000000000009e+00 8.5251540748539991e+00 3.3262655437809279e+01 0 0 0
1021 2 8.6134999999999984e+00 9.2355835810918343e+00 3.3262655437809279e+01 0 0 0
1042 2 8.6134999999999984e+00 1.0656442593567498e+01 3.3262655437809279e+01 0 0 0
1043 2 9.8440000000000012e+00 1.1366872099805333e+01 3.3262655437809279e+01 0 0 0
1044 2 9.8440000000000012e+00 8.5251540748539956e+00 3.3262655437809279e+01 0 0 0
1045 2 1.1074500000000002e+01 9.2355835810918343e+00 3.3262655437809279e+01 0 0 0
1066 2 1.1074500000000002e+01 1.0656442593567498e+01 3.3262655437809279e+01 0 0 0
1067 2 1.2304999999999998e+01 1.1366872099805333e+01 3.3262655437809279e+01 0 0 0
5115 1 1.7490747547267460e+00 3.7262682703181684e+00 3.7302756697840252e+01 0 1 0
1885 1 1.0603905539671181e+00 4.4195122075455719e+00 4.0391366684895750e+01 1 0 -1
6429 1 1.0374964773940754e+01 1.0147839291002002e+01 4.0768430541191393e+01 0 1 0
4809 1 3.2861583551529412e+00 2.0871400953603478e+00 3.5840104529012400e+01 0 0 0
2169 1 5.8090799478381108e+00 3.0306720021240650e+00 3.7142855677241236e+01 1 1 -1
4959 1 5.2483978064562979e+00 4.1127469997016091e+00 3.9948987907979742e+01 -1 0 0
5247 1 1.1878888932018393e+01 8.5805470687971273e+00 4.2347166020006092e+01 0 1 -1
27 1 7.1029552022675402e+00 5.0110033490103527e+00 3.6172776627849743e+01 1 0 -1
2344 1 1.4190733092713887e+00 7.9631314910460151e+00 3.6687635492825621e+01 0 0 0
5028 1 2.1148327877136990e+00 7.0782024302244100e+00 3.9227762904924440e+01 -1 0 0
570 1 6.8373859324538273e+00 1.1551932459359183e+01 4.3234150894766714e+01 -1 0 0
610 1 5.6747772784022184e+00 7.2243058915636995e+00 3.6451468688320183e+01 2 0 -1
4700 1 4.8600910878264649e+00 6.4418679812751698e+00 3.9238601444478860e+01 1 1 0
3723 1 3.7587335805021587e+00 9.4416161665621328e+00 3.6213407328173766e+01 0 0 -1
6449 1 8.7460410735553253e+00 5.8428549459899966e+00 3.9809689457286609e+01 0 0 0
3508 1 9.4989296916282679e+00 5.5982028072863912e+00 3.7158250451901253e+01 1 1 -1
6406 1 9.6639815112484264e+00 8.0114089680840443e+00 3.6603745013809913e+01 0 -1 0
1351 1 8.6000181861926830e+00 8.3803777805595470e+00 3.9475335688899662e+01 1 1 0
1368 1 5.0207258276590316e+00 1.0828997986968769e+01 3.8934772926858159e+01 -1 0 0
1889 1 1.1303692391035948e+01 1.0914504973329995e+00 4.0171655901663655e+01 0 0 -1
6503 1 9.7012119884683035e+00 9.5543193423329498e-01 4.2536557051729559e+01 0 1 0
1437 1 1.0782336701455186e+01 6.2567835545209407e+00 4.1630307688908445e+01 1 1 0
5322 1 6.9577538735169675e-01 1.0399333041445210e+01 4.4492234257612495e+01 1 1 -1
270 1 6.6375095885606541e+00 1.1153720378949128e+01 3.6621558789787706e+01 1 -1 -1
3796 1 7.4200028517902590e+00 8.9215331988706392e+00 3.5601574930189130e+01 1 0 -1
4960 1 3.7443565167469877e+00 1.2042404927032073e+00 4.2985609448055577e+01 -1 1 0
3311 1 6.6246272755092012e-02 9.8197694586215178e-01 4.3237953088382419e+01 0 -1 -1
1845 1 1.1937463596217976e+01 4.1502332993509894e+00 3.7351376488886686e+01 -1 1 0
3700 1 1.1906457506133686e+01 1.2060276018589477e+01 3.9183510398988211e+01 -1 -1 -1
4766 1 1.0881743559303583e+01 1.6514543272677615e+00 3.7608284561268512e+01 1 0 0
293 1 3.1526245441789920e+00 2.5040813767875285e+00 4.0657129690519135e+01 -1 0 -1
1681 1 9.3878417260983174e+00 3.3331720570134173e+00 4.3814402681131334e+01 2 0 0
1701 1 1.8516534850619675e+00 6.6090503017830393e+00 4.2978352606440922e+01 0 0 0
3812 1 1.8369209646226408e+00 9.2983237926457747e+00 4.0969719407102225e+01 1 0 -1
3357 1 3.8327044245160495e+00 5.5154842858869682e+00 4.4816584313267334e+01 0 0 -1
6500 1 7.5846328377732277e+00 4.5601184392338618e+00 4.1826641476883673e+01 1 0 0
3802 1 1.2007960245382725e+01 9.6597523955423679e+00 3.5910683002167438e+01 0 0 -1
5318 1 6.3771851132095350e+00 6.5316648794708243e+00 4.3615499201984562e+01 2 0 -1
1895 1 2.5912684229627523e+00 2.9737561863860020e+00 4.4828292750407599e+01 0 1 -1
3294 1 5.7175195897478677e+00 8.8401390890263514e+00 4.2735733474161798e+01 1 2 0
393 1 3.0945967109442862e+00 9.5749519075452856e+00 4.3057704683826550e+01 -1 1 -1
3558 1 2.0654716071043735e+00 1.1569681149354160e+01 3.9242804116193284e+01 2 0 -1
3487 1 1.1862496743862192e+01 4.6110348368328458e+00 4.4061003609585910e+01 0 0 0
1461 1 5.8130529763102592e+00 8.6120763580438968e+00 4.0204849641531908e+01 -1 -1 0
3241 1 7.8641832317413787e+00 1.0938065670907740e+00 3.7387415376719325e+01 1 0 0
4007 1 6.7450593031764496e+00 1.5263250760427185e+00 4.2395185829694114e+01 2 0 0
1630 1 1.4903235278829641e-02 4.1552656583937697e+00 4.3138045170815751e+01 0 1 0
6382 1 1.4981325264139914e-01 5.5642053829490461e+00 3.5920781539551193e+01 2 1 0
3930 1 1.1109615015703037e+01 1.2241886651330592e+01 3.6145343164541167e+01 0 1 0
4781 1 1.2285338682242644e+01 9.3895180796723459e+00 4.5132303795125772e+01 1 1 -1
6763 1 4.0296490810135310e-02 1.0441118092420666e+01 3.7013251599545576e+01 0 -1 0
547 1 1.0992448885178408e+01 6.9004288635149251e+00 5.6876458726495002e+01 1 1 0
6606 1 9.2027484576696261e-01 1.8366447152008782e+00 4.6841768450330157e+01 -1 1 0
3238 1 1.0023525867596792e+01 3.9896828072598628e-01 5.7033191303954474e+01 0 0 0
3712 1 2.2533916073863720e+00 1.1361527835579711e+01 5.7925844889326612e+01 0 -1 -1
89 1 9.3040035346785928e+00 5.3139512757784431e+00 5.4091439504079680e+01 0 1 0
3714 1 1.0665974931625181e+01 2.4521240306872185e+00 4.8838645776436941e+01 -1 2 -1
1395 1 8.7952218494753822e+00 3.1814507211782477e+00 4.6549292292366189e+01 1 0 0
5099 1 2.9024535720994771e+00 6.0993503295135465e+00 4.9188855008817818e+01 -1 0 0