
# Create simulation box and atoms

read_data data.graphite_substrate_1000
  orthogonal box = (0 0 -1.03859) to (49.22 49.0196 61.1006)
  4 by 4 by 4 MPI processor grid
  reading atoms ...
  6768 atoms
  reading velocities ...
  6768 velocities
group water type 1
4008 atoms in group water
group graphite type 2
2760 atoms in group graphite

# Define potential

pair_style sw
pair_coeff * * mWC.sw mW C
Reading potential file mWC.sw with DATE: 2019-02-27


# Fix graphite atoms in place

fix 5 graphite setforce 0.0 0.0 0.0
velocity graphite set 0.0 0.0 0.0


# Equilibration of molecular water

# Add velocity/set timestep

velocity	    water create ${TEMP} ${SEED} rot yes dist gaussian
velocity	    water create 225 ${SEED} rot yes dist gaussian
velocity	    water create 225 17168 rot yes dist gaussian
timestep	    5.0

# Define output

compute			1 water msd
compute			3 water temp
thermo	    	50
thermo_style	custom step temp press vol etotal ke pe c_1[4] c_3

# Neighbor lists

neigh_modify    delay 0 every 1 check yes

# Set fixes

fix             1 water momentum 10 linear 1 1 1 rescale
fix             2 water nve
fix             3 water temp/csvr ${TEMP} ${TEMP} 500.0 ${SEED}
fix             3 water temp/csvr 225 ${TEMP} 500.0 ${SEED}
fix             3 water temp/csvr 225 225 500.0 ${SEED}
fix             3 water temp/csvr 225 225 500.0 17168
fix             4 water press/berendsen z ${PRES} ${PRES} 1000.0 modulus 20000
fix             4 water press/berendsen z -1000 ${PRES} 1000.0 modulus 20000
fix             4 water press/berendsen z -1000 -1000 1000.0 modulus 20000

# Run 0.5 ns equilibration

dump		    1 all atom 2000 ${DIR}/eq.${NAME}-${TEMP}.dump
dump		    1 all atom 2000 run_14/eq.${NAME}-${TEMP}.dump
dump		    1 all atom 2000 run_14/eq.het_freeze_14-${TEMP}.dump
dump		    1 all atom 2000 run_14/eq.het_freeze_14-225.dump

reset_timestep  0

run	            100000
Neighbor list info ...
  update every 1 steps, delay 0 steps, check yes
  max neighbors/atom: 2000, page size: 100000
  master list distance cutoff = 7.76
  ghost atom cutoff = 7.76
  binsize = 3.88, bins = 13 13 17
  1 neighbor lists, perpetual/occasional/extra = 1 0 0
  (1) pair sw, perpetual
      attributes: full, newton on
      pair build: full/bin/atomonly
      stencil: full/bin/3d
      bin: standard
Per MPI rank memory allocation (min/avg/max) = 4.083 | 4.202 | 4.508 Mbytes
Step Temp Press Volume TotEng KinEng PotEng c_1[4] c_3 
       0    133.23112   -1309.3276    149926.08   -35971.017    2687.4238   -38658.441            0          225 
      50    171.48026   -1659.9663    149510.23   -36377.808    3458.9525    -39836.76    0.8489644    289.59493 
     100    167.30958   -1792.6265    149064.72   -36746.796    3374.8253   -40121.621    1.8831297    282.55152 
     150    160.86575   -1689.7932    148665.22   -37084.688    3244.8459   -40329.534    2.7669311    271.66922 
     200    159.89614   -1582.6317    148319.95   -37394.002    3225.2877    -40619.29      3.52059    270.03174 
     250    152.87948   -1796.1376    147976.22   -37716.115    3083.7537   -40799.869    4.2364374    258.18205 
     300    150.33397   -1876.2839     147490.4   -37933.352    3032.4077    -40965.76    4.9475411    253.88319 
     350    147.16449   -1823.3124    147132.48   -38121.054    2968.4757   -41089.529    5.6219387    248.53059 
     400     148.4998   -1776.8766    146794.98   -38246.922    2995.4106   -41242.333    6.1616737    250.78567 
     450    144.85236   -1470.0798    146536.48   -38359.999    2921.8374   -41281.836    6.6314951    244.62588 
     500    143.63186   -1426.9683    146338.74   -38412.178    2897.2185   -41309.397    7.0956299     242.5647 
     550    144.89701    -1596.076     146111.3    -38514.98    2922.7382   -41437.719    7.6224046     244.7013 
     600    146.19245   -1515.7481    145840.11   -38617.431    2948.8686   -41566.299    8.0756206    246.88902 
     650    141.99921   -1260.3071     145682.3   -38769.848    2864.2862   -41634.134    8.4658602    239.80751 
     700    141.01355   -1012.7919    145638.11    -38832.46    2844.4042   -41676.864    8.8699001    238.14292 
     750    141.66302   -1138.1141    145635.47   -38856.655    2857.5047    -41714.16    9.2877252    239.23974 
     800     140.0057   -1324.3213    145440.34   -38940.072    2824.0749   -41764.147    9.8122254    236.44088 
     850    139.38727   -1030.9543     145339.8   -39000.397    2811.6004   -41811.997    10.064573    235.39647 
     900    136.58164   -1416.7499    145249.58   -39069.605    2755.0076   -41824.612    10.529003    230.65834 
     950    136.05959    -1157.359    145191.96   -39141.175    2744.4772   -41885.652    10.912174     229.7767 
    1000    136.51659   -1087.6243    145118.83   -39189.034    2753.6955    -41942.73      11.1595    230.54848 
    1050    135.53177   -1178.0458     145116.7   -39220.304    2733.8304   -41954.134    11.381883    228.88531 
    1100    138.48177   -948.89593    145104.35    -39209.41    2793.3355   -42002.745    11.633511    233.86727 
    1150    133.76062   -1263.6644    145091.35   -39305.909    2698.1044   -42004.014    11.988307    225.89422 
    1200    137.67171   -1172.0993    144983.12   -39403.528    2776.9955   -42180.524    12.316566    232.49924 
    1250      135.827   -1126.1101     144966.7   -39424.782    2739.7857   -42164.568    12.679565    229.38391 
    1300    136.11339   -1053.7114    144996.72    -39409.03    2745.5625   -42154.593    12.912841    229.86757 
    1350    137.81289   -1247.4024    144989.04   -39419.066    2779.8434   -42198.909    13.128286    232.73767 
    1400     136.7907   -1081.8223    144944.81    -39400.83    2759.2246   -42160.055     13.29519     231.0114 
    1450    135.42814   -1087.1693     144815.3   -39474.766    2731.7401   -42206.506    13.557948    228.71031 
    1500    130.06329    -1130.274    144845.53   -39450.596     2623.525   -42074.121    13.794694    219.65018 
    1550    136.62613    -949.5061    144859.05   -39389.818     2755.905   -42145.723     14.08646    230.73347 
    1600    135.02158   -1162.8926    144911.71   -39446.161    2723.5395   -42169.701    14.286211    228.02372 
    1650    136.69851   -991.53596    144943.66   -39469.965    2757.3651    -42227.33    14.394819    230.85571 
    1700     135.1609   -936.63155    145061.05   -39445.741    2726.3497   -42172.091    14.643911      228.259 
    1750     134.2151   -1124.5045    145145.72   -39486.827    2707.2718   -42194.099     14.83795    226.66174 
    1800    134.65676   -1153.3711    145148.25   -39503.476    2716.1805   -42219.657    15.017838    227.40761 
    1850     134.7472     -1177.83    145143.05   -39550.125    2718.0049    -42268.13     15.22963    227.56035 
    1900     133.5744   -1137.3157    145180.97   -39592.974    2694.3482   -42287.322    15.525965    225.57973 
    1950    135.20952   -1170.2025     145221.8   -39584.781    2727.3304   -42312.111    15.672827    228.34111 
    2000    133.75556   -1300.5705    145199.26   -39590.114    2698.0024   -42288.117    15.843052    225.88567 
    2050      133.644   -1076.8289    145122.28   -39631.801     2695.752   -42327.553    15.957187    225.69727 
    2100    133.51903   -1203.0332    145115.49   -39677.295    2693.2313   -42370.526    16.088429    225.48622 
    2150    132.21315   -1162.7305    145178.82   -39694.682    2666.8901   -42361.572     16.32956    223.28085 
    2200    133.33873   -1304.7645    145187.16   -39743.622    2689.5944   -42433.217    16.370941    225.18173 
    2250    133.01815   -1008.9189    145188.16   -39736.258    2683.1279   -42419.386    16.580305    224.64033 
    2300    132.29418   -1117.5675    145191.74   -39705.229    2668.5246   -42373.754    16.840775    223.41769 
    2350    132.80018   -1116.8973     145216.2   -39720.134    2678.7312   -42398.866    16.978661    224.27222 
    2400    134.08394   -1200.9231     145266.7   -39660.506     2704.626   -42365.132    17.191842    226.44023 
    2450    132.57422   -1038.9671    145316.79   -39696.146    2674.1733   -42370.319     17.41578    223.89062 
    2500    133.21157   -1016.5355    145389.64   -39680.859    2687.0295   -42367.888    17.533636    224.96699 
    2550    133.05723   -1374.0141       145294   -39686.035    2683.9162   -42369.951    17.775339    224.70633 
    2600    130.80106   -1385.3164    145242.09   -39680.803    2638.4067    -42319.21    17.855655    220.89612 
    2650    135.26535   -1072.4067    145172.22   -39662.941    2728.4564   -42391.397    18.027747    228.43539 
    2700    134.83284    -1144.049    145128.48   -39681.375    2719.7324   -42401.108    18.241897    227.70498 
    2750    133.23296   -1131.0274    145122.01   -39686.589    2687.4609    -42374.05    18.461779     225.0031 
    2800    131.83596    -908.7236    145201.72    -39700.53    2659.2818   -42359.811    18.614964    222.64385 
    2850    133.03093   -1283.2834    145300.63   -39763.553    2683.3857   -42446.939    18.655837    224.66192 
    2900    134.99786   -1256.6209     145244.4   -39713.838    2723.0609   -42436.899    18.803471    227.98365 
    2950     134.5364   -1155.0655    145260.59   -39707.092    2713.7527   -42420.845    18.882034    227.20434 
    3000      132.632   -1117.5368    145300.92    -39724.82    2675.3388   -42400.159    19.076961    223.98821 
    3050    131.39896   -1274.1329    145318.69   -39773.929    2650.4671   -42424.396     19.22279    221.90586 
    3100    134.62829   -1090.9019    145253.08   -39723.711    2715.6064   -42439.317    19.462786    227.35954 
    3150    131.62774   -976.12435    145268.66   -39739.694    2655.0817   -42394.776    19.672769    222.29221 
    3200    133.84549   -1066.5074    145302.05   -39668.464    2699.8163    -42368.28    19.768466    226.03754 
    3250    133.86857   -1107.0742    145321.19   -39666.846    2700.2819   -42367.128    19.947801    226.07652 
    3300    132.58229   -1141.4844    145349.89   -39680.998    2674.3361   -42355.334    20.089228    223.90425 
    3350    135.36739   -1109.7281    145356.26   -39705.419    2730.5148   -42435.934    20.288031    228.60772 
    3400    133.25897   -1080.1552    145371.59   -39649.525    2687.9855    -42337.51    20.451857    225.04702 
    3450    134.43324   -1184.6442    145338.36   -39713.066    2711.6719   -42424.738    20.794431    227.03013 
    3500    135.05639    -965.8731    145267.06   -39702.687    2724.2415   -42426.928    20.937702     228.0825 
    3550    132.90277   -994.96678    145308.86   -39749.678    2680.8006   -42430.479    21.060636    224.44549 
    3600    134.24506   -1015.1367    145271.97   -39747.259     2707.876   -42455.135    21.256408    226.71233 
    3650     133.0774   -1088.0304    145262.47   -39784.965     2684.323   -42469.288    21.461797    224.74039 
    3700     133.3512   -1022.4709    145238.69    -39775.82     2689.846   -42465.666    21.619832    225.20279 
    3750    134.01368   -1153.9423    145275.24   -39763.109    2703.2089   -42466.318    21.818664    226.32158 
    3800    131.78835    -1014.324    145299.45   -39789.074    2658.3214   -42447.395    21.955461    222.56345 
    3850    135.40667   -1154.8453    145274.61   -39770.387    2731.3071   -42501.695    22.058449    228.67406 
    3900    132.68254   -1263.3066    145261.95   -39783.803    2676.3582   -42460.161    22.135844    224.07355 
    3950    131.29374    -1267.229     145238.1   -39831.538    2648.3446   -42479.883    22.335412    221.72816 
    4000    133.10346   -1107.3716    145118.63   -39789.588    2684.8488   -42474.437    22.590111    224.78441 
    4050    132.04412   -1088.6684     145116.9   -39802.875    2663.4807   -42466.356    22.685102     222.9954 
    4100    133.02238   -963.99229    145140.23   -39798.341    2683.2133   -42481.554    22.890864    224.64748 
    4150    132.62897   -1203.6156    145234.15    -39812.67    2675.2777   -42487.947    22.955108    223.98309 
    4200    130.17607   -1209.3994    145183.02   -39867.694       2625.8   -42493.494    23.106519    219.84065 
    4250    131.34718   -1025.7356    145129.47   -39840.568    2649.4225   -42489.991    23.287704     221.8184 
    4300    133.42469   -955.39305    145193.45   -39842.394    2691.3283   -42533.723    23.483018    225.32689 
    4350    133.58285   -1170.6493    145195.89   -39855.562    2694.5186   -42550.081    23.845118      225.594 
    4400    131.71653   -1243.6141    145181.95   -39827.301    2656.8727   -42484.174    24.058287    222.44216 
    4450    134.75363   -1128.9809    145120.57    -39770.36    2718.1345   -42488.494    24.267527     227.5712 
    4500    133.33224   -996.19801    145098.58   -39752.959    2689.4635   -42442.422    24.405493    225.17077 
    4550    135.33671   -918.65355     145158.9   -39770.346     2729.896   -42500.242     24.48059    228.55591 
    4600    134.82745   -1126.0415     145215.4   -39808.469    2719.6236   -42528.092    24.564343    227.69587 
    4650    134.13272    -817.9162    145239.62   -39811.642    2705.6101   -42517.252    24.603257    226.52261 
    4700    136.76901   -1129.2623    145314.26   -39760.264    2758.7871   -42519.052    24.620063    230.97477 
    4750    133.39902   -1135.0513    145313.21    -39764.78    2690.8106   -42455.591    24.783197    225.28355 
    4800    134.28423   -1097.4578    145314.83   -39793.342    2708.6661   -42502.008    25.057282    226.77848 
    4850    134.76489   -1135.8256     145409.8   -39826.501    2718.3616   -42544.863    25.144922    227.59021 
    4900    133.56582   -1020.8666    145473.39   -39725.275     2694.175    -42419.45    25.157361    225.56523 
    4950    134.69504   -1040.2307    145593.47   -39690.393    2716.9528   -42407.346     25.22835    227.47226 
    5000    133.65707   -1162.4767    145603.28    -39711.37    2696.0156   -42407.386    25.361207    225.71934 
    5050    135.64765   -1046.3876    145577.95   -39755.642     2736.168    -42491.81    25.559147    229.08102 
    5100    133.37975   -1215.8106    145585.77     -39747.1    2690.4217   -42437.522    25.714854    225.25099 
    5150    133.39454   -1286.9594    145479.25    -39746.77    2690.7201    -42437.49    26.042996    225.27597 
    5200    133.14638   -1211.8996     145374.4   -39724.722    2685.7146   -42410.437    26.260592     224.8569 
    5250    132.56643   -1099.7384    145353.94   -39705.858    2674.0162   -42379.874    26.471614    223.87747 
    5300    133.67916   -1223.3509    145334.97   -39669.033    2696.4613   -42365.494     26.66127    225.75665 
    5350    132.10238    -1149.347    145322.31   -39751.154    2664.6558   -42415.809     26.93305    223.09378 
    5400    131.97893   -1174.4676    145326.82   -39759.099    2662.1658   -42421.264    27.057888    222.88531 
    5450    135.95258   -1235.9066    145246.35   -39727.499    2742.3187   -42469.818    27.298091    229.59598 
    5500    134.53135   -1065.2691    145246.15   -39693.903    2713.6508   -42407.554    27.551295    227.19581 
    5550    133.32072   -1225.9993    145276.08   -39716.185     2689.231   -42405.416    27.588412    225.15131 
    5600    138.82722   -1279.5926    145265.96   -39740.684    2800.3036   -42540.987    27.650942    234.45067 
    5650    133.78133   -1271.6762    145254.53   -39781.998    2698.5221    -42480.52    27.840891    225.92919 
    5700    133.84998   -1063.4445    145275.01    -39787.43     2699.907   -42487.337    27.958148    226.04513 
    5750     132.0286   -1116.9823    145343.51   -39768.447    2663.1676   -42431.615     28.20232    222.96919 
    5800    133.44883   -903.65502    145379.69   -39699.941    2691.8152   -42391.756    28.229515    225.36766 
    5850    135.33162   -918.53316    145357.11   -39696.182    2729.7933   -42425.975    28.370646    228.54731 
    5900    134.88111    -1181.708    145341.45   -39751.636    2720.7059   -42472.342    28.661013    227.78649 
    5950     136.7613   -981.32881    145357.51   -39692.244    2758.6315   -42450.875    28.832836    230.96174 
    6000    132.93974   -1176.8841    145348.67   -39776.206    2681.5464   -42457.752    28.910067    224.50792 
    6050    131.33215    -1214.486    145371.02   -39796.118    2649.1194   -42445.237    28.992501    221.79303 
    6100     133.2416   -1167.1111    145417.05   -39813.529    2687.6353   -42501.165    29.167398     225.0177 
    6150    130.91877   -1281.6893    145364.57   -39837.882    2640.7811   -42478.663    29.414148    221.09492 
    6200    131.14773   -1377.7468    145349.82   -39863.743    2645.3995   -42509.143    29.641829    221.48158 
    6250    132.32744   -1220.2359     145241.6   -39872.993    2669.1955   -42542.188    29.840176    223.47387 
    6300     130.6564   -1118.3758    145246.27    -39777.17    2635.4887   -42412.659    29.931642    220.65182 
    6350    136.01032   -1167.6126     145246.9   -39749.259    2743.4833   -42492.742     30.03549    229.69349 
    6400    133.09903   -1248.0868    145146.53   -39796.044    2684.7593   -42480.803    30.404108    224.77692 
    6450    132.97563   -1179.9938     145173.1   -39816.849    2682.2702   -42499.119    30.499201    224.56852 
    6500    132.25902   -1315.9516    145126.26   -39836.926    2667.8153   -42504.741    30.845045    223.35831 
    6550    131.86449    -1192.875    145074.44   -39859.699    2659.8572   -42519.556    31.053681    222.69203 
    6600    133.13422   -1185.0111    145079.86   -39829.063    2685.4692   -42514.532    31.116263    224.83635 
    6650    133.48285   -1089.5503    145097.85   -39771.237    2692.5015   -42463.739     31.32169    225.42512 
    6700     135.1241   -1185.4773    145078.31   -39762.956    2725.6073   -42488.563    31.568724    228.19685 
    6750    137.16177   -1048.3726    145073.84   -39795.749    2766.7096   -42562.458    31.729186    231.63806 
    6800     133.4736   -1036.9251    145089.86   -39755.469     2692.315   -42447.784    31.920479     225.4095 
    6850    133.67376   -1136.6092    145076.03   -39809.521    2696.3524   -42505.874    32.026715    225.74753 
    6900    131.93128   -834.99543     145193.2   -39836.336    2661.2044    -42497.54    32.162134    222.80483 
    6950    135.86387   -1051.5656    145239.38   -39778.623    2740.5293   -42519.152    32.362657    229.44617 
    7000     134.6665     -1099.28    145217.45   -39796.622    2716.3771   -42512.999    32.638897    227.42407 
    7050    131.30533   -937.81009    145271.56   -39824.873    2648.5784   -42473.452     32.72435    221.74774 
    7100    134.63871   -1040.5418    145384.84   -39831.253    2715.8164   -42547.069    32.811013    227.37712 
    7150    132.25287   -1099.4603    145484.55    -39813.37    2667.6914   -42481.061    33.059067    223.34794 
    7200    133.29835   -1063.2008     145561.2   -39755.133    2688.7798   -42443.913    33.168955    225.11353 
    7250     129.9023   -1075.8707    145508.31   -39803.846    2620.2777   -42424.124    33.232068     219.3783 
    7300    131.71772   -1006.9467    145478.58   -39852.095    2656.8969   -42508.992    33.343963    222.44418 
    7350    132.42195   -1024.1055    145521.07    -39813.34    2671.1018   -42484.441    33.501508    223.63347 
    7400    131.60373   -1064.0944    145600.34    -39823.13    2654.5976   -42477.728    33.705778    222.25168 
    7450     134.3847   -1074.1918    145657.07   -39806.181    2710.6929   -42516.874    33.851273    226.94816 
    7500    133.83448   -1159.2366    145752.02   -39792.265    2699.5942   -42491.859    34.046587    226.01894 
    7550    135.59163   -1137.2411    145747.96   -39775.625    2735.0381   -42510.663    34.320635    228.98642 
    7600    135.41064   -1204.7984    145699.44   -39756.843    2731.3872    -42488.23    34.516889    228.68076 
    7650    132.81606   -1194.0082    145695.42   -39822.748    2679.0515     -42501.8    34.719409    224.29904 
    7700    134.97734   -1156.9579    145702.16   -39802.259    2722.6469   -42524.906    35.049764      227.949 
    7750    134.28538   -990.99598    145721.22   -39791.281    2708.6895    -42499.97     35.19082    226.78043 
    7800    135.15699   -1095.4909    145675.16    -39795.55    2726.2707    -42521.82    35.449169    228.25239 
    7850    135.61114   -1130.5427     145651.1   -39794.135    2735.4314   -42529.566    35.623787    229.01936 
    7900    133.89715   -1216.4903    145598.05   -39850.033    2700.8584   -42550.891    35.500413    226.12479 
    7950    133.31043     -1168.83    145556.57   -39813.655    2689.0235   -42502.679     35.58707    225.13393 
    8000    134.72119   -1144.0854    145538.73   -39811.508    2717.4802   -42528.989    35.748437    227.51642 
    8050    134.25774   -1198.3986    145488.76   -39826.919    2708.1318   -42535.051    35.868655    226.73374 
    8100    133.47347   -1110.5914    145469.02   -39846.605    2692.3124   -42538.918    35.868562    225.40928 
    8150    133.07014   -994.45846    145480.57   -39861.189    2684.1766   -42545.366    35.963001    224.72813 
    8200    135.26085   -1007.0011    145547.56   -39831.775    2728.3657   -42560.141    36.072587    228.42779 
    8250    133.16674   -1197.7469    145533.52   -39847.335    2686.1251    -42533.46    36.339408    224.89127 
    8300    132.53037   -1157.4132    145456.87   -39860.784     2673.289   -42534.073    36.619197    223.81658 
    8350     132.9332   -1070.6395    145361.48   -39861.613    2681.4144   -42543.028    36.811104    224.49687 
    8400    135.19202   -1250.7295    145308.05   -39883.654    2726.9774   -42610.631    36.977415    228.31156 
    8450    130.20223   -1281.6435    145276.79   -39953.165    2626.3276   -42579.493     37.09252    219.88482 
    8500    131.70013    -1045.439    145338.82   -39896.687    2656.5419   -42553.229    37.261084    222.41446 
    8550    133.20061   -932.79634    145467.03   -39828.751    2686.8083   -42515.559    37.386649    224.94847 
    8600    133.50239   -1269.1239    145466.98   -39822.271    2692.8956   -42515.166    37.574681    225.45811 
    8650    134.18576   -1058.5563    145507.44   -39811.547    2706.6799   -42518.227    37.602676    226.61218 
    8700    136.35272   -1046.1724    145504.66   -39797.157    2750.3899   -42547.547    37.821758    230.27173 
    8750    134.14294   -1069.1316    145480.74   -39799.301    2705.8162   -42505.117    37.982261    226.53987 
    8800    135.04887   -1142.2121    145559.46   -39777.711      2724.09   -42501.801    38.041166    228.06981 
    8850    137.28841   -1046.2956    145648.43   -39718.697     2769.264   -42487.961    38.059789    231.85193 
    8900    133.67206   -906.46525    145671.39   -39792.931     2696.318   -42489.249    38.142909    225.74465 
    8950    133.46485   -1066.1747    145760.17   -39835.245    2692.1384   -42527.383     38.45633    225.39472 
    9000    135.43203   -1164.0416    145830.72   -39852.894    2731.8186   -42584.713    38.583296    228.71688 
    9050    135.10393   -1098.7557    145916.02   -39833.552    2725.2005   -42558.753    38.470604    228.16279 
    9100    133.69215   -1224.3103    145981.91   -39902.079    2696.7232   -42598.803      38.4374    225.77858 
    9150    133.80355   -1310.8806     145985.8   -39921.028    2698.9704   -42619.998    38.637851    225.96672 
    9200    133.27799   -1043.9318       145971   -39895.852    2688.3692   -42584.221    38.802058    225.07915 
    9250    130.58983   -1095.6957    145945.69   -39919.428    2634.1459   -42553.574    38.751677    220.53939 
    9300     134.5824   -1111.4743    145948.91    -39884.46    2714.6807   -42599.141    39.038305    227.28204 
    9350    134.04482    -980.8091    145982.15   -39855.456    2703.8371   -42559.293    39.169037    226.37418 
    9400    132.32695   -1246.6404     146047.1   -39845.663    2669.1857   -42514.848     39.24499    223.47305 
    9450    134.75641   -1174.0241     146070.1   -39828.976    2718.1907   -42547.167    39.523574     227.5759 
    9500    135.23494   -1074.2759    146094.22   -39817.086    2727.8431   -42544.929    39.589696    228.38403 
    9550    135.15671   -1150.4907    146120.79   -39876.298    2726.2651   -42602.563    39.616282    228.25192 
    9600    134.06256   -1117.3045    146155.03   -39904.313    2704.1949   -42608.508    39.714331    226.40413 
    9650    133.66328   -1216.7335    146170.01    -39875.54     2696.141   -42571.681    39.845334    225.72983 
    9700    131.93186   -1175.7797    146062.08    -39905.71    2661.2162   -42566.926    40.255147    222.80581 
    9750    133.68313   -1099.9543       146050   -39876.941    2696.5413   -42573.483     40.43261    225.76335 
    9800    132.32189   -1257.6521    145988.55   -39903.549    2669.0836   -42572.633    40.658501     223.4645 
    9850    132.40861   -1200.0143    145873.67     -39871.5    2670.8328   -42542.333    40.838482    223.61094 
    9900    132.89535   -1091.6285    145910.78   -39857.016    2680.6509   -42537.667    41.010997    224.43295 
    9950    134.05761    -1046.497    145920.64   -39837.217    2704.0951   -42541.312    41.131051    226.39577 
   10000    131.52087   -1148.3471     145932.5   -39827.673    2652.9261   -42480.599    41.160068    222.11174 
   10050    132.77582   -1107.1934     145924.8   -39869.644    2678.2399   -42547.883    41.241651    224.23109 
   10100    130.51442    -1270.661    145906.14   -39891.974    2632.6249   -42524.598    41.403733    220.41205 
   10150    131.10998   -1117.3119     145932.3   -39902.615     2644.638   -42547.253    41.579103    221.41783 
   10200    131.43791   -1263.4248    145862.36    -39910.65    2651.2527   -42561.902    41.712014    221.97163 
   10250    132.79583    -1261.669    145865.12   -39915.417    2678.6434    -42594.06    41.851144    224.26488 
   10300    136.02144   -1305.1263    145860.95   -39842.776    2743.7078   -42586.484    41.995148    229.71228 
   10350    135.06133   -1139.9742    145839.74   -39859.308    2724.3413   -42583.649     42.06069    228.09085 
   10400    134.13754    -1288.369    145880.03   -39880.863    2705.7073    -42586.57    42.201198    226.53076 
   10450    133.31682   -1069.7381    145948.81   -39849.949    2689.1525   -42539.102    42.295161    225.14473 
   10500    131.57606   -1250.9351    146007.17   -39837.519    2654.0393   -42491.558    42.339642    222.20493 
   10550    133.25012   -1130.1612    146084.39   -39868.601     2687.807   -42556.408    42.406629    225.03208 
   10600     131.9635   -1236.0098    146047.79   -39851.602    2661.8545   -42513.457    42.396555    222.85925 
   10650    134.99823   -1373.3551    145991.71    -39821.25    2723.0683   -42544.318    42.590953    227.98428 
   10700    132.65619   -1245.8067    145859.71   -39863.462    2675.8268   -42539.289    42.948743    224.02906 
   10750    131.01007   -1142.1287    145819.41   -39881.409    2642.6227   -42524.032     43.16055    221.24911 
   10800    133.18735   -1082.4516    145841.36   -39880.537    2686.5409   -42567.078    43.234636    224.92608 
   10850    132.15468   -1158.7439    145874.66   -39862.679    2665.7109    -42528.39    43.319206    223.18212 
   10900    134.81455   -1120.8393    145800.91   -39871.623    2719.3634   -42590.987    43.496678    227.67409 
   10950    132.70997   -1150.4989    145808.12   -39831.461    2676.9116   -42508.373    43.592438    224.11988 
   11000    134.46025   -1191.8653    145878.61   -39853.362    2712.2168   -42565.579     43.74114    227.07575 
   11050    134.85814   -1225.9654    145975.86    -39853.76    2720.2427   -42574.003    43.805001     227.7477 
   11100    133.98936   -1335.1667    146005.86   -39877.707    2702.7183   -42580.425    43.815578    226.28051 
   11150     133.1142   -1165.1005    145945.36   -39887.023    2685.0655   -42572.088    44.049671    224.80255 
   11200     134.3168   -1191.6164    145960.13   -39886.403    2709.3232   -42595.726    44.162386    226.83349 
   11250    136.71692   -1179.4836     146019.6   -39844.018    2757.7364   -42601.755    44.384381     230.8868 
   11300    135.81831   -1260.1792    146029.45   -39814.268    2739.6104   -42553.879    44.518448    229.36923 
   11350       136.48   -1170.7836    146022.06   -39802.909    2752.9573   -42555.866     44.56015    230.48668 
   11400    133.78662   -1194.7113     146021.3   -39801.767    2698.6288   -42500.396    44.649169    225.93812 
   11450    134.85662   -1248.7144    146040.17   -39832.485     2720.212   -42552.697    44.603152    227.74513 
   11500    134.58523   -1256.2265    145994.25   -39818.669    2714.7377   -42533.407    44.730222    227.28681 
   11550    133.68559   -973.90184     146021.4   -39868.604     2696.591   -42565.195    44.835673    225.76751 
   11600    134.63013   -1212.5309    146075.72   -39856.095    2715.6435   -42571.739    45.094108    227.36264 
   11650     132.6306   -1139.2608     146140.6    -39832.37    2675.3107   -42507.681    45.085799    223.98585 
   11700    131.56149   -1303.7337    146213.13    -39849.45    2653.7454   -42503.195    45.405878    222.18033 
   11750    134.71897   -1210.0874    146198.19   -39822.742    2717.4354   -42540.178    45.634926    227.51267 
   11800    132.88428   -1328.4551    146099.83   -39826.448    2680.4277   -42506.876    45.710025    224.41426 
   11850    134.21113   -1256.3713    145971.86   -39815.315    2707.1918   -42522.507    45.691713    226.65504 
   11900      134.362    -1321.552    145920.41   -39832.943    2710.2349   -42543.178    45.859749    226.90982 
   11950    134.34414   -1258.2231    145887.76   -39818.383    2709.8746   -42528.257    45.825189    226.87966 
   12000    133.56474   -1302.3911    145901.38   -39856.332    2694.1532   -42550.485    46.032643    225.56341 
   12050     132.5535    -1411.858    145884.03    -39846.63    2673.7553   -42520.385    46.292984    223.85563 
   12100    136.01727   -1303.9458    145800.21    -39818.12    2743.6236   -42561.743    46.515801    229.70523 
   12150    133.51506   -1212.2322       145765   -39834.216    2693.1513   -42527.367    46.682516    225.47952 
   12200    133.58828   -1375.6587    145822.87   -39864.228    2694.6281   -42558.856    46.821356    225.60317 
   12250    134.32433   -1499.6117    145701.82     -39898.5    2709.4751   -42607.975    47.229107    226.84621 
   12300     134.2618   -1019.9669    145655.07   -39842.573    2708.2137   -42550.787    47.471108     226.7406 
   12350    132.29068   -1134.1024    145674.89   -39832.005     2668.454   -42500.459    47.545768    223.41179 
   12400    133.07201   -1180.5096    145685.82   -39831.716    2684.2144    -42515.93    47.768072    224.73129 
   12450    135.57983   -1124.4248    145622.45   -39788.612       2734.8   -42523.412    47.868904    228.96649 
   12500    134.13628    -1125.271    145568.33   -39864.058     2705.682    -42569.74     48.13111    226.52863 
   12550    133.30256   -1217.7994    145535.44   -39885.248    2688.8648   -42574.112    48.260945    225.12064 
   12600    132.41709   -1139.0135    145594.44   -39918.169    2671.0038   -42589.173    48.378604    223.62526 
   12650    133.71532    -1105.422    145600.45    -39924.39    2697.1907   -42621.581    48.502733    225.81771 
   12700    131.33688    -1311.385    145633.12   -39990.605    2649.2149    -42639.82    48.624819    221.80102 
   12750    133.05809   -1203.5836    145636.17   -39928.824    2683.9335   -42612.757    48.692834    224.70778 
   12800    133.91746   -1265.6832    145641.47   -39865.519     2701.268   -42566.787    48.925441    226.15908 
   12850    130.56731   -1343.2609    145595.41   -39869.177    2633.6916   -42502.869    49.125408    220.50136 
   12900    132.56622    -1276.968    145497.57   -39841.641    2674.0121   -42515.654    49.369195    223.87712 
   12950    133.92369   -1094.5625     145491.8    -39833.79    2701.3938   -42535.183    49.574156    226.16961 
   13000     134.5468   -1022.7858    145576.98   -39806.406    2713.9625   -42520.369    49.545532    227.22191 
   13050    132.11926   -1172.2416    145697.72    -39836.81    2664.9964   -42501.807    49.625448     223.1223 
   13100    132.51088   -1271.6708    145750.24   -39809.358    2672.8958   -42482.253    49.732314    223.78366 
   13150    133.33249   -1355.4238    145849.33   -39831.355    2689.4686   -42520.824    49.736619     225.1712 
   13200    134.39882   -1389.8129    145793.65   -39804.163    2710.9776    -42515.14    50.078912      226.972 
   13250    134.20448   -1150.4952    145816.05   -39794.139    2707.0576   -42501.197    50.171749     226.6438 
   13300    135.19567   -998.07763    145870.32   -39811.721    2727.0511   -42538.772    50.300424    228.31772 
   13350    136.28334     -1276.63    145985.08   -39828.113    2748.9906   -42577.104     50.37989    230.15457 
   13400    131.91038   -1315.4078    145922.11   -39848.404    2660.7829   -42509.187    50.583213    222.76954 
   13450    134.15072   -1153.1392    145954.83    -39849.44    2705.9732   -42555.413    50.786142    226.55302 
   13500    134.29483   -1241.9444    145999.95   -39820.151    2708.8801   -42529.032    51.080628    226.79639 
   13550     133.4302      -1242.4    145998.31   -39857.806    2691.4395   -42549.246      51.3726    225.33621 
   13600    135.69217   -1190.6751    146005.79   -39864.928     2737.066   -42601.994     51.63378    229.15621 
   13650    134.63318   -1169.8024    146019.27   -39833.348     2715.705   -42549.053    52.043834    227.36779 
   13700    137.27389   -1050.3074     146023.4   -39828.379     2768.971    -42597.35    51.994712     231.8274 
   13750    135.39667   -1161.3569    146131.56   -39818.226    2731.1055   -42549.331    51.918838    228.65717 
   13800    134.24873   -1131.5395    146032.78   -39776.112    2707.9502   -42484.062    52.240238    226.71854 
   13850    133.62814    -1067.022    146110.18   -39822.235    2695.4322   -42517.667    52.516538    225.67049 
   13900    134.35964   -1286.8922    146067.74   -39811.225    2710.1874   -42521.413    52.774298    226.90584 
   13950     135.3499   -1212.6879    145998.46   -39796.035     2730.162   -42526.197     53.05259    228.57818 
   14000    133.89531   -1172.6364    145957.23   -39858.419    2700.8212    -42559.24    53.221806    226.12167 
   14050    131.81633   -1153.8001    145890.58    -39899.46    2658.8858   -42558.346    53.281471     222.6107 
   14100    132.89513   -1211.4049    145839.51   -39883.162    2680.6465   -42563.808    53.385556    224.43258 
   14150    134.70726   -1261.1231    145840.95   -39835.104    2717.1992   -42552.304    53.469719    227.49289 
   14200    135.98309   -1092.6169     145820.3   -39852.554    2742.9341   -42595.488    53.636057     229.6475 
   14250     133.6539    -1254.498    145769.89   -39894.098    2695.9516    -42590.05    53.665798    225.71398 
   14300    135.22341   -1093.5724    145806.92   -39921.772    2727.6105   -42649.383    53.893494    228.36456 
   14350    135.10606   -1078.6245    145796.23   -39905.188    2725.2434   -42630.432    54.124935    228.16638 
   14400    136.77329   -1003.1915    145849.74   -39879.858    2758.8734   -42638.731     54.21714      230.982 
   14450    133.05164   -1169.5723    145806.36   -39845.651    2683.8035   -42529.455    54.290153     224.6969 
   14500    134.08436   -1257.3944    145840.28   -39878.209    2704.6346   -42582.844    54.455447    226.44094 
   14550    135.72228   -1072.1479    145839.63   -39836.337    2737.6733    -42574.01     54.56654    229.20706 
   14600    133.54089   -1191.5966    145869.41   -39891.659    2693.6722   -42585.331    54.720448    225.52314 
   14650    134.72196   -1143.5723    145846.96   -39885.337    2717.4956   -42602.832     54.82314    227.51771 
   14700     133.1797   -1090.4508    145839.13   -39934.866    2686.3866   -42621.252    54.944559    224.91316 
   14750    132.70697   -1124.8614     145764.5   -39880.854    2676.8511   -42557.706     55.12281    224.11482 
   14800    132.41193   -1179.3906    145729.25   -39963.673    2670.8998   -42634.573    55.153264    223.61655 
   14850    131.71902   -1032.7556    145690.27   -39970.591    2656.9229   -42627.514    55.018738    222.44636 
   14900    130.63879   -1242.8024    145682.31   -40059.588    2635.1334   -42694.722    55.107191    220.62208 
   14950    132.41078   -1246.1059    145642.48   -40107.534    2670.8766    -42778.41    55.307127    223.61461 
   15000    131.05185   -1272.2999    145619.69   -40096.359    2643.4655   -42739.825    55.542766    221.31966 
   15050    131.63975    -1303.122    145641.99   -40098.614    2655.3239   -42753.938    55.767993    222.31249 
   15100    131.55671   -1053.0019    145671.15   -40090.463     2653.649   -42744.112    55.879179    222.17226 
   15150     130.5651   -925.11569    145809.97   -40065.923    2633.6471    -42699.57    56.129725    220.49764 
   15200    132.96014   -1165.4332    145988.93    -40044.24    2681.9577   -42726.198    56.467609    224.54236 
   15250    134.45206   -1039.5439    146113.37   -39969.237    2712.0515   -42681.288    56.666281    227.06191 
   15300    133.21654   -1076.9795    146173.35    -40002.87    2687.1297       -42690    56.789743    224.97537 
   15350     133.6025   -1227.8978    146142.73   -40013.553     2694.915   -42708.468    57.100506    225.62719 
   15400    136.53859   -1341.3162    146167.04   -40006.354    2754.1391   -42760.493    57.370932    230.58563 
   15450    133.63432    -1296.094    146124.48    -39985.61    2695.5568   -42681.167    57.555755    225.68092 
   15500    131.87423   -1033.2659    146142.59   -40033.005    2660.0539   -42693.059    57.717455     222.7085 
   15550    131.09303   -1334.3737    146125.76   -39983.456    2644.2961   -42627.753    57.926213    221.38921 
   15600    131.54447   -1144.9778    146187.15   -40006.645    2653.4022   -42660.048    57.888227    222.15159 
   15650    132.62925   -1245.7399    146189.69   -40004.548    2675.2833   -42679.831    58.105855    223.98356 
   15700    134.44901   -1314.6935    146143.04   -39956.361      2711.99   -42668.351    58.077137    227.05676 
   15750    133.50042   -1362.1628    146114.73   -39956.209    2692.8559   -42649.065    58.288644    225.45479 
   15800      135.469   -1155.7601    146081.67   -39995.385    2732.5644   -42727.949    58.462316    228.77932 
   15850    136.12241   -1157.2883    146121.99   -39942.052    2745.7444   -42687.797    58.558359    229.88279 
   15900    134.44129   -1213.9296    146091.66   -39919.854    2711.8343   -42631.688    58.478755    227.04373 
   15950    136.60503   -1266.4099     146093.7   -39929.621    2755.4794     -42685.1    58.809208    230.69783 
   16000    135.73361   -1026.3185    146091.66   -39887.782    2737.9018   -42625.684    58.843693    229.22618 
   16050    135.12752   -1047.0133    146153.78   -39894.111    2725.6763   -42619.787    58.932369    228.20263 
   16100    133.43692    -1124.485    146187.43   -39928.082     2691.575   -42619.657    59.032823    225.34755 
   16150    132.79962   -1290.9831     146145.5   -39947.997      2678.72   -42626.717     59.18264    224.27129 
   16200    134.58687   -1171.9132    146156.64   -39953.399    2714.7709    -42668.17    59.396228    227.28958 
   16250    132.11107   -1260.6145    146101.36   -39995.289    2664.8312    -42660.12    59.619187    223.10847 
   16300    130.99064   -1128.3663    146064.21   -40033.532    2642.2308   -42675.762    59.848487    221.21629 
   16350    132.63885     -1201.56    146053.61   -40010.342     2675.477   -42685.819    59.855575    223.99977 
   16400    134.27962   -1309.6323    146029.45   -40054.376    2708.5731    -42762.95    60.002255    226.77069 
   16450    134.89811   -1238.5858    146007.77   -40001.188    2721.0488   -42722.237    60.068168     227.8152 
   16500    133.44287   -1285.6506    146024.97   -40035.794    2691.6951   -42727.489    60.281966     225.3576 
   16550    133.03736   -991.96835    146043.64   -39997.995    2683.5154   -42681.511    60.362857    224.67277 
   16600    135.20924   -1018.0523    146056.52   -39973.656    2727.3248    -42700.98    60.443556    228.34064 
   16650    133.34664   -993.63161    146123.18   -40004.112     2689.754   -42693.866    60.528209    225.19509 
   16700    132.64633   -1194.2763    146084.48    -40061.57     2675.628   -42737.198      60.6903    224.01241 
   16750    132.74713   -1272.6379    146079.29   -40058.947    2677.6611   -42736.608    60.893352    224.18263 
   16800    131.70721   -1330.3496    146063.51   -40035.937    2656.6848   -42692.621    60.770619    222.42643 
   16850    132.03235   -1191.5037    145937.81   -40069.794    2663.2432   -42733.037    60.656699    222.97552 
   16900    131.16697   -944.29297    145933.19   -40022.817    2645.7876   -42668.605     60.83036    221.51407 
   16950    133.40705   -1141.8519    145965.07   -40032.147    2690.9725   -42723.119    60.756468     225.2971 
   17000    135.20412   -1087.2533    145957.88    -39986.73    2727.2214   -42713.951    61.011381    228.33198 
   17050    133.29135   -1092.9753    145957.55   -40068.975    2688.6386   -42757.614    61.021558    225.10171 
   17100    129.47051   -1117.8424    145927.32    -40052.49     2611.568   -42664.058    61.151058     218.6491 
   17150    129.80022   -1017.0378     146017.4   -40076.231    2618.2186    -42694.45    61.162457    219.20591 
   17200    132.06397   -1054.4178    146029.23   -40058.772    2663.8811   -42722.653    61.363431    223.02893 
   17250    131.65285   -1027.1708     146083.4   -40061.675    2655.5883   -42717.263    61.520989    222.33462 
   17300    132.03305   -954.86385    146141.45   -40049.092    2663.2574   -42712.349    61.812595     222.9767 
   17350    132.86344   -1080.5581    146145.92   -40073.307    2680.0072   -42753.314    61.923811    224.37906 
   17400    133.06167   -1026.1359    146203.37   -40107.077    2684.0059   -42791.083    62.132329    224.71384 
   17450    132.92605   -1065.9794    146245.45   -40071.454    2681.2701   -42752.724    62.346215    224.48479 
   17500    133.17984   -1182.6627    146212.23   -40093.352    2686.3894   -42779.742    62.414361    224.91339 
   17550    132.28111   -1168.4432    146176.34   -40136.681    2668.2611   -42804.942    62.356824    223.39563 
   17600    131.90425   -1136.6934    146139.31   -40093.177    2660.6594   -42753.837    62.556927    222.75919 
   17650    133.17457   -1193.2556    146083.59   -40107.195     2686.283   -42793.478    62.765794    224.90449 
   17700    132.72454   -1172.5783    146113.38   -40132.318    2677.2054   -42809.524    62.878173    224.14448 
   17750    134.58457   -1202.3215    146142.56   -40098.282    2714.7245   -42813.006    62.963532     227.2857 
   17800    130.83581   -1085.8114    146137.58   -40134.752    2639.1077    -42773.86    63.087975    220.95481 
   17850    129.39304   -1327.7575    146126.15   -40146.171    2610.0053   -42756.177    63.491279    218.51827 
   17900    132.04325    -1176.303    146062.27   -40127.731    2663.4632   -42791.194    63.759493    222.99394 
   17950    130.53641   -1206.2727    145981.35    -40129.25    2633.0684   -42762.318    63.748137    220.44918 
   18000    134.40129   -1094.8844    146004.59   -40123.197    2711.0275   -42834.224    63.693664    226.97617 
   18050     129.5534   -1137.5702     146045.8   -40154.143      2613.24   -42767.383    63.924532    218.78908 
   18100    133.47351   -1134.2891    146009.35    -40178.16    2692.3131   -42870.473    63.893053    225.40934 
   18150      132.755   -1224.3028    145955.65   -40145.481    2677.8199   -42823.301    64.085918    224.19593 
   18200     133.1475   -1040.1852    145940.01   -40138.556    2685.7371   -42824.293     64.24569    224.85879 
   18250     131.8221   -923.74303       145975   -40125.947    2659.0022   -42784.949    64.675455    222.62045 
   18300    132.88508    -977.4369    145999.72   -40117.879    2680.4438   -42798.323    64.941505    224.41561 
   18350    133.18598   -1020.5333    145971.72   -40039.693    2686.5132   -42726.206    65.032245    224.92376 
   18400    133.16572   -972.16761    145953.18     -40061.6    2686.1047   -42747.705    65.079548    224.88956 
   18450    133.70558   -1140.0541    145970.26   -40104.052    2696.9942   -42801.046    65.029753    225.80127 
   18500     132.9831   -1023.5183    145989.45   -40115.347    2682.4209   -42797.768    65.003638    224.58114 
   18550    131.30093   -1182.9855    145942.16   -40110.376    2648.4897   -42758.865    65.308703    221.74031 
   18600    130.07797   -898.58565    145964.95   -40125.896    2623.8212   -42749.717    65.366129    219.67498 
   18650     132.1442   -1075.9927    145868.27    -40125.43    2665.4994   -42790.929     65.46286    223.16442 
   18700    130.90634   -1176.8357    145864.63   -40101.172    2640.5304   -42741.702    65.696654    221.07393 
   18750    131.22699   -989.69104    145883.94    -40155.68    2646.9982   -42802.679    65.655318    221.61543 
   18800    130.12672   -1117.1202    145929.04   -40136.619    2624.8045   -42761.424    65.678137     219.7573 
   18850    133.93233     -1152.81    145934.85   -40092.135     2701.568   -42793.703    65.600944     226.1842 
   18900    130.32441   -1021.4424    145965.98   -40160.575    2628.7921   -42789.367    65.468079    220.09116 
   18950    132.34581   -1113.0056    145928.63     -40127.8    2669.5661   -42797.366    65.657619    223.50489 
   19000    129.92862    -1073.698    145845.95   -40109.907    2620.8087   -42730.716    65.783132    219.42276 
   19050    130.40611   -963.57103    145897.06   -40097.654    2630.4401   -42728.094       65.805    220.22913 
   19100    130.33547   -1048.6829     145849.4   -40096.463    2629.0152   -42725.478    65.928372    220.10984 
   19150    132.45816   -1014.4752    145776.42   -40098.322    2671.8324   -42770.154     65.99454    223.69463 
   19200    131.41732   -1073.2388    145776.16   -40122.625    2650.8374   -42773.463     66.20244    221.93686 
   19250    129.71491     -1056.04    145767.66   -40133.217    2616.4979   -42749.715    66.545033    219.06185 
   19300     128.9284   -1036.0876    145767.93   -40148.958    2600.6331   -42749.591    66.787916    217.73359 
   19350    133.17494   -1028.1952    145743.21    -40105.18    2686.2905    -42791.47    66.819855    224.90512 
   19400    130.26157    -1044.511     145735.1   -40121.797    2627.5246   -42749.322    66.975876    219.98504 
   19450    132.49968   -1010.8961    145788.51   -40133.492    2672.6699   -42806.161    66.926704    223.76475 
   19500    133.83049   -865.06097     145806.7   -40095.684    2699.5137   -42795.198    66.897749    226.01221 
   19550    134.07472   -1077.4292    145870.43   -40080.063    2704.4402   -42784.504    67.130002    226.42466 
   19600    133.14572   -1066.5262    145981.05   -40048.153    2685.7011   -42733.854    67.393689    224.85577 
   19650    133.47465   -1025.1189     146015.7    -40036.85    2692.3362   -42729.187    67.542692    225.41128 
   19700    132.22694   -1093.8881    146031.33   -40036.259    2667.1682   -42703.428    67.642259    223.30414 
   19750     130.1652   -1160.3912    145999.55    -40045.86    2625.5807   -42671.441    68.002321    219.82229 
   19800    131.55469   -1106.7347    146013.74   -40080.031    2653.6082   -42733.639    68.199851    222.16885 
   19850    132.00187   -1074.9547    145996.75   -40063.985    2662.6285   -42726.613    68.076626    222.92405 
   19900    131.36979   -1063.7826     146008.5   -40050.045    2649.8787   -42699.924    68.087632    221.85659 
   19950    132.52007   -1018.0787    146127.85   -40003.965    2673.0812   -42677.046    68.271424    223.79919 
   20000    132.60555   -1258.5939    146158.16   -40023.156    2674.8053   -42697.962    68.388004    223.94354 
   20050    131.55015   -1078.0536    146189.86    -40027.36    2653.5166   -42680.877    68.418659    222.16118 
   20100    132.45113   -1118.2468    146205.09   -39990.345    2671.6904   -42662.035    68.495149    223.68275 
   20150    132.54666   -1029.2188    146296.45   -39980.827    2673.6174   -42654.444    68.624847    223.84408 
   20200    133.29889   -977.64656    146279.56   -39986.599    2688.7908    -42675.39    68.704402    225.11445 
   20250    135.29149     -1059.91     146317.1   -39951.834    2728.9839   -42680.818    68.855073    228.47954 
   20300    133.49654   -1116.9041    146325.38   -39981.575    2692.7775   -42674.352    69.110148    225.44823 
   20350    136.99144     -995.805    146269.96   -39926.078    2763.2738   -42689.352    69.202697    231.35041 
   20400    135.02592   -1259.4366    146271.53   -39954.953     2723.627    -42678.58     69.26146    228.03105 
   20450    134.43974   -1082.7954    146229.85   -39942.108    2711.8031   -42653.911    69.437779    227.04111 
   20500    130.52734    -1205.194    146148.03   -39943.286    2632.8855   -42576.171    69.652021    220.43387 
   20550    132.33494   -1094.7485    146220.79    -39940.81    2669.3468   -42610.157     69.58809    223.48654 
   20600    134.79453   -1166.5065    146162.85   -39955.955    2718.9595   -42674.915    69.607793    227.64027 
   20650    132.90758   -1199.9192    146105.88   -39922.586    2680.8977   -42603.484    69.718824    224.45361 
   20700    133.38954   -1245.2886    146081.52   -39917.811    2690.6194   -42608.431    69.963032    225.26754 
   20750    134.97058   -1058.9207    146093.53   -39939.271    2722.5107   -42661.782    69.989383    227.93759 
   20800     133.5347   -1094.2685    146120.84    -39939.74    2693.5473   -42633.287    70.165175    225.51267 
   20850    135.56562   -1249.8448     146055.4   -39940.817    2734.5133   -42675.331    70.571651    228.94248 
   20900     132.2167   -1188.5449    146021.34    -39941.81    2666.9617   -42608.771    70.760445    223.28685 
   20950    136.44411   -1265.3461    146016.67   -39916.529    2752.2334   -42668.762    70.889118    230.42607 
   21000    132.33806   -1249.8765    145952.78   -39967.801    2669.4097   -42637.211    70.988181     223.4918 
   21050    136.05716   -866.37077    145957.62     -39977.5    2744.4281   -42721.928    71.143582    229.77259 
   21100     133.6994   -1039.4959    146009.64    -40014.16    2696.8695   -42711.029    71.073249    225.79083 
   21150    133.90422   -1145.7731    146002.68   -39986.876    2701.0009   -42687.877     71.19218    226.13672 
   21200    132.67974   -1332.7262    145930.02   -40022.836    2676.3018   -42699.138    71.239496    224.06883 
   21250    130.92914    -1192.662    145831.86   -40024.905    2640.9903   -42665.895    71.232419    221.11243 
   21300    134.21228   -1087.1349    145814.59   -39989.546    2707.2148   -42696.761    71.377509    226.65697 
   21350    134.43879   -1025.0162    145855.29   -39950.312    2711.7838   -42662.095    71.505371     227.0395 
   21400    132.93214    -1030.547    145961.89   -39995.482     2681.393   -42676.875    71.687971    224.49508 
   21450    132.21885   -1337.6343    145929.73    -40003.96    2667.0051   -42670.965    71.820576    223.29048 
   21500    132.44168   -1214.5864    145918.07   -39961.294    2671.4999   -42632.794    72.023928    223.66679 
   21550     135.5656   -1188.7082     145895.6   -39971.525    2734.5129   -42706.038    72.109145    228.94245 
   21600    131.45349   -1079.1253    145889.25   -39978.749     2651.567   -42630.316    72.268351    221.99794 
   21650     132.8933   -1359.4084    145885.67   -39941.492    2680.6096   -42622.101    72.461795    224.42949 
   21700    133.86141   -1112.1628    145921.47   -39958.042    2700.1375    -42658.18    72.625369    226.06444 
   21750    133.85139   -1000.9195    145971.88   -39971.126    2699.9354   -42671.062    72.716307    226.04751 
   21800    133.26929   -1074.3931    145914.58   -39951.575    2688.1937   -42639.769    72.747488    225.06445 
   21850    132.38452   -1027.5496    145945.57   -39921.661     2670.347   -42592.008    72.859725    223.57027 
   21900    132.20518   -1081.3044     145991.5   -39978.707    2666.7294   -42645.437    72.912989     223.2674 
   21950    134.39432   -1239.8746    145994.13   -39933.169    2710.8869   -42644.056    72.886727    226.96441 
   22000     137.4722   -1119.3328    146034.15   -39869.495    2772.9711   -42642.466    73.048382     232.1623 
   22050    133.71079   -1119.2252    145977.62   -39908.689    2697.0994   -42605.788    73.201434    225.81007 
   22100    133.92224   -1260.8911    146013.29   -39976.838    2701.3644   -42678.202    73.290123    226.16715 
   22150    133.14322   -1330.2347    145985.88    -39988.37    2685.6508    -42674.02    73.477062    224.85156 
   22200    133.31123   -1043.5537    145942.91   -40016.022    2689.0398   -42705.062    73.305875    225.13529 
   22250    129.58958    -1028.854    145976.58    -40072.56    2613.9698    -42686.53    73.333987    218.85019 
   22300    132.77171   -1217.2464    145951.74   -40046.062    2678.1571   -42724.219    73.505627    224.22416 
   22350    133.82693   -1061.0237    145948.27    -39965.42    2699.4421   -42664.862    73.537496    226.00621 
   22400    132.65346   -1178.4089    145918.76   -40004.428    2675.7716     -42680.2    73.767365    224.02444 
   22450    131.77979   -1297.5785    145937.27   -40022.788    2658.1489   -42680.937     74.00229    222.54901 
   22500    131.66452   -1159.1681    145922.08   -40046.297    2655.8237    -42702.12    74.121134    222.35433 
   22550    130.04601   -1113.2168    145964.17   -40038.949    2623.1765   -42662.126     74.26008      219.621 
   22600    130.30563   -964.26002    146010.94   -40058.621    2628.4133   -42687.035    74.334526    220.05945 
   22650    132.28574    -1219.559    146002.69    -40067.78    2668.3543   -42736.135     74.57571    223.40344 
   22700    134.91928    -1274.075    145958.12    -40056.58    2721.4758   -42778.056    74.620101    227.85094 
   22750    130.60243   -1342.0015    145922.52   -40107.594    2634.4001   -42741.994    74.785448    220.56068 
   22800    131.24009   -1261.3869    145890.78   -40115.105    2647.2624   -42762.367     74.89751    221.63755 
   22850    129.82134   -1157.3903    145831.18   -40046.319    2618.6447   -42664.964    74.903396    219.24159 
   22900    133.68454   -1104.4346    145836.32   -40017.072    2696.5699   -42713.642    75.076707    225.76574 
   22950    132.58971   -1198.6443    145841.65   -40056.913    2674.4858   -42731.399    75.070134    223.91678 
   23000     131.9009   -1291.6859    145776.59   -40058.368    2660.5917    -42718.96    75.559147    222.75352 
   23050    133.17142   -1155.8078    145789.44   -40020.835    2686.2196   -42707.054     75.80503    224.89918 
   23100    132.49817   -1262.1591    145763.02   -39982.275    2672.6393   -42654.914    75.887557    223.76219 
   23150    134.00591    -1149.052     145713.3    -40005.72    2703.0521   -42708.772    75.980512    226.30845 
   23200    134.57413   -1069.4742    145695.57   -39964.929    2714.5139   -42679.442    76.205934    227.26807 
   23250    135.00439   -1118.4018     145712.6   -39928.436    2723.1927   -42651.629    76.494479    227.99469 
   23300    134.64347   -1088.9476    145796.16   -39923.866    2715.9125   -42639.779    76.786364    227.38517 
   23350    133.23911   -945.72306    145842.09   -39944.499    2687.5849   -42632.083     76.83038    225.01349 
   23400    136.41907   -951.34005    145928.15   -39946.975    2751.7283   -42698.703    77.167284    230.38378 
   23450    136.81528   -1133.4166    146085.41   -39938.195    2759.7204   -42697.915    77.400316     231.0529 
   23500    135.30146   -1205.2542    146066.76   -39936.668    2729.1849   -42665.853     77.49386    228.49638 
   23550    134.10253   -1058.2139    146069.23   -39964.507    2705.0011   -42669.508    77.321826    226.47163 
   23600     133.0939   -1078.9533    146136.91   -39928.369     2684.656   -42613.025    77.436879    224.76826 
   23650    135.51149   -1152.3383     146088.5   -39915.317    2733.4215   -42648.739    77.575632    228.85108 
   23700    135.79624   -945.38066    146054.32   -39953.634    2739.1652   -42692.799    77.672412    229.33196 
   23750    132.14699   -1109.2483    146074.55   -39951.382    2665.5556   -42616.937    77.800616    223.16912 
   23800    132.04504   -1123.2081    146015.47   -39948.383    2663.4991   -42611.883     77.85399    222.99694 
   23850    132.29548   -1172.7559    145981.87   -40030.571    2668.5509   -42699.122    77.868488     223.4199 
   23900    131.23348   -1170.6049    146039.47   -40034.323     2647.129   -42681.452    77.712702    221.62639 
   23950    134.26055   -1379.7915    145933.62   -40017.137    2708.1885   -42725.326    77.797916    226.73849 
   24000     131.6075   -1148.9775    145863.61   -40001.196    2654.6735   -42655.869    77.774933    222.25804 
   24050    132.54321   -1048.8422    145799.31   -39971.712    2673.5479    -42645.26    77.935551    223.83826 
   24100    132.50383   -996.25638    145854.58   -39970.915    2672.7535   -42643.669    77.991952    223.77175 
   24150    132.81869   -1042.4728    145893.46    -39998.53    2679.1046   -42677.635    78.019685    224.30349 
   24200    132.63474   -1017.3744    145872.74   -40021.367    2675.3942   -42696.761     78.24297    223.99284 
   24250    130.96946   -1126.3964       145911   -40014.269    2641.8034   -42656.073    78.277062    221.18051 
   24300    130.51778   -1248.2086    145899.82   -40046.885    2632.6927   -42679.577    78.363554    220.41773 
   24350    131.63501   -1360.1319    145873.47   -40068.323    2655.2284   -42723.551    78.413785     222.3045 
   24400    131.85936   -1088.8699    145847.42   -39991.607    2659.7539   -42651.361    78.639557    222.68338 
   24450    131.65301   -1158.0836    145815.09   -39982.997    2655.5915   -42638.589    79.004867     222.3349 
   24500    131.67043   -998.38845    145837.97   -39976.103     2655.943   -42632.046    78.966861    222.36432 
   24550    135.20182   -1243.5398    145892.67   -39959.627    2727.1751   -42686.802    79.133461    228.32811 
   24600    132.26145   -1220.8404    145891.08    -39949.61    2667.8645   -42617.475    79.229072    223.36243 
   24650    132.12288   -1213.9388    145853.58   -39939.642    2665.0694   -42604.712    79.404581    223.12841 
   24700    133.29464   -1048.9081    145846.46   -39949.647    2688.7051   -42638.352    79.523269    225.10728 
   24750    130.43894   -1235.9513    145802.86   -40010.149    2631.1024   -42641.251    79.511162    220.28459 
   24800     135.0431   -1258.7078    145769.59   -39989.494    2723.9735   -42713.468    79.677356    228.06006 
   24850    131.70526   -1057.6528    145881.13   -40000.215    2656.6454    -42656.86    79.744378    222.42313 
   24900     131.0984   -1077.6997    145914.27   -39936.445    2644.4044   -42580.849    80.000312    221.39827 
   24950    137.48284   -1221.9134    145929.27   -39866.086    2773.1858   -42639.272    80.247659    232.18027 
   25000    135.02813   -1073.5961    145920.27   -39877.964    2723.6715   -42601.635    80.404053    228.03478 
   25050    133.23755   -1205.6075    145952.07   -39832.073    2687.5535   -42519.627     80.58488    225.01086 
   25100    132.89002   -1209.6434    145948.42   -39902.619    2680.5434   -42583.162    80.542292    224.42395 
   25150    135.74772   -1280.9024    145901.05   -39869.278    2738.1866   -42607.465    80.673802    229.25003 
   25200    134.57024   -1173.0919    145887.87   -39869.649    2714.4353   -42584.084    80.655886    227.26149 
   25250    131.46154   -1116.8152    145801.39   -39913.067    2651.7294   -42564.796    80.986334    222.01154 
   25300    133.64887   -1125.8972    145742.58   -39911.538    2695.8502   -42607.388    80.841984    225.70548 
   25350    134.51485   -1090.7064    145719.18   -39905.586    2713.3181   -42618.904    80.747201    227.16796 
   25400    136.70462   -1028.1797    145771.06   -39860.994    2757.4882   -42618.482    80.865442    230.86602 
   25450    134.54721   -1245.9647    145740.91   -39854.818    2713.9709   -42568.789    80.834316    227.22261 
   25500    133.07735   -1040.0616     145674.7   -39837.682     2684.322   -42522.004    81.036958    224.74031 
   25550    132.56702    -971.4049    145700.04   -39892.857    2674.0282   -42566.885    81.105083    223.87847 
   25600    135.51009   -1205.3936    145744.34    -39839.49    2733.3932   -42572.883    81.339187    228.84871 
   25650    133.13385   -1117.6732    145677.24   -39878.161    2685.4617   -42563.622    81.399462    224.83573 
   25700    132.08136   -1008.8482    145694.91   -39865.626    2664.2317   -42529.858    81.483923    223.05828 
   25750    134.51827   -863.71001    145837.96   -39839.393    2713.3871    -42552.78     81.62868    227.17373 
   25800     134.7198    -1080.083    145853.21   -39798.181    2717.4522   -42515.634    82.047565    227.51407 
   25850     136.9286   -1161.2454     145882.8   -39814.096    2762.0062   -42576.102    82.196345    231.24429 
   25900    137.33336   -1008.2047    145952.52    -39791.07    2770.1706   -42561.241    82.466432    231.92783 
   25950    135.65617   -1205.3592    145971.98   -39820.229    2736.3397   -42556.569    82.612645     229.0954 
   26000    134.81916   -1098.9978    145989.41   -39825.994    2719.4563   -42545.451    82.707169    227.68187 
   26050    133.89216   -1160.6577    145980.56   -39830.718    2700.7576   -42531.476    82.750631    226.11635 
   26100    135.89202   -1110.0136    146022.41   -39818.765    2741.0973   -42559.863    82.984948    229.49372 
   26150    137.20441   -1083.9176    146089.33   -39849.018    2767.5695   -42616.587    83.202603    231.71006 
   26200    135.14475   -1237.3692    146096.47   -39860.308    2726.0239   -42586.332    83.364442    228.23173 
   26250    133.57776   -1280.3592    146096.25   -39913.551    2694.4159   -42607.967    83.662729     225.5854 
   26300    133.21768   -1334.4073     146120.2   -39942.336    2687.1526   -42629.488    83.487331     224.9773 
   26350    131.74523   -1193.8828    146066.72    -39940.24    2657.4517   -42597.692    83.693958    222.49064 
   26400    133.14499    -1173.801    146118.66    -39943.13    2685.6865   -42628.816    84.080124    224.85455 
   26450    135.52049    -1075.344     146120.5    -39896.75    2733.6031   -42630.353     84.20625    228.86628 
   26500     134.2804   -1311.9524    146134.95   -39921.539    2708.5889   -42630.128    84.332208    226.77201 
   26550    132.09328   -1213.1448       146070   -39942.557    2664.4723    -42607.03    84.629626    223.07843 
   26600    128.59148   -1113.5722    146069.82   -40002.524     2593.837   -42596.361    84.892547    217.16461 
   26650     130.8258   -1137.8427    146074.92   -39988.134    2638.9058    -42627.04    84.820369    220.93791 
   26700    132.23118   -1109.2388    146086.18   -39916.154    2667.2539   -42583.408    84.776474    223.31131 
   26750    132.24746   -1077.2055    146065.24   -39949.891    2667.5822   -42617.473    84.935816    223.33879 
   26800    130.07502   -1280.8352    146020.04   -39994.653    2623.7617   -42618.414    85.319325    219.66999 
   26850    133.15404   -1136.1985    145980.04   -39941.853     2685.869   -42627.722    85.571758    224.86983 
   26900    132.96121   -1185.2415    145967.95   -39886.731    2681.9793    -42568.71    85.714259    224.54417 
   26950    132.94976   -996.38327    146050.24   -39942.105    2681.7485   -42623.853    85.837847    224.52484 
   27000    135.15015   -1025.6305    146144.02   -39916.496    2726.1329   -42642.629    85.786066    228.24085 
   27050    132.99116   -1116.0469    146121.21   -39946.021    2682.5835   -42628.605    85.814685    224.59476 
   27100    135.30544   -1229.7713    146041.17   -39941.534    2729.2653   -42670.799     86.13588     228.5031 
   27150    129.78149   -1137.1726    146030.22    -39977.74    2617.8409   -42595.581    86.192971    219.17429 
   27200    137.32676   -1098.8162    146011.43   -39942.948    2770.0374   -42712.986    86.038455    231.91668 
   27250    130.90536   -1012.4286    146047.67   -39985.322    2640.5105   -42625.832    86.171359    221.07226 
   27300    132.43539   -1172.6847    146109.19   -40020.141     2671.373   -42691.514     86.16897    223.65617 
   27350     130.0632   -1231.0296    146172.29   -40037.888    2623.5232   -42661.412    86.206681    219.65003 
   27400    131.41627   -1246.5257    146187.76   -39995.592    2650.8161   -42646.408    86.245266    221.93508 
   27450    135.29937   -1111.5675     146147.1   -39997.001    2729.1428   -42726.144    86.369573    228.49285 
   27500    134.62652   -1309.6156    146125.26   -39982.427    2715.5706   -42697.997    86.312727    227.35654 
   27550    133.66321   -1104.1533    146115.54   -39967.866    2696.1395   -42664.006    86.214783    225.72971 
   27600    132.71314   -1198.9609    146112.35   -39924.037    2676.9756   -42601.013    86.607108    224.12524 
   27650    132.59483   -1113.2918    146142.47   -39910.045    2674.5891   -42584.634    86.791225    223.92544 
   27700    133.78278   -997.06704    146230.37   -39904.613    2698.5514   -42603.164    86.591539    225.93163 
   27750    134.80571   -1101.1735    146212.88   -39897.042    2719.1851   -42616.227    86.599149    227.65916 
   27800    133.33552   -1133.5315    146206.05   -39916.615    2689.5296   -42606.144    86.747819     225.1763 
   27850    132.53467    -1164.952    146154.79   -39917.344    2673.3755    -42590.72    86.939575    223.82383 
   27900    133.28517   -1242.1554    146214.42   -39913.991    2688.5141   -42602.505    86.941771    225.09128 
   27950     131.3701    -963.2912     146174.7   -39945.717    2649.8848   -42595.602    87.008055    221.85711 
   28000    133.51527    -1258.423    146174.44   -39921.543    2693.1553   -42614.699    87.231208    225.47986 
   28050    132.21712   -1241.4582    146158.32   -39946.141    2666.9702   -42613.112    87.421894    223.28755 
   28100    131.57991   -1151.7789    146118.61   -39945.331    2654.1169   -42599.448    87.654325    222.21144 
   28150    130.85444   -1370.2864    146071.98   -39924.936    2639.4834   -42564.419    87.725213    220.98627 
   28200    131.51128   -1300.2901     146033.4     -39880.9    2652.7327   -42533.632    87.950745    222.09554 
   28250    133.78863   -1215.5631    145971.98   -39875.112    2698.6694   -42573.782    87.994834    225.94152 
   28300    133.67994   -1395.2853    145922.08    -39870.25     2696.477   -42566.727    87.960153    225.75796 
   28350      134.287   -1218.4391    145847.22   -39869.728    2708.7222    -42578.45    88.091584    226.78317 
   28400    135.62629   -1190.7404    145846.82   -39872.839     2735.737   -42608.576    88.230339    229.04494 
   28450    133.13852   -1125.6398    145854.52   -39827.172    2685.5559   -42512.728    88.251846    224.84362 
   28500    134.83992   -1076.4195    145888.32   -39826.849    2719.8751   -42546.724    88.233354    227.71693 
   28550    131.85451   -1226.7294    145897.82   -39889.993     2659.656   -42549.649    88.008937    222.67519 
   28600    134.65565   -1167.7152    145880.55   -39869.026    2716.1582   -42585.184    87.834278    227.40574 
   28650    133.04935    -1306.424    145910.62   -39911.179    2683.7573   -42594.937    87.845583    224.69303 
   28700    131.52802   -1151.0209    145930.11    -39942.53    2653.0702     -42595.6    88.293838     222.1238 
   28750    130.00303   -1098.4817    145904.83   -39930.308    2622.3094   -42552.618    88.600269    219.54841 
   28800    132.26379   -1288.4837    145874.79   -39966.833    2667.9116   -42634.745    88.662331    223.36638 
   28850    128.83457   -1205.6415    145894.71   -39962.242    2598.7404   -42560.982    88.899447    217.57513 
   28900    131.33151   -1163.6062     145880.3   -39925.513    2649.1065    -42574.62    89.042029    221.79195 
   28950    133.27947   -1210.9758    145881.03   -39894.765     2688.399   -42583.164    89.126118    225.08164 
   29000    133.80702   -1105.3748    145876.44    -39847.72    2699.0404   -42546.761    89.250967    225.97258 
   29050    136.15025   -1033.0386     145867.3    -39830.15     2746.306   -42576.456    89.310714    229.92981 
   29100    133.41304   -1212.8679    145935.32   -39771.507    2691.0933   -42462.601    89.386847    225.30722 
   29150    135.78324   -1161.1324    145971.34   -39761.102    2738.9029   -42500.005    89.463493       229.31 
   29200    133.92814   -1321.3761    145949.64   -39792.898    2701.4835   -42494.381    89.531652    226.17713 
   29250    134.78236   -1257.3243    145864.14   -39813.031    2718.7141   -42531.745    89.725313    227.61972 
   29300    128.54988   -1088.6993     145891.9    -39955.07    2592.9979   -42548.068     89.79345    217.09435 
   29350    133.26078   -1311.0659    145884.95   -39920.886     2688.022   -42608.908    89.836538    225.05009 
   29400    131.04969   -1189.3534    145871.34   -39887.826    2643.4218   -42531.248    89.744969    221.31601 
   29450    136.17717   -1104.8057    145916.84   -39839.271     2746.849    -42586.12    89.944424    229.97528 
   29500    134.19343   -1156.7147    145969.32   -39829.595    2706.8347    -42536.43    90.277171    226.62515 
   29550    131.96802   -1204.6099    146010.97   -39862.054    2661.9456   -42523.999    90.537772    222.86688 
   29600    136.76577   -1056.7716    146000.35   -39809.042    2758.7217   -42567.764    90.639385    230.96929 
   29650    135.37272    -1064.928    146040.96    -39773.98    2730.6224   -42504.602    90.851622    228.61673 
   29700    134.40783   -1235.8005    146037.69   -39759.781    2711.1593    -42470.94    90.854049    226.98722 
   29750    134.01718    -1127.451     146011.7   -39765.336    2703.2795   -42468.615    91.145005    226.32749 
   29800    133.94759   -1130.9607    146041.42   -39781.679    2701.8759   -42483.555    91.100615    226.20998 
   29850    136.60916   -1002.3917    146073.97   -39824.757    2755.5627    -42580.32    90.973955    230.70481 
   29900    133.36379   -1215.5194    146122.54   -39854.361    2690.0998   -42544.461    91.210781    225.22404 
   29950    132.61668    -1031.128    146107.65   -39896.498    2675.0299   -42571.528    91.552116    223.96234 
   30000    134.03861   -1073.2357    146059.53   -39864.708    2703.7118   -42568.419    91.580649    226.36368 
   30050    133.87087    -1314.157    145981.62   -39875.157    2700.3284   -42575.485    91.812449    226.08041 
   30100    133.04028   -1196.3264    145956.49    -39861.73    2683.5743   -42545.305    92.057648    224.67771 
   30150    132.17982   -1103.9796     145999.3   -39896.194    2666.2179   -42562.411    92.097147    223.22457 
   30200    132.28248    -1242.661    146032.08   -39852.945    2668.2886   -42521.234    92.300558    223.39794 
   30250    131.47236   -1106.3941    146007.13    -39881.38    2651.9476   -42533.328    92.716371    222.02981 
   30300      133.724   -1140.7939    146038.08   -39888.293    2697.3658   -42585.659    92.638515    225.83237 
   30350    134.78981   -1092.2997    146043.46   -39885.279    2718.8643   -42604.143    93.011157     227.6323 
   30400    133.48134   -1188.1782    146038.95   -39875.268     2692.471   -42567.739    93.378453    225.42257 
   30450    130.68117   -1223.4969    145928.65    -39870.04    2635.9885   -42506.029    93.651916    220.69366 
   30500    133.25845   -1233.6149    145881.01       -39854    2687.9751   -42541.975    93.732778    225.04616 
   30550    133.15855   -1249.5439    145774.29   -39909.715      2685.96   -42595.675    93.956167    224.87744 
   30600     133.2765    -1059.118    145815.87   -39916.831    2688.3392   -42605.171    94.123833    225.07664 
   30650    134.92646   -1013.1937    145778.14   -39927.527    2721.6206   -42649.148      94.2851    227.86307 
   30700    132.53275   -1080.0405     145837.5   -39971.887     2673.337   -42645.224    94.457387     223.8206 
   30750     133.7623   -1015.3326    145813.01   -39900.122    2698.1384    -42598.26    94.592451    225.89706 
   30800    130.93936   -959.38238    145846.59   -39932.329    2641.1963   -42573.526    94.842725    221.12968 
   30850    133.83645   -1043.9473    145861.06   -39904.818    2699.6341   -42604.452    94.866522    226.02228 
   30900    133.51407   -1079.0796    145868.04   -39908.182    2693.1312   -42601.313    95.229978    225.47784 
   30950    133.52242   -1174.4434    145918.98   -39855.287    2693.2997   -42548.586    95.238631    225.49195 
   31000    136.74289   -1118.1459    145934.27   -39774.546    2758.2602   -42532.806     95.24164    230.93065 
   31050     134.5107   -955.63843    145944.46   -39761.468    2713.2343   -42474.702    95.597416    227.16094 
   31100    135.18676   -1198.8326    146019.92   -39819.492    2726.8712   -42546.363    95.915951    228.30266 
   31150    136.37002   -1071.6961    145947.79   -39826.645     2750.739   -42577.384    96.190731    230.30096 
   31200    134.37428   -1023.7358    146034.29    -39818.12    2710.4826   -42528.603    96.563333    226.93056 
   31250    132.76155   -1113.1339    145999.02    -39807.54     2677.952   -42485.492    96.822801    224.20699 
   31300    132.64884   -1336.2494    146057.95   -39816.071    2675.6785    -42491.75    96.930086    224.01665 
   31350    133.87253   -1137.2216     146079.3   -39835.838    2700.3617   -42536.199    97.001751     226.0832 
   31400    132.26889   -1195.7868    146065.76   -39802.529    2668.0145   -42470.544    97.077371    223.37499 
   31450    133.76915   -1413.1871    146007.97   -39799.042    2698.2764   -42497.319    97.437898    225.90862 
   31500    134.38603   -1003.3787     145966.7   -39796.942    2710.7197   -42507.662    97.625839     226.9504 
   31550    131.28639   -1125.3857    145977.73   -39833.765    2648.1963   -42481.961    97.960679    221.71574 
   31600    135.91874   -1176.4039    145938.71   -39833.613    2741.6361   -42575.249    97.935306    229.53883 
   31650    136.14978   -1218.8181    145934.23   -39812.884    2746.2965   -42559.181    97.931238    229.92901 
   31700    133.38558   -1174.2511    145892.84   -39825.349    2690.5395   -42515.889    98.061971    225.26085 
   31750    132.75889   -1212.3092     145841.3   -39849.117    2677.8983   -42527.015    98.346452    224.20249 
   31800    132.74047   -1189.1205    145773.64    -39845.18    2677.5268   -42522.707    98.463993    224.17139 
   31850    136.21227   -1159.3281    145775.61   -39794.009    2747.5569   -42541.566    98.744606    230.03454 
   31900    133.74843   -1069.6954    145764.03   -39790.381    2697.8584    -42488.24    98.822905    225.87362 
   31950     135.2499   -1147.8392    145782.66   -39797.838    2728.1449   -42525.983    98.984611     228.4093 
   32000    134.65576   -1075.6103    145783.05   -39824.232    2716.1603   -42540.393    99.210404    227.40592 
   32050    132.99228   -1135.2605    145697.21   -39836.351     2682.606   -42518.958    99.302855    224.59664 
   32100    134.17323   -1114.1326    145727.65   -39825.241    2706.4272   -42531.668     99.37313    226.59103 
   32150    132.81414   -1232.3742    145796.73   -39816.577    2679.0129    -42495.59    99.570684    224.29581 
   32200    133.85339   -1161.2994    145812.73   -39875.245    2699.9757   -42575.221       99.795    226.05088 
   32250    131.91907   -1079.6648    145853.01    -39922.15    2660.9582   -42583.108    99.918495    222.78421 
   32300    132.44639   -1190.6413    145850.26   -39892.134     2671.595   -42563.729    100.03232    223.67476 
   32350    133.13138   -1121.3906    145855.76   -39902.832    2685.4119   -42588.244    100.15907    224.83155 
   32400    132.53705   -1047.9706    145899.04   -39956.952    2673.4236   -42630.376    100.03682    223.82785 
   32450    131.57625   -1079.0506    145885.36   -39942.072    2654.0431   -42596.115    100.34035    222.20525 
   32500    131.21546   -1206.4219    145930.27    -39948.72    2646.7657   -42595.485    100.57301    221.59597 
   32550    130.21444   -1151.8959    145858.77   -39946.913     2626.574   -42573.487    100.66646    219.90545 
   32600    132.33258   -1320.2194    145758.71   -39951.596    2669.2993   -42620.895    100.53389    223.48255 
   32650    128.45269   -1184.5197    145679.68   -39979.905    2591.0374   -42570.943    100.63005    216.93021 
   32700    129.14366   -1281.5673    145658.48   -39994.928    2604.9751   -42599.903    100.95473    218.09712 
   32750    128.94794   -1098.7433    145711.75   -39957.938    2601.0271   -42558.965    101.15158    217.76658 
   32800    129.97895   -1291.5117    145643.65   -39900.054    2621.8237   -42521.878    101.15466    219.50774 
   32850    131.37987   -1207.9321     145675.3   -39861.934    2650.0819   -42512.015    101.25044    221.87361 
   32900    135.07148   -1282.7541    145714.69   -39849.905     2724.546   -42574.451    101.51175    228.10799 
   32950    133.43005   -1057.8643    145775.08   -39840.339    2691.4365   -42531.776    101.82763    225.33595 
   33000    134.06957   -1129.7898    145816.62   -39806.356    2704.3364   -42510.692    102.32471    226.41597 
   33050    129.72665   -1262.7728    145743.04   -39852.041    2616.7347   -42468.776    102.47443    219.08167 
   33100    131.01886   -1159.9227    145752.49   -39844.332       2642.8   -42487.132    102.57007    221.26395 
   33150    133.18611   -1131.8015     145775.5   -39844.436    2686.5159   -42530.952    102.94896    224.92398 
   33200    133.66721   -1296.1438    145786.16   -39840.747    2696.2202   -42536.967    103.27299    225.73646 
   33250    131.47272   -1194.3287    145780.95   -39875.676    2651.9548    -42527.63    103.58091    222.03042 
   33300    132.05907   -1120.5134     145726.3   -39862.238    2663.7823    -42526.02    103.79279    223.02065 
   33350    131.96157   -1108.5322    145678.33   -39885.333    2661.8155   -42547.149    104.28839    222.85599 
   33400    133.24201   -992.27031    145688.99   -39876.992    2687.6435   -42564.635    104.56625    225.01839 
   33450    130.42507   -1187.4668    145759.15   -39884.893    2630.8226   -42515.715    104.71608    220.26116 
   33500    133.85847    -1234.535    145796.47   -39835.642    2700.0781    -42535.72    104.97099    226.05946 
   33550    132.75861   -1231.8414     145798.3   -39830.033    2677.8928   -42507.925    105.32154    224.20203 
   33600    134.24391     -1070.87    145776.62   -39815.822    2707.8529   -42523.675    105.69563    226.71039 
   33650    134.72828   -1208.5102    145855.42   -39855.684    2717.6231   -42573.307    105.96983    227.52839 
   33700    133.15812   -1129.5744    145913.43   -39843.933    2685.9513   -42529.885    106.00928    224.87671 
   33750    135.05571   -1063.2817    146037.98   -39855.428    2724.2279   -42579.656    106.04029    228.08136 
   33800    133.38348   -1120.3995    146153.56   -39880.319    2690.4972   -42570.816     106.2375    225.25731 
   33850    133.46258   -1025.4973    146208.16   -39892.804    2692.0926   -42584.897    106.36898    225.39088 
   33900    131.98803    -1064.204    146230.53   -39881.228    2662.3492   -42543.577    106.31035    222.90067 
   33950    134.28814   -1069.4027       146221   -39886.679    2708.7451   -42595.424    106.24564    226.78509 
[...]
   92000    133.95587   -1211.7129    146091.34   -39819.105    2702.0429   -42521.147    251.04488    226.22396 
   92050     133.0525   -1182.4896    146210.58   -39799.611    2683.8209   -42483.431    251.24129    224.69835 
   92100    133.30779   -1180.6693    146233.81   -39790.059    2688.9702   -42479.029    251.75418    225.12947 
   92150    129.86872   -1421.9181    146141.79   -39770.424    2619.6003   -42390.024    251.91219    219.32159 
   92200    134.82437   -1363.3035    146079.36   -39716.453    2719.5614   -42436.014    252.34179    227.69067 
   92250    132.90407   -1134.4426    146043.65   -39730.078    2680.8269   -42410.905    252.79313    224.44768 
   92300    132.88328   -1280.4671    145998.19   -39758.483    2680.4075   -42438.891    252.87927    224.41257 
   92350    135.30723   -1283.0708    146014.39   -39698.488    2729.3012   -42427.789    252.94166    228.50612 
   92400    134.98718   -1170.7222    146055.98   -39692.997    2722.8456   -42415.842    252.88651    227.96563 
   92450    134.75445   -1372.9593    146006.79   -39696.206    2718.1511   -42414.357    253.03351    227.57259 
   92500    134.23578   -1402.2656    145905.22   -39747.537    2707.6889   -42455.226    252.99708    226.69666 
   92550    133.91859   -1231.3744    145856.97    -39717.75    2701.2909   -42419.041     252.9056      226.161 
   92600    133.27668    -1139.885    145847.87   -39721.321    2688.3427   -42409.664    253.27042    225.07693 
   92650    136.14978   -1184.8411    145766.91   -39709.838    2746.2966   -42456.134    253.35123    229.92902 
   92700    134.59175   -1146.3891    145649.49   -39759.999    2714.8693   -42474.868    253.56328    227.29783 
   92750    134.38115    -1178.912    145578.64   -39807.674    2710.6211   -42518.295    254.15417    226.94216 
   92800    133.74797   -929.15574    145507.38   -39797.223    2697.8493   -42495.072    253.98522    225.87285 
   92850    133.99299   -1041.5994    145518.17   -39811.527    2702.7915   -42514.318    254.17035    226.28664 
   92900    134.36423   -1089.2511    145556.05   -39815.576      2710.28   -42525.856    254.69631    226.91359 
   92950    131.87542   -1033.6879    145570.03   -39839.372    2660.0778    -42499.45    254.82218     222.7105 
   93000    132.15184   -876.74058    145581.03   -39879.802    2665.6536   -42545.456    255.05712    223.17732 
   93050    132.57222   -1032.0539    145639.65   -39858.434     2674.133   -42532.567    255.10828    223.88725 
   93100    135.88677   -1207.7772       145676   -39816.788    2740.9912   -42557.779    255.10888    229.48484 
   93150    133.61357   -1145.9468    145657.39   -39853.398    2695.1382   -42548.537    255.38331    225.64587 
   93200    134.92284   -1089.4492    145648.78    -39866.42    2721.5477   -42587.967    255.36869    227.85697 
   93250    129.52395   -1114.6256    145628.64   -39910.875     2612.646   -42523.521    255.27005    218.73936 
   93300    132.12023   -1150.7393    145640.49   -39950.497    2665.0159   -42615.512    255.42334    223.12393 
   93350    131.02297   -1043.4706    145617.56   -39945.857    2642.8828    -42588.74    255.55134    221.27088 
   93400    130.33497   -1033.6138     145603.3   -40002.878    2629.0051   -42631.883    255.72197    220.10899 
   93450    130.53619   -989.44664    145619.71    -39998.68    2633.0639   -42631.744    255.93943    220.44881 
   93500    130.01382   -1134.3371    145587.76   -40007.338    2622.5273   -42629.866    256.14603    219.56665 
   93550    133.31091   -991.14011    145601.17   -39954.044    2689.0333   -42643.078    256.23102    225.13475 
   93600    132.41009   -1122.6663    145649.71   -39932.857    2670.8626   -42603.719    256.66055    223.61344 
   93650    132.16997    -1119.594    145687.85   -39946.347    2666.0193   -42612.366    256.78745    223.20794 
   93700    133.71804   -1254.8423    145627.09   -39882.238    2697.2455   -42579.484    256.83208    225.82231 
   93750    131.19441   -1072.3354    145599.98   -39910.563     2646.341   -42556.904    256.88657    221.56041 
   93800     131.7459   -1166.1437       145618   -39849.594    2657.4653   -42507.059      256.801    222.49177 
   93850    132.11218    -1199.751    145523.51   -39821.187    2664.8536   -42486.041    256.96437    223.11034 
   93900    133.93592   -1071.2516    145518.81   -39783.105    2701.6405   -42484.746     257.1422    226.19026 
   93950    132.14336   -1057.6744    145514.05   -39784.245    2665.4825   -42449.728    257.22164      223.163 
   94000    132.96009   -962.77316    145503.78   -39781.314    2681.9569   -42463.271    257.38954    224.54229 
   94050    132.51583   -1092.2299    145646.68   -39817.332    2672.9955   -42490.328    257.84991    223.79201 
   94100    131.85678    -1279.533    145677.03   -39861.042    2659.7018   -42520.744    258.25194    222.67902 
   94150    131.46214   -1018.8408    145638.03   -39831.355    2651.7414   -42483.096    258.28087    222.01255 
   94200    134.57716   -1048.9347    145658.35   -39807.734    2714.5749   -42522.309    258.69067    227.27317 
   94250    131.90501   -1174.0619    145634.44   -39813.278    2660.6745   -42473.952    258.71826    222.76046 
   94300    133.59119   -1341.9613    145554.08   -39807.935    2694.6868   -42502.621    258.65644    225.60808 
   94350    132.42088   -1022.4514    145644.01   -39805.091    2671.0803   -42476.171    258.76825    223.63166 
   94400    133.77744   -1236.2036    145649.35   -39860.696    2698.4437    -42559.14    258.95045    225.92262 
   94450    132.44473   -1106.7885    145681.68   -39901.459    2671.5615    -42573.02    258.65968    223.67195 
   94500    131.86974   -1049.3537    145672.41    -39922.86    2659.9632   -42582.823    259.01942    222.70091 
   94550    133.28899   -1186.8167    145731.88   -39893.229     2688.591    -42581.82    259.35747    225.09772 
   94600    133.73014    -1058.195    145767.28   -39903.886    2697.4896   -42601.375    259.11526    225.84274 
   94650    133.23731   -1187.1154    145807.29   -39917.063    2687.5486   -42604.612    259.38841    225.01044 
   94700     133.6494   -1235.6587    145773.35   -39904.713    2695.8609   -42600.574    259.38997    225.70638 
   94750    133.18464   -1096.7368     145786.6     -39864.6    2686.4862   -42551.086     259.1702     224.9215 
   94800    137.04694    -1179.732    145728.16   -39863.581    2764.3932   -42627.974      259.303    231.44413 
   94850    133.00846   -1351.1665    145661.92   -39901.043    2682.9324   -42583.976    259.48354    224.62397 
   94900    130.79153   -1241.3551     145553.9   -39934.293    2638.2146   -42572.507    259.72607    220.88004 
   94950    132.20803   -1282.3739     145466.4   -39937.329    2666.7869   -42604.116    259.47831    223.27221 
   95000    132.46903   -1383.0122    145445.98   -39985.989    2672.0515   -42658.041    259.77361    223.71298 
   95050    131.62647   -1061.6729    145378.11   -39999.678    2655.0562   -42654.734    259.61951    222.29008 
   95100    134.64211   -1136.6054    145450.45   -39976.747    2715.8851   -42692.632    259.88568    227.38287 
   95150    133.37185   -1073.8977     145465.4   -39966.196    2690.2625   -42656.458      259.748    225.23766 
   95200    133.69314   -1107.6943    145502.22   -39918.658    2696.7432   -42615.401    259.77609    225.78025 
   95250    133.49025    -1032.176    145581.88    -39958.69    2692.6507    -42651.34    260.09337    225.43761 
   95300    133.75358   -1166.8776    145575.81   -40031.678    2697.9624    -42729.64    260.50615    225.88232 
   95350    131.54936   -1075.5742    145641.95   -40001.518    2653.5007   -42655.019    260.52412    222.15985 
   95400    132.90193   -953.16438     145689.1   -40015.295    2680.7836   -42696.078    260.39515    224.44406 
   95450    129.80129   -1195.9847    145776.65   -40008.056    2618.2402   -42626.296    260.59443    219.20772 
   95500    128.44088   -1326.3132    145741.31   -39992.976    2590.7992   -42583.775    260.45272    216.91027 
   95550    133.44314    -1088.918    145743.42   -39967.795    2691.7004   -42659.495    260.57376    225.35805 
   95600    133.36546   -1043.8324    145774.29   -39943.594    2690.1336   -42633.728    260.93127    225.22688 
   95650     132.0099   -1227.2219    145744.11   -39961.558    2662.7904   -42624.349    261.00021    222.93761 
   95700    132.47888   -1034.5743    145672.54   -39964.167    2672.2502   -42636.417    261.21665    223.72961 
   95750    131.71947   -1074.3809    145713.03    -39961.96    2656.9322   -42618.892     260.9472    222.44714 
   95800     133.2644   -1029.4216    145775.75   -39957.545     2688.095    -42645.64    260.86833     225.0562 
   95850     133.0502   -1252.8739    145882.02   -39942.083    2683.7745   -42625.857    260.86393    224.69447 
   95900    133.67786   -1272.0984    145874.82   -39922.037    2696.4351   -42618.473    261.60302    225.75445 
   95950    133.14514   -1300.8646    145845.12   -39891.012    2685.6894   -42576.701    261.96377    224.85479 
   96000    132.76877   -1279.0799    145815.61   -39884.191    2678.0977   -42562.289    261.77532    224.21919 
   96050    135.36384    -1330.884     145758.7   -39888.458    2730.4433   -42618.901    262.15176    228.60173 
   96100     134.6263   -1184.2058    145743.52   -39860.805    2715.5662   -42576.371    262.14701    227.35618 
   96150    132.29845   -1074.1914    145799.64    -39848.63    2668.6107   -42517.241     261.7703    223.42491 
   96200    133.39111   -1322.7209    145810.78   -39865.005     2690.651   -42555.656    261.90688    225.27019 
   96250    131.07811   -1151.5577    145815.37   -39856.924    2643.9952   -42500.919    262.39821    221.36401 
   96300    133.22606   -1329.9921    145884.69   -39889.638    2687.3217    -42576.96    262.34487    224.99145 
   96350    134.90057   -1367.7967    145772.59   -39858.616    2721.0985   -42579.715    262.20009    227.81935 
   96400    132.54258    -1198.864    145748.92   -39811.382    2673.5351   -42484.917    262.11328    223.83719 
   96450    132.98302   -1166.6196    145667.44   -39866.615    2682.4193   -42549.034    262.23983      224.581 
   96500    133.02821   -1395.5868     145613.3   -39868.446    2683.3308   -42551.777    262.88566    224.65732 
   96550    129.19911   -1162.0791     145578.9   -39817.537    2606.0935   -42423.631    262.79633    218.19076 
   96600     133.5861   -1216.8611    145573.51   -39823.233    2694.5841   -42517.817     262.7101    225.59948 
   96650    134.16034   -1108.6848    145570.57   -39830.867    2706.1671   -42537.035    262.75802    226.56925 
   96700    133.82484   -1256.0599    145558.35   -39817.723    2699.3997   -42517.123    263.16052    226.00266 
   96750    135.25199   -1021.0756    145590.48   -39794.046     2728.187   -42522.233    263.45389    228.41283 
   96800    133.89862   -1147.3288    145658.58   -39845.616     2700.888   -42546.504    263.60505    226.12727 
   96850    131.63968   -1307.4368    145589.15   -39850.839    2655.3226   -42506.162    264.07483    222.31238 
   96900    132.41663   -1220.6645     145530.4   -39846.689    2670.9947   -42517.684    264.05845     223.6245 
   96950    134.44437   -1092.7852    145469.07    -39832.51    2711.8965   -42544.407    264.16014    227.04893 
   97000    135.61508   -1249.6228    145399.35   -39811.588    2735.5111   -42547.099    264.03356    229.02602 
   97050    134.51222   -1211.5933    145447.29   -39846.503    2713.2651   -42559.768    263.98643    227.16351 
   97100    134.41887   -1402.7709    145435.48   -39873.241     2711.382   -42584.623    264.00105    227.00586 
   97150    132.25941   -1216.0084    145383.17   -39890.197    2667.8233   -42558.021    264.12728    223.35898 
   97200    131.09157   -1297.1016    145346.24   -39896.189    2644.2667   -42540.456    264.54987    221.38674 
   97250    130.40496   -1156.0405    145275.43   -39921.092     2630.417   -42551.509    264.27342     220.2272 
   97300    131.04873    -1258.996    145258.95   -39925.204    2643.4026   -42568.607    264.63383     221.3144 
   97350    136.27727   -1201.3194    145241.03   -39825.961     2748.868   -42574.829    264.74239    230.14431 
   97400    135.88011   -976.01835    145271.72   -39755.659     2740.857   -42496.516    264.64008     229.4736 
   97450    135.51333   -1205.4058    145315.66   -39783.527    2733.4585   -42516.985    264.86309    228.85418 
   97500    131.55109   -1095.0737    145309.97   -39834.342    2653.5357   -42487.878    264.75837    222.16278 
   97550    134.65454   -1158.4436    145299.45   -39806.487    2716.1358   -42522.623    265.45429    227.40386 
   97600    132.05305   -1078.7783    145398.62   -39859.693    2663.6607   -42523.354    265.85851    223.01047 
   97650    132.77188   -1172.3489    145408.29   -39870.373    2678.1604   -42548.533    266.55387    224.22443 
   97700     132.2837   -1147.0638    145460.24   -39840.402    2668.3132   -42508.716     266.5306        223.4 
   97750    131.34706   -1255.7265    145488.37   -39789.356    2649.4201   -42438.776    266.79907     221.8182 
   97800    134.87605   -1044.5267    145491.44   -39761.085    2720.6038   -42481.689    267.02187    227.77794 
   97850    136.81657   -1119.0668    145500.64   -39829.007    2759.7465   -42588.754    267.47455    231.05509 
   97900      131.206   -1142.4879    145469.58   -39871.364    2646.5749   -42517.939     267.7218    221.57999 
   97950     133.1728   -1049.6535    145519.08   -39876.876    2686.2475   -42563.124    268.07524    224.90151 
   98000    130.66806   -1059.5186    145602.57   -39847.127     2635.724   -42482.851    268.31516    220.67152 
   98050    134.79147   -1125.3198    145660.82    -39804.98    2718.8979   -42523.878    268.54155    227.63511 
   98100    131.79727    -1154.193    145645.28   -39809.073    2658.5014   -42467.575    269.09359    222.57852 
   98150    134.76266   -1290.9908    145593.92   -39782.411    2718.3167   -42500.728    269.54627    227.58645 
   98200    134.92872   -1131.0047    145614.42   -39808.885    2721.6663   -42530.551    269.60561    227.86689 
   98250    132.47249   -1053.3552    145621.68   -39843.785    2672.1213   -42515.906    269.28743    223.71882 
   98300    133.20301   -867.61917    145688.56   -39877.061    2686.8568   -42563.918    269.62325    224.95253 
   98350    134.27336   -1318.4236    145713.05   -39862.477    2708.4469   -42570.924    269.97618    226.76012 
   98400    133.89508   -1105.7871    145685.81   -39902.881    2700.8166   -42603.698     270.3747    226.12129 
   98450    132.17407   -1260.1676    145635.33   -39887.431     2666.102   -42553.533     270.3497    223.21486 
   98500    134.43755   -1195.4133    145569.02   -39858.369    2711.7588   -42570.128    270.35214     227.0374 
   98550    136.48771   -1019.9321    145658.44   -39839.356     2753.113   -42592.469    270.37023    230.49971 
   98600     134.0884   -1045.8584    145729.07     -39886.8    2704.7162   -42591.516    270.66214    226.44777 
   98650    133.61165   -1138.8504    145741.59   -39892.734    2695.0994   -42587.834    271.38349    225.64263 
   98700    131.23657   -1294.9072    145656.14   -39902.709    2647.1915     -42549.9    271.48437    221.63161 
   98750    131.03636   -1111.1084    145619.82   -39893.354     2643.153   -42536.507    271.62438     221.2935 
   98800    134.31855    -1360.015    145617.18   -39853.474    2709.3584   -42562.832    271.39005    226.83644 
   98850     133.1998   -1115.3611    145664.16   -39843.736     2686.792   -42530.528    271.27912     224.9471 
   98900    133.77337   -1373.1867    145656.84   -39822.749    2698.3616   -42521.111     271.5737    225.91575 
   98950    134.48715   -1188.1226    145625.18   -39789.227    2712.7593   -42501.986    271.60138    227.12117 
   99000    136.01033   -1175.0853    145642.93   -39761.235    2743.4835   -42504.718    271.49023    229.69351 
   99050    136.67964   -1159.0041    145731.72   -39723.713    2756.9844   -42480.698    271.95891    230.82385 
   99100    134.25108   -1267.6599    145701.16   -39747.149    2707.9974   -42455.147    272.40573    226.72249 
   99150    135.14111   -1143.7905    145664.69   -39740.213    2725.9505   -42466.163     272.1173    228.22558 
   99200    134.41294   -915.66204    145669.85   -39718.452    2711.2624   -42429.715    272.12774    226.99584 
   99250    132.77569   -1052.7451    145729.68   -39750.194    2678.2372   -42428.431    272.41927    224.23086 
   99300    133.26338     -1054.76    145762.37   -39806.941    2688.0745   -42495.015    272.33677    225.05447 
   99350    132.72524    -1140.892    145742.69   -39825.341    2677.2196   -42502.561    272.37459    224.14567 
   99400    132.25213   -986.63369    145790.29   -39840.951    2667.6764   -42508.627     272.6231    223.34668 
   99450     135.3002     -1155.08    145915.14   -39825.205    2729.1594   -42554.365    273.03832    228.49424 
   99500    136.14332   -1055.1808    145958.35   -39838.021    2746.1662   -42584.187     272.8249    229.91811 
   99550    136.01471   -1240.4248    145974.25   -39840.645     2743.572   -42584.217    273.03084    229.70091 
   99600    133.82112   -1148.2199    145944.17   -39870.705    2699.3247    -42570.03    273.23385    225.99638 
   99650     133.0283    -1148.697    145971.07   -39852.858    2683.3326   -42536.191    273.40164    224.65747 
   99700    133.25176   -975.16444    145933.91   -39865.629    2687.8402   -42553.469    273.26784    225.03486 
   99750    131.61772   -1011.9321    145897.15   -39906.187    2654.8796   -42561.067    273.01462    222.27529 
   99800     134.3676   -1043.2409    146027.19   -39868.509    2710.3479   -42578.857    272.99457    226.91928 
   99850    132.53898    -1013.758     146028.8   -39831.403    2673.4626   -42504.866    273.04169    223.83112 
   99900    133.98677   -1110.6142    146073.81   -39822.589     2702.666   -42525.255    273.12622    226.27613 
   99950    135.19603   -1159.7864    146096.22   -39832.684    2727.0583   -42559.742    272.96193    228.31833 
  100000    133.59331   -1114.5574    145975.65   -39839.719    2694.7296   -42534.449    273.14022    225.61167 
Loop time of 182.563 on 64 procs for 100000 steps with 6768 atoms

Performance: 236.630 ns/day, 0.101 hours/ns, 547.755 timesteps/s
100.0% CPU use with 64 MPI tasks x no OpenMP threads

MPI task timing breakdown:
Section |  min time  |  avg time  |  max time  |%varavg| %total
---------------------------------------------------------------
Pair    | 32.712     | 84.982     | 141.41     | 559.3 | 46.55
Neigh   | 1.2842     | 2.6327     | 5.2353     |  89.2 |  1.44
Comm    | 28.052     | 82.952     | 136.99     | 546.5 | 45.44
Output  | 0.1267     | 0.12824    | 0.14162    |   0.5 |  0.07
Modify  | 7.0814     | 11.1       | 18.612     | 121.7 |  6.08
Other   |            | 0.7675     |            |       |  0.42

Nlocal:    105.75 ave 175 max 69 min
Histogram: 32 0 0 13 3 0 0 0 7 9
Nghost:    992.469 ave 1341 max 671 min
Histogram: 32 0 0 0 0 0 0 0 12 20
Neighs:    0 ave 0 max 0 min
Histogram: 64 0 0 0 0 0 0 0 0 0
FullNghs:  12460.6 ave 27469 max 4207 min
Histogram: 32 0 0 0 16 0 0 0 4 12

Total # of neighbors = 797476
Ave neighs/atom = 117.83
Neighbor list builds = 6120
Dangerous builds = 0

write_data		${DIR}/data.eq-${NAME}-${TEMP}
write_data		run_14/data.eq-${NAME}-${TEMP}
write_data		run_14/data.eq-het_freeze_14-${TEMP}
write_data		run_14/data.eq-het_freeze_14-225
undump          1

reset_timestep  0

unfix           2
unfix           3
unfix           4


################################################
#######         Run Simulation         #########
################################################

log				${DIR}/log.run_${NAME}
log				run_14/log.run_${NAME}
log				run_14/log.run_het_freeze_14
