LAMMPS data file via write_data, version 29 Oct 2020, timestep = 300625

2677 atoms
1 atom types

0.0 49.22 xlo xhi
0.0 49.019635930410494 ylo yhi
0.30466021347720584 33.63533978652263 zlo zhi

Masses

1 18.015

Atoms # atomic

58 1 9.210491913345395 0.7529297879977693 11.852852091113778 0 0 0
1774 1 5.8726550441064225 10.704718709619083 16.75734122146377 1 0 1
76 1 8.36328672328658 1.977948926418695 2.1374429522420546 0 0 0
2173 1 10.765804737957396 2.7239553673463166 1.0409166386956308 0 0 0
190 1 14.273319205071754 24.006755650959658 14.999138589917376 0 0 0
1868 1 11.141745754424013 24.19284073160354 1.873023529592543 1 0 1
558 1 1.0707939103059032 7.405992917479684 1.9287819844679346 0 0 0
2349 1 13.735744318324311 16.79170559176683 0.40916567424046524 0 0 0
832 1 10.405286466327174 5.537104219226238 1.9640418303153726 0 1 0
2280 1 14.447264635785478 6.396815287599651 1.4557508470007934 0 1 1
329 1 3.3396786431804792 8.93112622863808 2.533872912077571 1 0 0
1421 1 10.888301122531624 24.439943132286416 8.987888677492718 0 0 0
2140 1 7.451761011927168 7.430695245581685 14.920448189985382 1 0 1
29 1 12.202749753375343 0.7911207970682399 8.763469818793546 0 1 0
1318 1 4.9361558557420375 21.064188222586516 2.304941222891297 0 0 0
42 1 10.091964033105047 0.6018985412929108 5.581048172561159 0 0 0
642 1 12.450462192391901 11.839360560852622 1.0744550790824694 0 0 1
1546 1 7.534013054443587 24.15289738779321 14.864514280759925 0 1 -1
1928 1 1.5333410667164027 0.13599918059028507 5.297926040495662 1 0 0
1806 1 15.88162259578097 12.952515009150618 2.281011067356158 0 0 0
1315 1 2.4070893135203324 4.683751938270043 1.4801386050985181 1 0 0
2135 1 13.818009178992698 10.672004984222793 3.165204047035392 1 0 1
77 1 2.011880061204314 15.85581296884658 1.470745611386355 0 0 0
1632 1 7.494303516614187 21.573040830108123 16.418314544498212 0 1 0
536 1 3.488116258347668 13.573163856350675 1.3250389360018269 0 0 1
132 1 10.106942825203788 14.801480220639968 1.7526097242887273 0 0 0
638 1 6.73470612982742 24.274143560065635 2.3747528522311545 0 0 0
447 1 13.23726662905801 14.267310641921807 2.531634891027719 0 0 0
2636 1 4.158960908202642 6.321738211888235 15.385376747388952 1 1 0
1775 1 15.401199914872523 8.740369225289065 16.71135538339099 0 0 0
2665 1 8.99968602051293 16.145451314366856 4.11109864938956 1 0 0
1223 1 15.290087944512738 0.41670572458461724 1.3379147531344928 0 0 1
478 1 11.29006925533572 19.25664664718634 2.8174378678133087 0 0 0
668 1 2.925100086564733 1.292354181165307 12.832205081967878 0 1 0
33 1 8.159480846225657 17.147801665583106 0.3771347710906289 0 0 0
2456 1 2.749490392616718 19.33379208207688 2.001987635245677 1 0 0
17 1 6.5000128457505415 19.949662947951932 4.556899458948307 0 0 0
1085 1 10.409388177523109 21.857883349783222 3.7705628201947556 0 0 0
814 1 16.038248217779348 1.527285291309319 5.584780145564281 0 1 1
465 1 1.912975657355415 9.109779462097958 15.758996400915935 0 0 -1
2033 1 2.5447878841331897 21.791470276233163 13.648367061913401 1 0 0
1214 1 0.9290892620256013 23.452163887126613 3.5038063463546645 0 -1 1
359 1 3.6871444343689204 23.15501609087596 4.320622684107268 0 0 0
794 1 5.697915882183044 9.019899137895708 0.585327460481593 0 0 0
385 1 14.297481098416881 23.13524608061117 2.2096286724405108 0 0 1
2004 1 1.1471577321827917 4.323193494784582 5.84136968268589 1 0 1
377 1 15.848725662705014 13.454656555012868 11.070328605994868 0 -1 -1
84 1 16.077253118338998 15.906084587344742 2.229642609500467 0 -1 1
683 1 2.4497208961124315 2.888172317861925 3.8906868988268593 0 1 1
2038 1 7.82516304195876 4.452456259841356 3.1066015250110417 0 0 1
1514 1 8.262978257436346 4.249546992057901 5.8807641789834735 0 1 0
1505 1 11.86414209405442 1.9362770226790202 3.7313444293089524 0 1 -1
1889 1 2.3844353808169036 7.098837523404712 6.328025827691797 2 0 -1
1860 1 5.1269354290007225 4.316719902203257 3.3453533880947024 0 0 0
1718 1 12.763773534206834 6.261640976860334 3.6708492267123116 0 0 1
840 1 13.445713814602962 3.92236693212806 4.746500767655489 0 1 0
2629 1 13.85431896144554 18.378313807038026 15.620478777826547 1 0 0
1375 1 6.679596312963912 9.115598781100882 4.069589989086718 0 1 0
1476 1 4.696068620815849 7.04020605264992 4.296170539569901 0 1 0
141 1 9.092964485504188 8.30613489404995 3.4386788607181797 0 0 0
430 1 12.03806933581739 9.09213447795122 4.216992010713767 0 0 0
916 1 10.492036718302987 21.192260905694845 16.356799900446862 0 0 0
1969 1 2.63223011370825 10.553536898312057 4.5331908074254335 1 0 0
494 1 4.195765421465329 12.77607711204938 3.848794481840433 -1 0 0
823 1 6.768180700707399 11.935925367220609 3.114834996597835 0 0 0
640 1 8.943404758218037 13.023365751239954 4.230196194430105 0 1 0
719 1 10.242085806030603 10.902309914142227 2.8605689036125517 0 0 1
264 1 15.218613004142865 8.839754210955112 1.9277560074402635 0 0 1
967 1 6.3356587535546725 13.398668691208684 6.013693122507944 0 0 0
15 1 15.671185013069222 4.301827596022392 16.228878087572163 0 0 0
710 1 15.226515000663854 11.559423473877285 5.494683386308505 0 1 2
1446 1 1.3303265609080441 17.166092815356798 6.422456153423807 1 0 0
821 1 1.8057563067755302 21.85129453048966 1.0133248053614707 0 0 1
1992 1 10.294165593501958 20.895779542643993 7.579729886336137 1 0 1
194 1 13.267251952281255 17.04747167934913 3.5466486757385396 0 0 0
1643 1 11.441142134402517 16.521203902709985 5.512136812703015 0 0 0
215 1 16.027374050305806 16.613101366013602 5.274073597508111 0 0 0
509 1 0.6583663666830044 20.398453941040643 6.024175529268783 0 0 1
1616 1 2.8829916686174553 17.172102626444367 4.00955088470604 0 1 1
398 1 5.674845904238269 17.14187281163798 4.071394933569027 0 0 0
354 1 3.8468075746451045 19.47803921566076 5.835376762050698 0 -1 1
1358 1 8.450331760082245 21.880577802232498 5.871012295087775 1 0 -1
2181 1 14.182290890170055 19.852013177311353 3.9819560899399002 1 0 1
2551 1 16.006555162475617 19.532664654114186 6.043878821618402 1 1 0
2382 1 15.676200771220143 2.809217972079275 12.477448975891999 1 1 0
2327 1 12.207704949372767 16.20855303280452 16.857901100254523 1 0 0
1874 1 6.547402322431867 22.94369432711092 7.591233850779516 1 0 0
528 1 13.145750789901548 22.069436822381455 4.4925300520611104 1 1 0
1708 1 1.9591663030523607 2.0009085023511863 7.288016954581659 0 1 1
784 1 4.594699087683253 2.4270233817719724 6.023220422695305 0 1 1
2207 1 9.044327456164307 3.1048131717311933 9.947636875014226 1 0 0
1263 1 15.029709743589112 4.308197439929414 8.638950761236776 0 0 0
225 1 10.416764616376497 2.57905956069131 7.567315647501228 0 0 1
2044 1 1.906239025744548 5.130613763979617 8.571922701701416 1 0 0
1158 1 5.655519450844129 5.269601898642086 6.524815268931502 1 0 -1
263 1 7.315870431408894 7.263433013356176 7.811355961765729 0 0 0
295 1 9.577490560937779 6.902598470914915 5.812014408460768 0 0 1
1742 1 12.068324706180006 7.153297733824695 6.951010264193243 0 1 0
243 1 12.504678385363702 4.486414914979275 7.355845786126409 0 0 1
1338 1 14.528321591021133 12.536871839553665 13.662253317552484 0 0 -1
71 1 14.428397235736 11.21934381166518 16.248194641094987 0 0 -1
1872 1 6.505462139470159 9.747995194836943 6.720156509200321 1 0 0
1428 1 3.6766134996959665 9.564483592960045 6.652491769273598 0 0 0
1113 1 8.073167124165073 10.134449245138722 9.566779374227231 0 0 0
128 1 11.76258468261853 7.630699353282648 9.929279456627464 0 0 0
772 1 14.790341195270413 7.70171343844605 5.854580745548214 0 1 0
322 1 2.2379651114499604 9.887715579840188 8.863514830947645 0 0 1
534 1 8.448596073075324 11.808976617468936 6.782562223157082 0 0 0
1795 1 10.828038748421065 10.164328704703994 9.544009006023652 1 0 0
2025 1 12.587769148326847 12.252988332712212 10.357398972761587 0 0 0
2052 1 16.155695985662025 9.636587946959619 7.198919596627323 1 0 0
1609 1 12.881203439401313 12.306361948868021 7.4747557736654535 0 1 1
2646 1 10.769643248000202 8.463408834539573 12.938947757067742 0 1 1
2240 1 15.667047038384943 10.529617449101334 9.794054636599368 1 0 1
80 1 2.2250567274655695 13.484295101063429 8.02960311734482 0 -1 0
1660 1 4.773275499968084 12.239920416799482 8.272162917332187 1 1 1
2234 1 6.8428988162288125 16.120577508237783 6.279862545407159 1 0 1
677 1 8.65627983299152 13.604966852847944 9.039791401929294 0 0 0
1542 1 11.106963613943336 10.401873116995393 6.445841658347319 1 1 0
2360 1 14.833638014905036 14.41281810664948 8.50118749857865 0 0 0
899 1 0.7701387832494182 6.5563176622412715 16.401311991687514 0 0 0
2450 1 3.252438454777709 16.203386932216613 8.280616557391742 1 0 0
2252 1 5.181565815679035 18.309728266073407 7.8454479027090365 1 0 0
1798 1 12.191831065095947 13.99109329266228 5.15742225662008 0 0 0
1699 1 12.858827480450154 16.696050351759734 8.1705256376862 0 0 1
1436 1 5.174894781339303 0.06285163126054982 1.7546847757374473 0 1 0
1800 1 5.503052856479041 19.481603484622166 10.472256204711456 1 0 -1
1895 1 14.456806855417 21.564158403702656 9.118026292482188 1 0 0
30 1 12.454910446803444 22.388652532448887 7.3073862091353945 0 0 0
1805 1 15.208675184989588 18.571756271626658 8.55351938179023 1 0 0
1478 1 16.19440217932377 4.123589430363605 4.624796219389813 0 1 0
1427 1 3.2192648294821784 21.828330855812272 6.921638702890562 0 0 1
2290 1 7.437920043043334 0.2685610640069503 4.186975340144517 1 0 0
884 1 4.158811787482296 22.73717831227255 9.713880213673542 0 0 1
1767 1 9.826470655994715 21.919225692615605 10.310741380553361 0 0 0
2369 1 0.6138693481546093 0.43453762903115467 9.924591243459775 1 1 -1
2311 1 7.243528915334133 6.798053872870028 1.3351765377059173 1 0 0
2228 1 15.61654349306408 20.611100714165325 2.0161836327070946 0 0 1
2441 1 3.701423431185108 0.889090676943927 9.835093012000963 1 0 -1
1278 1 10.595614696357226 18.560863265077852 15.409040586436948 0 0 0
936 1 11.30993264363248 4.4682147352188215 11.439908909759566 0 0 0
1153 1 10.410649410274072 2.5201038867688306 13.539847277540769 0 0 0
1203 1 13.351078509127163 2.311614169845281 10.603050490350768 0 0 0
2090 1 6.556984539396308 19.615978671493956 14.096258949319646 0 0 1
1911 1 0.7565910473862251 3.3553095794899463 10.186783526349625 1 0 0
2164 1 1.239097346753939 3.645671534661126 12.82492949800486 1 0 0
315 1 4.827387099263534 4.955554239105984 9.482503225294055 0 0 0
2018 1 5.667051614871799 2.512440633414701 10.679549477683095 1 0 0
1271 1 7.2961924538211695 4.54836457783348 11.817974483580484 0 0 0
268 1 9.257109358799925 6.2587199538242935 9.680665362037093 0 0 0
1081 1 11.56131896281608 5.881006592672118 13.953377532894994 0 0 0
200 1 0.8575690211047466 7.577661367208008 9.435214050434302 0 0 0
1053 1 3.6320825960553322 6.809516092690241 11.307585952506452 0 0 -1
1746 1 13.83377712534699 6.0348166772868295 11.082717844419768 0 1 0
1957 1 3.6940963625730148 9.47216661656502 11.308076454939412 1 0 0
1987 1 6.264328054801116 10.529376932479293 11.789733456815856 1 0 0
502 1 7.530907228354412 10.26744217140048 14.23123596379254 0 0 0
858 1 9.934839756769215 11.52910752144942 13.146856090333756 0 0 0
2007 1 14.21437119237599 7.759517862003014 13.337979323707367 0 0 0
1916 1 13.347545486176946 10.243440200246813 12.198514289905098 1 0 0
664 1 0.37561886135541644 11.565538676829982 9.601250412810892 0 0 0
1080 1 2.3744259235571263 13.129248075086817 13.819610026464042 0 0 0
1950 1 4.325697531424777 14.479220057025996 12.401933977331497 1 0 0
1377 1 6.320206505491159 12.965659426778425 10.381214381509928 0 1 0
2580 1 10.479184803742427 13.55999370915886 11.173165760675296 1 0 1
1929 1 13.22972424436158 15.264152079292343 11.052239994319967 1 0 0
1282 1 3.2073417607309844 16.763819310553227 11.204466649584855 1 0 1
1841 1 4.174296696159088 18.507934081211065 13.230331174586983 1 0 -1
1173 1 8.240661602754694 16.452714527603362 8.826580942262384 1 0 0
735 1 10.609034723118475 15.458328359127828 12.90595181769361 0 0 0
362 1 14.37780381582749 17.65622235914646 13.059926331033985 0 0 1
1506 1 1.6006263359105612 19.28797859911974 14.694066054553158 0 0 0
2553 1 2.803376746484839 20.75688049872246 11.358841482009773 1 0 1
321 1 2.640429328009968 3.742699883665009 16.409017518160695 0 0 1
2196 1 7.930696347483028 21.385979328243067 11.990362485750971 1 0 1
164 1 10.50547990650891 18.18937288509802 8.351979047594794 0 0 0
859 1 10.861919182296997 19.152992313093566 10.815353556187338 0 0 0
23 1 13.470284962375734 19.360753923302212 11.087580343730874 0 -1 1
193 1 4.576195946198296 21.628666249610106 15.690607865849303 0 0 0
1131 1 6.333861281425373 23.33587245884572 11.29667522125755 0 0 1
279 1 10.001474123419849 22.34649680221738 13.961653148615909 0 0 -1
238 1 12.20324290686518 22.544690722527793 11.985831280809233 0 0 0
64 1 15.05662710583459 21.36598879847074 12.679959436905037 0 0 0
1191 1 7.295974002530033 18.634304689852474 16.612382312832832 0 0 1
2633 1 0.48443712364358227 16.429330107084375 11.633821029278042 1 0 1
1279 1 4.367851180628147 1.378404089021612 15.959222328755132 0 0 1
673 1 16.13905634210242 0.3790241563910236 15.142810875720217 0 1 -1
1447 1 6.216954693347722 1.2581835562133294 13.289276356273156 1 1 0
1753 1 12.206419774918201 2.141209719666879 15.446670499462233 0 1 1
2672 1 6.9014784833393845 2.3321018257132837 8.089174377438185 0 1 0
1629 1 1.898613479389856 6.356121776167328 13.52357740111122 0 1 1
827 1 15.164405274619227 20.921353705349073 15.458193157521174 0 0 1
175 1 7.918420923826359 3.817802668002731 14.240121883858258 0 0 0
2308 1 9.401259840479078 5.679232676687023 15.703974344507685 1 1 0
2186 1 13.753818833959674 3.7941928958277167 14.490479860537421 0 0 2
597 1 5.988186445634189 6.752107308775891 12.912733814242474 0 1 0
1299 1 8.219710870427258 7.790311340650327 11.428742149432281 0 0 0
223 1 12.475897079582026 7.698507736056074 16.225608427791467 0 0 0
2223 1 14.831980329166777 24.491289800941924 5.523290660062053 0 0 1
1254 1 1.7298694724888064 10.268695897815663 13.12538206417963 1 0 0
1811 1 0.40825502494961086 1.2402007644561048 2.567407598782078 1 0 0
339 1 5.9253682718803535 16.034295604631605 1.2510655610567223 0 0 1
2131 1 11.971845778479366 10.432214773272912 15.226159236558734 1 0 0
1199 1 8.359975082629722 19.21030516387439 2.589117045658832 0 0 1
207 1 15.89072981184638 1.8014008699581898 8.508542339195035 0 0 1
1903 1 2.9468923822792874 13.891774596447581 16.596888022368802 1 0 -1
901 1 7.563886188850415 14.543583568549959 15.59967029920133 0 0 -1
2627 1 10.044808316721294 13.714934813522182 15.092335215203843 1 1 0
878 1 6.069753997634391 15.971276003934683 13.743381936855544 0 0 0
963 1 13.432207837388926 15.21875458708355 14.189929723175332 0 0 0
2561 1 0.501935847171025 16.65158341325318 15.571271487504788 1 0 0
549 1 3.579283488467142 16.53024367612813 15.148284427521423 0 0 1
818 1 0.21505281208354177 20.519459035005315 10.632885914564913 0 0 0
495 1 4.438627643179349 0.21920018291185037 4.403392829912107 0 1 0
1006 1 6.88606142479878 17.20438415168373 11.327921665593669 0 0 0
1522 1 9.215167221484545 18.049240076060066 12.87161478432558 0 0 0
2655 1 13.641244379082503 24.22719398500859 10.145805725100114 0 0 0
1316 1 8.193486949924402 22.06491445288954 1.395450859082337 0 0 2
2233 1 4.113822939034955 23.876924451847326 1.1371428835618753 1 0 1
2195 1 0.033827302371122414 14.924793455889947 9.512656997781844 1 0 1
1051 1 6.43624034225138 3.0073615847931596 16.545293530868566 1 0 0
2238 1 1.6017414560920733 11.80688839661167 0.40919050862860473 1 0 0
2096 1 7.432495381104642 11.592149818684923 0.7576340323519162 1 -1 -1
2264 1 2.57843082793602 3.933038174989008 20.97920067775184 1 1 -1
682 1 11.079381867197027 24.3644346905253 17.752072545929554 0 0 0
472 1 0.4001226813283714 24.131316867572977 19.514520947129046 0 0 0
1425 1 1.3523904892746186 0.5558257904780488 22.73280212214071 0 1 0
906 1 10.789317440920588 0.8497486156985842 19.265882026648733 0 1 -1
425 1 11.548413734242056 3.017053287747173 17.975147269619455 0 0 0
1370 1 0.929981613859488 16.06608200391614 18.383116377700293 1 0 0
124 1 4.908134804124146 4.690287443650675 19.91702634902488 0 0 0
180 1 15.229987149539033 24.23259861259519 20.32981912968962 0 0 0
1498 1 9.122821281766376 4.0239637507770745 18.09159930322724 0 1 0
121 1 13.263582755797268 6.096778833113345 18.40065662896848 0 0 -1
2474 1 6.184655899386904 6.01420583554084 17.452737266718124 1 1 0
372 1 1.2773433172110338 5.3611376523052 19.037418751993208 0 0 -1
1559 1 0.1075559667448957 23.181161171601627 24.216207531541027 0 1 0
286 1 2.3878701955602835 8.046304018985625 19.94459801325263 0 0 1
147 1 7.764130429609487 22.996913769135695 23.835918890607804 0 -1 0
208 1 0.4702407009880136 5.742782259206627 23.046737684547352 0 0 -1
1881 1 13.30943587241276 20.41306229264927 31.713961187061894 0 0 -1
2137 1 1.637768964999738 11.463839612515361 17.528283620314365 1 0 1
1306 1 5.546726799330289 13.827167436289336 19.990405640838812 0 0 0
1074 1 7.790880095573363 10.44099819521208 18.66018275155145 0 0 0
2158 1 10.579670112777448 10.231801102153062 18.075608004851375 1 0 -1
107 1 11.93262914653548 13.237948336051153 17.100049610815393 0 0 0
2017 1 7.276477923170447 15.960567276201001 20.9761221287646 1 0 1
919 1 9.786443610521019 15.871084618786302 19.608336996150545 0 0 -1
574 1 13.773803967398596 22.82289056022498 29.00483211092923 0 0 -1
2453 1 15.382212445202288 9.858760909596059 32.61037849298585 1 0 -1
1999 1 14.090470618610812 15.999359848200744 19.31395727691075 1 0 0
1955 1 15.044563209299438 13.14771899500691 18.45250448890662 1 -1 0
205 1 4.222313337009366 17.075352377502306 21.703454757030357 0 0 0
950 1 2.669448927984207 20.009722569152988 17.3913087841849 0 -1 -1
1162 1 3.5801010888401357 16.109187676760868 19.165260108324773 1 -1 1
371 1 6.574556543675027 18.567449428143437 19.6501843311855 1 0 0
945 1 9.161541548287607 19.380731134969512 20.503864905742287 0 0 0
2462 1 0.17191035181992476 13.047405538870658 28.189800924789296 1 1 0
970 1 10.38990511195952 13.075221796814631 19.68772093371576 0 0 0
335 1 0.9725089808108603 18.026887106880544 32.83852939984416 0 0 0
2255 1 1.52811616089448 20.937258542686173 19.8670716228558 0 0 1
1383 1 5.450204485248185 22.701036590582778 20.836992834611596 0 1 0
1834 1 14.58977978593266 3.1611259271338614 18.470436230048715 1 0 0
2431 1 12.419356952072171 19.172539466314756 18.14152545551559 1 0 0
2465 1 15.891331758369938 7.8085795424357665 26.1939715161854 1 1 0
2078 1 13.473274351659512 0.27648617336066617 24.703230047724762 1 0 -1
2116 1 4.078566960732302 22.934018691720205 18.302111982766856 1 0 1
2575 1 15.728094396775605 23.094401292608385 30.87798786808038 1 0 0
691 1 9.867351455569944 21.638191458625073 19.20011843358671 0 0 0
1031 1 14.35856200986106 20.875333226746136 19.216453791496736 1 0 0
2368 1 6.493592793843197 2.1534594381440137 19.669396916755726 1 1 -1
1037 1 8.31763932890593 1.8820921073397403 22.682877473131285 0 0 0
703 1 11.06611976587316 1.6342880421034713 21.81462191004169 0 1 0
1249 1 13.738200594450921 23.12416594202151 32.89667766561161 0 0 -1
1043 1 4.700193374577525 4.110809329828036 24.461645722842384 0 0 0
2404 1 5.494171508630422 2.5477730311610385 22.285477153621873 1 0 -1
2012 1 6.972476334653503 6.5717877313551245 23.79784814011231 0 1 0
932 1 8.239412568253716 5.236689116078911 20.459634219800183 1 0 0
2289 1 8.64213348745615 4.3063766856427055 23.17687071893045 1 1 -1
876 1 11.20474446190598 5.968086629948836 20.24909017485325 0 1 0
2330 1 14.728658569046102 0.2367971040988946 17.67422668170327 1 1 0
140 1 14.667476651436413 4.715549097763204 23.075134392897123 0 0 0
287 1 4.702217606861849 7.450326208652464 21.376683642215106 0 0 0
309 1 7.112929149466128 7.9271846897182145 19.855335464129634 0 0 0
1980 1 8.486594629227572 8.534986810081335 22.25121087675642 1 0 -1
1566 1 11.229537180321156 8.279906081964024 21.945183062401224 0 1 0
34 1 14.878417211977759 8.079985122014808 19.5350409574716 0 0 0
327 1 15.158142392868381 7.326757750870726 22.40677171951555 0 0 0
216 1 1.0341407216841556 11.647820623740976 20.478108282979765 0 0 -1
2543 1 15.768157098665592 12.845538712759593 22.551526617881184 0 0 -1
105 1 3.642534651331689 12.474198649996776 21.65002473724301 0 0 1
2508 1 7.03000061272953 11.251800529142953 22.893168642955974 1 0 0
1310 1 7.765050828179371 12.516658604987759 20.354392788295804 1 0 0
2365 1 12.667631773145294 9.67206226224712 19.845577145100517 0 0 0
367 1 3.3356010427374896 14.711347424511143 23.270767376663304 0 0 0
1298 1 11.371640219900264 13.07446983270082 22.579859542093462 1 0 0
2541 1 13.216137382316775 15.03315332861108 23.57344176382477 1 1 0
611 1 13.596758298391062 12.206920498761702 20.654281316087634 0 0 0
273 1 0.42406904517156685 18.719974713700676 27.20206193472541 0 0 0
2102 1 5.655486096917481 16.361721749738724 24.158269803184226 1 0 0
384 1 7.556589416726078 18.00179293719408 25.128837536783152 0 0 0
2337 1 15.79655577202721 15.797218976480549 21.862901184468843 0 0 -1
1604 1 15.357630767645725 18.539358154718826 23.023344572202735 1 0 0
872 1 1.778118134445035 18.536057285960993 22.1480303176142 0 0 0
1533 1 5.0260662753314636 19.756945401285446 21.61775962960584 0 1 0
1424 1 8.02857062410694 20.346469919833297 22.981958060309356 0 0 0
255 1 11.591163200294476 17.68573413979254 20.287384764628857 0 0 0
411 1 11.95777360243837 17.94029649423128 23.235852790735382 0 0 0
892 1 10.077445710515613 7.541179267766019 18.024771415424638 0 1 0
982 1 2.7909105892214514 22.28477524165119 22.144265107201356 0 0 0
860 1 5.336172938963305 19.90285570263233 24.748373734159998 0 0 0
2501 1 4.473377583323955 0.6028332176744364 18.509940889590084 1 1 0
2142 1 7.633975723284703 23.39003994697849 19.008531248660994 0 0 1
1235 1 10.551862635967298 20.389352655838362 23.666129004968216 0 0 1
1706 1 11.153392701450578 22.08463410926408 21.648228835746842 1 1 0
1161 1 14.166087790060226 22.07339604916008 21.851774189349538 0 0 1
880 1 3.212034013144645 2.9350469430087363 26.44297811514079 0 1 0
1674 1 3.403306321084022 0.053289159907361626 26.7837749210695 0 1 0
19 1 7.943614495491331 0.1102857467211863 24.699762927000936 0 1 0
1825 1 12.235813500216928 0.6546938031646756 27.312610032382263 1 0 0
810 1 16.2278546264428 0.8208035650536969 23.50532226381202 0 1 0
2040 1 6.971443610895645 4.935602450463524 26.19859574056987 1 0 -1
2133 1 11.245525939341503 4.585702052732449 23.493990318218593 0 0 0
1707 1 12.86068146197657 3.737650061318745 21.023137439158454 0 1 -1
1585 1 13.32340713679912 3.6847348503318007 25.600482041048593 0 1 0
2080 1 11.457024042477542 23.518165358890837 30.351130478921412 0 0 1
634 1 3.1684196732543612 6.402731154447844 23.90122582141685 0 1 -1
897 1 1.7284165357863877 8.904149652278617 22.88655311872415 0 -1 -1
2562 1 11.081224070748853 6.866833422947281 24.860779729193165 1 1 0
746 1 13.655969311634836 8.242163020566414 24.501865760741907 0 1 0
2536 1 3.645839579635515 11.985993934133019 25.47488964078846 2 0 -1
1196 1 4.336571941897591 10.375708853450273 23.170318280242803 1 0 0
2204 1 8.613572737428047 10.224772388889749 25.288610897257925 1 0 0
52 1 10.968126231888375 10.541653849088384 23.77425840834089 0 0 0
986 1 12.8022913530468 10.525106645839374 25.72658351747335 0 0 -2
2106 1 1.3282167020449822 13.60469282118407 25.86326701165047 1 0 0
2152 1 9.89970251576961 14.092423736490097 24.846439031578093 1 0 1
660 1 7.355744976755441 14.255782608535025 23.416101073339387 0 1 0
2628 1 12.880281818108543 15.402469444744376 26.584401263792532 1 1 -1
752 1 10.508406976668345 22.33201252678693 32.90205363195583 0 0 1
414 1 14.21826565729473 12.707785232955525 24.825555466387748 0 0 0
2407 1 4.382348337998383 17.69225294129194 26.502329925562243 1 0 -1
2294 1 5.697444255936402 17.28993300279889 29.156688715286748 1 0 -1
219 1 10.082556770472385 16.889909627329512 25.0354203556569 0 0 0
94 1 16.145764733676415 17.392908405650864 25.356074771807833 0 1 -1
2219 1 2.761427525595165 20.421542911337657 24.28465050137768 1 -1 0
2091 1 2.211281408478383 20.782135498038077 26.969059431233234 1 -1 0
852 1 5.489735870244432 20.730725555153082 28.050313340745152 0 0 0
403 1 7.526121209590958 18.9400159053165 27.721002057428628 0 0 0
1897 1 10.553754573213284 20.08268522563384 27.69228650028049 1 0 0
1412 1 13.9287957064568 19.963613456125007 25.70222703788173 1 1 -1
407 1 2.166692513610405 1.4127024929825889 19.44419667223214 0 0 1
1072 1 1.5375754252208251 23.42925898386674 26.6420275395325 0 0 0
1126 1 4.593007942222992 17.99707537042856 17.517998655614935 0 0 0
1194 1 5.9036256958329085 22.66766936014632 25.889960627439514 0 -1 0
702 1 11.75431107748085 21.754759762825767 25.76848623736605 0 1 0
1287 1 8.911592317289799 7.314832769110234 32.83773305838369 0 1 0
81 1 14.539368710970033 4.9453743102733565 32.35959955942091 0 0 0
570 1 16.05921449178282 17.912653285136248 17.346435532383403 0 0 0
1815 1 8.789851185911935 2.9012335397799407 26.071842164319293 1 0 -1
2354 1 1.7651130158105202 4.462121235326778 28.078102471674434 1 0 0
1065 1 10.544935133669288 2.8915641045259615 27.873564903629294 0 0 -1
768 1 11.434633876654928 5.612141575328602 27.23060949892521 0 0 0
1176 1 13.635707793578858 2.9438709281093813 29.18185597802514 0 0 -1
332 1 15.33929905069822 3.198075310192441 27.14983709832441 0 0 -1
809 1 2.2899475206585 6.933054610924399 26.50613985014495 0 1 0
2556 1 3.1551238570760405 9.694492917330436 27.130187575875148 1 0 -1
1996 1 8.654397053197226 7.753571075795379 25.964573387304554 0 0 0
2009 1 6.228203375794161 7.743750360586755 29.60809831494877 1 0 0
2272 1 12.294596982203595 9.41804294769028 28.68143131224898 0 1 -1
2176 1 14.914072253503768 8.76901556105556 28.43362321427464 1 0 -1
2110 1 0.505634660232555 10.627331382830175 29.172653966653442 1 0 0
435 1 5.496267481958013 13.758770269112247 26.29548192818404 0 0 -1
2149 1 6.8789969640641635 11.752345206885382 27.217527559941445 0 0 0
429 1 10.537958957099375 11.123819133921772 27.45829872846061 0 0 0
593 1 12.896883649016141 10.004292050180354 32.54164477898567 0 0 -1
2067 1 15.259001663128796 18.973392649519482 33.04843366122777 0 -1 -1
2060 1 4.748911873345682 14.833294759406147 28.616336971434624 1 0 0
1008 1 7.780123234661907 13.511902823791047 29.391197964956728 1 0 0
126 1 10.245096606958072 13.894639098396809 28.002564788593254 0 0 -1
1523 1 11.592574037908168 18.066199947676296 30.161962497950412 0 0 0
360 1 14.713397448646406 13.250295151651558 30.303388217394083 0 0 0
480 1 16.061074731134287 2.751214280967164 30.657172085351736 0 1 -1
1619 1 1.7455639989822678 16.411734115525174 27.11604265883931 0 0 0
1587 1 2.0554026112655768 15.239913692204377 29.482797886625566 0 0 0
492 1 3.2400158462689617 17.726194227285337 30.80784988777229 0 0 0
2419 1 8.152237295332116 16.59207830665396 30.173715252950156 1 0 -1
37 1 10.161324186200666 17.152425358485075 27.941697921963254 0 0 0
1966 1 16.17826471691142 0.6128326907232802 26.75818450100064 0 0 0
1019 1 15.526473956546965 15.684041506247121 31.902572586995678 0 0 -1
1331 1 5.0486449234170365 22.27433647753193 30.808757100915205 0 -1 -1
2576 1 2.701556248475034 20.310942700613992 29.859376183490244 1 0 0
798 1 9.428266282280772 21.483292033920286 29.99485393557525 0 0 0
922 1 14.529050223053014 17.565007708403286 27.587547840450696 1 0 -1
1356 1 1.8984720065672323 23.164087692849375 30.88799439418952 0 0 0
2560 1 1.3279709322460693 3.2359309346025213 24.06613552122965 1 1 0
2676 1 11.008889441347101 16.514850312310248 32.62087725667396 1 1 0
1953 1 7.177244565289727 23.02690775090972 29.22545378367889 1 0 -1
1439 1 1.9640960400017018 1.0259501521831214 32.02711989153102 0 1 -1
651 1 13.435107846994288 20.006961470285738 28.7051246074418 0 0 -1
807 1 16.189194049693423 20.92627490902555 26.427498555515697 0 0 1
678 1 15.09980001475763 13.525393976652119 27.264975734820545 0 0 1
1683 1 4.292479222325377 1.8635562862209738 30.892589490247666 0 1 -1
652 1 9.398925111819944 1.7199170320826356 30.311216842208122 0 1 -1
1679 1 9.919832931821485 0.08848644105442623 33.315561940665305 0 1 -1
1422 1 12.106106648770785 1.44547331494805 31.185440540621368 1 0 -2
589 1 13.498283968657354 2.521397931115795 33.49679841907807 0 1 -2
2614 1 3.1494844995718063 5.972682460339366 32.02848688566876 1 0 0
2254 1 3.919623238175952 4.482380601780159 29.96688657355657 1 0 0
2055 1 6.48496456756357 4.991344900648055 29.21362610052802 1 0 0
1856 1 7.822650843653283 3.530002134024706 31.439898473074415 1 0 0
992 1 12.307095746073784 6.245854979055276 31.631409726918434 0 1 0
792 1 0.34832395329514976 24.485831330817167 28.927246080516912 0 1 1
2660 1 13.670189182468528 5.843599139949273 29.01369049158812 1 1 0
2326 1 0.5506330572742607 5.384274233139645 30.744874471585106 1 0 0
1169 1 4.247453477812203 8.600575000968146 31.541138905131156 0 0 0
262 1 5.073997568928219 10.312424904690427 28.837099830858154 1 0 -1
428 1 8.45692438688391 8.624117775312277 30.646004622163712 0 0 0
1111 1 10.875843012408895 7.427157539161414 29.6977932091882 1 0 -1
607 1 2.522415970798032 10.866241556301299 31.14756032380003 1 0 0
1389 1 4.662588658188531 12.79262332127658 30.40449906910223 0 0 0
2316 1 9.31389833756718 11.415711169396108 30.32497314606435 1 0 -1
1321 1 12.359885800553524 11.704939655056883 30.471039835952737 0 0 -1
44 1 10.0426871858533 12.123442059369912 33.06273316168557 0 0 0
1180 1 8.739793840765143 1.0732740436608041 17.063915451402707 0 0 1
2074 1 5.707527928156029 13.614011866024663 32.83580229224044 1 0 -1
1557 1 8.280666783163362 14.508118314716363 32.340190189635635 0 1 -1
196 1 12.124299877872268 14.995722027370224 29.701742039502477 0 0 -1
920 1 0.33057968141899086 20.557420919855325 32.158476281283164 0 0 0
572 1 10.12959780804467 4.765278628335148 32.12296101191079 0 0 -2
819 1 4.5704973246455 18.22902236272751 33.250230794635314 0 0 0
2548 1 0.8439869226701502 16.03956007591664 22.87783910318215 1 0 1
4 1 8.655209468958994 19.428136698060168 31.838507547753977 0 0 -1
73 1 0.03454811865314356 8.387567023282484 27.253872106908023 0 0 0
1525 1 6.221021420124046 1.8462493215999758 33.338161071910285 0 1 -1