LAMMPS data file via write_data, version 29 Oct 2020, timestep = 150000

4514 atoms
2 atom types

0.0 49.22 xlo xhi
0.0 49.019635930410494 ylo yhi
2.061576080008553 31.878423919991896 zlo zhi

Masses

1 18.015
2 12.01

Atoms # atomic

2671 1 2.2870045995029447 11.478368443143815 6.559379940486776 1 -1 0
156 2 12.305 21.312885187135 14.024159075218135 0 0 0
1573 1 10.592687088742323 6.221574779432602 3.40349167840985 1 1 1
4207 1 4.051283424613031 16.58400161679366 2.554846914311629 0 1 1
86 2 15.996500000000003 22.023314693372832 14.024159075218135 0 0 0
4177 1 14.344254208193787 4.0987362342399125 4.960789810153811 1 1 2
4217 1 15.653237066253203 1.5447040414187223 11.283669930776513 1 1 1
3093 1 6.386925339256606 5.743289873544418 3.77968801634659 1 -1 -1
3181 1 7.324376053930724 3.735211035961472 2.09523821152957 1 0 0
83 1 9.413669412947955 3.456351939223812 3.8434644694566416 1 1 1
88 1 1.6038784831162944 7.881596740722733 2.7050124015307664 1 1 0
112 1 0.22116730148663866 7.641095835569348 8.65551663218223 0 1 1
1693 1 14.756368599505956 18.5027514163844 8.351873979747646 0 0 0
120 1 14.457103292737832 10.376519594448668 6.527338294975173 0 0 0
3478 1 0.6607178800328772 10.216090589225939 4.736116160397193 1 1 1
4203 1 7.327884890251609 11.888211838313435 3.5433412622480907 0 0 1
1150 1 11.43139827303147 10.612627878585545 5.841546916305468 0 -1 1
1 2 15.996499999999997 23.44417370584849 14.024159075218135 0 0 0
1138 1 2.3751157824048468 15.504024132262229 11.170533526853331 0 0 1
874 1 15.773421526852836 9.077929157619705 4.3556349341599665 1 0 0
3891 1 2.8291141713130132 12.56640135660722 11.284647401196798 0 0 1
4152 1 2.7757226844692995 18.860093484248505 3.5041101654416176 1 0 0
445 1 9.087747626436014 4.261536752600708 7.9286795741097045 1 0 0
885 1 5.817469933052195 12.14202000668399 7.216644920736255 1 1 1
2349 1 16.02655824152384 4.964252014552071 9.09593212621927 0 1 0
3856 1 9.209575006477476 13.589430931445435 2.568557665843291 0 0 1
3364 1 11.123558762541936 11.562794214956382 3.292187541311428 0 0 1
113 2 14.766000000000002 24.154603212086325 14.024159075218135 0 0 0
1227 1 13.285009141757522 13.235866022356461 3.6067234386864593 0 -1 1
1112 1 1.65788160645038 4.14716426036757 11.66777307037711 0 1 1
803 1 13.593922949126972 0.6469122339385518 4.200378902134159 0 1 1
3086 1 14.86767275723017 17.081760880995734 3.9314612588508746 0 1 0
3451 1 15.228705798604784 15.612208938165043 11.721671096640979 1 1 1
879 1 13.839278393052158 6.709150697132478 4.609779057080977 0 0 0
3917 1 4.087157128370913 21.183467071165897 2.633065567880017 1 0 0
1684 1 6.597162840826039 17.300274320450445 3.542316069822509 1 0 1
2374 1 7.465209205502022 1.733711935756511 10.927917885428016 0 -1 1
3459 1 2.577105684150636 0.08900538122474108 8.49567287852252 1 1 1
161 1 8.562833336431636 15.439056701398025 4.637400451384879 0 0 0
419 1 10.899756044163894 23.786262330709963 6.249567972561976 0 1 1
1939 1 12.62226695139251 21.15861251152174 5.189065334425841 0 0 1
2678 1 1.9951668437145946 21.38867200583897 11.783693528668124 1 0 1
155 2 13.5355 22.023314693372832 14.024159075218135 0 0 0
3931 1 0.17880211318875042 19.12644856426103 8.532266234200831 0 -1 0
913 1 6.939326570458034 0.021338366541158393 6.510319248492187 2 1 0
420 1 16.260790425773138 13.09102544928749 3.7931678732388416 0 0 2
3148 1 1.8558056201045505 15.054805852804167 8.382983091888214 0 0 1
51 1 10.232685568173936 19.099509367974978 3.3107441766681287 -1 1 0
3087 1 5.6663307025942675 0.6284278198668564 8.971364807713705 0 0 0
925 1 10.466988836989096 23.082314252756884 3.2165236639472035 1 -1 0
1577 1 2.1937937189455123 6.4417110262508 6.7499804658603155 1 0 0
807 1 0.6714081427113963 2.3204826117961344 5.082650022002994 0 1 -1
4128 1 14.782084646660024 11.293015144272836 11.530637060896716 1 0 -1
2733 1 4.716203286579565 3.1172270630394023 8.152214922331801 1 1 1
836 1 11.296889804468144 7.617494383112272 5.909853522227502 0 0 1
910 1 11.546103843409812 5.578859140504608 8.159159317882548 1 0 0
3127 1 6.556416139142856 21.64915334963827 3.488245078637677 -1 -1 0
329 1 4.247509737949731 8.01425492224541 6.184284003530707 0 0 1
944 1 0.09806962935664898 12.64296964187975 8.105398683768705 0 1 0
82 1 9.213201742372341 1.8516386877278024 6.4112268224693345 1 0 -1
3432 1 6.200896802615031 7.733237035645402 8.27957389484893 0 0 1
2445 1 6.4472233190060235 5.237542608374695 6.910072939914782 1 0 1
2397 1 10.108206561972953 8.642385768033776 8.81117509051058 0 1 1
3092 1 13.497936609668077 3.8298232659072853 7.6903193377094246 -1 1 0
3815 1 7.317690759784836 9.629510966617199 11.047624248669905 0 1 0
2600 1 8.088516425556783 11.634532810429048 6.296570372222434 2 0 1
1979 1 11.794245812276024 11.697449084605282 8.509967652398899 0 0 0
139 1 13.081449945246295 8.321116526612654 8.415835161438764 1 0 -1
353 1 3.430672570661743 9.756741224429911 3.901692267055175 0 0 1
1690 1 4.025443345021983 13.47414883440317 5.244562232527985 1 1 1
344 1 9.766379971279928 8.4799015294391 11.650899355586116 1 0 0
3166 1 9.294674573701664 13.076209077452509 8.296121288733708 -1 0 0
1703 1 12.009704573519855 17.011040720660908 7.311161566062221 0 1 0
1598 1 1.5371118241928927 21.09724650242826 5.45428292922764 1 0 0
1643 1 14.549346111370093 13.209002872736455 6.223791898307545 0 0 0
2338 1 13.24604628045128 14.595614040650222 8.315492818324042 0 1 1
327 1 1.9226807466407847 17.249030191070975 6.949982474658154 0 0 1
1663 1 4.765071434254485 16.353829065103977 5.741064419514283 0 1 1
1702 1 9.532833051603461 15.65219454068532 7.499159278834951 1 0 0
1969 1 7.356714867777548 17.186336762426933 7.0837927349225405 1 0 1
4148 1 12.816103317804037 15.590132307506941 2.4775023906699554 0 0 1
2606 1 10.721753813248922 19.547238562542322 8.3329199057324 1 0 0
4120 1 16.063102501554415 15.50419377024375 9.08684753357822 1 0 1
394 1 3.078989224121004 23.36263757631652 4.594559510919579 1 0 1
1559 1 11.72442884832448 0.18722243890159682 6.160848326355775 0 1 0
934 1 4.880949402525052 19.822915361288473 9.222572128248338 0 0 1
13 1 9.010637991113647 24.150723624542113 8.278630367096042 1 0 1
2313 1 11.213485066354782 16.725938964790085 4.502853522822228 0 0 1
408 1 9.724683839680736 20.76373542597595 5.678278939488565 0 -1 2
3096 1 8.092395836738659 19.674395316491157 9.066056878056877 1 1 0
2744 1 4.322236924127308 23.01394607820643 8.75777456518902 1 0 1
1097 1 14.650173289547785 19.19520422933192 5.5716056951089135 0 0 1
3390 1 12.709478453791576 3.2430146187820013 2.810607683938244 0 1 1
1960 1 8.364806177375847 8.884907512548994 6.7791202488048645 0 0 1
472 1 1.9879943377639495 21.118675647270955 8.63482497196976 1 1 1
4179 1 16.3467390604767 1.631457745280125 7.246165535927168 0 1 1
460 1 8.155017028616577 24.103950722139952 11.467439660105605 0 1 1
1182 1 8.359909935410391 7.696633650712905 4.176404028526227 0 1 0
4084 1 14.131292828973667 22.453135971545617 3.0616111752369797 -1 1 1
3417 1 12.234775747674327 22.132091549132273 8.42938999242135 0 0 1
906 1 1.3128808870596507 18.667081288268573 11.095632090041672 1 1 0
413 1 16.204648740037605 1.384178596216353 4.318689504345986 1 1 1
373 1 14.699128994246824 21.19166560647711 9.281250743364431 1 2 0
3381 1 16.3765041518647 7.8099770824268635 11.210901010522166 -1 1 1
2337 1 12.113552123919343 2.172568541317351 11.204679377556799 0 1 0
4175 1 3.237974274024184 5.459112553856537 9.300164355222499 0 1 1
2640 1 0.8405326336818617 5.124587604534621 4.57702710728055 1 1 0
4119 1 0.0810965600686051 11.702689692047533 2.3351823388385795 0 0 1
3163 1 4.003282402092715 2.715624963893306 11.301411010470392 0 0 1
1694 1 5.5527264777106815 6.828734316008826 11.196560408619487 1 1 0
18 1 9.778612849715087 3.637946347329611 10.68257940125554 0 0 1
802 1 11.952331307624766 6.006411677091463 11.095530346353195 0 2 0
2692 1 13.540301686121012 8.21469673535486 10.928698108371254 1 1 1
3483 1 14.109643459421491 4.376588720467016 11.24866870500093 1 0 1
3455 1 3.6187970498848387 5.821757503007526 3.036459271611911 0 -1 1
385 1 4.253638355152595 10.208738859381112 7.99744872579479 1 0 0
3846 1 6.4101163013433675 4.329784382691312 11.803069832273952 1 1 0
3342 1 7.84520119151148 12.267108788640739 10.547231834416399 0 0 2
320 1 11.855502540054685 10.42952801310622 11.20867131033195 0 1 0
4212 1 3.9594529186644194 19.304923569752017 6.438413514329165 1 0 1
403 1 4.000690559536043 10.114462400664937 10.808190249502177 0 -1 0
1195 1 2.573084934599049 7.667758304567173 11.171843168197615 0 0 1
4162 1 3.2561067889316107 1.7313205281713615 5.789458610840354 -1 1 0
3184 1 5.711737077864876 13.921654098660678 11.631106767625328 0 0 0
4117 1 9.63635212774398 15.604127254989645 10.441994799558252 1 1 1
1185 1 10.229995645768723 12.900614111324057 11.454184206814807 1 0 1
1700 1 13.215393868811363 13.695929191415496 11.07144260579274 0 0 0
2605 1 4.706157110503739 12.22822695370409 2.8186694279017663 0 1 2
3920 1 4.614450376623342 13.86862740315334 9.084760055093128 0 0 0
3058 1 7.350278183471668 16.19633471781674 11.664974282212665 2 0 0
2712 1 11.301549467529615 18.182930412884524 10.900456631769481 1 -1 1
377 1 0.9975553692003135 16.84461679115417 4.4378439607208335 0 1 0
101 2 14.765999999999998 21.312885187135 14.024159075218135 0 0 0
837 1 4.222308908211943 18.089290312154947 11.51228927510489 0 1 1
2670 1 5.626072601140948 16.53881776603981 9.193391744747501 0 0 0
877 1 9.76375959234854 20.583956674316912 11.465895707006284 0 -1 0
847 1 13.965174371480687 17.92190711391052 11.465649676232324 0 0 1
1116 1 16.107159485014684 20.020733441844126 11.657414642630764 0 0 1
1952 1 4.472311425031961 22.747025217708803 11.270561674877385 0 0 0
1674 1 6.899520271121432 21.63001658146021 11.359255101134435 0 1 -1
2403 1 10.799727174937296 23.318850213692794 10.6634017410055 1 0 0
900 1 13.295906837472767 22.345387350168487 11.742283398508835 1 0 0
163 2 0.0 2.8417180249513345 14.024159075218135 0 0 0
164 2 0.0 0.0 14.024159075218135 0 0 0
165 2 1.2305000000000001 0.7104295062378347 14.024159075218135 0 0 0
169 2 1.2305000000000001 2.1312885187135 14.024159075218135 0 0 0
170 2 2.4610000000000003 2.8417180249513345 14.024159075218135 0 0 0
171 2 2.4610000000000003 0.0 14.024159075218135 0 0 0
172 2 3.6915000000000004 0.7104295062378347 14.024159075218135 0 0 0
180 2 3.6914999999999996 2.1312885187135 14.024159075218135 0 0 0
181 2 4.922000000000001 2.841718024951333 14.024159075218135 0 0 0
182 2 4.922000000000001 0.0 14.024159075218135 0 0 0
183 2 6.1525 0.7104295062378341 14.024159075218135 0 0 0
195 2 6.1525 2.131288518713499 14.024159075218135 0 0 0
196 2 7.382999999999999 2.8417180249513345 14.024159075218135 0 0 0
197 2 7.382999999999999 0.0 14.024159075218135 0 0 0
198 2 8.613499999999998 0.7104295062378341 14.024159075218135 0 0 0
214 2 8.613499999999998 2.1312885187135002 14.024159075218135 0 0 0
215 2 9.844000000000001 2.841718024951333 14.024159075218135 0 0 0
216 2 9.844000000000001 0.0 14.024159075218135 0 0 0
217 2 11.074500000000002 0.7104295062378333 14.024159075218135 0 0 0
237 2 11.074500000000002 2.1312885187135002 14.024159075218135 0 0 0
238 2 12.305 2.841718024951333 14.024159075218135 0 0 0
239 2 12.305 0.0 14.024159075218135 0 0 0
240 2 13.5355 0.7104295062378352 14.024159075218135 0 0 0
261 2 13.5355 2.1312885187134984 14.024159075218135 0 0 0
262 2 14.765999999999998 2.841718024951335 14.024159075218135 0 0 0
263 2 14.765999999999998 0.0 14.024159075218135 0 0 0
264 2 15.996500000000003 0.7104295062378352 14.024159075218135 0 0 0
285 2 15.996500000000003 2.1312885187135002 14.024159075218135 0 0 0
167 2 0.0 4.262577037427 14.024159075218135 0 0 0
168 2 1.2305000000000001 4.973006543664834 14.024159075218135 0 0 0
176 2 1.2305000000000001 6.393865556140498 14.024159075218135 0 0 0
178 2 2.4610000000000003 4.262577037427 14.024159075218135 0 0 0
179 2 3.6914999999999996 4.973006543664834 14.024159075218135 0 0 0
191 2 3.6914999999999996 6.393865556140498 14.024159075218135 0 0 0
193 2 4.922000000000001 4.262577037426998 14.024159075218135 0 0 0
194 2 6.1525 4.973006543664834 14.024159075218135 0 0 0
210 2 6.1525 6.393865556140498 14.024159075218135 0 0 0
212 2 7.382999999999999 4.262577037427 14.024159075218135 0 0 0
213 2 8.6135 4.973006543664834 14.024159075218135 0 0 0
233 2 8.6135 6.393865556140498 14.024159075218135 0 0 0
235 2 9.844000000000001 4.2625770374270004 14.024159075218135 0 0 0
236 2 11.074500000000002 4.973006543664834 14.024159075218135 0 0 0
257 2 11.074500000000002 6.393865556140498 14.024159075218135 0 0 0
259 2 12.305 4.262577037426998 14.024159075218135 0 0 0
260 2 13.5355 4.973006543664834 14.024159075218135 0 0 0
281 2 13.5355 6.393865556140498 14.024159075218135 0 0 0
283 2 14.766000000000002 4.262577037426998 14.024159075218135 0 0 0
284 2 15.996499999999997 4.973006543664834 14.024159075218135 0 0 0
302 2 15.996500000000003 6.393865556140498 14.024159075218135 0 0 0
166 2 0.0 7.104295062378334 14.024159075218135 0 0 0
174 2 0.0 8.525154074854 14.024159075218135 0 0 0
175 2 1.2305000000000001 9.235583581091834 14.024159075218135 0 0 0
177 2 2.4610000000000003 7.104295062378334 14.024159075218135 0 0 0
189 2 2.4610000000000003 8.525154074854 14.024159075218135 0 0 0
190 2 3.6915000000000004 9.235583581091834 14.024159075218135 0 0 0
192 2 4.922000000000001 7.104295062378334 14.024159075218135 0 0 0
208 2 4.922000000000001 8.525154074854 14.024159075218135 0 0 0
209 2 6.1525 9.235583581091834 14.024159075218135 0 0 0
211 2 7.383000000000001 7.104295062378334 14.024159075218135 0 0 0
231 2 7.383000000000001 8.525154074854 14.024159075218135 0 0 0
232 2 8.613499999999998 9.235583581091834 14.024159075218135 0 0 0
234 2 9.844000000000001 7.104295062378334 14.024159075218135 0 0 0
255 2 9.844000000000001 8.525154074853996 14.024159075218135 0 0 0
256 2 11.074500000000002 9.235583581091834 14.024159075218135 0 0 0
258 2 12.305 7.104295062378334 14.024159075218135 0 0 0
279 2 12.305 8.525154074854 14.024159075218135 0 0 0
280 2 13.5355 9.235583581091829 14.024159075218135 0 0 0
282 2 14.765999999999998 7.104295062378331 14.024159075218135 0 0 0
300 2 14.765999999999998 8.525154074854 14.024159075218135 0 0 0
301 2 15.996500000000003 9.235583581091836 14.024159075218135 0 0 0
173 2 0.0 11.366872099805333 14.024159075218135 0 0 0
185 2 0.0 12.787731112280996 14.024159075218135 0 0 0
186 2 1.2305000000000001 13.49816061851883 14.024159075218135 0 0 0
187 2 1.2305000000000001 10.656442593567498 14.024159075218135 0 0 0
188 2 2.4610000000000003 11.366872099805333 14.024159075218135 0 0 0
204 2 2.4610000000000003 12.787731112280996 14.024159075218135 0 0 0
205 2 3.6915000000000004 13.49816061851883 14.024159075218135 0 0 0
206 2 3.6914999999999996 10.6564425935675 14.024159075218135 0 0 0
207 2 4.922000000000001 11.366872099805333 14.024159075218135 0 0 0
227 2 4.922000000000001 12.787731112280996 14.024159075218135 0 0 0
228 2 6.152499999999999 13.49816061851883 14.024159075218135 0 0 0
229 2 6.1525 10.6564425935675 14.024159075218135 0 0 0
230 2 7.382999999999999 11.366872099805333 14.024159075218135 0 0 0
251 2 7.382999999999999 12.787731112280996 14.024159075218135 0 0 0
252 2 8.6135 13.498160618518835 14.024159075218135 0 0 0
253 2 8.613499999999998 10.656442593567498 14.024159075218135 0 0 0
254 2 9.844000000000001 11.366872099805333 14.024159075218135 0 0 0
275 2 9.844000000000001 12.787731112280996 14.024159075218135 0 0 0
276 2 11.074500000000002 13.49816061851883 14.024159075218135 0 0 0
277 2 11.074500000000002 10.656442593567498 14.024159075218135 0 0 0
278 2 12.304999999999998 11.366872099805333 14.024159075218135 0 0 0
296 2 12.305 12.787731112280996 14.024159075218135 0 0 0
297 2 13.5355 13.498160618518835 14.024159075218135 0 0 0
298 2 13.5355 10.6564425935675 14.024159075218135 0 0 0
299 2 14.765999999999998 11.366872099805333 14.024159075218135 0 0 0
313 2 14.765999999999998 12.787731112280996 14.024159075218135 0 0 0
314 2 15.996500000000003 13.498160618518835 14.024159075218135 0 0 0
315 2 15.996499999999997 10.6564425935675 14.024159075218135 0 0 0
184 2 0.0 15.629449137232333 14.024159075218135 0 0 0
200 2 0.0 17.050308149708 14.024159075218135 0 0 0
202 2 1.2305000000000001 14.919019630994494 14.024159075218135 0 0 0
203 2 2.4610000000000003 15.629449137232328 14.024159075218135 0 0 0
223 2 2.4610000000000003 17.050308149708 14.024159075218135 0 0 0
225 2 3.6915000000000004 14.919019630994494 14.024159075218135 0 0 0
226 2 4.922000000000001 15.629449137232333 14.024159075218135 0 0 0
247 2 4.922000000000001 17.050308149708 14.024159075218135 0 0 0
249 2 6.152499999999999 14.919019630994494 14.024159075218135 0 0 0
250 2 7.382999999999999 15.629449137232333 14.024159075218135 0 0 0
271 2 7.383000000000001 17.050308149708 14.024159075218135 0 0 0
273 2 8.6135 14.919019630994494 14.024159075218135 0 0 0
274 2 9.844000000000001 15.629449137232328 14.024159075218135 0 0 0
292 2 9.844000000000001 17.050308149708 14.024159075218135 0 0 0
294 2 11.074500000000002 14.919019630994494 14.024159075218135 0 0 0
309 2 12.304999999999998 17.050308149708 14.024159075218135 0 0 0
141 2 15.996500000000003 14.9190196309945 14.024159075218135 0 0 0
149 2 14.766000000000002 17.050308149708 14.024159075218135 0 0 0
295 2 12.305 15.629449137232333 14.024159075218135 0 0 0
311 2 13.5355 14.919019630994494 14.024159075218135 0 0 0
312 2 14.766000000000002 15.629449137232333 14.024159075218135 0 0 0
199 2 0.0 19.89202617465933 14.024159075218135 0 0 0
201 2 1.2305000000000001 17.76073765594583 14.024159075218135 0 0 0
221 2 1.2305000000000001 19.181596668421495 14.024159075218135 0 0 0
222 2 2.4610000000000003 19.89202617465933 14.024159075218135 0 0 0
224 2 3.6914999999999996 17.76073765594583 14.024159075218135 0 0 0
245 2 3.6914999999999996 19.181596668421495 14.024159075218135 0 0 0
246 2 4.922000000000001 19.89202617465933 14.024159075218135 0 0 0
248 2 6.1525 17.76073765594583 14.024159075218135 0 0 0
269 2 6.1525 19.181596668421495 14.024159075218135 0 0 0
270 2 7.382999999999999 19.89202617465933 14.024159075218135 0 0 0
272 2 8.613499999999998 17.76073765594583 14.024159075218135 0 0 0
290 2 8.6135 19.181596668421495 14.024159075218135 0 0 0
291 2 9.844000000000001 19.892026174659335 14.024159075218135 0 0 0
293 2 11.074500000000002 17.760737655945835 14.024159075218135 0 0 0
307 2 11.074500000000002 19.181596668421495 14.024159075218135 0 0 0
30 2 15.996500000000003 19.181596668421495 14.024159075218135 0 0 0
146 2 15.996500000000003 17.76073765594583 14.024159075218135 0 0 0
151 2 14.766000000000002 19.89202617465933 14.024159075218135 0 0 0
153 2 13.5355 19.181596668421495 14.024159075218135 0 0 0
308 2 12.305000000000005 19.892026174659335 14.024159075218135 0 0 0
310 2 13.5355 17.760737655945835 14.024159075218135 0 0 0
218 2 0.0 24.154603212086325 14.024159075218135 0 0 0
219 2 0.0 21.312885187135 14.024159075218135 0 0 0
220 2 1.2304999999999993 22.023314693372832 14.024159075218135 0 0 0
241 2 1.2304999999999993 23.4441737058485 14.024159075218135 0 0 0
242 2 2.4610000000000003 24.154603212086325 14.024159075218135 0 0 0
243 2 2.4610000000000003 21.312885187134995 14.024159075218135 0 0 0
244 2 3.6914999999999996 22.023314693372832 14.024159075218135 0 0 0
265 2 3.6915000000000004 23.4441737058485 14.024159075218135 0 0 0
287 2 7.383000000000001 24.154603212086336 14.024159075218135 0 0 0
267 2 4.922000000000001 21.312885187134995 14.024159075218135 0 0 0
286 2 6.1525 23.4441737058485 14.024159075218135 0 0 0
288 2 7.382999999999999 21.312885187135 14.024159075218135 0 0 0
266 2 4.922000000000001 24.154603212086325 14.024159075218135 0 0 0
268 2 6.152499999999999 22.023314693372832 14.024159075218135 0 0 0
316 2 11.074500000000002 23.4441737058485 14.024159075218135 0 0 0
306 2 11.074500000000002 22.023314693372832 14.024159075218135 0 0 0
289 2 8.6135 22.023314693372832 14.024159075218135 0 0 0
304 2 9.844000000000001 24.154603212086336 14.024159075218135 0 0 0
305 2 9.844000000000001 21.312885187135 14.024159075218135 0 0 0
303 2 8.613499999999998 23.4441737058485 14.024159075218135 0 0 0
317 2 12.305 24.154603212086325 14.024159075218135 0 0 0
121 2 13.5355 23.4441737058485 14.024159075218135 0 0 0
2430 1 2.3661842262218618 14.461523035712835 3.0057722995142417 1 0 0
2729 1 6.9702014810182265 19.743195611901832 5.663316042411081 0 -1 1
430 1 13.899100882048181 1.5509751562071161 9.264110440898428 0 0 1
65 1 6.935614765134268 22.068117649200023 7.823283837748778 -1 0 0
3402 1 3.4239585065639258 2.8720674172949554 3.0293201327042585 1 0 1
3889 1 15.865184378732136 3.597063397952063 2.0756005068095997 -1 1 1
128 1 5.66189433427711 1.3178197741539825 2.5916276392160054 2 0 0
1903 1 0.07626377623787443 1.7428477383421832 11.708840541184001 2 1 0
399 1 8.50801325731379 0.23315590138351114 3.05262029893656 1 0 1
17 1 5.62897661875909 23.49400832891962 5.744238120933565 0 -1 1
1894 1 16.250172213575247 6.242809264527484 2.808821636285537 0 1 0
1626 1 15.940657391350037 7.597129055546964 8.17207806719296 0 0 0
3910 1 0.7167757085350205 0.8749665730767314 2.0737046440762157 1 0 0
477 2 0.0 1.420859012475665 17.024569175953445 0 0 0
478 2 0.0 0.0 17.024569175953445 0 0 0
482 2 1.2305000000000001 2.1312885187135 17.024569175953445 0 0 0
483 2 2.4610000000000003 1.420859012475665 17.024569175953445 0 0 0
484 2 2.4610000000000003 0.0 17.024569175953445 0 0 0
492 2 3.6914999999999996 2.1312885187135 17.024569175953445 0 0 0
638 2 0.0 2.8417180249513345 20.02497927668693 0 0 0
639 2 0.0 0.0 20.02497927668693 0 0 0
640 2 1.2305000000000001 0.7104295062378347 20.02497927668693 0 0 0
644 2 1.2305000000000001 2.1312885187135 20.02497927668693 0 0 0
645 2 2.4610000000000003 2.8417180249513345 20.02497927668693 0 0 0
646 2 2.4610000000000003 0.0 20.02497927668693 0 0 0
647 2 3.6915000000000004 0.7104295062378347 20.02497927668693 0 0 0
655 2 3.6914999999999996 2.1312885187135 20.02497927668693 0 0 0
493 2 4.922000000000001 1.420859012475665 17.024569175953445 0 0 0
494 2 4.922000000000001 0.0 17.024569175953445 0 0 0
506 2 6.1525 2.131288518713499 17.024569175953445 0 0 0
507 2 7.382999999999999 1.420859012475666 17.024569175953445 0 0 0
508 2 7.382999999999999 0.0 17.024569175953445 0 0 0
656 2 4.922000000000001 2.841718024951333 20.02497927668693 0 0 0
657 2 4.922000000000001 0.0 20.02497927668693 0 0 0
658 2 6.1525 0.7104295062378341 20.02497927668693 0 0 0
670 2 6.1525 2.131288518713499 20.02497927668693 0 0 0
671 2 7.382999999999999 2.8417180249513345 20.02497927668693 0 0 0
672 2 7.382999999999999 0.0 20.02497927668693 0 0 0
524 2 8.613499999999998 2.1312885187135002 17.024569175953445 0 0 0
525 2 9.844000000000001 1.420859012475666 17.024569175953445 0 0 0
526 2 9.844000000000001 0.0 17.024569175953445 0 0 0
546 2 11.074500000000002 2.1312885187135002 17.024569175953445 0 0 0
673 2 8.613499999999998 0.7104295062378341 20.02497927668693 0 0 0
689 2 8.613499999999998 2.1312885187135002 20.02497927668693 0 0 0
690 2 9.844000000000001 2.841718024951333 20.02497927668693 0 0 0
691 2 9.844000000000001 0.0 20.02497927668693 0 0 0
692 2 11.074500000000002 0.7104295062378333 20.02497927668693 0 0 0
712 2 11.074500000000002 2.1312885187135002 20.02497927668693 0 0 0
547 2 12.305 1.420859012475665 17.024569175953445 0 0 0
548 2 12.305 0.0 17.024569175953445 0 0 0
569 2 13.5355 2.1312885187134984 17.024569175953445 0 0 0
570 2 14.765999999999998 1.420859012475665 17.024569175953445 0 0 0
571 2 14.765999999999998 0.0 17.024569175953445 0 0 0
592 2 15.996500000000003 2.1312885187135002 17.024569175953445 0 0 0
713 2 12.305 2.841718024951333 20.02497927668693 0 0 0
714 2 12.305 0.0 20.02497927668693 0 0 0
715 2 13.5355 0.7104295062378352 20.02497927668693 0 0 0
736 2 13.5355 2.1312885187134984 20.02497927668693 0 0 0
737 2 14.765999999999998 2.841718024951335 20.02497927668693 0 0 0
738 2 14.765999999999998 0.0 20.02497927668693 0 0 0
739 2 15.996500000000003 0.7104295062378352 20.02497927668693 0 0 0
760 2 15.996500000000003 2.1312885187135002 20.02497927668693 0 0 0
479 2 0.0 5.683436049902664 17.024569175953445 0 0 0
480 2 0.0 4.262577037427 17.024569175953445 0 0 0
481 2 1.2305000000000001 3.5521475311891644 17.024569175953445 0 0 0
488 2 1.2305000000000001 6.393865556140498 17.024569175953445 0 0 0
489 2 2.4610000000000003 5.683436049902664 17.024569175953445 0 0 0
490 2 2.4610000000000003 4.262577037427 17.024569175953445 0 0 0
491 2 3.6914999999999996 3.5521475311891644 17.024569175953445 0 0 0
502 2 3.6914999999999996 6.393865556140498 17.024569175953445 0 0 0
642 2 0.0 4.262577037427 20.02497927668693 0 0 0
643 2 1.2305000000000001 4.973006543664834 20.02497927668693 0 0 0
651 2 1.2305000000000001 6.393865556140498 20.02497927668693 0 0 0
653 2 2.4610000000000003 4.262577037427 20.02497927668693 0 0 0
654 2 3.6914999999999996 4.973006543664834 20.02497927668693 0 0 0
666 2 3.6914999999999996 6.393865556140498 20.02497927668693 0 0 0
503 2 4.922000000000001 5.683436049902664 17.024569175953445 0 0 0
504 2 4.922000000000001 4.262577037426998 17.024569175953445 0 0 0
505 2 6.1525 3.5521475311891644 17.024569175953445 0 0 0
520 2 6.1525 6.393865556140498 17.024569175953445 0 0 0
521 2 7.382999999999999 5.683436049902664 17.024569175953445 0 0 0
522 2 7.382999999999999 4.262577037427 17.024569175953445 0 0 0
668 2 4.922000000000001 4.262577037426998 20.02497927668693 0 0 0
669 2 6.1525 4.973006543664834 20.02497927668693 0 0 0
685 2 6.1525 6.393865556140498 20.02497927668693 0 0 0
687 2 7.382999999999999 4.262577037427 20.02497927668693 0 0 0
523 2 8.613499999999998 3.5521475311891657 17.024569175953445 0 0 0
542 2 8.6135 6.393865556140498 17.024569175953445 0 0 0
543 2 9.844000000000001 5.683436049902664 17.024569175953445 0 0 0
544 2 9.844000000000001 4.2625770374270004 17.024569175953445 0 0 0
545 2 11.074500000000002 3.5521475311891644 17.024569175953445 0 0 0
565 2 11.074500000000002 6.393865556140498 17.024569175953445 0 0 0
688 2 8.6135 4.973006543664834 20.02497927668693 0 0 0
708 2 8.6135 6.393865556140498 20.02497927668693 0 0 0
710 2 9.844000000000001 4.2625770374270004 20.02497927668693 0 0 0
711 2 11.074500000000002 4.973006543664834 20.02497927668693 0 0 0
732 2 11.074500000000002 6.393865556140498 20.02497927668693 0 0 0
566 2 12.305 5.683436049902664 17.024569175953445 0 0 0
567 2 12.305 4.262577037426998 17.024569175953445 0 0 0
568 2 13.5355 3.5521475311891644 17.024569175953445 0 0 0
588 2 13.5355 6.393865556140498 17.024569175953445 0 0 0
589 2 14.765999999999998 5.683436049902664 17.024569175953445 0 0 0
590 2 14.766000000000002 4.262577037426998 17.024569175953445 0 0 0
591 2 15.996499999999997 3.5521475311891644 17.024569175953445 0 0 0
609 2 15.996500000000003 6.393865556140498 17.024569175953445 0 0 0
734 2 12.305 4.262577037426998 20.02497927668693 0 0 0
735 2 13.5355 4.973006543664834 20.02497927668693 0 0 0
756 2 13.5355 6.393865556140498 20.02497927668693 0 0 0
758 2 14.766000000000002 4.262577037426998 20.02497927668693 0 0 0
759 2 15.996499999999997 4.973006543664834 20.02497927668693 0 0 0
777 2 15.996500000000003 6.393865556140498 20.02497927668693 0 0 0
485 2 0.0 9.946013087329664 17.024569175953445 0 0 0
486 2 0.0 8.525154074854 17.024569175953445 0 0 0
487 2 1.2305000000000001 7.814724568616164 17.024569175953445 0 0 0
499 2 2.4610000000000003 9.946013087329664 17.024569175953445 0 0 0
500 2 2.4610000000000003 8.525154074854 17.024569175953445 0 0 0
501 2 3.6914999999999996 7.814724568616164 17.024569175953445 0 0 0
641 2 0.0 7.104295062378334 20.02497927668693 0 0 0
649 2 0.0 8.525154074854 20.02497927668693 0 0 0
650 2 1.2305000000000001 9.235583581091834 20.02497927668693 0 0 0
652 2 2.4610000000000003 7.104295062378334 20.02497927668693 0 0 0
664 2 2.4610000000000003 8.525154074854 20.02497927668693 0 0 0
665 2 3.6915000000000004 9.235583581091834 20.02497927668693 0 0 0
517 2 4.922000000000001 9.946013087329664 17.024569175953445 0 0 0
518 2 4.922000000000001 8.525154074854 17.024569175953445 0 0 0
519 2 6.1525 7.814724568616164 17.024569175953445 0 0 0
539 2 7.383000000000001 9.946013087329664 17.024569175953445 0 0 0
540 2 7.383000000000001 8.525154074854 17.024569175953445 0 0 0
667 2 4.922000000000001 7.104295062378334 20.02497927668693 0 0 0
683 2 4.922000000000001 8.525154074854 20.02497927668693 0 0 0
684 2 6.1525 9.235583581091834 20.02497927668693 0 0 0
686 2 7.383000000000001 7.104295062378334 20.02497927668693 0 0 0
706 2 7.383000000000001 8.525154074854 20.02497927668693 0 0 0
541 2 8.6135 7.814724568616164 17.024569175953445 0 0 0
562 2 9.844000000000001 9.946013087329664 17.024569175953445 0 0 0
563 2 9.844000000000001 8.525154074853996 17.024569175953445 0 0 0
564 2 11.074500000000002 7.814724568616164 17.024569175953445 0 0 0
707 2 8.613499999999998 9.235583581091834 20.02497927668693 0 0 0
709 2 9.844000000000001 7.104295062378334 20.02497927668693 0 0 0
730 2 9.844000000000001 8.525154074853996 20.02497927668693 0 0 0
731 2 11.074500000000002 9.235583581091834 20.02497927668693 0 0 0
585 2 12.305 9.946013087329664 17.024569175953445 0 0 0
586 2 12.305 8.525154074854 17.024569175953445 0 0 0
587 2 13.5355 7.814724568616164 17.024569175953445 0 0 0
606 2 14.765999999999998 9.946013087329659 17.024569175953445 0 0 0
607 2 14.765999999999998 8.525154074854 17.024569175953445 0 0 0
608 2 15.996499999999997 7.814724568616161 17.024569175953445 0 0 0
733 2 12.305 7.104295062378334 20.02497927668693 0 0 0
754 2 12.305 8.525154074854 20.02497927668693 0 0 0
755 2 13.5355 9.235583581091829 20.02497927668693 0 0 0
757 2 14.765999999999998 7.104295062378331 20.02497927668693 0 0 0
775 2 14.765999999999998 8.525154074854 20.02497927668693 0 0 0
776 2 15.996500000000003 9.235583581091836 20.02497927668693 0 0 0
496 2 0.0 12.787731112280996 17.024569175953445 0 0 0
497 2 1.2305000000000001 12.077301606043163 17.024569175953445 0 0 0
498 2 1.2305000000000001 10.656442593567498 17.024569175953445 0 0 0
514 2 2.4610000000000003 12.787731112280996 17.024569175953445 0 0 0