LAMMPS data file via write_data, version 16 Mar 2018, timestep = 6000000

6736 atoms
2 atom types

1.8166846524290037e-01 4.9038331534761760e+01 xlo xhi
1.8092893186208769e-01 4.8838706998556624e+01 ylo yhi
1.8211327905175168e-01 5.9879886720956307e+01 zlo zhi

Masses

1 18.015
2 12.01

Atoms # atomic

2093 1 2.1168048981903902e+00 2.5255348274386842e+00 2.5223917245824028e+00 5 2 0
871 1 4.1817726784706251e+00 1.5860588891530196e+00 1.4286584733767920e+00 1 0 1
6201 1 6.4692175583852869e+00 2.3629275449978091e+00 2.7442638250163309e+00 0 -4 1
1891 1 8.3973259628812809e+00 1.3510185368002368e+00 1.2518308497630797e+00 1 -2 1
4554 1 1.0644131915858813e+01 2.1485655241524668e+00 2.2892778813105887e+00 0 0 0
1829 1 2.0008543161695576e+00 5.1150482609982619e+00 1.2128226277136862e+00 -1 -1 0
1102 1 4.5420776887365761e+00 6.2763056372418902e+00 2.1541854896011490e+00 -1 4 0
4321 1 6.5282028619129040e+00 4.8781676989543801e+00 1.3850140097433248e+00 2 -1 1
6178 1 8.7040196903976561e+00 5.9790998288454809e+00 2.3545310410143268e+00 -5 0 1
2476 1 1.1015624140520496e+01 4.6853553802642196e+00 1.4029349916699674e+00 -3 2 1
5841 1 2.1659499531215465e+00 9.6748880732999982e+00 2.2755986096734930e+00 1 3 0
2755 1 4.5485666718990769e+00 8.7728540102978378e+00 1.5349764832468598e+00 1 -4 1
3677 1 6.7271934362247663e+00 1.0059758360222865e+01 2.5539553905632677e+00 0 2 0
1740 1 8.4938567640271714e+00 8.5854921790563825e+00 1.7492575456212174e+00 1 0 0
3554 1 1.1083848353532543e+01 9.5420869271012680e+00 2.3236762068685759e+00 2 -2 0
4289 1 2.4594581367341943e+00 1.2229168027092399e+01 1.5210776855389569e+00 0 0 1
3834 1 1.1926655707972545e+01 1.9726361443171925e+01 1.8018989829068375e+00 -1 3 0
5576 1 6.8624933215874062e-01 1.8739135347383165e+01 6.0869717377040660e+00 1 -1 0
5244 1 7.1741346937902239e+00 1.2656500612743846e+01 1.7895292774451379e+00 1 -2 1
3428 1 4.5263992669811008e+00 1.3524230072237982e+01 2.7969538380175112e+00 0 -2 0
5577 1 5.1727316947990651e+00 1.5952451919362980e+01 1.6244887396203638e+00 0 0 0
3652 1 1.1508217363997408e+01 1.2176669116535118e+01 1.6757061175528862e+00 -2 -2 0
5346 1 9.5394869085792884e+00 1.3659157672555660e+01 2.7707926625865631e+00 0 -2 0
361 1 3.0574265203055773e+00 1.9953138185597826e+01 1.3423445455709535e+00 0 -9 0
1109 1 2.9165122881582675e+00 1.7326075464905212e+01 2.4009067343975148e+00 4 -2 1
2878 1 7.1307526885418575e+00 1.7387877101000100e+01 2.4421593822656780e+00 -4 0 1
3756 1 7.5166827999381116e+00 1.9848512823019693e+01 1.6445152453196596e+00 0 1 0
4181 1 9.4308245390033481e+00 1.6001804569341228e+01 1.7379657911355704e+00 3 0 1
2045 1 1.1797933781859200e+01 1.7216876763886024e+01 2.4859943237823345e+00 4 -2 0
4582 1 7.5527747831391634e-01 1.5997904780456688e+01 1.6749980248254026e+00 3 1 1
2211 1 1.2179236357895558e+00 2.3816148729904327e+01 1.4666068819448825e+00 1 -4 0
4255 1 8.3703429092003201e-01 2.1206091416485371e+01 2.1181343225644644e+00 0 1 1
293 1 5.1636293431550726e+00 2.0989702009798751e+01 2.3273206873320240e+00 -7 3 0
5361 1 5.4927926876460802e+00 2.3638318232618950e+01 1.5289064001052650e+00 -1 -4 0
4499 1 9.7074133182465125e+00 2.1105235631927890e+01 2.4841795451967141e+00 1 2 1
4400 1 9.7233746328046013e+00 2.3575831888974726e+01 1.7070459560880571e+00 4 3 1
5996 1 1.9726844501519840e+00 2.1974893101126294e+00 5.1731440115710567e+00 2 1 1
6226 1 4.2327249921756156e+00 3.3233714270210659e+00 6.1141688596063570e+00 2 5 1
271 1 5.1503129497522755e+00 2.3730607893837192e+01 9.7640449149398716e+00 0 0 0
5424 1 6.5203120209724270e+00 2.2532259583831071e+00 5.5413062623838947e+00 0 5 0
4606 1 8.5792649218030501e+00 3.6678102491885229e+00 6.3045350040941646e+00 2 1 1
4561 1 1.0687536012577389e+01 2.4971244274949225e+00 5.0603853438326594e+00 -1 2 1
924 1 2.5753491868926086e+00 7.2015812729895439e+00 6.0169545121060395e+00 -1 -2 1
6123 1 4.2887532603426051e+00 5.7409281492855087e+00 4.8706733939788167e+00 2 3 1
3674 1 6.5706690013706872e+00 6.9835342930165245e+00 5.9957417579402197e+00 0 0 0
5149 1 8.6447672018364461e+00 6.0308469646098306e+00 5.0326728367167712e+00 1 1 0
1967 1 1.1369832645167234e+01 7.1176928800351877e+00 5.9772032855526342e+00 2 1 0
1041 1 2.5008394530494811e+00 9.7931566419456946e+00 5.0768239135497648e+00 3 -2 1
3551 1 4.5648502739807215e+00 1.1097355856473964e+01 6.3225971344488627e+00 -2 1 1
6070 1 6.6044046268952314e+00 9.7419090563241735e+00 5.2783885629043796e+00 4 -3 1
3657 1 8.9852747109877278e+00 1.0956173406554896e+01 6.0988339487914613e+00 -1 -2 0
221 1 1.1234356959011505e+01 9.6502626424536935e+00 4.9315150095635776e+00 -1 6 0
2581 1 2.3892189824768653e+00 1.5091201986087230e+01 6.0004082299776318e+00 -2 -1 1
1150 1 9.8897348679699117e+00 2.3760276491468602e+01 9.5744328404179875e+00 -3 0 1
3831 1 4.9583302397056297e+00 1.3808105464375121e+01 5.4052968055004165e+00 -1 4 0
23 1 7.1297776953017014e+00 1.5153686222950311e+01 6.2614895710376945e+00 -1 1 1
77 1 9.1471300334855599e+00 1.3580924121397860e+01 5.4330091960224500e+00 -1 1 0
2474 1 1.1423039633432017e+01 1.5066889801774826e+01 6.3250949235716405e+00 0 -1 1
1909 1 2.7692905579653968e+00 1.7594514245003971e+01 4.9967873312600766e+00 2 5 0
39 1 2.8302907253817575e+00 2.2450823934527072e+01 8.9504719970367557e+00 0 2 0
2089 1 7.0226662680449001e+00 1.7440853565162136e+01 5.1616256743043811e+00 4 2 0
1048 1 5.0865655270523424e+00 1.8782572329996135e+01 5.8691933749950191e+00 1 0 1
1723 1 1.1509205085296722e+01 1.7653691527437719e+01 5.0083440100151968e+00 2 -3 0
4137 1 9.2740542744337535e+00 1.8735934346815295e+01 6.0076997500790732e+00 0 -1 1
6192 1 2.9627512867820287e+00 2.2428664711337195e+01 6.1477642868331301e+00 1 -2 1
2562 1 8.0095354145836017e-01 2.1112067263000128e+01 5.0624120404736477e+00 -2 -2 1
5958 1 5.1463855491664443e+00 2.1353129168853556e+01 4.9514413425610782e+00 3 1 1
2660 1 7.2234715579356168e+00 2.2214532301716545e+01 6.3408140896512011e+00 -1 1 1
450 1 9.3680237014357139e+00 2.1022548914296333e+01 5.2720278603316020e+00 -2 -3 0
4525 1 1.1758528498184628e+01 2.2213397971438070e+01 5.8422697948972901e+00 3 0 1
2770 1 4.2992945670731286e+00 8.1102702315871744e-01 9.7155420435454705e+00 1 -1 1
1116 1 4.2943095103163484e+00 3.3678202578236260e+00 8.8594686793267883e+00 0 0 1
2903 1 8.5963738930951852e+00 1.1773499702762065e+00 9.4610778067589578e+00 2 2 0
219 1 8.9234607277939553e+00 3.7059493079937544e+00 8.8638034224407214e+00 2 0 0
6246 1 7.2966545116335553e+00 2.2227454971187289e+01 9.0470356823221731e+00 0 -2 0
3443 1 2.2248786668318470e+00 4.9264571552834946e+00 9.8046596958242080e+00 0 -1 0
163 1 2.2155412990766798e+00 7.2645759544993558e+00 8.6886720585172483e+00 0 4 0
3811 1 6.7075442578575508e+00 4.7893973034131578e+00 9.7602825352958522e+00 -1 2 0
3701 1 6.9186174858720326e+00 7.0487865854194132e+00 8.5575046729437751e+00 1 0 0
5466 1 1.1204707705741038e+01 4.9210960907255652e+00 9.5076251570053252e+00 -2 1 0
1950 1 1.1274879299693994e+01 7.5700309700673625e+00 8.7530323893799569e+00 -1 0 1
1992 1 2.4489714490741163e+00 1.2251891309222245e+01 9.9655636718434835e+00 0 1 0
1932 1 1.2079404510920547e+01 2.2368251425352263e+01 8.6848654033419272e+00 1 -1 0
1225 1 4.7367841670283610e+00 8.5534277493705435e+00 9.4749671140199947e+00 -2 -3 1
5846 1 4.6486013049569310e+00 1.0846155825693426e+01 8.9109210081181516e+00 -5 0 1
5284 1 9.0436676875480035e+00 8.6282409131992495e+00 9.4105277461678085e+00 0 -4 0
2181 1 9.3414034798465728e+00 1.0870390412043477e+01 8.5957673769942371e+00 0 1 0
4355 1 1.1322540959741291e+01 1.2469094651061013e+01 9.6471663931596829e+00 3 -3 1
3661 1 2.7834224827830103e+00 1.4585095427856725e+01 8.7596070848731635e+00 1 0 0
3648 1 6.2287578706814095e-01 1.8583677803255284e+01 9.0636570889416515e+00 -1 -1 0
5293 1 6.9699904676199855e+00 1.2217531332249628e+01 9.5716555352820425e+00 -2 6 0
6143 1 7.2255605491565502e+00 1.4596523170063330e+01 8.8608814612075957e+00 0 -1 1
3616 1 5.0035435080204680e+00 1.5855909568797209e+01 9.8052052004897448e+00 -3 1 0
5218 1 1.1553700456125775e+01 1.4854075704995511e+01 9.0221249006022202e+00 6 1 0
5896 1 9.1947036851391299e+00 1.6286345111353061e+01 9.9634452365523103e+00 0 1 1
3752 1 6.8415236639375010e-01 2.3717877825322841e+01 9.5388031806829261e+00 -1 1 0
5428 1 2.8044627270412144e+00 1.9880284096395773e+01 9.8172575528115846e+00 -2 1 0
2775 1 7.1284181745783552e+00 1.9582478137391160e+01 9.5660458506107631e+00 -3 -3 1
1742 1 4.9934591697677426e+00 1.8340192284047689e+01 8.7407559518969560e+00 -2 -1 0
4275 1 1.1550867553423235e+01 1.9887755302955362e+01 9.6438889025111560e+00 3 -3 1
5449 1 9.3705017399586588e+00 1.8570071922791161e+01 8.5481233007670987e+00 -1 -1 0
5473 1 3.1412695874625562e-01 1.3506505804570194e+01 5.2187555697316892e+00 2 0 0
1947 1 7.4270292623496037e-01 1.6132522767902785e+01 9.9169250476875437e+00 1 2 0
235 1 4.5067027871073151e-01 1.3697952202551594e+01 2.5239442414237048e+00 -2 0 0
6039 1 2.4942836091510801e-01 1.1235926646284478e+01 8.8656008510866755e+00 -1 3 1
1156 1 8.9222334352141157e+00 8.5420050846137556e+00 1.2118241001948801e+01 4 -2 1
5561 1 3.1632117580751440e-01 1.0852194318788856e+01 5.9638567452792532e+00 -2 0 0
1939 1 1.1262430030192847e+01 4.8632545309751221e+00 1.2079174931521505e+01 4 0 0
753 1 7.5835903403325409e+00 2.4493431883005385e+01 2.5930025410679844e+00 -1 2 1
5214 1 4.7154838191907356e+00 8.6776048188776365e+00 1.2116880383792179e+01 0 1 0
6008 1 4.3744562696630833e+00 3.6719892072753901e+00 1.3291931962023666e+01 2 1 1
5862 1 5.1462253134148312e+00 2.3376004496423853e+01 1.2488333679585017e+01 1 2 1
5438 1 4.1526309935269943e+00 3.2881907484222017e+00 1.6193093299149236e+01 -5 0 0
3683 1 1.1452266950847267e+01 1.2300853650830998e+01 1.2234311091110461e+01 2 1 1
4589 1 8.8622484827062529e+00 3.6401787297415651e+00 1.3226504183474390e+01 1 0 0
56 1 8.7188460061648332e+00 3.3857463658502076e+00 1.6029604042169563e+01 1 -1 0
3704 1 2.2711186522970643e+00 7.4283804185649993e+00 1.3495168497347386e+01 3 0 0
4368 1 6.9440822355220071e+00 5.1500975070396322e+00 1.2423905068784595e+01 0 1 1
3464 1 8.7862425843869563e+00 1.0133107856669634e+00 1.2483182581806945e+01 0 5 0
5537 1 6.7858721987516715e+00 7.7124654476448669e+00 1.3254149832461156e+01 0 1 0
5222 1 6.6572903205136100e+00 7.1355700978199890e+00 1.5913766781319513e+01 4 1 0
895 1 2.2254525683878837e-01 5.8319634276918864e+00 1.9860818031361141e+01 0 -3 1
946 1 1.1119190910059435e+01 7.2659700619723848e+00 1.2913565343555147e+01 -3 -2 1
4617 1 1.1251262524383174e+01 6.9232228170470540e+00 1.5573747219689890e+01 1 -1 1
1097 1 1.1966432523281249e+01 1.9897068133728652e+01 1.2236456004687529e+01 4 0 1
893 1 2.1269797021958388e+00 4.8786191543991757e+00 1.2623547861541196e+01 -3 6 1
5111 1 1.1197999886519991e+01 9.2928884832014091e+00 2.4004439483696725e+01 0 -1 1
6094 1 4.5297491244773136e+00 1.1269085896591815e+01 1.3075629731128561e+01 0 1 1
4479 1 4.3987199315708532e+00 1.0960625557746480e+01 1.6011719370131345e+01 -1 4 0
5578 1 6.8322186684077888e+00 1.2442546313549794e+01 1.2394469207170774e+01 1 1 0
4107 1 6.5140015685308783e-01 1.8166252042420261e+01 2.3731854083950651e+01 -5 3 1
5097 1 9.2061341810206780e+00 1.1211259798729944e+01 1.3288312309146546e+01 1 4 0
5215 1 9.3650277415934724e+00 1.0912766205324887e+01 1.5999336194447148e+01 -1 1 1
3825 1 3.1256546158002485e+00 1.4840774649091765e+01 1.3406855171763519e+01 1 4 1
1860 1 9.3267643981047286e+00 1.6117750687392004e+01 1.2557293380332519e+01 -2 3 0
188 1 2.8795819859437031e+00 1.4821559268861535e+01 1.6069782375113924e+01 4 1 1
5926 1 7.1362878961875085e+00 1.4871838904943194e+01 1.3426834887863837e+01 -1 0 1
4352 1 5.1737734662363950e+00 1.6092889045749427e+01 1.2346057593783538e+01 6 2 1
4143 1 6.8325582589432554e-01 1.8326887841550938e+01 2.0846862361472766e+01 1 2 1
2516 1 1.1471181430228516e+01 1.4763440254249661e+01 1.3182891496803922e+01 1 0 1
5820 1 1.1498153875682753e+01 1.4426734074008493e+01 1.5834003789708142e+01 3 0 1
4369 1 9.6030036691243872e+00 2.3394678842359291e+01 1.2259856192945097e+01 -1 5 1
79 1 7.3928735349343881e+00 1.9574776864949921e+01 1.2344381266967311e+01 0 2 1
1786 1 7.5487438170912045e+00 1.5020094966278309e+01 2.3328314848050731e+01 3 3 1
2528 1 1.1884139938313073e+01 2.2406708936492382e+01 2.3256641726938206e+01 0 -2 1
2883 1 5.2643559536287139e+00 1.8843752173216966e+01 1.3485335398764082e+01 2 -1 1
466 1 4.9792438351075221e+00 1.8395059802514993e+01 1.6254075749789060e+01 -1 1 0
4577 1 9.8449092522602637e+00 1.8597441914887124e+01 1.3462301849404595e+01 -1 1 0
4492 1 9.6047447465652258e+00 1.8405640392647886e+01 1.6123680102911258e+01 1 -1 1
3419 1 2.7526107263637232e+00 1.9446045529904179e+01 1.2573183467375559e+01 0 -1 1
4116 1 2.8626509339991602e+00 2.1947448396501002e+01 1.3521835935854817e+01 0 2 1
4403 1 2.6183115417415292e+00 2.2173089560927828e+01 1.6302022649693825e+01 -2 0 1
2834 1 2.4246634517590651e+00 7.2794986368365828e+00 2.3206026361036070e+01 4 -1 1
2423 1 2.2950187103547766e+00 1.0087313156820581e+01 2.3680466272313474e+01 2 1 1
742 1 7.1745502345566114e+00 2.2186268754175522e+01 1.3448867339356074e+01 3 -1 0
911 1 7.2842172823804194e+00 2.2470872753848429e+01 1.6162747589543464e+01 1 0 1
4581 1 9.4471723747709184e+00 1.8599200378566415e+01 2.3243735661240297e+01 4 1 1
845 1 1.2035196959894130e+01 2.2377973707615588e+01 1.3497356061842057e+01 0 1 1
2172 1 2.1869335178764642e+00 1.9005744208648552e+00 1.7048160701923774e+01 5 1 0
1062 1 2.1654759283254372e+00 2.1148506844571755e+00 1.9903862265856098e+01 -5 3 1
3722 1 6.4223205511505368e+00 2.0522269727971816e+00 1.7019304553162733e+01 0 2 0
2929 1 6.5841223001922655e+00 2.0902891965258790e+00 1.9566437637655191e+01 1 2 0
5192 1 1.1098010762468251e+01 2.2569655852483250e+00 1.6618039470893095e+01 -1 0 0
2057 1 1.1136414745277742e+01 2.2580482324262254e+00 1.9421377362558758e+01 1 -2 0
1027 1 2.2239705595850188e+00 7.2293831347817887e+00 1.6200714507968264e+01 1 -4 1
2795 1 4.8703913503243621e+00 5.8727539387416092e+00 1.9546895756694941e+01 1 -1 1
4602 1 4.4931548956224132e+00 5.9859295776847121e+00 1.6785516936408754e+01 2 -2 1
6145 1 8.9574604512714249e+00 5.9188495566348642e+00 1.6286474921783199e+01 3 2 1
463 1 9.1513693875036211e+00 5.9777227101708235e+00 1.9243795307605296e+01 0 5 0
6221 1 2.2797325777644808e+00 9.6575898917151815e+00 1.7006499518946033e+01 1 2 0
408 1 2.8013860839412743e+00 9.6447790660527044e+00 1.9535799153181575e+01 0 -1 1
109 1 6.8428890210615139e+00 9.9687926500590471e+00 1.6635570281578723e+01 2 1 0
2473 1 7.0716487103748662e+00 9.9212241524207503e+00 1.9350389053287611e+01 -2 -2 1
3685 1 1.1675404120869308e+01 9.3606227056344640e+00 1.6770922227406544e+01 4 5 0
5899 1 1.1412841699694066e+01 9.3711503574396335e+00 1.9479387303004206e+01 0 0 1
5147 1 7.3275623776906018e-01 1.8171204902430706e+01 1.3314621565830734e+01 -1 1 0
5486 1 9.3289736540183803e+00 1.8458527505384438e+01 2.0378376207533599e+01 -5 -4 0
53 1 7.2570324966688302e+00 1.5024901437924406e+01 1.6271362016514331e+01 -3 3 0
1908 1 5.0112118709027476e+00 1.3401019105859195e+01 1.6709824411576889e+01 1 -4 0
2766 1 5.0810853057224152e+00 1.3381462110066371e+01 1.9654715498986853e+01 -1 0 0
2461 1 9.3619042535322681e+00 1.3510173807367943e+01 1.6893758614325797e+01 0 0 1
999 1 9.5316366032600222e+00 1.3445761001730293e+01 1.9768336634078885e+01 -2 3 1
3614 1 2.3337784147180635e-01 1.0939694505421272e+01 1.6473351036636288e+01 1 0 0
308 1 2.6856331540312586e+00 1.7255607848795165e+01 1.7051639012530941e+01 1 0 0
206 1 2.9043911582257635e+00 1.7241806249833093e+01 1.9997721150145406e+01 -2 1 0
6284 1 7.3480645962149556e+00 1.7586193655348445e+01 1.7211632895960268e+01 0 -3 1
3601 1 7.1634692179985571e+00 1.7266838221871325e+01 1.9819605414324350e+01 2 0 1
1894 1 5.2692057701070283e+00 2.0869045919984117e+01 1.9910598294837602e+01 2 1 0
5104 1 1.1894490242739321e+01 1.7221411992111246e+01 1.9742618575478161e+01 0 0 0
4600 1 1.1825668285220702e+01 1.6989358867423629e+01 1.6820807933466082e+01 0 3 1
5938 1 2.6417829638205220e-01 5.6081041478907334e+00 1.7057769776839891e+01 -4 4 1
4411 1 9.1514877520993099e-01 2.0704322006639970e+01 1.9682175900653284e+01 0 -1 1
2628 1 1.1930305557057290e+01 2.2284913443718192e+01 2.0602276125237967e+01 -1 1 1
4494 1 5.1312561551982458e+00 2.1119477060675262e+01 1.7143013088258609e+01 -3 2 1
5894 1 1.1985339788815853e+01 2.2206193497205167e+01 1.6107767867386404e+01 3 2 1
190 1 9.8098833060860997e+00 2.1181734332485544e+01 1.9969844797456783e+01 -2 -2 1
5481 1 9.6622736912419533e+00 2.1066416631897603e+01 1.7248396253688334e+01 3 0 0
843 1 4.2744925168157364e+00 3.5768580435410939e+00 2.3247987839312529e+01 1 -2 0
2670 1 4.4603364159113257e+00 3.4172641132148791e+00 2.0872952747277193e+01 -1 1 1
5196 1 5.5889919062536131e-01 1.8232753720564141e+01 1.5951746496062301e+01 0 2 0
5295 1 4.7691325566689322e+00 1.8687498833440230e+01 2.3660200907486264e+01 0 3 0
1772 1 8.8658504415918138e+00 3.6018627598753317e+00 2.0420366065924892e+01 4 4 0
5854 1 7.4519368508321486e+00 2.2325445366064539e+01 2.0834869654640713e+01 -3 -1 0
3644 1 8.8245889965507871e+00 3.2129062119243890e+00 2.3152320459390445e+01 0 5 0
17 1 3.1200673848773111e+00 2.2072121287176184e+01 2.1074488033976809e+01 1 -2 0
6225 1 7.8366486600708933e+00 2.4053753570977317e+01 2.3327922160733344e+01 -2 -1 1
6151 1 2.5270667069800492e+00 7.0752536459183171e+00 2.0347260474198745e+01 0 1 1
2067 1 6.9362104561364255e+00 7.1806351321035216e+00 2.3186850952666358e+01 2 -1 0
5193 1 7.0691050601858372e+00 7.1963362159761166e+00 2.0392361791603989e+01 0 2 0
151 1 1.1494772059546245e+01 6.8905603722494568e+00 2.0518418365882344e+01 0 1 0
3843 1 9.2080770094794862e-01 1.2744610510973333e+01 2.3450843189541313e+01 2 -3 0
3596 1 3.6016159105287007e+00 2.1289743709106340e+01 2.3633612941716194e+01 -1 1 0
4134 1 7.1780579722278848e-01 2.3178974748496074e+01 1.2331298975085375e+01 1 1 1
2076 1 4.9963117036471631e+00 1.1042140932327007e+01 2.3183587367579825e+01 1 2 0
3461 1 5.0816132176147351e+00 1.1024207409179068e+01 2.0620151028435977e+01 -1 1 0
6096 1 9.3256689817516794e+00 1.1140941869032577e+01 2.3467500542059906e+01 3 3 1
2128 1 1.1550899843870644e+01 6.9337400591342879e+00 2.3097916185815503e+01 -1 -1 0
2857 1 9.3468964282161657e+00 1.0698383205957104e+01 2.0686420318725858e+01 1 -4 0
2455 1 5.2211854528133204e+00 1.8545739259655978e+01 2.0896244633069401e+01 -1 0 0
2428 1 3.1427292661614197e+00 1.4611470244195692e+01 2.0903477373990359e+01 1 1 1
393 1 2.8943963461670807e+00 1.4487137738451432e+01 2.3509600782108155e+01 0 -1 0
3531 1 5.5874189219382964e-01 2.0631917677693792e+01 1.7083538379090125e+01 0 0 0
5316 1 7.4650609992404657e+00 1.4633660287419989e+01 2.0850784144239913e+01 2 -3 0
4556 1 2.1732929812560808e+00 1.2513139518457765e+01 1.2501625490235543e+01 1 1 0
3466 1 1.1692138319268683e+01 1.4747068076069590e+01 2.0560205847476386e+01 -1 -6 1
5823 1 1.1556034694713331e+01 1.4772895950895604e+01 2.3199265101250649e+01 -2 1 1
1089 1 4.1869261307672421e+00 1.0660648073355774e+00 1.2579863296081177e+01 -1 2 1
1018 1 6.0564301651336749e-01 1.5586500101300773e+01 1.2691755185712255e+01 1 0 1
6028 1 6.4946109892091575e-01 1.3147939369374592e+01 2.0065576982804792e+01 -2 1 1
2031 1 2.7020948846757048e-01 1.3801705160514425e+01 1.7198626981728811e+01 0 0 0
2147 1 4.1952037390604618e-01 1.0799387559275495e+01 1.3874825719432941e+01 2 0 0
2801 1 9.1761927811892186e+00 2.1535715644305732e+01 2.3873522954947589e+01 -1 0 0
175 1 6.7741504677173692e-01 1.0499719686542806e+01 2.0958266067462429e+01 -1 1 0
1246 1 1.9599976621650668e+00 2.2951484418399111e+00 2.3995642460849886e+01 2 3 0
312 1 1.9938981775036524e-01 5.6316197204474827e+00 2.4009156515012414e+01 -2 0 0
511 2 1.8166846524290037e-01 3.0016696893530175e+00 2.6740983591628609e+01 0 0 0
512 2 1.8166846524290037e-01 1.8092893186208769e-01 2.6740983591628609e+01 0 0 0
513 2 1.4030850419802288e+00 8.8611412123501165e-01 2.6740983591628609e+01 0 0 0
517 2 1.4030850419802288e+00 2.2964844999791305e+00 2.6740983591628609e+01 0 0 0
518 2 2.6245016187175572e+00 3.0016696893530175e+00 2.6740983591628609e+01 0 0 0
519 2 2.6245016187175572e+00 1.8092893186208769e-01 2.6740983591628609e+01 0 0 0
520 2 3.8459181954558246e+00 8.8611412123501165e-01 2.6740983591628609e+01 0 0 0
528 2 3.8459181954558246e+00 2.2964844999791305e+00 2.6740983591628609e+01 0 0 0
529 2 5.0673347721922140e+00 3.0016696893530175e+00 2.6740983591628609e+01 0 0 0
530 2 5.0673347721922140e+00 1.8092893186208769e-01 2.6740983591628609e+01 0 0 0
531 2 6.2887513489327560e+00 8.8611412123501165e-01 2.6740983591628609e+01 0 0 0
543 2 6.2887513489327560e+00 2.2964844999791305e+00 2.6740983591628609e+01 0 0 0
544 2 7.5101679256687488e+00 3.0016696893530175e+00 2.6740983591628609e+01 0 0 0
545 2 7.5101679256687488e+00 1.8092893186208769e-01 2.6740983591628609e+01 0 0 0
546 2 8.7315845024030203e+00 8.8611412123501165e-01 2.6740983591628609e+01 0 0 0
562 2 8.7315845024030203e+00 2.2964844999791305e+00 2.6740983591628609e+01 0 0 0
563 2 9.9530010791415275e+00 3.0016696893530175e+00 2.6740983591628609e+01 0 0 0
564 2 9.9530010791415275e+00 1.8092893186208769e-01 2.6740983591628609e+01 0 0 0
565 2 1.1174417655881696e+01 8.8611412123501165e-01 2.6740983591628609e+01 0 0 0
585 2 1.1174417655881696e+01 2.2964844999791305e+00 2.6740983591628609e+01 0 0 0
586 2 1.2395834232622612e+01 3.0016696893530175e+00 2.6740983591628609e+01 0 0 0
587 2 1.2395834232622612e+01 1.8092893186208769e-01 2.6740983591628609e+01 0 0 0
514 2 1.8166846524290037e-01 7.2327808255870263e+00 2.6740983591628609e+01 0 0 0
515 2 1.8166846524290037e-01 4.4120400680961733e+00 2.6740983591628609e+01 0 0 0
516 2 1.4030850419802288e+00 5.1172252574697579e+00 2.6740983591628609e+01 0 0 0
524 2 1.4030850419802288e+00 6.5275956362155796e+00 2.6740983591628609e+01 0 0 0
525 2 2.6245016187175572e+00 7.2327808255870263e+00 2.6740983591628609e+01 0 0 0
526 2 2.6245016187175572e+00 4.4120400680961733e+00 2.6740983591628609e+01 0 0 0
527 2 3.8459181954558246e+00 5.1172252574697579e+00 2.6740983591628609e+01 0 0 0
539 2 3.8459181954558246e+00 6.5275956362155796e+00 2.6740983591628609e+01 0 0 0
540 2 5.0673347721922140e+00 7.2327808255870263e+00 2.6740983591628609e+01 0 0 0
541 2 5.0673347721922140e+00 4.4120400680961733e+00 2.6740983591628609e+01 0 0 0
542 2 6.2887513489327560e+00 5.1172252574697579e+00 2.6740983591628609e+01 0 0 0
558 2 6.2887513489327560e+00 6.5275956362155796e+00 2.6740983591628609e+01 0 0 0
559 2 7.5101679256687488e+00 7.2327808255870263e+00 2.6740983591628609e+01 0 0 0
560 2 7.5101679256687488e+00 4.4120400680961733e+00 2.6740983591628609e+01 0 0 0
2122 1 1.0012735787076799e+00 2.0534058769768055e+01 2.4260133712365430e+01 2 2 0
561 2 8.7315845024030203e+00 5.1172252574697579e+00 2.6740983591628609e+01 0 0 0
581 2 8.7315845024030203e+00 6.5275956362155796e+00 2.6740983591628609e+01 0 0 0
582 2 9.9530010791415275e+00 7.2327808255870263e+00 2.6740983591628609e+01 0 0 0
583 2 9.9530010791415275e+00 4.4120400680961733e+00 2.6740983591628609e+01 0 0 0
584 2 1.1174417655881696e+01 5.1172252574697579e+00 2.6740983591628609e+01 0 0 0
605 2 1.1174417655881696e+01 6.5275956362155796e+00 2.6740983591628609e+01 0 0 0
606 2 1.2395834232622612e+01 7.2327808255870263e+00 2.6740983591628609e+01 0 0 0
607 2 1.2395834232622612e+01 4.4120400680961733e+00 2.6740983591628609e+01 0 0 0
4358 1 7.4260923430744468e+00 9.6327042431558496e+00 2.4307459903274665e+01 -4 6 1
521 2 1.8166846524290037e-01 1.1463891961825807e+01 2.6740983591628609e+01 0 0 0
522 2 1.8166846524290037e-01 8.6431512043302590e+00 2.6740983591628609e+01 0 0 0
523 2 1.4030850419802288e+00 9.3483363937077435e+00 2.6740983591628609e+01 0 0 0
535 2 1.4030850419802288e+00 1.0758706772447605e+01 2.6740983591628609e+01 0 0 0
536 2 2.6245016187175572e+00 1.1463891961825807e+01 2.6740983591628609e+01 0 0 0
537 2 2.6245016187175572e+00 8.6431512043302590e+00 2.6740983591628609e+01 0 0 0
538 2 3.8459181954558246e+00 9.3483363937077435e+00 2.6740983591628609e+01 0 0 0
554 2 3.8459181954558246e+00 1.0758706772447605e+01 2.6740983591628609e+01 0 0 0
555 2 5.0673347721922140e+00 1.1463891961825807e+01 2.6740983591628609e+01 0 0 0
556 2 5.0673347721922140e+00 8.6431512043302590e+00 2.6740983591628609e+01 0 0 0
557 2 6.2887513489327560e+00 9.3483363937077435e+00 2.6740983591628609e+01 0 0 0
577 2 6.2887513489327560e+00 1.0758706772447605e+01 2.6740983591628609e+01 0 0 0
578 2 7.5101679256687488e+00 1.1463891961825807e+01 2.6740983591628609e+01 0 0 0
579 2 7.5101679256687488e+00 8.6431512043302590e+00 2.6740983591628609e+01 0 0 0
580 2 8.7315845024030203e+00 9.3483363937077435e+00 2.6740983591628609e+01 0 0 0
601 2 8.7315845024030203e+00 1.0758706772447605e+01 2.6740983591628609e+01 0 0 0
602 2 9.9530010791415275e+00 1.1463891961825807e+01 2.6740983591628609e+01 0 0 0
603 2 9.9530010791415275e+00 8.6431512043302590e+00 2.6740983591628609e+01 0 0 0
604 2 1.1174417655881696e+01 9.3483363937077435e+00 2.6740983591628609e+01 0 0 0
625 2 1.1174417655881696e+01 1.0758706772447605e+01 2.6740983591628609e+01 0 0 0
626 2 1.2395834232622612e+01 1.1463891961825807e+01 2.6740983591628609e+01 0 0 0
627 2 1.2395834232622612e+01 8.6431512043302590e+00 2.6740983591628609e+01 0 0 0
532 2 1.8166846524290037e-01 1.5695003098058525e+01 2.6740983591628609e+01 0 0 0
533 2 1.8166846524290037e-01 1.2874262340569071e+01 2.6740983591628609e+01 0 0 0
534 2 1.4030850419802288e+00 1.3579447529942192e+01 2.6740983591628609e+01 0 0 0
550 2 1.4030850419802288e+00 1.4989817908684243e+01 2.6740983591628609e+01 0 0 0
551 2 2.6245016187175572e+00 1.5695003098058525e+01 2.6740983591628609e+01 0 0 0
552 2 2.6245016187175572e+00 1.2874262340569071e+01 2.6740983591628609e+01 0 0 0
553 2 3.8459181954558246e+00 1.3579447529942192e+01 2.6740983591628609e+01 0 0 0
573 2 3.8459181954558246e+00 1.4989817908684243e+01 2.6740983591628609e+01 0 0 0
398 1 6.6207847095392491e+00 2.2208705296726183e+00 2.4123228928520422e+01 -4 -1 0
574 2 5.0673347721922140e+00 1.5695003098058525e+01 2.6740983591628609e+01 0 0 0
575 2 5.0673347721922140e+00 1.2874262340569071e+01 2.6740983591628609e+01 0 0 0
576 2 6.2887513489327560e+00 1.3579447529942192e+01 2.6740983591628609e+01 0 0 0
597 2 6.2887513489327560e+00 1.4989817908684243e+01 2.6740983591628609e+01 0 0 0
598 2 7.5101679256687488e+00 1.5695003098058525e+01 2.6740983591628609e+01 0 0 0
599 2 7.5101679256687488e+00 1.2874262340569071e+01 2.6740983591628609e+01 0 0 0
600 2 8.7315845024030203e+00 1.3579447529942192e+01 2.6740983591628609e+01 0 0 0
621 2 8.7315845024030203e+00 1.4989817908684243e+01 2.6740983591628609e+01 0 0 0
622 2 9.9530010791415275e+00 1.5695003098058525e+01 2.6740983591628609e+01 0 0 0
623 2 9.9530010791415275e+00 1.2874262340569071e+01 2.6740983591628609e+01 0 0 0
624 2 1.1174417655881696e+01 1.3579447529942192e+01 2.6740983591628609e+01 0 0 0
642 2 1.1174417655881696e+01 1.4989817908684243e+01 2.6740983591628609e+01 0 0 0
643 2 1.2395834232622612e+01 1.5695003098058525e+01 2.6740983591628609e+01 0 0 0
644 2 1.2395834232622612e+01 1.2874262340569071e+01 2.6740983591628609e+01 0 0 0
547 2 1.8166846524290037e-01 1.9926114234292768e+01 2.6740983591628609e+01 0 0 0
548 2 1.8166846524290037e-01 1.7105373476798430e+01 2.6740983591628609e+01 0 0 0
549 2 1.4030850419802288e+00 1.7810558666173453e+01 2.6740983591628609e+01 0 0 0
569 2 1.4030850419802288e+00 1.9220929044920862e+01 2.6740983591628609e+01 0 0 0
570 2 2.6245016187175572e+00 1.9926114234292768e+01 2.6740983591628609e+01 0 0 0
571 2 2.6245016187175572e+00 1.7105373476798430e+01 2.6740983591628609e+01 0 0 0
572 2 3.8459181954558246e+00 1.7810558666173453e+01 2.6740983591628609e+01 0 0 0
593 2 3.8459181954558246e+00 1.9220929044920862e+01 2.6740983591628609e+01 0 0 0
594 2 5.0673347721922140e+00 1.9926114234292768e+01 2.6740983591628609e+01 0 0 0
595 2 5.0673347721922140e+00 1.7105373476798430e+01 2.6740983591628609e+01 0 0 0
596 2 6.2887513489327560e+00 1.7810558666173453e+01 2.6740983591628609e+01 0 0 0
617 2 6.2887513489327560e+00 1.9220929044920862e+01 2.6740983591628609e+01 0 0 0
618 2 7.5101679256687488e+00 1.9926114234292768e+01 2.6740983591628609e+01 0 0 0
619 2 7.5101679256687488e+00 1.7105373476798430e+01 2.6740983591628609e+01 0 0 0
5148 1 3.7914147764751132e+00 1.9979779356469605e+00 3.5958829406691763e+01 -1 2 -1
620 2 8.7315845024030203e+00 1.7810558666173453e+01 2.6740983591628609e+01 0 0 0
638 2 8.7315845024030203e+00 1.9220929044920862e+01 2.6740983591628609e+01 0 0 0
639 2 9.9530010791415275e+00 1.9926114234292768e+01 2.6740983591628609e+01 0 0 0
640 2 9.9530010791415275e+00 1.7105373476798430e+01 2.6740983591628609e+01 0 0 0
641 2 1.1174417655881696e+01 1.7810558666173453e+01 2.6740983591628609e+01 0 0 0
655 2 1.1174417655881696e+01 1.9220929044920862e+01 2.6740983591628609e+01 0 0 0
657 2 1.2395834232622612e+01 1.7105373476798430e+01 2.6740983591628609e+01 0 0 0
5816 1 1.0322115532672578e+01 5.7643125388908913e+00 3.5925144597954116e+01 0 -2 0
613 2 3.8459181954558246e+00 2.3452040181171327e+01 2.6740983591628609e+01 0 0 0
566 2 1.8166846524290037e-01 2.4157225370531357e+01 2.6740983591628609e+01 0 0 0
567 2 1.8166846524290037e-01 2.1336484613033122e+01 2.6740983591628609e+01 0 0 0
568 2 1.4030850419802288e+00 2.2041669802411509e+01 2.6740983591628609e+01 0 0 0
589 2 1.4030850419802288e+00 2.3452040181171327e+01 2.6740983591628609e+01 0 0 0
590 2 2.6245016187175572e+00 2.4157225370531357e+01 2.6740983591628609e+01 0 0 0
591 2 2.6245016187175572e+00 2.1336484613033122e+01 2.6740983591628609e+01 0 0 0
592 2 3.8459181954558246e+00 2.2041669802411509e+01 2.6740983591628609e+01 0 0 0
5987 1 7.2268177933841535e+00 1.7607186232621203e+01 2.4213019563078745e+01 1 2 1
615 2 5.0673347721922140e+00 2.1336484613033122e+01 2.6740983591628609e+01 0 0 0
634 2 6.2887513489327560e+00 2.3452040181171327e+01 2.6740983591628609e+01 0 0 0
636 2 7.5101679256687488e+00 2.1336484613033122e+01 2.6740983591628609e+01 0 0 0
616 2 6.2887513489327560e+00 2.2041669802411509e+01 2.6740983591628609e+01 0 0 0