LAMMPS data file via write_data, version 16 Mar 2018, timestep = 6000000

6736 atoms
2 atom types

0.0000000000000000e+00 4.9219999999999999e+01 xlo xhi
0.0000000000000000e+00 4.9019635930410494e+01 ylo yhi
6.4427542962769380e-01 5.9417724570375441e+01 zlo zhi

Masses

1 18.015
2 12.01

Atoms # atomic

5986 1 2.4502060862702297e+00 1.5425341704586017e+00 2.4614487616442666e+00 0 -3 1
4188 1 3.4907265863626442e+00 3.7743224269098143e+00 3.2713842875248247e+00 1 0 0
4329 1 7.3663967261140373e+00 2.2207914836106881e+00 3.0560723773351874e+00 0 -5 1
4349 1 5.7739741106455558e+00 4.0340025752935542e+00 2.1807053113079897e+00 -3 4 1
2872 1 1.0101755742407468e+01 2.2394901390940034e+00 2.1081849321013491e+00 3 -2 1
4414 1 1.1565583150053365e+01 4.6938516393835644e-01 2.9425375736003230e+00 0 -1 1
5869 1 1.5773048906935681e+00 5.6149706140370572e+00 2.3701137771965897e+00 5 -5 1
1044 1 7.2568657506098990e+00 6.4827308398919161e+00 3.0963263471064986e+00 0 0 1
4513 1 1.0110428934877120e+01 6.7378811423472857e+00 2.0798618997782374e+00 0 0 0
1876 1 1.1152978661811316e+01 4.6208269620625986e+00 3.4060289094756397e+00 4 2 0
1878 1 2.7998410891993961e+00 7.9041382456788343e+00 3.2213975408487046e+00 1 1 1
5429 1 1.5310688012912474e+00 9.9445456486951258e+00 2.2713075361858670e+00 1 -1 0
4564 1 5.2896875759644448e+00 8.4832082141995713e+00 2.4602106461392563e+00 0 -1 1
2851 1 6.4953010710256862e+00 1.0911085987772834e+01 3.0628169868080053e+00 2 -3 0
4504 1 8.9441247349630437e+00 1.1069717385522356e+01 2.1052433115782687e+00 -1 0 1
1921 1 1.0689173845688705e+01 9.2329981090361528e+00 3.2065484444173773e+00 -2 1 0
2604 1 1.0507578940699521e+01 1.5779851649824829e+01 1.0706978541811095e+01 2 -2 1
4561 1 2.1066697198646538e+00 1.2357441228138766e+01 3.1180320632660181e+00 3 1 1
121 1 1.1468779253628764e+01 4.1385042945936573e-01 5.5821037278358236e+00 -2 0 1
1875 1 4.6095955209928201e+00 1.2894313328007732e+01 2.2922422192416798e+00 0 5 0
1129 1 5.4535031797909008e+00 1.5224087192271380e+01 3.2877779785517709e+00 2 1 1
6109 1 7.8836092494658274e+00 1.5659540662157905e+01 2.1596496606859246e+00 4 -2 1
2789 1 9.8218792198072311e+00 1.3766862292275334e+01 2.9875071923274437e+00 -3 0 1
5867 1 8.9403044467947286e+00 7.2628945233223829e-02 1.0375221791438438e+01 2 -1 1
961 1 2.3936717190462087e+00 1.4841051904564375e+00 6.9047662230578846e+00 -1 1 1
284 1 3.4128129708706343e+00 3.8376397235054625e+00 6.0272144338709088e+00 2 1 0
827 1 8.3228814577725476e+00 1.6304564506704335e+01 9.5454074452751598e+00 -1 1 1
5523 1 7.4027831523762515e+00 2.0587392038472463e+00 5.8496745735335720e+00 1 -1 0
4444 1 1.2097523582529361e+01 1.2844229125405191e+01 7.1759730086055233e+00 1 -2 1
2066 1 1.0021724509150784e+01 2.2632397391786903e+00 6.9885333977786894e+00 3 3 0
982 1 4.4908612017351057e+00 1.2987156286824840e+01 9.5387166624791515e+00 0 1 0
4560 1 1.6115062739847967e+00 5.6775920071673385e+00 7.2872996065590527e+00 -2 -1 1
3731 1 2.8348927938248694e+00 7.5549305342985127e+00 5.8413941989884863e+00 0 -1 1
3556 1 6.0406214929748057e+00 4.1926549546491581e+00 6.9271719636508591e+00 -1 -3 0
3497 1 6.9783884515897432e+00 6.6051146876859761e+00 5.8793438802911364e+00 0 -1 0
3638 1 9.6270082323544077e+00 6.8352011254119818e+00 6.8399933992696269e+00 -2 6 1
2047 1 1.1130736305122991e+01 4.5251723981719918e+00 5.8665661545896857e+00 -1 3 0
5453 1 1.2948740899894307e+00 9.9141758793286723e+00 6.8068535980986047e+00 2 1 0
4398 1 5.4336079552578740e+00 8.2735993358271092e+00 6.9433509534187223e+00 0 2 1
448 1 6.0358780485862562e+00 1.0852859134748533e+01 5.8869697954663636e+00 1 1 0
839 1 8.3772106059862299e+00 1.1390848166174083e+01 6.6469391967792051e+00 -1 2 0
995 1 9.9127345214897549e+00 9.3941668402369167e+00 5.6895904936632240e+00 0 0 1
5121 1 2.1067390857673804e+00 1.2426918531495863e+01 5.8157922239818296e+00 -3 4 1
2895 1 4.6427476588785094e-01 1.4176107594210791e+01 7.1086651654582225e+00 1 0 1
3527 1 4.6460351471541061e+00 1.3012777070256474e+01 6.7958050242318508e+00 0 0 0
2558 1 5.8289279841214379e+00 1.5515719810075419e+01 5.9638376858599029e+00 1 1 1
5501 1 8.1269818008328851e+00 1.6073372078675906e+01 6.8248758677853427e+00 -2 2 0
5382 1 3.0833056739647864e+00 1.4984675475647535e+01 1.0529333612746733e+01 -1 1 0
2716 1 9.6053481328478529e+00 1.3701578146532817e+01 5.8454696437638169e+00 3 0 0
3518 1 2.6894298195381641e+00 1.7241606175046666e+00 9.5096504817271956e+00 3 -4 0
3438 1 1.1138556450868478e+00 3.6360071377540333e+00 1.0588786149918144e+01 0 3 1
5406 1 5.1913440697366431e+00 2.1461138605670023e+00 1.0428364760717489e+01 0 2 0
6104 1 6.2299897813995280e+00 4.4455493978142604e+00 9.5495227724866929e+00 -2 0 1
1937 1 1.0073693174282113e+01 2.4968358027917739e+00 9.5781736112013185e+00 1 -2 1
5992 1 7.1077075123414311e+00 1.4112938430565057e+01 1.0917317061756966e+01 -3 0 1
5098 1 7.2086912739468556e-01 1.4726311044652643e+01 2.2893223222725831e+00 0 0 0
4153 1 2.0153018514850536e+00 6.0258997560815724e+00 9.8076632303953062e+00 -2 -4 1
6231 1 4.5478700273900126e+00 6.5232591040920775e+00 1.0644823413535876e+01 -1 2 1
4146 1 5.2637600171296492e+00 8.6669372878773299e+00 9.6055598189001632e+00 -1 -2 1
5921 1 5.8643793972913494e-01 1.4570293853831075e+01 9.8899995649583357e+00 4 -4 0
3372 1 8.6800849848288006e+00 4.8434195118017191e+00 1.0410472942147434e+01 -1 1 1
424 1 9.2838713896417513e+00 7.3794090354754394e+00 9.5643995666211055e+00 -1 0 0
3840 1 1.0133269628937047e+00 9.9924690167240140e+00 9.5780470935277826e+00 2 -1 0
2835 1 3.6061395055131040e+00 1.0504268146158736e+01 1.0276520942388816e+01 3 -6 1
3393 1 7.6874321854316099e+00 9.1597244111068381e+00 1.0625629632332556e+01 3 2 1
1768 1 8.0760529144798650e+00 1.1521788351796992e+01 9.3667193315911845e+00 0 4 0
4194 1 1.0600918798264358e+01 1.1837742994789595e+01 1.0477927210736352e+01 -1 1 1
1178 1 1.1979721884959911e+01 7.6258581446785776e+00 1.0375852453263089e+01 2 -1 1
5470 1 1.2291434285703424e+01 1.0144353633122497e+01 6.9925509227198397e+00 2 0 0
4468 1 1.2048412500004812e+01 1.4069561949381582e+01 9.7061717701455255e+00 3 -6 1
3644 1 4.1825136746848091e-01 7.8699613955943626e+00 1.0523091594497696e+01 -2 6 0
2167 1 6.4521741614588439e+00 2.1000547879228346e-01 9.3772277729641527e+00 0 1 0
2621 1 1.2266106554095018e+01 1.3016731333766415e+01 2.2013234599146454e+00 0 1 0
3598 1 1.3335510424642383e+00 3.8798872584203994e+00 1.3323256430722866e+01 0 2 0
436 1 3.9126971521210856e+00 4.2388883223566420e+00 1.4049451154300417e+01 1 -1 0
1019 1 7.6958368129998931e+00 2.6376247678853022e+00 1.3934749855346796e+01 2 2 1
737 1 5.0540629777487762e+00 2.1551416227170415e+00 1.3204555993880499e+01 1 1 0
3748 1 1.1817016256321883e+01 3.2867963910674169e+00 2.0563926935005295e+01 2 3 0
3735 1 5.8672130801973510e-01 1.2778157359094587e+01 2.0910293374899315e+01 1 -2 1
67 1 4.4784795665150208e+00 6.8108673727178548e+00 1.3433119109570205e+01 -2 1 1
3505 1 7.2158159847709786e+00 6.9514513101172257e+00 1.4295165639168705e+01 0 1 0
4392 1 1.1179843726858225e+01 5.1184079080871694e+00 1.4053084233819478e+01 2 -2 1
1795 1 8.6952997527948259e+00 4.8387583681754247e+00 1.3205491570039062e+01 -3 2 0
5561 1 2.8405786254718235e-01 1.5013303761677843e+00 1.4224206766113918e+01 0 0 0
4350 1 2.5203037746276462e+00 8.5428696642062540e+00 1.4578176483390065e+01 -6 2 1
31 1 3.8427286307756914e+00 1.0447309881544511e+01 1.2832321980899639e+01 0 0 0
279 1 2.3783329836353180e+00 1.2405818778484006e+01 1.3961276329771724e+01 -5 5 0
2502 1 6.4520021254628279e+00 1.0924450832706080e+01 1.4129673304143399e+01 0 -1 0
4366 1 8.0547527966183701e+00 9.0070855979840836e+00 1.3136798612807651e+01 3 -1 1
4141 1 1.1312748891539941e+01 1.1908299949262956e+01 1.3050671716001851e+01 3 6 0
2701 1 1.0442611566997588e+01 9.5197107836119006e+00 1.3853355360907788e+01 3 0 1
2043 1 3.4173050971053693e+00 1.4968382513224700e+01 1.3513244897880231e+01 0 -1 0
3395 1 5.8162748335921579e+00 1.5317472108583374e+01 1.4203781019785890e+01 3 2 1
2538 1 7.4937262165970875e+00 1.3340806647811181e+01 1.3520308507324478e+01 2 0 1
5415 1 1.0003792643179741e+01 1.3863563414584027e+01 1.4282574166372706e+01 0 3 0
5081 1 1.0494853801206137e+01 1.6314217053619060e+01 1.3407008714492900e+01 2 -4 0
5916 1 3.2931594270312279e+00 1.2751721439876735e+00 1.7809789947381311e+01 4 1 1
5365 1 3.8636559212671253e+00 3.8207347001096275e+00 1.6817139796088963e+01 3 -2 0
5403 1 1.0304717363554532e+01 1.2935777998746108e+01 2.0619916585196908e+01 1 0 0
1872 1 7.8097187648844359e+00 2.6553817063678991e+00 1.6701780747010499e+01 -1 -2 0
3712 1 6.2002188477090137e+00 4.5153880362403296e+00 1.7786308555949201e+01 -1 0 0
1053 1 3.2423158396542068e-01 7.8770062108383572e+00 1.3186035517952963e+01 0 1 1
821 1 1.0358429008257076e+01 2.7115445485703229e+00 1.7913891669264384e+01 1 -2 1
1042 1 2.4724662671575217e+00 5.9395134658967486e+00 1.8080924862067882e+01 0 0 1
1904 1 6.9531102146520700e+00 6.8841172284673711e+00 1.6980703333682584e+01 0 -1 1
2076 1 1.1173107063825480e+01 4.9721975423081837e+00 1.6768492775552829e+01 1 3 0
2107 1 9.5652348993348468e+00 7.1650944889779469e+00 1.7979411497182696e+01 3 4 0
1933 1 3.0331435180878357e+00 8.4691412820383167e+00 1.7344581329703317e+01 -4 4 0
3860 1 1.6426098809941723e+00 1.0473320955190886e+01 1.8093398742112669e+01 3 1 0
2100 1 5.6169089938908403e+00 8.7709321089065178e+00 1.7810025161429849e+01 0 -1 0
2485 1 6.8057551188789338e+00 1.0863082788398076e+01 1.6782728351305011e+01 1 -1 1
3677 1 1.0392791179219330e+01 9.2350998646540567e+00 1.6497021425488946e+01 3 5 0
5200 1 9.1187766948147839e+00 1.1340956707598453e+01 1.7957921475829796e+01 2 2 0
1805 1 2.1281639438492381e+00 1.2635639610600679e+01 1.6626026996786955e+01 1 1 1
125 1 5.2135651590907350e-01 1.4095138558048715e+01 1.8213950186039987e+01 1 1 1
812 1 4.8580052364363668e+00 1.2582943132309605e+01 1.7596485641175761e+01 1 0 1
2651 1 5.7611793795948447e+00 1.5122247199100604e+01 1.7014375514121763e+01 2 1 0
330 1 8.3713430199980365e+00 1.5648968814224022e+01 1.7981981738896721e+01 -5 -1 0
2098 1 8.6265344440251379e+00 1.5052768901767546e+01 2.0706275276990105e+01 2 -2 0
4237 1 9.8674249512998635e+00 1.3730169174966367e+01 1.7019153437890463e+01 -1 -2 1
223 1 1.0481415668269271e+01 1.2743730418011252e+01 2.3363606869680794e+01 1 1 0
3793 1 3.5307989572823257e+00 1.5416933674291446e+00 2.0544122974200953e+01 -1 2 0
2515 1 1.7156781565217658e+00 3.3983377786657467e+00 2.1189799987343825e+01 2 -1 1
6112 1 5.7680605370071918e+00 1.4634880947597471e+01 2.1110017942705671e+01 -1 -2 0
4333 1 1.0195195867865644e+01 5.2121679154117633e+00 2.3519234896984216e+01 -1 1 1
5873 1 9.2811427762103165e+00 3.2299667802170606e-01 1.3194892780031072e+01 -1 0 1
4595 1 6.2891504829278304e+00 2.0589849490491616e+00 2.1372478419077019e+01 2 2 0
5109 1 5.7305130296882281e+00 6.6508440581427983e+00 2.3502908474864860e+01 0 -2 0
806 1 1.1968746878490339e+01 7.4280267463687615e+00 1.3048211103280009e+01 1 3 0
3612 1 3.2107376152251366e+00 6.2793651985951522e+00 2.3849218007942941e+01 4 8 0
6124 1 8.6402710533420457e+00 1.4960764724115075e+01 2.3720447952773025e+01 0 -2 1
2483 1 2.8941751842745620e+00 5.8188681338343464e+00 2.0541160949241650e+01 1 -2 1
1068 1 1.4120924607903402e+00 8.2873330930738582e+00 2.3815637522134423e+01 -1 -2 1
5852 1 7.2108866378314920e+00 4.4926639757655416e+00 2.0326023519786109e+01 4 -1 0
5514 1 5.5064561856211398e+00 6.7004568813060539e+00 2.0787191889203463e+01 0 -1 0
258 1 9.5926367275823292e+00 1.0176926935263515e+01 2.3615592774876834e+01 1 2 0
207 1 2.3657233496982566e+00 1.0852269683307178e+01 2.3651539185871595e+01 0 0 0
5541 1 1.1656002350589056e+01 5.5424097695478347e-01 1.6664418395341098e+01 -2 -2 0
3391 1 7.1739966995397098e-01 1.2942371578678770e+01 2.4000508406774426e+01 -1 3 0
2678 1 1.0243223858139237e+01 5.5405340391419813e+00 2.0487040830331509e+01 0 1 1
2567 1 6.6481026660754399e+00 9.4402724949399666e+00 2.3870193852582691e+01 2 2 1
3531 1 1.4033267085138690e+00 8.2193004995142100e+00 2.1010792728295637e+01 2 1 0
3642 1 2.5031454206789276e+00 1.0816798110387765e+01 2.0950697020432425e+01 2 2 0
5421 1 6.0934508224075925e+00 1.4226077665386960e+01 2.3674277522978443e+01 -1 1 0
1817 1 8.3186647240118317e-01 1.4482360230288651e+00 1.6792680748023688e+01 2 -1 1
4387 1 4.9875779295016018e+00 1.1972347375477812e+01 2.0325903672966124e+01 5 -1 1
111 1 6.5812986724174971e+00 9.5941035539947244e+00 2.0951891153377701e+01 -4 0 1
25 1 7.7517950083416416e+00 4.3329559619249149e+00 2.3617103018764361e+01 0 -2 0
60 1 1.1303119087570005e+01 8.2071437513365719e+00 2.1326622762343032e+01 1 1 0
2118 1 9.1683361535751722e+00 9.9820535716313668e+00 2.0835821099140166e+01 -2 0 0
782 1 1.1793413578910501e+01 3.8741928487649085e-01 1.3912972916130419e+01 -2 4 1
1793 1 1.1301703509818068e+01 7.9735055019611645e+00 2.4044492698326255e+01 -1 2 0
5486 1 6.6998344799363361e+00 6.1444770326111800e-02 1.7837628867440063e+01 -5 4 0
3676 1 2.1356390191706089e+00 3.5385544967445735e+00 2.3938696604001382e+01 1 -1 0
5308 1 1.1957091483681294e+01 3.3628531007034854e+00 2.3640757890320916e+01 -2 1 0
4243 1 4.9670693926844818e+00 1.1799104883559449e+01 2.3727503714664934e+01 1 -1 1
3744 1 1.9315699186319391e+00 1.5609796868518359e+01 2.0918315872101267e+01 0 1 0
2541 1 3.9334500516859401e+00 1.3328774875165696e+00 2.3741936562913384e+01 1 -2 1
182 1 1.6857992030785074e+00 1.5799817726648348e+01 2.3809308116320931e+01 2 1 0
511 2 0.0000000000000000e+00 2.8417180249513345e+00 2.6791924220428161e+01 0 0 0
512 2 0.0000000000000000e+00 0.0000000000000000e+00 2.6791924220428161e+01 0 0 0
513 2 1.2305000000000001e+00 7.1042950623783474e-01 2.6791924220428161e+01 0 0 0
517 2 1.2305000000000001e+00 2.1312885187134998e+00 2.6791924220428161e+01 0 0 0
518 2 2.4610000000000003e+00 2.8417180249513345e+00 2.6791924220428161e+01 0 0 0
519 2 2.4610000000000003e+00 0.0000000000000000e+00 2.6791924220428161e+01 0 0 0
520 2 3.6915000000000004e+00 7.1042950623783474e-01 2.6791924220428161e+01 0 0 0
528 2 3.6914999999999996e+00 2.1312885187134998e+00 2.6791924220428161e+01 0 0 0
529 2 4.9220000000000006e+00 2.8417180249513332e+00 2.6791924220428161e+01 0 0 0
530 2 4.9220000000000006e+00 0.0000000000000000e+00 2.6791924220428161e+01 0 0 0
531 2 6.1524999999999999e+00 7.1042950623783407e-01 2.6791924220428161e+01 0 0 0
543 2 6.1524999999999999e+00 2.1312885187134989e+00 2.6791924220428161e+01 0 0 0
544 2 7.3829999999999991e+00 2.8417180249513345e+00 2.6791924220428161e+01 0 0 0
545 2 7.3829999999999991e+00 0.0000000000000000e+00 2.6791924220428161e+01 0 0 0
546 2 8.6134999999999984e+00 7.1042950623783407e-01 2.6791924220428161e+01 0 0 0
562 2 8.6134999999999984e+00 2.1312885187135002e+00 2.6791924220428161e+01 0 0 0
563 2 9.8440000000000012e+00 2.8417180249513332e+00 2.6791924220428161e+01 0 0 0
564 2 9.8440000000000012e+00 0.0000000000000000e+00 2.6791924220428161e+01 0 0 0
565 2 1.1074500000000002e+01 7.1042950623783330e-01 2.6791924220428161e+01 0 0 0
585 2 1.1074500000000002e+01 2.1312885187135002e+00 2.6791924220428161e+01 0 0 0
514 2 0.0000000000000000e+00 7.1042950623783341e+00 2.6791924220428161e+01 0 0 0
515 2 0.0000000000000000e+00 4.2625770374269996e+00 2.6791924220428161e+01 0 0 0
516 2 1.2305000000000001e+00 4.9730065436648339e+00 2.6791924220428161e+01 0 0 0
524 2 1.2305000000000001e+00 6.3938655561404980e+00 2.6791924220428161e+01 0 0 0
525 2 2.4610000000000003e+00 7.1042950623783341e+00 2.6791924220428161e+01 0 0 0
526 2 2.4610000000000003e+00 4.2625770374269996e+00 2.6791924220428161e+01 0 0 0
527 2 3.6914999999999996e+00 4.9730065436648339e+00 2.6791924220428161e+01 0 0 0
539 2 3.6914999999999996e+00 6.3938655561404980e+00 2.6791924220428161e+01 0 0 0
540 2 4.9220000000000006e+00 7.1042950623783341e+00 2.6791924220428161e+01 0 0 0
541 2 4.9220000000000006e+00 4.2625770374269978e+00 2.6791924220428161e+01 0 0 0
542 2 6.1524999999999999e+00 4.9730065436648339e+00 2.6791924220428161e+01 0 0 0
558 2 6.1524999999999999e+00 6.3938655561404980e+00 2.6791924220428161e+01 0 0 0
559 2 7.3830000000000009e+00 7.1042950623783341e+00 2.6791924220428161e+01 0 0 0
560 2 7.3829999999999991e+00 4.2625770374269996e+00 2.6791924220428161e+01 0 0 0
561 2 8.6135000000000002e+00 4.9730065436648339e+00 2.6791924220428161e+01 0 0 0
581 2 8.6135000000000002e+00 6.3938655561404980e+00 2.6791924220428161e+01 0 0 0
582 2 9.8440000000000012e+00 7.1042950623783341e+00 2.6791924220428161e+01 0 0 0
583 2 9.8440000000000012e+00 4.2625770374270004e+00 2.6791924220428161e+01 0 0 0
584 2 1.1074500000000002e+01 4.9730065436648339e+00 2.6791924220428161e+01 0 0 0
605 2 1.1074500000000002e+01 6.3938655561404980e+00 2.6791924220428161e+01 0 0 0
521 2 0.0000000000000000e+00 1.1366872099805333e+01 2.6791924220428161e+01 0 0 0
522 2 0.0000000000000000e+00 8.5251540748539991e+00 2.6791924220428161e+01 0 0 0
523 2 1.2305000000000001e+00 9.2355835810918343e+00 2.6791924220428161e+01 0 0 0
535 2 1.2305000000000001e+00 1.0656442593567498e+01 2.6791924220428161e+01 0 0 0
536 2 2.4610000000000003e+00 1.1366872099805333e+01 2.6791924220428161e+01 0 0 0
537 2 2.4610000000000003e+00 8.5251540748539991e+00 2.6791924220428161e+01 0 0 0
538 2 3.6915000000000004e+00 9.2355835810918343e+00 2.6791924220428161e+01 0 0 0
554 2 3.6914999999999996e+00 1.0656442593567499e+01 2.6791924220428161e+01 0 0 0
555 2 4.9220000000000006e+00 1.1366872099805333e+01 2.6791924220428161e+01 0 0 0
556 2 4.9220000000000006e+00 8.5251540748539991e+00 2.6791924220428161e+01 0 0 0
557 2 6.1524999999999999e+00 9.2355835810918343e+00 2.6791924220428161e+01 0 0 0
577 2 6.1524999999999999e+00 1.0656442593567499e+01 2.6791924220428161e+01 0 0 0
578 2 7.3829999999999991e+00 1.1366872099805333e+01 2.6791924220428161e+01 0 0 0
579 2 7.3830000000000009e+00 8.5251540748539991e+00 2.6791924220428161e+01 0 0 0
580 2 8.6134999999999984e+00 9.2355835810918343e+00 2.6791924220428161e+01 0 0 0
601 2 8.6134999999999984e+00 1.0656442593567498e+01 2.6791924220428161e+01 0 0 0
602 2 9.8440000000000012e+00 1.1366872099805333e+01 2.6791924220428161e+01 0 0 0
603 2 9.8440000000000012e+00 8.5251540748539956e+00 2.6791924220428161e+01 0 0 0
604 2 1.1074500000000002e+01 9.2355835810918343e+00 2.6791924220428161e+01 0 0 0
625 2 1.1074500000000002e+01 1.0656442593567498e+01 2.6791924220428161e+01 0 0 0
626 2 1.2304999999999998e+01 1.1366872099805333e+01 2.6791924220428161e+01 0 0 0
1522 2 9.8440000000000012e+00 1.5629449137232328e+01 3.3270075779588211e+01 0 0 0
532 2 0.0000000000000000e+00 1.5629449137232333e+01 2.6791924220428161e+01 0 0 0
533 2 0.0000000000000000e+00 1.2787731112280996e+01 2.6791924220428161e+01 0 0 0
534 2 1.2305000000000001e+00 1.3498160618518829e+01 2.6791924220428161e+01 0 0 0
550 2 1.2305000000000001e+00 1.4919019630994494e+01 2.6791924220428161e+01 0 0 0
551 2 2.4610000000000003e+00 1.5629449137232328e+01 2.6791924220428161e+01 0 0 0
552 2 2.4610000000000003e+00 1.2787731112280996e+01 2.6791924220428161e+01 0 0 0
553 2 3.6915000000000004e+00 1.3498160618518829e+01 2.6791924220428161e+01 0 0 0
573 2 3.6915000000000004e+00 1.4919019630994494e+01 2.6791924220428161e+01 0 0 0
574 2 4.9220000000000006e+00 1.5629449137232333e+01 2.6791924220428161e+01 0 0 0
575 2 4.9220000000000006e+00 1.2787731112280996e+01 2.6791924220428161e+01 0 0 0
576 2 6.1524999999999990e+00 1.3498160618518829e+01 2.6791924220428161e+01 0 0 0
597 2 6.1524999999999990e+00 1.4919019630994494e+01 2.6791924220428161e+01 0 0 0
598 2 7.3829999999999991e+00 1.5629449137232333e+01 2.6791924220428161e+01 0 0 0
599 2 7.3829999999999991e+00 1.2787731112280996e+01 2.6791924220428161e+01 0 0 0
600 2 8.6135000000000002e+00 1.3498160618518835e+01 2.6791924220428161e+01 0 0 0
621 2 8.6135000000000002e+00 1.4919019630994494e+01 2.6791924220428161e+01 0 0 0
622 2 9.8440000000000012e+00 1.5629449137232328e+01 2.6791924220428161e+01 0 0 0
623 2 9.8440000000000012e+00 1.2787731112280996e+01 2.6791924220428161e+01 0 0 0
624 2 1.1074500000000002e+01 1.3498160618518829e+01 2.6791924220428161e+01 0 0 0
642 2 1.1074500000000002e+01 1.4919019630994494e+01 2.6791924220428161e+01 0 0 0
1250 2 0.0000000000000000e+00 1.4208590124756650e+00 3.0031000000001747e+01 0 0 0
1251 2 0.0000000000000000e+00 0.0000000000000000e+00 3.0031000000001747e+01 0 0 0
1254 2 1.2305000000000001e+00 3.5521475311891644e+00 3.0031000000001747e+01 0 0 0
1255 2 1.2305000000000001e+00 2.1312885187134998e+00 3.0031000000001747e+01 0 0 0
1256 2 2.4610000000000003e+00 1.4208590124756650e+00 3.0031000000001747e+01 0 0 0
1257 2 2.4610000000000003e+00 0.0000000000000000e+00 3.0031000000001747e+01 0 0 0
1264 2 3.6914999999999996e+00 3.5521475311891644e+00 3.0031000000001747e+01 0 0 0
1265 2 3.6914999999999996e+00 2.1312885187134998e+00 3.0031000000001747e+01 0 0 0
1266 2 4.9220000000000006e+00 1.4208590124756650e+00 3.0031000000001747e+01 0 0 0
1267 2 4.9220000000000006e+00 0.0000000000000000e+00 3.0031000000001747e+01 0 0 0
1278 2 6.1524999999999999e+00 3.5521475311891644e+00 3.0031000000001747e+01 0 0 0
1279 2 6.1524999999999999e+00 2.1312885187134989e+00 3.0031000000001747e+01 0 0 0
1280 2 7.3829999999999991e+00 1.4208590124756659e+00 3.0031000000001747e+01 0 0 0
1281 2 7.3829999999999991e+00 0.0000000000000000e+00 3.0031000000001747e+01 0 0 0
1296 2 8.6134999999999984e+00 3.5521475311891657e+00 3.0031000000001747e+01 0 0 0
1297 2 8.6134999999999984e+00 2.1312885187135002e+00 3.0031000000001747e+01 0 0 0
1298 2 9.8440000000000012e+00 1.4208590124756659e+00 3.0031000000001747e+01 0 0 0
1299 2 9.8440000000000012e+00 0.0000000000000000e+00 3.0031000000001747e+01 0 0 0
1318 2 1.1074500000000002e+01 3.5521475311891644e+00 3.0031000000001747e+01 0 0 0
1319 2 1.1074500000000002e+01 2.1312885187135002e+00 3.0031000000001747e+01 0 0 0
1252 2 0.0000000000000000e+00 5.6834360499026637e+00 3.0031000000001747e+01 0 0 0
1253 2 0.0000000000000000e+00 4.2625770374269996e+00 3.0031000000001747e+01 0 0 0
1260 2 1.2305000000000001e+00 7.8147245686161639e+00 3.0031000000001747e+01 0 0 0
1261 2 1.2305000000000001e+00 6.3938655561404980e+00 3.0031000000001747e+01 0 0 0
1262 2 2.4610000000000003e+00 5.6834360499026637e+00 3.0031000000001747e+01 0 0 0
1263 2 2.4610000000000003e+00 4.2625770374269996e+00 3.0031000000001747e+01 0 0 0
1274 2 3.6914999999999996e+00 7.8147245686161639e+00 3.0031000000001747e+01 0 0 0
1275 2 3.6914999999999996e+00 6.3938655561404980e+00 3.0031000000001747e+01 0 0 0
1276 2 4.9220000000000006e+00 5.6834360499026637e+00 3.0031000000001747e+01 0 0 0
1277 2 4.9220000000000006e+00 4.2625770374269978e+00 3.0031000000001747e+01 0 0 0
1292 2 6.1524999999999999e+00 7.8147245686161639e+00 3.0031000000001747e+01 0 0 0
1293 2 6.1524999999999999e+00 6.3938655561404980e+00 3.0031000000001747e+01 0 0 0
1294 2 7.3829999999999991e+00 5.6834360499026637e+00 3.0031000000001747e+01 0 0 0
1295 2 7.3829999999999991e+00 4.2625770374269996e+00 3.0031000000001747e+01 0 0 0
1314 2 8.6135000000000002e+00 7.8147245686161639e+00 3.0031000000001747e+01 0 0 0
1315 2 8.6135000000000002e+00 6.3938655561404980e+00 3.0031000000001747e+01 0 0 0
1316 2 9.8440000000000012e+00 5.6834360499026637e+00 3.0031000000001747e+01 0 0 0
1317 2 9.8440000000000012e+00 4.2625770374270004e+00 3.0031000000001747e+01 0 0 0
1337 2 1.1074500000000002e+01 7.8147245686161639e+00 3.0031000000001747e+01 0 0 0
1338 2 1.1074500000000002e+01 6.3938655561404980e+00 3.0031000000001747e+01 0 0 0
1258 2 0.0000000000000000e+00 9.9460130873296642e+00 3.0031000000001747e+01 0 0 0
1259 2 0.0000000000000000e+00 8.5251540748539991e+00 3.0031000000001747e+01 0 0 0
1270 2 1.2305000000000001e+00 1.2077301606043163e+01 3.0031000000001747e+01 0 0 0
1271 2 1.2305000000000001e+00 1.0656442593567498e+01 3.0031000000001747e+01 0 0 0
1272 2 2.4610000000000003e+00 9.9460130873296642e+00 3.0031000000001747e+01 0 0 0
1273 2 2.4610000000000003e+00 8.5251540748539991e+00 3.0031000000001747e+01 0 0 0
1288 2 3.6914999999999996e+00 1.2077301606043163e+01 3.0031000000001747e+01 0 0 0
1289 2 3.6914999999999996e+00 1.0656442593567499e+01 3.0031000000001747e+01 0 0 0
1290 2 4.9220000000000006e+00 9.9460130873296642e+00 3.0031000000001747e+01 0 0 0
1291 2 4.9220000000000006e+00 8.5251540748539991e+00 3.0031000000001747e+01 0 0 0
1310 2 6.1524999999999999e+00 1.2077301606043163e+01 3.0031000000001747e+01 0 0 0
1311 2 6.1524999999999999e+00 1.0656442593567499e+01 3.0031000000001747e+01 0 0 0
1312 2 7.3830000000000009e+00 9.9460130873296642e+00 3.0031000000001747e+01 0 0 0
1313 2 7.3830000000000009e+00 8.5251540748539991e+00 3.0031000000001747e+01 0 0 0
1333 2 8.6135000000000002e+00 1.2077301606043163e+01 3.0031000000001747e+01 0 0 0
1334 2 8.6134999999999984e+00 1.0656442593567498e+01 3.0031000000001747e+01 0 0 0
1335 2 9.8440000000000012e+00 9.9460130873296642e+00 3.0031000000001747e+01 0 0 0
1336 2 9.8440000000000012e+00 8.5251540748539956e+00 3.0031000000001747e+01 0 0 0
1356 2 1.1074500000000002e+01 1.2077301606043163e+01 3.0031000000001747e+01 0 0 0
1357 2 1.1074500000000002e+01 1.0656442593567498e+01 3.0031000000001747e+01 0 0 0
1268 2 0.0000000000000000e+00 1.4208590124756663e+01 3.0031000000001747e+01 0 0 0
1269 2 0.0000000000000000e+00 1.2787731112280996e+01 3.0031000000001747e+01 0 0 0
1285 2 1.2305000000000001e+00 1.4919019630994494e+01 3.0031000000001747e+01 0 0 0
1286 2 2.4610000000000003e+00 1.4208590124756663e+01 3.0031000000001747e+01 0 0 0
1287 2 2.4610000000000003e+00 1.2787731112280996e+01 3.0031000000001747e+01 0 0 0
1307 2 3.6915000000000004e+00 1.4919019630994494e+01 3.0031000000001747e+01 0 0 0
1308 2 4.9220000000000006e+00 1.4208590124756663e+01 3.0031000000001747e+01 0 0 0
1309 2 4.9220000000000006e+00 1.2787731112280996e+01 3.0031000000001747e+01 0 0 0
1330 2 6.1524999999999990e+00 1.4919019630994494e+01 3.0031000000001747e+01 0 0 0
1331 2 7.3830000000000009e+00 1.4208590124756663e+01 3.0031000000001747e+01 0 0 0
1332 2 7.3829999999999991e+00 1.2787731112280996e+01 3.0031000000001747e+01 0 0 0
1354 2 9.8440000000000012e+00 1.4208590124756663e+01 3.0031000000001747e+01 0 0 0
1375 2 1.2304999999999998e+01 1.4208590124756658e+01 3.0031000000001747e+01 0 0 0
1353 2 8.6135000000000002e+00 1.4919019630994494e+01 3.0031000000001747e+01 0 0 0
1355 2 9.8440000000000012e+00 1.2787731112280996e+01 3.0031000000001747e+01 0 0 0
1373 2 1.1074500000000002e+01 1.6339878643470161e+01 3.0031000000001747e+01 0 0 0
1374 2 1.1074500000000002e+01 1.4919019630994494e+01 3.0031000000001747e+01 0 0 0
1411 2 0.0000000000000000e+00 2.8417180249513345e+00 3.3270075779588211e+01 0 0 0
1412 2 0.0000000000000000e+00 0.0000000000000000e+00 3.3270075779588211e+01 0 0 0
1413 2 1.2305000000000001e+00 7.1042950623783474e-01 3.3270075779588211e+01 0 0 0
1417 2 1.2305000000000001e+00 2.1312885187134998e+00 3.3270075779588211e+01 0 0 0
1418 2 2.4610000000000003e+00 2.8417180249513345e+00 3.3270075779588211e+01 0 0 0
1419 2 2.4610000000000003e+00 0.0000000000000000e+00 3.3270075779588211e+01 0 0 0
1420 2 3.6915000000000004e+00 7.1042950623783474e-01 3.3270075779588211e+01 0 0 0
1428 2 3.6914999999999996e+00 2.1312885187134998e+00 3.3270075779588211e+01 0 0 0
1524 2 1.1074500000000002e+01 1.3498160618518829e+01 3.3270075779588211e+01 0 0 0
1429 2 4.9220000000000006e+00 2.8417180249513332e+00 3.3270075779588211e+01 0 0 0
1430 2 4.9220000000000006e+00 0.0000000000000000e+00 3.3270075779588211e+01 0 0 0
1431 2 6.1524999999999999e+00 7.1042950623783407e-01 3.3270075779588211e+01 0 0 0
1443 2 6.1524999999999999e+00 2.1312885187134989e+00 3.3270075779588211e+01 0 0 0
1444 2 7.3829999999999991e+00 2.8417180249513345e+00 3.3270075779588211e+01 0 0 0
1445 2 7.3829999999999991e+00 0.0000000000000000e+00 3.3270075779588211e+01 0 0 0
1521 2 8.6135000000000002e+00 1.4919019630994494e+01 3.3270075779588211e+01 0 0 0
1446 2 8.6134999999999984e+00 7.1042950623783407e-01 3.3270075779588211e+01 0 0 0
1462 2 8.6134999999999984e+00 2.1312885187135002e+00 3.3270075779588211e+01 0 0 0
1463 2 9.8440000000000012e+00 2.8417180249513332e+00 3.3270075779588211e+01 0 0 0
1464 2 9.8440000000000012e+00 0.0000000000000000e+00 3.3270075779588211e+01 0 0 0
1465 2 1.1074500000000002e+01 7.1042950623783330e-01 3.3270075779588211e+01 0 0 0
1485 2 1.1074500000000002e+01 2.1312885187135002e+00 3.3270075779588211e+01 0 0 0
1414 2 0.0000000000000000e+00 7.1042950623783341e+00 3.3270075779588211e+01 0 0 0
1415 2 0.0000000000000000e+00 4.2625770374269996e+00 3.3270075779588211e+01 0 0 0
1416 2 1.2305000000000001e+00 4.9730065436648339e+00 3.3270075779588211e+01 0 0 0
1424 2 1.2305000000000001e+00 6.3938655561404980e+00 3.3270075779588211e+01 0 0 0
1425 2 2.4610000000000003e+00 7.1042950623783341e+00 3.3270075779588211e+01 0 0 0
1426 2 2.4610000000000003e+00 4.2625770374269996e+00 3.3270075779588211e+01 0 0 0
1427 2 3.6914999999999996e+00 4.9730065436648339e+00 3.3270075779588211e+01 0 0 0
1439 2 3.6914999999999996e+00 6.3938655561404980e+00 3.3270075779588211e+01 0 0 0
1440 2 4.9220000000000006e+00 7.1042950623783341e+00 3.3270075779588211e+01 0 0 0
1441 2 4.9220000000000006e+00 4.2625770374269978e+00 3.3270075779588211e+01 0 0 0
1442 2 6.1524999999999999e+00 4.9730065436648339e+00 3.3270075779588211e+01 0 0 0
1458 2 6.1524999999999999e+00 6.3938655561404980e+00 3.3270075779588211e+01 0 0 0
1459 2 7.3830000000000009e+00 7.1042950623783341e+00 3.3270075779588211e+01 0 0 0
1460 2 7.3829999999999991e+00 4.2625770374269996e+00 3.3270075779588211e+01 0 0 0
1461 2 8.6135000000000002e+00 4.9730065436648339e+00 3.3270075779588211e+01 0 0 0
1481 2 8.6135000000000002e+00 6.3938655561404980e+00 3.3270075779588211e+01 0 0 0
1482 2 9.8440000000000012e+00 7.1042950623783341e+00 3.3270075779588211e+01 0 0 0
1483 2 9.8440000000000012e+00 4.2625770374270004e+00 3.3270075779588211e+01 0 0 0
1484 2 1.1074500000000002e+01 4.9730065436648339e+00 3.3270075779588211e+01 0 0 0
1505 2 1.1074500000000002e+01 6.3938655561404980e+00 3.3270075779588211e+01 0 0 0
1421 2 0.0000000000000000e+00 1.1366872099805333e+01 3.3270075779588211e+01 0 0 0
1422 2 0.0000000000000000e+00 8.5251540748539991e+00 3.3270075779588211e+01 0 0 0