LAMMPS data file via write_data, version 16 Mar 2018, timestep = 100000

6328 atoms
2 atom types

0.0000000000000000e+00 4.9219999999999999e+01 xlo xhi
0.0000000000000000e+00 4.9019635930410494e+01 ylo yhi
3.5982701068652538e+00 5.6463729893134030e+01 zlo zhi

Masses

1 18.015
2 12.01

Atoms # atomic

6154 1 6.1946512271010903e+00 8.9451733910597397e+00 4.6955377432558469e+00 0 1 0
1619 1 6.1662195143757472e+00 2.1801276041967865e+00 6.2696280763019328e+00 1 -1 1
5093 1 9.1036745269930357e+00 1.3726074077380577e+01 1.1442032075258203e+01 1 0 1
2934 1 7.6236505812467428e+00 1.0776340117910188e+00 4.0337490238248304e+00 0 0 1
3054 1 1.9239292791106735e+00 5.6517245030467311e+00 7.3208831174649154e+00 1 1 0
6237 1 2.6809429873232569e+00 4.6037624234223014e+00 4.8748061243655627e+00 1 1 0
367 1 9.6450521616634273e+00 9.8531797643464714e+00 1.2374491719350125e+01 0 -1 0
1955 1 5.9265012826939154e+00 4.8379746640866257e+00 5.7148048829771927e+00 1 1 1
4921 1 2.8181695560781170e+00 7.6636265356570350e+00 9.0373720334034289e+00 0 0 0
3064 1 3.2188483139185835e+00 1.0462471207630756e+01 7.6314150036816413e+00 0 1 0
4884 1 4.7620355521524020e+00 7.8121790767308728e+00 6.7034019434133896e+00 2 1 0
2895 1 4.7280419007288899e+00 1.3637220629198982e+01 7.1269515220985067e+00 -1 1 1
1925 1 1.4751474969267546e+00 1.1016536414682008e+01 5.3513487783499887e+00 1 0 0
3470 1 3.8877545383878265e+00 1.2515004388535797e+01 9.6451574933813635e+00 1 0 0
1423 1 1.5585164412557926e+00 5.7598096110173307e+00 1.1985905485772086e+01 0 1 1
5240 1 7.2799109936241670e+00 8.6027202736111636e+00 8.2703973087896294e+00 1 0 0
42 1 2.3215245401523332e+00 1.4883088620805212e+01 5.5286970666844306e+00 1 0 0
1761 1 9.4513796288882652e+00 2.7732352355862693e+00 1.1521425173165031e+01 1 0 0
1598 1 8.5969017666755878e+00 1.1954859208470905e+01 5.6968284018076663e+00 0 -1 1
172 1 6.7798386441302201e+00 1.5725915029894539e+01 1.0856184527757119e+01 0 0 0
5172 1 2.4212373884056420e+00 7.2050732116358607e-01 8.2142073908823203e+00 0 0 1
2092 1 4.5542264638106280e+00 1.0632253091741006e-01 9.9247851753750371e+00 1 1 1
1745 1 5.2743118400651952e+00 2.1968603458461842e+00 1.2300119670338548e+01 1 1 0
2142 1 6.5008973416330234e+00 2.5126112046171589e+00 9.0298716720071610e+00 1 0 1
467 1 8.5894951992102300e+00 7.1498935818414222e-01 9.2232488006868945e+00 0 0 0
1310 1 1.6462130748944506e+00 3.2308967362928653e+00 8.7165991115548458e+00 0 0 1
1509 1 3.2684435890319445e+00 3.9829290993998745e+00 1.0696859080374132e+01 0 0 1
6038 1 9.5113005294502386e+00 9.7113055598109472e+00 7.0489274233872230e+00 0 0 1
5257 1 7.5117643019667071e+00 4.5808400845037003e+00 1.2275146943254690e+01 0 0 1
1528 1 8.8636586302528677e+00 1.4284135242881927e+01 7.9782100483679423e+00 0 1 0
1253 1 5.9124725416797625e+00 5.2913784912466895e+00 1.0270301815700543e+01 1 0 1
4981 1 8.8183766948259663e+00 1.1600742297049871e+01 9.5811801898952993e+00 1 1 0
268 1 7.4952011440722028e+00 5.7990295098233000e+00 8.0747969820726855e+00 0 -1 0
6293 1 5.8675276569385284e+00 1.2092218285753185e+01 4.9915889635874642e+00 1 -1 0
4474 1 9.3902942788189159e-01 9.8347265450008958e+00 9.6014245740945903e+00 1 0 1
3579 1 8.0899601584814307e-01 8.4219723543898031e+00 4.4811850609520585e+00 0 -1 0
4554 1 4.6797278675983724e+00 7.9711714479946885e+00 1.0734792768480419e+01 1 0 1
1516 1 3.2346745699049846e+00 7.3427664569160882e+00 4.1199373067299341e+00 1 0 1
5137 1 8.1671747017333960e+00 7.7037679049762620e+00 1.1124186548077555e+01 1 0 0
6007 1 1.1496978000427298e+00 1.3826699500983535e+01 8.6399980909107938e+00 0 1 0
294 1 4.1515700880555508e+00 1.4608141366374488e+01 1.2189267654932085e+01 2 0 0
6074 1 6.1470073769945923e+00 1.0545683627075265e+01 1.0396463478744778e+01 -1 1 1
5033 1 4.0135891454116015e+00 1.8813314611851191e+00 4.7980343510598980e+00 0 0 0
1778 1 7.5639273819971464e+00 6.5659949595611955e-01 1.2126031834890680e+01 -2 1 0
4649 1 1.8465232109262235e+00 1.1142053862793301e+01 1.2314970884422859e+01 0 0 1
6077 1 3.8815032896162949e-01 1.0331463298135433e+00 3.8000240421384319e+00 -1 1 1
4579 1 2.8711007879988690e+00 1.2818088106814610e+01 3.5987697753315899e+00 1 0 0
413 1 1.8744719566841406e+00 4.3015183769189456e+00 1.4591599595293795e+01 1 0 0
5074 1 4.7041367383078105e+00 3.7991112917332481e+00 1.4522771397802581e+01 1 0 0
3118 1 4.7092649588972249e+00 6.8596232397842560e-01 1.9420544872188515e+01 0 0 1
3657 1 1.9410218529619028e+00 2.1042733257328505e+00 1.2560282586298250e+01 0 0 0
1650 1 8.3442357606338433e+00 5.9114129690900130e+00 2.0264303084964123e+01 0 0 0
2019 1 2.3047582727553936e-01 1.2758555938878409e+01 1.5797526549928490e+01 1 0 1
4979 1 4.8067401069063358e+00 8.3413745798057395e+00 1.5010644309948358e+01 0 1 0
1936 1 3.2808894735418228e+00 1.0026311238131800e+01 1.6989820628694112e+01 0 0 0
4995 1 7.2610084256476659e+00 1.3236510358705091e+01 1.3522775389086256e+01 0 0 0
229 1 6.5787241272828139e+00 9.9791916764058524e+00 1.2924161690326892e+01 1 0 0
3163 1 2.5595023035134599e+00 1.4247750502803793e+01 1.6290522495640534e+01 2 0 2
4953 1 1.1744954440795379e+00 1.0146725757388042e+01 1.4950489658155012e+01 1 0 0
4908 1 2.7743157647056709e+00 2.3308774393200493e-01 1.7176496807863320e+01 0 3 1
4451 1 4.4349190293437166e+00 1.1984378721790824e+01 1.3405461462906510e+01 1 1 1
5271 1 8.5543028697528580e+00 1.2722144310963978e+01 1.6364944392880865e+01 0 1 1
4766 1 9.0799517277236976e+00 1.0092881444082529e+01 1.5198005288268403e+01 0 1 1
2013 1 9.5517198445672822e+00 9.3713452046991108e-02 1.4571859795590063e+01 -1 0 0
1602 1 2.2236049977820063e+00 1.5602025925973646e+01 1.3677644282858751e+01 1 1 0
1918 1 9.2925920407307068e+00 8.0895835561068594e+00 1.8668919119989390e+01 0 0 1
5078 1 1.7314314098545021e+00 1.3206277435104200e+01 2.1211030972307803e+01 1 1 1
4741 1 6.7775975607775807e-01 8.7403865325344334e+00 2.0572338004009847e+01 1 0 0
1869 1 7.2381377297575016e+00 1.1352645133743467e+01 1.8263875115164296e+01 1 1 1
5162 1 5.3149631551314380e+00 1.8604919681106975e+00 1.6262144763034868e+01 0 0 0
1720 1 3.7171691418751935e+00 3.2148746764449099e+00 1.9308022617890252e+01 1 0 1
142 1 8.8653548330387721e+00 1.5967703451343938e+01 1.5215745730197241e+01 1 1 0
4804 1 7.5794254050003405e+00 2.2827448444252378e+00 1.7729395621277668e+01 0 1 1
2062 1 2.4492257665062200e+00 6.5152991886603084e+00 1.6556623807391400e+01 2 1 0
4932 1 6.3992030293675892e+00 5.9658511934815524e+00 1.4415759845784260e+01 0 1 1
1849 1 4.3993406790221984e-01 1.1747833475237772e+00 1.7903163875584646e+01 1 0 1
4853 1 1.7738655506276735e+00 6.0970940685489845e+00 1.9594051266143587e+01 0 1 0
6041 1 4.9226523638835040e+00 6.1338015442373486e+00 1.8293357891044813e+01 1 -1 1
2128 1 8.7360721991835035e+00 5.9286861643590711e+00 1.5588477212320067e+01 0 0 0
4575 1 1.6220792036319955e+00 3.8091063606606803e+00 1.7413335541589792e+01 1 1 1
3093 1 7.6547098870680514e+00 1.8310015593133921e+00 2.0817074830222712e+01 0 0 1
284 1 7.5201413112531030e+00 4.9543644347317741e+00 1.7934155956777509e+01 1 0 1
4675 1 5.4192740834229678e+00 9.0920860997259556e+00 1.8829057526966729e+01 1 0 0
1691 1 5.4857620550377870e+00 1.4528804489458004e+01 1.8605390880430388e+01 0 0 0
3461 1 3.2349160546357010e+00 1.5592769232720512e+01 2.0418473902310648e+01 1 0 1
1726 1 5.1562299928364892e+00 1.2436278608738595e+01 2.0041764334817191e+01 1 0 1
3170 1 6.2381239601054030e+00 1.5862911925228383e+01 1.3993879022974502e+01 1 -1 1
5970 1 2.5829390775968797e+00 1.0894397915990673e+01 1.9849776069393478e+01 1 0 0
3636 1 7.1198631650950928e+00 8.6115587379098812e+00 1.6624516880014596e+01 0 0 0
1627 1 9.2181541504237892e+00 1.0225178430080559e+01 2.0713607819949083e+01 -1 0 0
3113 1 4.5670200164851202e+00 1.2447863536251973e+01 1.6468691440740677e+01 0 0 1
1952 1 7.8034822262382306e+00 1.5379159920470071e+01 1.9536159403736988e+01 0 0 0
1431 1 5.9499948747834104e+00 4.3833520186633494e+00 2.0932143869824355e+01 -1 -1 0
3473 1 2.8471216372411394e+00 7.9819118071116542e+00 1.3043585340510214e+01 1 0 0
1473 1 9.5852609070440593e+00 2.5278358317983032e+00 1.5961633845678897e+01 0 1 1
341 1 4.1034540121051721e+00 6.7873600392996503e+00 2.1118481266373344e+01 0 0 0
1815 1 4.9096759005764262e-01 1.3705867232468506e+01 1.2479293693794776e+01 1 0 0
3584 1 1.4782876894458132e+00 5.5204217531530047e+00 2.3883531215807661e+01 -1 0 1
3445 1 2.2029806078406393e+00 2.8275255535124524e+00 2.4539802055861067e+01 0 -1 0
4780 1 6.0990371448221472e+00 4.8411115571145631e+00 2.3926946346346469e+01 0 0 1
4583 1 5.2441755045146525e+00 2.2684070668710690e+00 2.4446747637656586e+01 0 1 1
5008 1 9.7218468987434061e+00 9.0532141501505112e+00 2.4250414464407058e+01 0 1 0
677 2 6.1524999999999990e+00 1.3498160618518829e+01 2.6876245553861796e+01 0 0 0
4955 1 4.5617061159504830e+00 1.6166596356049919e+01 2.4471726578013040e+01 0 0 1
4945 1 5.1297639002691098e-01 4.6490180023011707e+00 2.1568507425634152e+01 1 1 0
1380 1 4.1628719944452133e+00 6.8260823690698551e+00 2.3850999218198190e+01 0 1 0
5289 1 1.7930948181272575e+00 8.5520057571242223e+00 2.3105658258158133e+01 -1 1 0
2042 1 6.4201005264645916e+00 8.3714850931023452e+00 2.4244607276150312e+01 0 0 1
4680 1 4.2117715953159021e+00 9.6696422900017289e+00 2.1968997020660044e+01 1 -1 0
4711 1 9.0287309128536481e+00 3.0739451133981333e+00 2.3462623951648180e+01 -1 1 0
5264 1 8.6036564365043180e+00 6.2335509051034972e+00 2.4400697046165231e+01 0 1 1
280 1 1.1362268686426193e+00 1.2918438608117370e+01 2.3907974286172522e+01 1 1 1
722 2 7.3829999999999991e+00 1.2787731112280996e+01 2.6876245553861796e+01 0 0 0
245 1 3.9212763140211400e+00 1.3399822562225273e+01 2.4513795059014459e+01 1 0 0
718 2 6.1524999999999990e+00 1.4919019630994494e+01 2.6876245553861796e+01 0 0 0
1996 1 5.5313714320754865e+00 1.1145427138829820e+01 2.4721813803507075e+01 0 0 0
2897 1 8.2881486258538288e+00 1.1793266206542455e+01 2.3995536119869179e+01 0 1 1
2924 1 5.2265396142772735e-01 1.0478245427689773e+01 2.4509116675058824e+01 1 1 1
263 1 8.1559063422150828e+00 1.2650246967023390e+01 2.1380220367016193e+01 1 0 1
4460 1 8.1981725333338424e+00 3.1570505803011056e-01 2.4049348472178920e+01 1 1 1
2894 1 5.5461997836227024e+00 3.2353709478510545e-01 2.2635879721320919e+01 1 0 1
6051 1 2.1967797328523146e+00 2.3835342463259361e+00 2.1276694276625843e+01 1 1 1
552 2 0.0000000000000000e+00 2.8417180249513345e+00 2.6876245553861796e+01 0 0 0
554 2 0.0000000000000000e+00 0.0000000000000000e+00 2.6876245553861796e+01 0 0 0
556 2 1.2305000000000001e+00 7.1042950623783474e-01 2.6876245553861796e+01 0 0 0
563 2 1.2305000000000001e+00 2.1312885187134998e+00 2.6876245553861796e+01 0 0 0
565 2 2.4610000000000003e+00 2.8417180249513345e+00 2.6876245553861796e+01 0 0 0
567 2 2.4610000000000003e+00 0.0000000000000000e+00 2.6876245553861796e+01 0 0 0
569 2 3.6915000000000004e+00 7.1042950623783474e-01 2.6876245553861796e+01 0 0 0
584 2 3.6914999999999996e+00 2.1312885187134998e+00 2.6876245553861796e+01 0 0 0
586 2 4.9220000000000006e+00 2.8417180249513332e+00 2.6876245553861796e+01 0 0 0
588 2 4.9220000000000006e+00 0.0000000000000000e+00 2.6876245553861796e+01 0 0 0
590 2 6.1524999999999999e+00 7.1042950623783407e-01 2.6876245553861796e+01 0 0 0
613 2 6.1524999999999999e+00 2.1312885187134989e+00 2.6876245553861796e+01 0 0 0
615 2 7.3829999999999991e+00 2.8417180249513345e+00 2.6876245553861796e+01 0 0 0
617 2 7.3829999999999991e+00 0.0000000000000000e+00 2.6876245553861796e+01 0 0 0
619 2 8.6134999999999984e+00 7.1042950623783407e-01 2.6876245553861796e+01 0 0 0
650 2 8.6134999999999984e+00 2.1312885187135002e+00 2.6876245553861796e+01 0 0 0
559 2 0.0000000000000000e+00 4.2625770374269996e+00 2.6876245553861796e+01 0 0 0
561 2 1.2305000000000001e+00 4.9730065436648339e+00 2.6876245553861796e+01 0 0 0
576 2 1.2305000000000001e+00 6.3938655561404980e+00 2.6876245553861796e+01 0 0 0
580 2 2.4610000000000003e+00 4.2625770374269996e+00 2.6876245553861796e+01 0 0 0
582 2 3.6914999999999996e+00 4.9730065436648339e+00 2.6876245553861796e+01 0 0 0
605 2 3.6914999999999996e+00 6.3938655561404980e+00 2.6876245553861796e+01 0 0 0
557 2 0.0000000000000000e+00 7.1042950623783341e+00 2.6876245553861796e+01 0 0 0
578 2 2.4610000000000003e+00 7.1042950623783341e+00 2.6876245553861796e+01 0 0 0
609 2 4.9220000000000006e+00 4.2625770374269978e+00 2.6876245553861796e+01 0 0 0
611 2 6.1524999999999999e+00 4.9730065436648339e+00 2.6876245553861796e+01 0 0 0
642 2 6.1524999999999999e+00 6.3938655561404980e+00 2.6876245553861796e+01 0 0 0
646 2 7.3829999999999991e+00 4.2625770374269996e+00 2.6876245553861796e+01 0 0 0
648 2 8.6135000000000002e+00 4.9730065436648339e+00 2.6876245553861796e+01 0 0 0
687 2 8.6135000000000002e+00 6.3938655561404980e+00 2.6876245553861796e+01 0 0 0
607 2 4.9220000000000006e+00 7.1042950623783341e+00 2.6876245553861796e+01 0 0 0
644 2 7.3830000000000009e+00 7.1042950623783341e+00 2.6876245553861796e+01 0 0 0
572 2 0.0000000000000000e+00 8.5251540748539991e+00 2.6876245553861796e+01 0 0 0
574 2 1.2305000000000001e+00 9.2355835810918343e+00 2.6876245553861796e+01 0 0 0
601 2 2.4610000000000003e+00 8.5251540748539991e+00 2.6876245553861796e+01 0 0 0
603 2 3.6915000000000004e+00 9.2355835810918343e+00 2.6876245553861796e+01 0 0 0
570 2 0.0000000000000000e+00 1.1366872099805333e+01 2.6876245553861796e+01 0 0 0
597 2 1.2305000000000001e+00 1.0656442593567498e+01 2.6876245553861796e+01 0 0 0
599 2 2.4610000000000003e+00 1.1366872099805333e+01 2.6876245553861796e+01 0 0 0
634 2 3.6914999999999996e+00 1.0656442593567499e+01 2.6876245553861796e+01 0 0 0
638 2 4.9220000000000006e+00 8.5251540748539991e+00 2.6876245553861796e+01 0 0 0
640 2 6.1524999999999999e+00 9.2355835810918343e+00 2.6876245553861796e+01 0 0 0
683 2 7.3830000000000009e+00 8.5251540748539991e+00 2.6876245553861796e+01 0 0 0
685 2 8.6134999999999984e+00 9.2355835810918343e+00 2.6876245553861796e+01 0 0 0
636 2 4.9220000000000006e+00 1.1366872099805333e+01 2.6876245553861796e+01 0 0 0
679 2 6.1524999999999999e+00 1.0656442593567499e+01 2.6876245553861796e+01 0 0 0
681 2 7.3829999999999991e+00 1.1366872099805333e+01 2.6876245553861796e+01 0 0 0
726 2 8.6134999999999984e+00 1.0656442593567498e+01 2.6876245553861796e+01 0 0 0
595 2 1.2305000000000001e+00 1.3498160618518829e+01 2.6876245553861796e+01 0 0 0
591 2 0.0000000000000000e+00 1.5629449137232333e+01 2.6876245553861796e+01 0 0 0
632 2 3.6915000000000004e+00 1.3498160618518829e+01 2.6876245553861796e+01 0 0 0
671 2 3.6915000000000004e+00 1.4919019630994494e+01 2.6876245553861796e+01 0 0 0
626 2 1.2305000000000001e+00 1.4919019630994494e+01 2.6876245553861796e+01 0 0 0
628 2 2.4610000000000003e+00 1.5629449137232328e+01 2.6876245553861796e+01 0 0 0
593 2 0.0000000000000000e+00 1.2787731112280996e+01 2.6876245553861796e+01 0 0 0
630 2 2.4610000000000003e+00 1.2787731112280996e+01 2.6876245553861796e+01 0 0 0
675 2 4.9220000000000006e+00 1.2787731112280996e+01 2.6876245553861796e+01 0 0 0
765 2 8.6135000000000002e+00 1.4919019630994494e+01 2.6876245553861796e+01 0 0 0
673 2 4.9220000000000006e+00 1.5629449137232333e+01 2.6876245553861796e+01 0 0 0
720 2 7.3829999999999991e+00 1.5629449137232333e+01 2.6876245553861796e+01 0 0 0
724 2 8.6135000000000002e+00 1.3498160618518835e+01 2.6876245553861796e+01 0 0 0
3376 1 5.5630868706995562e+00 1.4643609018364863e+01 2.2129720046931247e+01 0 1 1
2943 1 6.7899072856921121e+00 8.1166248845870683e+00 2.1279834315490632e+01 1 1 1
553 2 0.0000000000000000e+00 1.4208590124756650e+00 3.0030999999999704e+01 0 0 0
555 2 0.0000000000000000e+00 0.0000000000000000e+00 3.0030999999999704e+01 0 0 0
564 2 1.2305000000000001e+00 2.1312885187134998e+00 3.0030999999999704e+01 0 0 0
566 2 2.4610000000000003e+00 1.4208590124756650e+00 3.0030999999999704e+01 0 0 0
568 2 2.4610000000000003e+00 0.0000000000000000e+00 3.0030999999999704e+01 0 0 0
585 2 3.6914999999999996e+00 2.1312885187134998e+00 3.0030999999999704e+01 0 0 0
562 2 1.2305000000000001e+00 3.5521475311891644e+00 3.0030999999999704e+01 0 0 0
583 2 3.6914999999999996e+00 3.5521475311891644e+00 3.0030999999999704e+01 0 0 0
881 2 0.0000000000000000e+00 2.8417180249513345e+00 3.3185754446137253e+01 0 0 0
882 2 0.0000000000000000e+00 0.0000000000000000e+00 3.3185754446137253e+01 0 0 0
883 2 1.2305000000000001e+00 7.1042950623783474e-01 3.3185754446137253e+01 0 0 0
887 2 1.2305000000000001e+00 2.1312885187134998e+00 3.3185754446137253e+01 0 0 0
888 2 2.4610000000000003e+00 2.8417180249513345e+00 3.3185754446137253e+01 0 0 0
889 2 2.4610000000000003e+00 0.0000000000000000e+00 3.3185754446137253e+01 0 0 0
890 2 3.6915000000000004e+00 7.1042950623783474e-01 3.3185754446137253e+01 0 0 0
898 2 3.6914999999999996e+00 2.1312885187134998e+00 3.3185754446137253e+01 0 0 0
587 2 4.9220000000000006e+00 1.4208590124756650e+00 3.0030999999999704e+01 0 0 0
589 2 4.9220000000000006e+00 0.0000000000000000e+00 3.0030999999999704e+01 0 0 0
614 2 6.1524999999999999e+00 2.1312885187134989e+00 3.0030999999999704e+01 0 0 0
616 2 7.3829999999999991e+00 1.4208590124756659e+00 3.0030999999999704e+01 0 0 0
618 2 7.3829999999999991e+00 0.0000000000000000e+00 3.0030999999999704e+01 0 0 0
651 2 8.6134999999999984e+00 2.1312885187135002e+00 3.0030999999999704e+01 0 0 0
612 2 6.1524999999999999e+00 3.5521475311891644e+00 3.0030999999999704e+01 0 0 0
649 2 8.6134999999999984e+00 3.5521475311891657e+00 3.0030999999999704e+01 0 0 0
899 2 4.9220000000000006e+00 2.8417180249513332e+00 3.3185754446137253e+01 0 0 0
900 2 4.9220000000000006e+00 0.0000000000000000e+00 3.3185754446137253e+01 0 0 0
901 2 6.1524999999999999e+00 7.1042950623783407e-01 3.3185754446137253e+01 0 0 0
913 2 6.1524999999999999e+00 2.1312885187134989e+00 3.3185754446137253e+01 0 0 0
914 2 7.3829999999999991e+00 2.8417180249513345e+00 3.3185754446137253e+01 0 0 0
915 2 7.3829999999999991e+00 0.0000000000000000e+00 3.3185754446137253e+01 0 0 0
916 2 8.6134999999999984e+00 7.1042950623783407e-01 3.3185754446137253e+01 0 0 0
932 2 8.6134999999999984e+00 2.1312885187135002e+00 3.3185754446137253e+01 0 0 0
558 2 0.0000000000000000e+00 5.6834360499026637e+00 3.0030999999999704e+01 0 0 0
560 2 0.0000000000000000e+00 4.2625770374269996e+00 3.0030999999999704e+01 0 0 0
577 2 1.2305000000000001e+00 6.3938655561404980e+00 3.0030999999999704e+01 0 0 0
579 2 2.4610000000000003e+00 5.6834360499026637e+00 3.0030999999999704e+01 0 0 0
581 2 2.4610000000000003e+00 4.2625770374269996e+00 3.0030999999999704e+01 0 0 0
606 2 3.6914999999999996e+00 6.3938655561404980e+00 3.0030999999999704e+01 0 0 0
575 2 1.2305000000000001e+00 7.8147245686161639e+00 3.0030999999999704e+01 0 0 0
604 2 3.6914999999999996e+00 7.8147245686161639e+00 3.0030999999999704e+01 0 0 0
885 2 0.0000000000000000e+00 4.2625770374269996e+00 3.3185754446137253e+01 0 0 0
886 2 1.2305000000000001e+00 4.9730065436648339e+00 3.3185754446137253e+01 0 0 0
894 2 1.2305000000000001e+00 6.3938655561404980e+00 3.3185754446137253e+01 0 0 0
896 2 2.4610000000000003e+00 4.2625770374269996e+00 3.3185754446137253e+01 0 0 0
897 2 3.6914999999999996e+00 4.9730065436648339e+00 3.3185754446137253e+01 0 0 0
909 2 3.6914999999999996e+00 6.3938655561404980e+00 3.3185754446137253e+01 0 0 0
884 2 0.0000000000000000e+00 7.1042950623783341e+00 3.3185754446137253e+01 0 0 0
895 2 2.4610000000000003e+00 7.1042950623783341e+00 3.3185754446137253e+01 0 0 0
608 2 4.9220000000000006e+00 5.6834360499026637e+00 3.0030999999999704e+01 0 0 0
610 2 4.9220000000000006e+00 4.2625770374269978e+00 3.0030999999999704e+01 0 0 0
643 2 6.1524999999999999e+00 6.3938655561404980e+00 3.0030999999999704e+01 0 0 0
645 2 7.3829999999999991e+00 5.6834360499026637e+00 3.0030999999999704e+01 0 0 0
647 2 7.3829999999999991e+00 4.2625770374269996e+00 3.0030999999999704e+01 0 0 0
688 2 8.6135000000000002e+00 6.3938655561404980e+00 3.0030999999999704e+01 0 0 0
641 2 6.1524999999999999e+00 7.8147245686161639e+00 3.0030999999999704e+01 0 0 0
686 2 8.6135000000000002e+00 7.8147245686161639e+00 3.0030999999999704e+01 0 0 0
911 2 4.9220000000000006e+00 4.2625770374269978e+00 3.3185754446137253e+01 0 0 0
912 2 6.1524999999999999e+00 4.9730065436648339e+00 3.3185754446137253e+01 0 0 0
928 2 6.1524999999999999e+00 6.3938655561404980e+00 3.3185754446137253e+01 0 0 0
930 2 7.3829999999999991e+00 4.2625770374269996e+00 3.3185754446137253e+01 0 0 0
931 2 8.6135000000000002e+00 4.9730065436648339e+00 3.3185754446137253e+01 0 0 0
951 2 8.6135000000000002e+00 6.3938655561404980e+00 3.3185754446137253e+01 0 0 0
910 2 4.9220000000000006e+00 7.1042950623783341e+00 3.3185754446137253e+01 0 0 0
929 2 7.3830000000000009e+00 7.1042950623783341e+00 3.3185754446137253e+01 0 0 0
571 2 0.0000000000000000e+00 9.9460130873296642e+00 3.0030999999999704e+01 0 0 0
573 2 0.0000000000000000e+00 8.5251540748539991e+00 3.0030999999999704e+01 0 0 0
600 2 2.4610000000000003e+00 9.9460130873296642e+00 3.0030999999999704e+01 0 0 0
602 2 2.4610000000000003e+00 8.5251540748539991e+00 3.0030999999999704e+01 0 0 0
596 2 1.2305000000000001e+00 1.2077301606043163e+01 3.0030999999999704e+01 0 0 0
598 2 1.2305000000000001e+00 1.0656442593567498e+01 3.0030999999999704e+01 0 0 0
633 2 3.6914999999999996e+00 1.2077301606043163e+01 3.0030999999999704e+01 0 0 0
635 2 3.6914999999999996e+00 1.0656442593567499e+01 3.0030999999999704e+01 0 0 0
892 2 0.0000000000000000e+00 8.5251540748539991e+00 3.3185754446137253e+01 0 0 0
893 2 1.2305000000000001e+00 9.2355835810918343e+00 3.3185754446137253e+01 0 0 0
907 2 2.4610000000000003e+00 8.5251540748539991e+00 3.3185754446137253e+01 0 0 0
908 2 3.6915000000000004e+00 9.2355835810918343e+00 3.3185754446137253e+01 0 0 0
891 2 0.0000000000000000e+00 1.1366872099805333e+01 3.3185754446137253e+01 0 0 0
905 2 1.2305000000000001e+00 1.0656442593567498e+01 3.3185754446137253e+01 0 0 0
906 2 2.4610000000000003e+00 1.1366872099805333e+01 3.3185754446137253e+01 0 0 0
924 2 3.6914999999999996e+00 1.0656442593567499e+01 3.3185754446137253e+01 0 0 0
637 2 4.9220000000000006e+00 9.9460130873296642e+00 3.0030999999999704e+01 0 0 0
639 2 4.9220000000000006e+00 8.5251540748539991e+00 3.0030999999999704e+01 0 0 0
682 2 7.3830000000000009e+00 9.9460130873296642e+00 3.0030999999999704e+01 0 0 0
684 2 7.3830000000000009e+00 8.5251540748539991e+00 3.0030999999999704e+01 0 0 0
678 2 6.1524999999999999e+00 1.2077301606043163e+01 3.0030999999999704e+01 0 0 0
680 2 6.1524999999999999e+00 1.0656442593567499e+01 3.0030999999999704e+01 0 0 0
725 2 8.6135000000000002e+00 1.2077301606043163e+01 3.0030999999999704e+01 0 0 0
727 2 8.6134999999999984e+00 1.0656442593567498e+01 3.0030999999999704e+01 0 0 0
926 2 4.9220000000000006e+00 8.5251540748539991e+00 3.3185754446137253e+01 0 0 0
927 2 6.1524999999999999e+00 9.2355835810918343e+00 3.3185754446137253e+01 0 0 0
949 2 7.3830000000000009e+00 8.5251540748539991e+00 3.3185754446137253e+01 0 0 0
950 2 8.6134999999999984e+00 9.2355835810918343e+00 3.3185754446137253e+01 0 0 0
925 2 4.9220000000000006e+00 1.1366872099805333e+01 3.3185754446137253e+01 0 0 0
947 2 6.1524999999999999e+00 1.0656442593567499e+01 3.3185754446137253e+01 0 0 0
948 2 7.3829999999999991e+00 1.1366872099805333e+01 3.3185754446137253e+01 0 0 0
971 2 8.6134999999999984e+00 1.0656442593567498e+01 3.3185754446137253e+01 0 0 0
594 2 0.0000000000000000e+00 1.2787731112280996e+01 3.0030999999999704e+01 0 0 0
631 2 2.4610000000000003e+00 1.2787731112280996e+01 3.0030999999999704e+01 0 0 0
592 2 0.0000000000000000e+00 1.4208590124756663e+01 3.0030999999999704e+01 0 0 0
627 2 1.2305000000000001e+00 1.4919019630994494e+01 3.0030999999999704e+01 0 0 0
629 2 2.4610000000000003e+00 1.4208590124756663e+01 3.0030999999999704e+01 0 0 0
672 2 3.6915000000000004e+00 1.4919019630994494e+01 3.0030999999999704e+01 0 0 0
903 2 0.0000000000000000e+00 1.2787731112280996e+01 3.3185754446137253e+01 0 0 0
904 2 1.2305000000000001e+00 1.3498160618518829e+01 3.3185754446137253e+01 0 0 0
922 2 2.4610000000000003e+00 1.2787731112280996e+01 3.3185754446137253e+01 0 0 0
923 2 3.6915000000000004e+00 1.3498160618518829e+01 3.3185754446137253e+01 0 0 0
902 2 0.0000000000000000e+00 1.5629449137232333e+01 3.3185754446137253e+01 0 0 0
920 2 1.2305000000000001e+00 1.4919019630994494e+01 3.3185754446137253e+01 0 0 0
921 2 2.4610000000000003e+00 1.5629449137232328e+01 3.3185754446137253e+01 0 0 0
943 2 3.6915000000000004e+00 1.4919019630994494e+01 3.3185754446137253e+01 0 0 0
676 2 4.9220000000000006e+00 1.2787731112280996e+01 3.0030999999999704e+01 0 0 0
723 2 7.3829999999999991e+00 1.2787731112280996e+01 3.0030999999999704e+01 0 0 0
674 2 4.9220000000000006e+00 1.4208590124756663e+01 3.0030999999999704e+01 0 0 0
719 2 6.1524999999999990e+00 1.4919019630994494e+01 3.0030999999999704e+01 0 0 0
721 2 7.3830000000000009e+00 1.4208590124756663e+01 3.0030999999999704e+01 0 0 0
766 2 8.6135000000000002e+00 1.4919019630994494e+01 3.0030999999999704e+01 0 0 0
945 2 4.9220000000000006e+00 1.2787731112280996e+01 3.3185754446137253e+01 0 0 0
946 2 6.1524999999999990e+00 1.3498160618518829e+01 3.3185754446137253e+01 0 0 0
969 2 7.3829999999999991e+00 1.2787731112280996e+01 3.3185754446137253e+01 0 0 0
970 2 8.6135000000000002e+00 1.3498160618518835e+01 3.3185754446137253e+01 0 0 0
944 2 4.9220000000000006e+00 1.5629449137232333e+01 3.3185754446137253e+01 0 0 0
967 2 6.1524999999999990e+00 1.4919019630994494e+01 3.3185754446137253e+01 0 0 0
968 2 7.3829999999999991e+00 1.5629449137232333e+01 3.3185754446137253e+01 0 0 0
991 2 8.6135000000000002e+00 1.4919019630994494e+01 3.3185754446137253e+01 0 0 0
6172 1 2.1023997772359602e+00 3.7567974616827744e+00 3.5961614052191962e+01 1 0 0
2962 1 4.3259270518232285e+00 5.0395120773295443e-02 3.5700232517316422e+01 1 0 -1
1571 1 6.7612990269468662e+00 8.4655573656279071e+00 3.8538802985374531e+01 0 0 -1
3334 1 5.8853628432345415e+00 4.5445395807143596e+00 3.5772597376893614e+01 1 0 0
1886 1 4.0276177844127403e-02 1.5302116951322416e+01 3.5528519495422870e+01 0 -1 -1
6328 1 1.7189029243605181e+00 1.5033760021682747e+01 3.7753727388994648e+01 0 -1 0
2844 1 8.7991722730790691e+00 1.5880418717254117e+00 3.6484905204970445e+01 0 -1 0
228 1 2.4220159051891690e+00 5.3649086303550755e+00 3.7912588121653911e+01 1 1 -1
2831 1 8.0689702023803793e+00 1.4762558939328580e+01 3.6236837040339964e+01 0 0 0
1501 1 4.3540479565323515e+00 2.4088452514003871e+00 3.6830985357405496e+01 0 1 -1
1791 1 5.6255389805166773e+00 7.2513381774476526e+00 3.6064824741881509e+01 1 1 -1
6106 1 8.0112784848474430e+00 8.7161336807713177e+00 3.5499396660962120e+01 0 1 0
3018 1 2.7707139848926738e+00 7.6103400422676781e+00 3.6120550251687433e+01 0 1 -1
6024 1 2.6887614626089746e+00 1.0628184305208721e+01 3.5499102496761182e+01 0 1 -1
4563 1 4.6980642415865087e-01 1.2381807052637685e+01 3.5729191075925641e+01 0 2 0
6126 1 8.6176830295584637e+00 4.0122146765337767e+00 3.5324260587931740e+01 1 1 0
5142 1 7.8248180904962990e+00 1.1667372884878974e+01 3.5977857301506660e+01 2 2 0
6144 1 4.8407264951666029e+00 1.2246394925403134e+01 3.6316969525497043e+01 1 0 -1
3003 1 1.2229189989704812e+00 9.1646993561228840e-01 3.6317353853174467e+01 0 1 -1
1981 1 6.9538147397380516e+00 4.0342138927564122e+00 3.8349177008987027e+01 0 0 -1
5176 1 3.7543384548708194e+00 1.4938045371781378e+01 3.5775448810154387e+01 0 0 -1
1383 1 4.9154717124232095e+00 1.4110770399281968e+01 3.8626419393043705e+01 0 1 0
5043 1 1.8416109145882280e+00 9.8741438723969139e+00 3.8296736339890970e+01 1 1 -1
6275 1 8.1320069323896451e+00 1.1004057643925883e+01 3.8830047225517447e+01 0 1 0
1328 1 8.8434231977620996e+00 8.5330324360028751e+00 4.1332295122169555e+01 0 1 0
1712 1 8.3700876838448774e+00 6.0628219607328973e+00 4.5042790975685577e+01 2 1 -1
4660 1 8.8228346118424987e+00 3.2282669928819452e+00 4.2134264820954044e+01 1 1 0
3292 1 6.8352614494183763e+00 1.3950444790627092e+00 4.2994703918019269e+01 1 1 -1
1951 1 2.2512853347279314e+00 3.2575629643492192e+00 4.2081402933731638e+01 1 1 -1
4999 1 5.5250475420918743e+00 8.6251774554199176e+00 4.0863383656564579e+01 1 0 -1
4856 1 3.1966766803240332e+00 1.3406218247091777e+01 4.4700472407006657e+01 0 1 -1
5174 1 8.1192909334809009e+00 6.2062940615166005e+00 3.9411857790366881e+01 -1 1 -1
2928 1 7.6125883281329934e+00 5.8016597133218752e+00 4.2213065287947373e+01 0 1 0
2050 1 4.8636898286907320e+00 4.8938892037579071e+00 4.2519761627192779e+01 0 1 -1
3175 1 8.2378173214744628e+00 1.3269293206802377e+01 4.6107458442423862e+01 -1 1 0
2799 1 7.2622051769222944e+00 1.3212048750396953e+01 4.0848686568922020e+01 0 1 0
2918 1 1.8623066956276744e+00 1.0823291148922758e+01 4.2146715701283810e+01 1 1 -1
4496 1 3.9664245753804988e+00 7.4666238436051575e+00 4.3250259132260339e+01 0 1 0
4465 1 2.9856648908836614e+00 1.0672256240849670e+01 4.4709752117958530e+01 0 1 0
363 1 7.2341930069882050e+00 1.0364216557763410e+01 4.2600356710776083e+01 0 0 -1
4740 1 5.1274748705888262e+00 1.1392640110891159e+01 4.0500035468785057e+01 1 0 -1
4564 1 5.9161055813076455e+00 1.5253893890020294e+01 4.2519837386196940e+01 0 0 -1
4911 1 3.1022604950171786e+00 1.5005597361121190e+01 4.2634817771468605e+01 2 0 -1
1666 1 2.7489853129232960e+00 1.3138659020571263e+01 4.0539093012473813e+01 0 -1 -1
1300 1 8.7955147127139188e+00 2.1260180499142032e+00 3.9575330211790487e+01 1 1 -1
5958 1 1.4668736643646396e+00 5.6462305695920758e+00 4.0910060183491026e+01 1 -1 -1
83 1 1.1408024742650020e+00 1.4288094248122068e+01 4.6598106583258726e+01 2 -1 -1
3585 1 5.8032955881116601e+00 1.4474383451244625e+01 4.5046405602408882e+01 0 0 -1
1331 1 9.0677053956294298e+00 1.3321400869904325e+01 4.3237599515887908e+01 2 0 -1
4736 1 6.3087380806212190e-01 7.8726419920443478e+00 4.7012309262759601e+01 2 0 0
3563 1 2.0210470452848024e+00 7.6545001570753401e-01 4.6534084348480391e+01 0 0 0
1867 1 4.6066505019923536e+00 2.8664224839974946e+00 4.4343220698894598e+01 0 0 0
6274 1 6.5122252058137144e+00 3.7675651592522859e+00 4.6293927438311712e+01 0 1 0
1836 1 2.4343241940014035e+00 8.3144623190472124e+00 4.0489877394909385e+01 1 1 -1