LAMMPS data file via write_data, version 16 Mar 2018, timestep = 8000000

6328 atoms
2 atom types

0.0000000000000000e+00 4.9219999999999999e+01 xlo xhi
0.0000000000000000e+00 4.9019635930410494e+01 ylo yhi
2.0317532883227578e+00 5.8030246711671708e+01 zlo zhi

Masses

1 18.015
2 12.01

Atoms # atomic

3714 1 3.2445866486073620e+00 2.8621752342370175e+00 5.2246531055565875e+00 -3 -2 0
4755 1 1.4331791775450851e+00 9.3658448872937428e-01 6.2137744083154081e+00 -8 0 0
3466 1 3.4593887659729234e+00 2.6516007216057322e+00 2.5163507722946075e+00 -2 -1 0
2145 1 7.6349128643478990e+00 3.3059448466809100e+00 5.4158440074167808e+00 1 2 1
3096 1 8.0545299099824650e+00 3.1254683971867010e+00 2.6904011172143223e+00 3 -5 2
3434 1 6.0315063229172567e+00 1.4052495452797181e+01 8.7395963943805874e+00 3 -5 0
183 1 2.8767452113555043e+00 5.6367928796178131e+00 5.9254891534781375e+00 0 1 0
478 1 3.5807529601340887e-01 6.6093970238850641e+00 5.1803044584824871e+00 3 -1 1
4791 1 4.6075416656935364e-01 6.2529347529246069e+00 2.3138166455193825e+00 -2 0 0
1465 1 5.1114497582295373e+00 6.8972807545213870e+00 4.8795671389257880e+00 2 0 1
4934 1 7.1478558519974973e+00 6.0619766084079076e+00 6.5343926272843236e+00 -1 -1 1
4603 1 1.3987997301735904e+00 1.6108606121025460e+01 9.8085079522537093e+00 6 0 1
2899 1 9.2241734384265417e+00 7.4028848776808616e+00 5.0200634545904643e+00 2 2 0
1665 1 8.5497200179381707e+00 1.4734470222206873e+01 2.0373167608742504e+00 -1 -1 0
546 1 2.4163453436153874e+00 1.0191653984468902e+01 2.1374390229966544e+00 -1 -1 0
3448 1 2.2979544432263053e+00 1.0574250070892118e+01 5.2022447951196913e+00 0 1 0
6001 1 4.5490898277141145e+00 9.2872237395805044e+00 6.0025368985104635e+00 -1 -3 1
42 1 9.2083204234527667e+00 1.0146066301687606e+01 8.6907467786140700e+00 1 3 0
1379 1 6.2784674524521433e+00 1.0957506447494195e+01 4.8773442648611454e+00 1 -1 0
5097 1 8.9367421011388437e+00 1.0031078049597877e+01 5.8295257055978142e+00 -4 3 0
4416 1 2.2383882955393214e-01 9.2154105042340788e+00 6.3740480274394313e+00 -2 -1 0
3609 1 5.2437229732620034e+00 6.4990249306819168e+00 2.2662442957228048e+00 -2 2 0
4624 1 1.7404374647362406e+00 1.2911159905164121e+01 6.4462680564662289e+00 0 -1 0
1770 1 3.8355818775142048e+00 1.4428299966383554e+01 5.2575527695802364e+00 4 2 1
3098 1 8.2353480561261740e+00 1.4952355919647097e+01 4.6835557930527880e+00 0 3 0
4434 1 6.2637989384286366e+00 1.3625992712051755e+01 5.9936498820432078e+00 -1 4 1
1360 1 3.9570081873644281e+00 2.3087675810342051e-01 9.7273236236783749e+00 4 -4 1
1758 1 1.4400253398877272e+00 1.2837600521166022e+00 9.0316699034112808e+00 1 3 0
355 1 8.9135048674733763e-01 3.9930135558828068e+00 9.9662483220091804e+00 -1 3 0
399 1 6.9965356987973717e+00 8.6432196647752288e+00 9.9007364916275193e+00 0 2 0
1255 1 5.4813710698522744e+00 1.7380572773023657e+00 6.2999879239779508e+00 6 -4 1
3213 1 5.8307895548323430e+00 1.8324950813528385e+00 8.9067633175545105e+00 -2 -1 1
1596 1 8.2377337379782176e+00 1.0574237543191294e+00 9.9843380104479831e+00 1 3 1
4524 1 3.0229950031954385e+00 5.4743131278260311e+00 8.6379576025717313e+00 -4 2 1
256 1 2.9591989460744101e+00 8.1647401618919755e+00 9.5974211831213552e+00 2 1 1
1508 1 8.3985860739719254e+00 1.2693908829465885e+01 9.5737814112009652e+00 -3 -2 1
225 1 4.9913027792245845e+00 4.2961223589099591e+00 9.7582438871579313e+00 3 -3 0
6190 1 6.9308439455422564e+00 6.0658595084053060e+00 9.1457631554472698e+00 -3 3 0
320 1 4.2336896620445970e+00 1.2234995698108722e+01 9.8953773282787019e+00 5 0 0
4898 1 4.6728909871361113e+00 9.8485191459767041e+00 8.8252250282702889e+00 -2 1 0
1629 1 1.8361057767811804e+00 1.3333384284633661e+01 9.1796684145863239e+00 1 0 0
350 1 2.5753726363093082e-01 8.9265994278314071e+00 8.9973823315375654e+00 1 0 0
5053 1 4.1822829214185591e+00 1.4138691757036073e+01 2.3159522644984087e+00 1 -1 0
3231 1 6.9214716889766095e+00 1.0580218622326056e+01 2.1601214453599256e+00 -2 -1 1
2082 1 9.5250284126194558e+00 4.9355859447881940e+00 9.9748435392637749e+00 -2 0 1
3648 1 9.7505036924662889e+00 7.1921369531169965e+00 2.2893912320071808e+00 -4 -1 0
3501 1 3.3620739648707856e+00 2.6504053961761591e+00 1.3680166098323966e+01 2 2 0
3668 1 9.5567765802068061e-01 3.3581215288354458e+00 1.2845613958566588e+01 0 -2 0
1730 1 1.2406683796466071e+00 1.5953010166772406e+01 1.2585964950697361e+01 -3 -3 0
1741 1 8.1873866092501704e+00 1.0072828072071145e+00 1.2760580173090855e+01 3 2 0
62 1 7.3824308506320309e+00 3.5448502141985414e+00 1.3458479746201439e+01 3 -1 0
528 1 7.7722728536855463e+00 3.3985245533395805e+00 1.6189138181357851e+01 -3 -5 1
6093 1 5.0966158828483354e-01 6.2114511521400626e+00 1.3306128908757403e+01 2 1 1
1582 1 5.0707574438388887e+00 7.1759217105963771e+00 1.3581221767988113e+01 0 0 0
2010 1 2.6067365897767782e+00 7.7434638605963588e+00 1.2546913407260467e+01 -4 -4 1
6257 1 5.1143184076748787e+00 4.4804061680298206e+00 1.2547812825880101e+01 0 -3 1
4865 1 9.2885097208870562e+00 7.7275153647880108e+00 1.3459632747122592e+01 1 0 0
1463 1 3.9589919207555688e+00 1.2095300055854679e+01 1.9883348406454470e+01 -2 2 1
1375 1 1.9529629601475671e+00 1.0354414104582753e+01 1.3286635293210928e+01 3 -3 1
4470 1 7.0235669189434446e+00 8.9470592681667735e+00 1.2606660696349477e+01 3 1 1
4572 1 6.2790369387110436e+00 1.1494356567822166e+01 1.3567175052444295e+01 1 -5 1
4747 1 4.1817865655050159e+00 1.2247430064263536e+01 1.2498419658510869e+01 2 0 1
3072 1 3.5579210331736868e+00 1.4776820261531878e+01 1.3440874374322449e+01 1 1 0
4897 1 5.7434313203221032e+00 2.0514561589112255e+00 2.0444448891389751e+01 -2 3 1
3548 1 8.2111058349472934e+00 1.3092162360826762e+01 1.2451149359521983e+01 1 3 0
3551 1 7.5855548286656074e+00 1.5550582356368226e+01 1.3185673551435293e+01 -2 2 0
358 1 3.2457038046294957e+00 2.6720713038959207e+00 1.6480241958855050e+01 1 1 0
1907 1 7.1698004072980970e-01 3.7835676647290062e+00 2.0062789712577256e+01 -1 -2 1
1862 1 8.6688158189454700e-01 3.5192724592825391e+00 1.7390479787216314e+01 2 -3 0
3188 1 7.7796322521304759e+00 1.5663115008050612e+01 1.5935219160764419e+01 5 3 0
6059 1 3.5815483486426508e-01 6.1505687653562253e+00 1.6161769114475760e+01 0 1 0
3407 1 9.6070634329880473e+00 5.2695423982857532e+00 1.6959954967119820e+01 -2 -1 0
3408 1 8.0704651194599535e+00 1.0865505568793841e+00 1.7270196223111036e+01 -1 -1 0
4551 1 8.0624382152148772e+00 9.1022045657204453e-01 1.9908560933511726e+01 2 2 1
2933 1 1.0274681049201941e+00 1.6085938810344601e+01 1.7163195291938891e+01 -1 0 1
374 1 9.9733221231456426e-01 1.5851315746616917e+01 1.9921229679809596e+01 -1 0 0
5294 1 4.9291045218221905e+00 6.9410456341518509e+00 1.6328540572879430e+01 -2 -2 0
181 1 9.5523674232650482e+00 5.1242357470311504e+00 1.2657112480868889e+01 2 9 0
4916 1 7.7502834779632623e+00 1.3345581918796968e+01 1.7402296601563332e+01 0 -1 1
5009 1 9.2076118939958551e+00 7.9315864508088580e+00 1.6284275419241972e+01 4 3 0
3362 1 5.3391590576026173e+00 4.3292622299462264e+00 1.7083352017028950e+01 -2 -1 0
1837 1 5.5706968145284703e+00 4.7969696116055038e+00 1.9699982787906663e+01 1 3 0
3062 1 3.3956433676744977e+00 1.4688419668792177e+01 1.6163412317236364e+01 0 -3 1
1913 1 2.1833744020005876e+00 7.9881246251120031e+00 1.9767941489460540e+01 3 1 1
5976 1 1.9384485023205853e+00 1.0414437300216214e+01 1.6244758655678083e+01 1 2 1
3626 1 2.3575548735260488e+00 7.8625603751681883e+00 1.7190571505362577e+01 4 3 0
1403 1 3.8386811432355668e+00 1.2207418032591224e+01 1.6917398501815804e+01 1 -3 1
98 1 6.6376881555476190e+00 8.9728596000894889e+00 1.9874776821798804e+01 3 0 1
3381 1 6.3337562497435353e+00 1.1425884268052332e+01 1.6201459993977032e+01 1 3 0
2018 1 6.5310468049977120e+00 8.7821089010714601e+00 1.7157330461467822e+01 0 0 0
1868 1 8.2063062019095998e+00 1.3350971062876550e+01 2.0060878013262407e+01 2 -6 1
4409 1 3.5085188658858835e+00 4.1660313564285054e-02 1.9831008636282721e+01 -1 -1 0
3048 1 3.6445419667844856e+00 3.0448230792486813e-01 1.2290650893453931e+01 1 4 0
1301 1 9.7065974196681228e+00 4.9526276996037009e+00 1.9658083142302360e+01 -3 -2 1
4523 1 8.6648979800198749e+00 1.0956020498973333e+01 2.0645459932123710e+01 -3 -1 1
377 1 7.5830490094547018e+00 6.3378903687837429e+00 2.0601847406657242e+01 1 -3 0
4885 1 3.3611824817843003e+00 3.1429259958694704e+00 2.4130192084917542e+01 -1 0 1
3100 1 1.1144609349443990e+00 1.4012074080700985e+00 2.3966051315657861e+01 3 -3 0
3209 1 5.5613436062868482e+00 2.2275751076213930e+00 2.3145458584026091e+01 -1 0 0
3255 1 7.2893021698720286e+00 3.8815104726844689e+00 2.4290590511951283e+01 2 -2 0
1494 1 7.6867542363456929e+00 1.6246993613790629e+01 2.4424429411705649e+01 -1 4 0
6225 1 2.8646323469063955e+00 5.8205749374232063e+00 2.3450976881404348e+01 -3 1 0
1507 1 4.9430196148540437e+00 7.1015854738287230e+00 2.4126911699671368e+01 5 -2 1
765 2 8.6135000000000002e+00 1.4919019630994494e+01 2.6689281289554902e+01 0 0 0
6290 1 7.2209852797400256e+00 6.3415183842189640e+00 2.3293029346407014e+01 1 -2 1
1417 1 2.1788712458200754e+00 1.0810520533497371e+01 2.4505158670210399e+01 1 -4 1
6203 1 4.5518360731601932e+00 9.6024978798715495e+00 2.3604927912241401e+01 -1 1 1
718 2 6.1524999999999990e+00 1.4919019630994494e+01 2.6689281289554902e+01 0 0 0
76 1 9.2299150152472720e+00 7.9656981173392678e+00 2.4522020836487943e+01 -2 -5 0
6226 1 8.6000795300204125e+00 1.0446012298006172e+01 2.3425170727208783e+01 0 -3 1
2919 1 6.3910200497701348e+00 1.1529357132332649e+01 2.4667152103006536e+01 -2 4 0
398 1 1.4871211334372154e+00 1.3296583307784745e+01 2.3913756062868075e+01 0 1 0
4984 1 3.5245670100181847e+00 1.5068656328985641e+01 2.4103904519335362e+01 -1 1 1
3294 1 3.7357629572883522e-01 6.7330614865055178e+00 2.4336565272664423e+01 2 -3 0
4970 1 6.1158820769769289e+00 1.4261201676889753e+01 2.3603233676331097e+01 2 1 0
552 2 0.0000000000000000e+00 2.8417180249513345e+00 2.6689281289554902e+01 0 0 0
554 2 0.0000000000000000e+00 0.0000000000000000e+00 2.6689281289554902e+01 0 0 0
556 2 1.2305000000000001e+00 7.1042950623783474e-01 2.6689281289554902e+01 0 0 0
563 2 1.2305000000000001e+00 2.1312885187134998e+00 2.6689281289554902e+01 0 0 0
565 2 2.4610000000000003e+00 2.8417180249513345e+00 2.6689281289554902e+01 0 0 0
567 2 2.4610000000000003e+00 0.0000000000000000e+00 2.6689281289554902e+01 0 0 0
569 2 3.6915000000000004e+00 7.1042950623783474e-01 2.6689281289554902e+01 0 0 0
584 2 3.6914999999999996e+00 2.1312885187134998e+00 2.6689281289554902e+01 0 0 0
586 2 4.9220000000000006e+00 2.8417180249513332e+00 2.6689281289554902e+01 0 0 0
588 2 4.9220000000000006e+00 0.0000000000000000e+00 2.6689281289554902e+01 0 0 0
590 2 6.1524999999999999e+00 7.1042950623783407e-01 2.6689281289554902e+01 0 0 0
613 2 6.1524999999999999e+00 2.1312885187134989e+00 2.6689281289554902e+01 0 0 0
615 2 7.3829999999999991e+00 2.8417180249513345e+00 2.6689281289554902e+01 0 0 0
617 2 7.3829999999999991e+00 0.0000000000000000e+00 2.6689281289554902e+01 0 0 0
619 2 8.6134999999999984e+00 7.1042950623783407e-01 2.6689281289554902e+01 0 0 0
650 2 8.6134999999999984e+00 2.1312885187135002e+00 2.6689281289554902e+01 0 0 0
559 2 0.0000000000000000e+00 4.2625770374269996e+00 2.6689281289554902e+01 0 0 0
561 2 1.2305000000000001e+00 4.9730065436648339e+00 2.6689281289554902e+01 0 0 0
576 2 1.2305000000000001e+00 6.3938655561404980e+00 2.6689281289554902e+01 0 0 0
580 2 2.4610000000000003e+00 4.2625770374269996e+00 2.6689281289554902e+01 0 0 0
582 2 3.6914999999999996e+00 4.9730065436648339e+00 2.6689281289554902e+01 0 0 0
605 2 3.6914999999999996e+00 6.3938655561404980e+00 2.6689281289554902e+01 0 0 0
557 2 0.0000000000000000e+00 7.1042950623783341e+00 2.6689281289554902e+01 0 0 0
578 2 2.4610000000000003e+00 7.1042950623783341e+00 2.6689281289554902e+01 0 0 0
609 2 4.9220000000000006e+00 4.2625770374269978e+00 2.6689281289554902e+01 0 0 0
611 2 6.1524999999999999e+00 4.9730065436648339e+00 2.6689281289554902e+01 0 0 0
642 2 6.1524999999999999e+00 6.3938655561404980e+00 2.6689281289554902e+01 0 0 0
646 2 7.3829999999999991e+00 4.2625770374269996e+00 2.6689281289554902e+01 0 0 0
648 2 8.6135000000000002e+00 4.9730065436648339e+00 2.6689281289554902e+01 0 0 0
687 2 8.6135000000000002e+00 6.3938655561404980e+00 2.6689281289554902e+01 0 0 0
607 2 4.9220000000000006e+00 7.1042950623783341e+00 2.6689281289554902e+01 0 0 0
644 2 7.3830000000000009e+00 7.1042950623783341e+00 2.6689281289554902e+01 0 0 0
572 2 0.0000000000000000e+00 8.5251540748539991e+00 2.6689281289554902e+01 0 0 0
574 2 1.2305000000000001e+00 9.2355835810918343e+00 2.6689281289554902e+01 0 0 0
601 2 2.4610000000000003e+00 8.5251540748539991e+00 2.6689281289554902e+01 0 0 0
603 2 3.6915000000000004e+00 9.2355835810918343e+00 2.6689281289554902e+01 0 0 0
570 2 0.0000000000000000e+00 1.1366872099805333e+01 2.6689281289554902e+01 0 0 0
597 2 1.2305000000000001e+00 1.0656442593567498e+01 2.6689281289554902e+01 0 0 0
599 2 2.4610000000000003e+00 1.1366872099805333e+01 2.6689281289554902e+01 0 0 0
634 2 3.6914999999999996e+00 1.0656442593567499e+01 2.6689281289554902e+01 0 0 0
638 2 4.9220000000000006e+00 8.5251540748539991e+00 2.6689281289554902e+01 0 0 0
640 2 6.1524999999999999e+00 9.2355835810918343e+00 2.6689281289554902e+01 0 0 0
683 2 7.3830000000000009e+00 8.5251540748539991e+00 2.6689281289554902e+01 0 0 0
685 2 8.6134999999999984e+00 9.2355835810918343e+00 2.6689281289554902e+01 0 0 0
636 2 4.9220000000000006e+00 1.1366872099805333e+01 2.6689281289554902e+01 0 0 0
679 2 6.1524999999999999e+00 1.0656442593567499e+01 2.6689281289554902e+01 0 0 0
681 2 7.3829999999999991e+00 1.1366872099805333e+01 2.6689281289554902e+01 0 0 0
726 2 8.6134999999999984e+00 1.0656442593567498e+01 2.6689281289554902e+01 0 0 0
632 2 3.6915000000000004e+00 1.3498160618518829e+01 2.6689281289554902e+01 0 0 0
630 2 2.4610000000000003e+00 1.2787731112280996e+01 2.6689281289554902e+01 0 0 0
591 2 0.0000000000000000e+00 1.5629449137232333e+01 2.6689281289554902e+01 0 0 0
626 2 1.2305000000000001e+00 1.4919019630994494e+01 2.6689281289554902e+01 0 0 0
593 2 0.0000000000000000e+00 1.2787731112280996e+01 2.6689281289554902e+01 0 0 0
595 2 1.2305000000000001e+00 1.3498160618518829e+01 2.6689281289554902e+01 0 0 0
628 2 2.4610000000000003e+00 1.5629449137232328e+01 2.6689281289554902e+01 0 0 0
671 2 3.6915000000000004e+00 1.4919019630994494e+01 2.6689281289554902e+01 0 0 0
677 2 6.1524999999999990e+00 1.3498160618518829e+01 2.6689281289554902e+01 0 0 0
673 2 4.9220000000000006e+00 1.5629449137232333e+01 2.6689281289554902e+01 0 0 0
675 2 4.9220000000000006e+00 1.2787731112280996e+01 2.6689281289554902e+01 0 0 0
720 2 7.3829999999999991e+00 1.5629449137232333e+01 2.6689281289554902e+01 0 0 0
724 2 8.6135000000000002e+00 1.3498160618518835e+01 2.6689281289554902e+01 0 0 0
722 2 7.3829999999999991e+00 1.2787731112280996e+01 2.6689281289554902e+01 0 0 0
1564 1 9.7191937246514062e+00 2.9807746876303423e+00 2.3333104075416944e+01 4 1 1
3459 1 4.0140431051875396e+00 9.6194962561323027e+00 2.0915244298209281e+01 1 -3 0
1561 1 2.9704381977756027e+00 5.4719494575945840e+00 2.0871812205327505e+01 0 1 1
1392 1 1.4713380075642748e+00 1.3487284665000027e+01 2.1179718641123287e+01 5 -2 1
1921 1 1.1657594491716634e+00 9.7061687288221610e-01 2.1057346170842980e+01 -1 3 0
4659 1 5.6310355232854628e+00 1.4339951197797360e+01 2.0786035164026575e+01 5 0 1
553 2 0.0000000000000000e+00 1.4208590124756650e+00 3.0030999999997288e+01 0 0 0
555 2 0.0000000000000000e+00 0.0000000000000000e+00 3.0030999999997288e+01 0 0 0
564 2 1.2305000000000001e+00 2.1312885187134998e+00 3.0030999999997288e+01 0 0 0
566 2 2.4610000000000003e+00 1.4208590124756650e+00 3.0030999999997288e+01 0 0 0
568 2 2.4610000000000003e+00 0.0000000000000000e+00 3.0030999999997288e+01 0 0 0
585 2 3.6914999999999996e+00 2.1312885187134998e+00 3.0030999999997288e+01 0 0 0
562 2 1.2305000000000001e+00 3.5521475311891644e+00 3.0030999999997288e+01 0 0 0
583 2 3.6914999999999996e+00 3.5521475311891644e+00 3.0030999999997288e+01 0 0 0
881 2 0.0000000000000000e+00 2.8417180249513345e+00 3.3372718710457640e+01 0 0 0
882 2 0.0000000000000000e+00 0.0000000000000000e+00 3.3372718710457640e+01 0 0 0
883 2 1.2305000000000001e+00 7.1042950623783474e-01 3.3372718710457640e+01 0 0 0
887 2 1.2305000000000001e+00 2.1312885187134998e+00 3.3372718710457640e+01 0 0 0
888 2 2.4610000000000003e+00 2.8417180249513345e+00 3.3372718710457640e+01 0 0 0
889 2 2.4610000000000003e+00 0.0000000000000000e+00 3.3372718710457640e+01 0 0 0
890 2 3.6915000000000004e+00 7.1042950623783474e-01 3.3372718710457640e+01 0 0 0
898 2 3.6914999999999996e+00 2.1312885187134998e+00 3.3372718710457640e+01 0 0 0
587 2 4.9220000000000006e+00 1.4208590124756650e+00 3.0030999999997288e+01 0 0 0
589 2 4.9220000000000006e+00 0.0000000000000000e+00 3.0030999999997288e+01 0 0 0
614 2 6.1524999999999999e+00 2.1312885187134989e+00 3.0030999999997288e+01 0 0 0
616 2 7.3829999999999991e+00 1.4208590124756659e+00 3.0030999999997288e+01 0 0 0
618 2 7.3829999999999991e+00 0.0000000000000000e+00 3.0030999999997288e+01 0 0 0
651 2 8.6134999999999984e+00 2.1312885187135002e+00 3.0030999999997288e+01 0 0 0
612 2 6.1524999999999999e+00 3.5521475311891644e+00 3.0030999999997288e+01 0 0 0
649 2 8.6134999999999984e+00 3.5521475311891657e+00 3.0030999999997288e+01 0 0 0
899 2 4.9220000000000006e+00 2.8417180249513332e+00 3.3372718710457640e+01 0 0 0
900 2 4.9220000000000006e+00 0.0000000000000000e+00 3.3372718710457640e+01 0 0 0
901 2 6.1524999999999999e+00 7.1042950623783407e-01 3.3372718710457640e+01 0 0 0
913 2 6.1524999999999999e+00 2.1312885187134989e+00 3.3372718710457640e+01 0 0 0
914 2 7.3829999999999991e+00 2.8417180249513345e+00 3.3372718710457640e+01 0 0 0
915 2 7.3829999999999991e+00 0.0000000000000000e+00 3.3372718710457640e+01 0 0 0
916 2 8.6134999999999984e+00 7.1042950623783407e-01 3.3372718710457640e+01 0 0 0
932 2 8.6134999999999984e+00 2.1312885187135002e+00 3.3372718710457640e+01 0 0 0
558 2 0.0000000000000000e+00 5.6834360499026637e+00 3.0030999999997288e+01 0 0 0
560 2 0.0000000000000000e+00 4.2625770374269996e+00 3.0030999999997288e+01 0 0 0
577 2 1.2305000000000001e+00 6.3938655561404980e+00 3.0030999999997288e+01 0 0 0
579 2 2.4610000000000003e+00 5.6834360499026637e+00 3.0030999999997288e+01 0 0 0
581 2 2.4610000000000003e+00 4.2625770374269996e+00 3.0030999999997288e+01 0 0 0
606 2 3.6914999999999996e+00 6.3938655561404980e+00 3.0030999999997288e+01 0 0 0
575 2 1.2305000000000001e+00 7.8147245686161639e+00 3.0030999999997288e+01 0 0 0
604 2 3.6914999999999996e+00 7.8147245686161639e+00 3.0030999999997288e+01 0 0 0
885 2 0.0000000000000000e+00 4.2625770374269996e+00 3.3372718710457640e+01 0 0 0
886 2 1.2305000000000001e+00 4.9730065436648339e+00 3.3372718710457640e+01 0 0 0
894 2 1.2305000000000001e+00 6.3938655561404980e+00 3.3372718710457640e+01 0 0 0
896 2 2.4610000000000003e+00 4.2625770374269996e+00 3.3372718710457640e+01 0 0 0
897 2 3.6914999999999996e+00 4.9730065436648339e+00 3.3372718710457640e+01 0 0 0
909 2 3.6914999999999996e+00 6.3938655561404980e+00 3.3372718710457640e+01 0 0 0
884 2 0.0000000000000000e+00 7.1042950623783341e+00 3.3372718710457640e+01 0 0 0
895 2 2.4610000000000003e+00 7.1042950623783341e+00 3.3372718710457640e+01 0 0 0
608 2 4.9220000000000006e+00 5.6834360499026637e+00 3.0030999999997288e+01 0 0 0
610 2 4.9220000000000006e+00 4.2625770374269978e+00 3.0030999999997288e+01 0 0 0
643 2 6.1524999999999999e+00 6.3938655561404980e+00 3.0030999999997288e+01 0 0 0
645 2 7.3829999999999991e+00 5.6834360499026637e+00 3.0030999999997288e+01 0 0 0
647 2 7.3829999999999991e+00 4.2625770374269996e+00 3.0030999999997288e+01 0 0 0
688 2 8.6135000000000002e+00 6.3938655561404980e+00 3.0030999999997288e+01 0 0 0
641 2 6.1524999999999999e+00 7.8147245686161639e+00 3.0030999999997288e+01 0 0 0
686 2 8.6135000000000002e+00 7.8147245686161639e+00 3.0030999999997288e+01 0 0 0
911 2 4.9220000000000006e+00 4.2625770374269978e+00 3.3372718710457640e+01 0 0 0
912 2 6.1524999999999999e+00 4.9730065436648339e+00 3.3372718710457640e+01 0 0 0
928 2 6.1524999999999999e+00 6.3938655561404980e+00 3.3372718710457640e+01 0 0 0
930 2 7.3829999999999991e+00 4.2625770374269996e+00 3.3372718710457640e+01 0 0 0
931 2 8.6135000000000002e+00 4.9730065436648339e+00 3.3372718710457640e+01 0 0 0
951 2 8.6135000000000002e+00 6.3938655561404980e+00 3.3372718710457640e+01 0 0 0
910 2 4.9220000000000006e+00 7.1042950623783341e+00 3.3372718710457640e+01 0 0 0
929 2 7.3830000000000009e+00 7.1042950623783341e+00 3.3372718710457640e+01 0 0 0
571 2 0.0000000000000000e+00 9.9460130873296642e+00 3.0030999999997288e+01 0 0 0
573 2 0.0000000000000000e+00 8.5251540748539991e+00 3.0030999999997288e+01 0 0 0
600 2 2.4610000000000003e+00 9.9460130873296642e+00 3.0030999999997288e+01 0 0 0
602 2 2.4610000000000003e+00 8.5251540748539991e+00 3.0030999999997288e+01 0 0 0
596 2 1.2305000000000001e+00 1.2077301606043163e+01 3.0030999999997288e+01 0 0 0
598 2 1.2305000000000001e+00 1.0656442593567498e+01 3.0030999999997288e+01 0 0 0
633 2 3.6914999999999996e+00 1.2077301606043163e+01 3.0030999999997288e+01 0 0 0
635 2 3.6914999999999996e+00 1.0656442593567499e+01 3.0030999999997288e+01 0 0 0
892 2 0.0000000000000000e+00 8.5251540748539991e+00 3.3372718710457640e+01 0 0 0
893 2 1.2305000000000001e+00 9.2355835810918343e+00 3.3372718710457640e+01 0 0 0
907 2 2.4610000000000003e+00 8.5251540748539991e+00 3.3372718710457640e+01 0 0 0
908 2 3.6915000000000004e+00 9.2355835810918343e+00 3.3372718710457640e+01 0 0 0
891 2 0.0000000000000000e+00 1.1366872099805333e+01 3.3372718710457640e+01 0 0 0
905 2 1.2305000000000001e+00 1.0656442593567498e+01 3.3372718710457640e+01 0 0 0
906 2 2.4610000000000003e+00 1.1366872099805333e+01 3.3372718710457640e+01 0 0 0
924 2 3.6914999999999996e+00 1.0656442593567499e+01 3.3372718710457640e+01 0 0 0
637 2 4.9220000000000006e+00 9.9460130873296642e+00 3.0030999999997288e+01 0 0 0
639 2 4.9220000000000006e+00 8.5251540748539991e+00 3.0030999999997288e+01 0 0 0
682 2 7.3830000000000009e+00 9.9460130873296642e+00 3.0030999999997288e+01 0 0 0
684 2 7.3830000000000009e+00 8.5251540748539991e+00 3.0030999999997288e+01 0 0 0
678 2 6.1524999999999999e+00 1.2077301606043163e+01 3.0030999999997288e+01 0 0 0
680 2 6.1524999999999999e+00 1.0656442593567499e+01 3.0030999999997288e+01 0 0 0
725 2 8.6135000000000002e+00 1.2077301606043163e+01 3.0030999999997288e+01 0 0 0
727 2 8.6134999999999984e+00 1.0656442593567498e+01 3.0030999999997288e+01 0 0 0
926 2 4.9220000000000006e+00 8.5251540748539991e+00 3.3372718710457640e+01 0 0 0
927 2 6.1524999999999999e+00 9.2355835810918343e+00 3.3372718710457640e+01 0 0 0
949 2 7.3830000000000009e+00 8.5251540748539991e+00 3.3372718710457640e+01 0 0 0
950 2 8.6134999999999984e+00 9.2355835810918343e+00 3.3372718710457640e+01 0 0 0
925 2 4.9220000000000006e+00 1.1366872099805333e+01 3.3372718710457640e+01 0 0 0
947 2 6.1524999999999999e+00 1.0656442593567499e+01 3.3372718710457640e+01 0 0 0
948 2 7.3829999999999991e+00 1.1366872099805333e+01 3.3372718710457640e+01 0 0 0
971 2 8.6134999999999984e+00 1.0656442593567498e+01 3.3372718710457640e+01 0 0 0
594 2 0.0000000000000000e+00 1.2787731112280996e+01 3.0030999999997288e+01 0 0 0
631 2 2.4610000000000003e+00 1.2787731112280996e+01 3.0030999999997288e+01 0 0 0
592 2 0.0000000000000000e+00 1.4208590124756663e+01 3.0030999999997288e+01 0 0 0
627 2 1.2305000000000001e+00 1.4919019630994494e+01 3.0030999999997288e+01 0 0 0
629 2 2.4610000000000003e+00 1.4208590124756663e+01 3.0030999999997288e+01 0 0 0
672 2 3.6915000000000004e+00 1.4919019630994494e+01 3.0030999999997288e+01 0 0 0
903 2 0.0000000000000000e+00 1.2787731112280996e+01 3.3372718710457640e+01 0 0 0
904 2 1.2305000000000001e+00 1.3498160618518829e+01 3.3372718710457640e+01 0 0 0
922 2 2.4610000000000003e+00 1.2787731112280996e+01 3.3372718710457640e+01 0 0 0
923 2 3.6915000000000004e+00 1.3498160618518829e+01 3.3372718710457640e+01 0 0 0
902 2 0.0000000000000000e+00 1.5629449137232333e+01 3.3372718710457640e+01 0 0 0
920 2 1.2305000000000001e+00 1.4919019630994494e+01 3.3372718710457640e+01 0 0 0
921 2 2.4610000000000003e+00 1.5629449137232328e+01 3.3372718710457640e+01 0 0 0
943 2 3.6915000000000004e+00 1.4919019630994494e+01 3.3372718710457640e+01 0 0 0
676 2 4.9220000000000006e+00 1.2787731112280996e+01 3.0030999999997288e+01 0 0 0
723 2 7.3829999999999991e+00 1.2787731112280996e+01 3.0030999999997288e+01 0 0 0
674 2 4.9220000000000006e+00 1.4208590124756663e+01 3.0030999999997288e+01 0 0 0
719 2 6.1524999999999990e+00 1.4919019630994494e+01 3.0030999999997288e+01 0 0 0
721 2 7.3830000000000009e+00 1.4208590124756663e+01 3.0030999999997288e+01 0 0 0
766 2 8.6135000000000002e+00 1.4919019630994494e+01 3.0030999999997288e+01 0 0 0
945 2 4.9220000000000006e+00 1.2787731112280996e+01 3.3372718710457640e+01 0 0 0
946 2 6.1524999999999990e+00 1.3498160618518829e+01 3.3372718710457640e+01 0 0 0
969 2 7.3829999999999991e+00 1.2787731112280996e+01 3.3372718710457640e+01 0 0 0
970 2 8.6135000000000002e+00 1.3498160618518835e+01 3.3372718710457640e+01 0 0 0
944 2 4.9220000000000006e+00 1.5629449137232333e+01 3.3372718710457640e+01 0 0 0
967 2 6.1524999999999990e+00 1.4919019630994494e+01 3.3372718710457640e+01 0 0 0
968 2 7.3829999999999991e+00 1.5629449137232333e+01 3.3372718710457640e+01 0 0 0
991 2 8.6135000000000002e+00 1.4919019630994494e+01 3.3372718710457640e+01 0 0 0
372 1 3.7033836402815763e+00 2.0206578771316774e+00 3.5730042318170177e+01 1 1 0
6131 1 1.1927979228984376e+00 3.1298507465534575e+00 3.6275669388671233e+01 3 -4 0
395 1 7.1804093879269049e+00 7.9542624329493217e+00 3.8885549068717296e+01 1 7 -1
1622 1 8.2659474715281096e+00 2.6990407021746821e+00 3.5965985989187175e+01 2 0 -1
3643 1 5.8527787179240685e+00 3.3793330511749931e+00 3.6901995057310444e+01 -1 -1 0
1331 1 8.7484175187562645e+00 1.4670761363318995e+01 3.5849841338822600e+01 2 1 -1
3440 1 4.8601646129531045e-01 5.7172294767395764e+00 3.5637903923995736e+01 2 0 0
5977 1 2.7864464453514417e+00 6.8293872581997075e+00 3.6457187286689859e+01 0 3 0
5109 1 9.2729130755464677e+00 1.2024468229010946e+01 3.6349115510796594e+01 -4 1 -1
1719 1 5.0533650544787978e+00 5.8723533476046370e+00 3.5544133635985403e+01 -2 2 0
3699 1 7.1958948962148153e+00 7.7033900800440378e+00 3.5934748721342601e+01 1 1 0
1752 1 4.6294519121766449e+00 1.1758086174482100e+01 3.8670163722463471e+01 -1 2 -1
1892 1 4.1383503004376614e+00 1.1705279459303298e+01 3.5835556512727649e+01 -3 -1 -1
4486 1 2.4717161127007623e+00 9.5691995480089904e+00 3.6165092143441314e+01 2 0 0
2007 1 2.8525975948841671e+00 7.4645758552043020e+00 3.9113268130545748e+01 -4 3 -1
6082 1 9.0926222304492832e+00 1.2350184392622250e+01 3.8906624545457944e+01 3 -4 0
415 1 1.5573452680948081e+00 1.5226526902841277e+01 3.8964778369114185e+01 2 -2 0
3390 1 6.9586617878366752e+00 1.0482328674157699e+01 3.5974108556872665e+01 3 1 0
4567 1 6.4621458431392780e+00 1.5940408297417362e+01 3.6508784554192204e+01 1 0 0
3103 1 6.2713839460762104e+00 1.6073956782143593e+01 3.9117843375360181e+01 4 -1 0
6034 1 3.8890166683006000e+00 1.4548234606888798e+01 3.5836220834447360e+01 0 2 0
5308 1 1.3442388872480608e+00 1.5351875386672264e+01 3.6056166605460987e+01 -3 -2 0
3238 1 1.2039942302705102e+00 3.1983699010589679e+00 3.9089297252678364e+01 6 -2 -1
1447 1 7.0027255689231653e+00 1.0556861945857799e+01 3.9046936536125159e+01 1 -3 0
6134 1 9.7448468706367901e+00 6.7124897771129604e+00 3.6416189658175185e+01 1 1 0
3656 1 5.9597244426226131e-02 1.0663082469421353e+01 3.7084984417539275e+01 -3 1 -1
92 1 3.2578785579266070e+00 1.9738560053650884e+00 4.2698354412641649e+01 -2 -2 -1
4882 1 8.8726189860675564e-01 3.2025666001621427e+00 4.2980765489342403e+01 4 3 -1
4889 1 4.4509368482552096e+00 1.1499335994185564e+01 4.5969810199393621e+01 0 3 -1
87 1 5.5037629999609798e+00 3.7007102657197395e+00 4.3179097068171345e+01 4 -2 -1
2996 1 8.1725761970148660e+00 2.6060331060511910e+00 4.2920713812169765e+01 4 -3 0
4468 1 9.5322374314466984e-01 5.7544614761627271e+00 3.9736955378983964e+01 -3 2 0
1476 1 2.6339637799735911e+00 7.5063029763972891e+00 4.3528561397756448e+01 -2 4 0
3438 1 7.9554641467143317e-01 5.9615927740888681e+00 4.2501168051200906e+01 1 4 -1
3185 1 4.0426309092329049e+00 1.4408031034140734e+01 3.9867053939440524e+01 1 0 0
523 1 5.1537763221416366e+00 6.4527855578010049e+00 4.2850830044520222e+01 0 3 0
5997 1 7.5569773884580256e+00 8.0802911520926983e+00 4.3117001515901933e+01 3 3 0
3262 1 1.1187650282714401e-02 1.4530570567711708e+01 4.7218317387758987e+01 -2 2 -1
1997 1 8.1323691890747085e+00 4.6672547902107553e-01 4.6178908023964041e+01 0 3 -1
5064 1 6.4338971501586357e+00 1.2818046253679418e+01 4.6925570058839625e+01 2 -2 -1
5247 1 6.1371921175052835e-01 8.6808911223556837e+00 4.7384867434647902e+01 4 -1 -1
3345 1 8.8625729454532927e+00 1.2205714535107973e+01 4.5880613604533039e+01 -2 -2 0
1428 1 2.5579009859351096e+00 1.0061132965497658e+01 4.2632943851687415e+01 -3 -3 0
3641 1 4.8433883810303620e+00 1.1309163038733434e+01 4.3358609057407804e+01 -5 5 -1
1833 1 5.2299268220294062e+00 6.2334946304351053e+00 4.0107395968492369e+01 -1 -2 -1
3493 1 7.1148630733015192e+00 1.0487257501477961e+01 4.2092682043802796e+01 3 -1 0
4630 1 9.0509168398387470e+00 1.2244545552641526e+01 4.3106631450607239e+01 2 -1 0
3516 1 2.6492130292813392e+00 1.0054533676495945e+01 3.9877540622451519e+01 4 -2 -1
6309 1 1.8621990606510979e+00 1.5398291124483011e+01 4.3412328019210619e+01 2 4 0
3562 1 4.1187928508258471e+00 1.4034971778292316e+01 4.2651845423304152e+01 -3 3 -1
2134 1 3.3845438245476234e+00 1.6796522406042438e+00 3.9913302055874595e+01 1 4 0
2024 1 9.1621312595373077e+00 9.5928497068628769e+00 4.6773766443822993e+01 1 1 -1
5218 1 6.5073776991344277e+00 1.5351335935862787e+01 4.5933223192596202e+01 2 1 -1
6016 1 8.6175333543887440e+00 1.4837612306226408e+01 4.2329165059495779e+01 -4 5 -1
365 1 6.2273854525162022e+00 1.5681928657057888e+01 4.3295055747543756e+01 0 -4 -1