LAMMPS data file via write_data, version 29 Sep 2021, timestep = 100000

4065 atoms
2 atom types

0 49.22 xlo xhi
0 49.019635930410494 ylo yhi
1.9288004188438546 25.912031827440345 zlo zhi

Masses

1 18.015
2 12.01

Atoms # atomic

83 2 0 2.8417180249513345 3.373436797398422 0 0 0
85 2 0 0 3.373436797398422 0 0 0
87 2 1.2305000000000001 0.7104295062378347 3.373436797398422 0 0 0
94 2 1.2305000000000001 2.1312885187135 3.373436797398422 0 0 0
96 2 2.4610000000000003 2.8417180249513345 3.373436797398422 0 0 0
98 2 2.4610000000000003 0 3.373436797398422 0 0 0
100 2 3.6915000000000004 0.7104295062378347 3.373436797398422 0 0 0
115 2 3.6914999999999996 2.1312885187135 3.373436797398422 0 0 0
117 2 4.922000000000001 2.841718024951333 3.373436797398422 0 0 0
119 2 4.922000000000001 0 3.373436797398422 0 0 0
90 2 0 4.262577037427 3.373436797398422 0 0 0
111 2 2.4610000000000003 4.262577037427 3.373436797398422 0 0 0
140 2 4.922000000000001 4.262577037426998 3.373436797398422 0 0 0
92 2 1.2305000000000001 4.973006543664834 3.373436797398422 0 0 0
107 2 1.2305000000000001 6.393865556140498 3.373436797398422 0 0 0
113 2 3.6914999999999996 4.973006543664834 3.373436797398422 0 0 0
136 2 3.6914999999999996 6.393865556140498 3.373436797398422 0 0 0
88 2 0 7.104295062378334 3.373436797398422 0 0 0
103 2 0 8.525154074854 3.373436797398422 0 0 0
105 2 1.2305000000000001 9.235583581091834 3.373436797398422 0 0 0
109 2 2.4610000000000003 7.104295062378334 3.373436797398422 0 0 0
132 2 2.4610000000000003 8.525154074854 3.373436797398422 0 0 0
134 2 3.6915000000000004 9.235583581091834 3.373436797398422 0 0 0
138 2 4.922000000000001 7.104295062378334 3.373436797398422 0 0 0
169 2 4.922000000000001 8.525154074854 3.373436797398422 0 0 0
84 2 0 1.420859012475665 6.262709554507487 0 0 0
86 2 0 0 6.262709554507487 0 0 0
95 2 1.2305000000000001 2.1312885187135 6.262709554507487 0 0 0
97 2 2.4610000000000003 1.420859012475665 6.262709554507487 0 0 0
99 2 2.4610000000000003 0 6.262709554507487 0 0 0
412 2 0 2.8417180249513345 9.151982311616305 0 0 0
413 2 0 0 9.151982311616305 0 0 0
414 2 1.2305000000000001 0.7104295062378347 9.151982311616305 0 0 0
418 2 1.2305000000000001 2.1312885187135 9.151982311616305 0 0 0
419 2 2.4610000000000003 2.8417180249513345 9.151982311616305 0 0 0
420 2 2.4610000000000003 0 9.151982311616305 0 0 0
116 2 3.6914999999999996 2.1312885187135 6.262709554507487 0 0 0
118 2 4.922000000000001 1.420859012475665 6.262709554507487 0 0 0
120 2 4.922000000000001 0 6.262709554507487 0 0 0
421 2 3.6915000000000004 0.7104295062378347 9.151982311616305 0 0 0
429 2 3.6914999999999996 2.1312885187135 9.151982311616305 0 0 0
430 2 4.922000000000001 2.841718024951333 9.151982311616305 0 0 0
431 2 4.922000000000001 0 9.151982311616305 0 0 0
91 2 0 4.262577037427 6.262709554507487 0 0 0
93 2 1.2305000000000001 3.5521475311891644 6.262709554507487 0 0 0
112 2 2.4610000000000003 4.262577037427 6.262709554507487 0 0 0
416 2 0 4.262577037427 9.151982311616305 0 0 0
427 2 2.4610000000000003 4.262577037427 9.151982311616305 0 0 0
114 2 3.6914999999999996 3.5521475311891644 6.262709554507487 0 0 0
141 2 4.922000000000001 4.262577037426998 6.262709554507487 0 0 0
442 2 4.922000000000001 4.262577037426998 9.151982311616305 0 0 0
89 2 0 5.683436049902664 6.262709554507487 0 0 0
108 2 1.2305000000000001 6.393865556140498 6.262709554507487 0 0 0
110 2 2.4610000000000003 5.683436049902664 6.262709554507487 0 0 0
417 2 1.2305000000000001 4.973006543664834 9.151982311616305 0 0 0
425 2 1.2305000000000001 6.393865556140498 9.151982311616305 0 0 0
137 2 3.6914999999999996 6.393865556140498 6.262709554507487 0 0 0
139 2 4.922000000000001 5.683436049902664 6.262709554507487 0 0 0
428 2 3.6914999999999996 4.973006543664834 9.151982311616305 0 0 0
440 2 3.6914999999999996 6.393865556140498 9.151982311616305 0 0 0
104 2 0 8.525154074854 6.262709554507487 0 0 0
106 2 1.2305000000000001 7.814724568616164 6.262709554507487 0 0 0
133 2 2.4610000000000003 8.525154074854 6.262709554507487 0 0 0
415 2 0 7.104295062378334 9.151982311616305 0 0 0
423 2 0 8.525154074854 9.151982311616305 0 0 0
424 2 1.2305000000000001 9.235583581091834 9.151982311616305 0 0 0
426 2 2.4610000000000003 7.104295062378334 9.151982311616305 0 0 0
438 2 2.4610000000000003 8.525154074854 9.151982311616305 0 0 0
135 2 3.6914999999999996 7.814724568616164 6.262709554507487 0 0 0
170 2 4.922000000000001 8.525154074854 6.262709554507487 0 0 0
439 2 3.6915000000000004 9.235583581091834 9.151982311616305 0 0 0
441 2 4.922000000000001 7.104295062378334 9.151982311616305 0 0 0
457 2 4.922000000000001 8.525154074854 9.151982311616305 0 0 0
2841 1 6.032864265325267 0.032399254351787476 12.131792818814846 0 1 0
854 1 2.065804865189086 2.931047456236377 11.899073404013889 0 1 -2
942 1 2.2534217547303155 7.072827957059827 11.873974657331958 0 1 -1
877 1 4.840249681812066 2.632059843168823 12.238854541330774 0 0 0
3857 1 4.639335152027512 5.610741792953014 12.002910171100503 -1 1 0
842 1 0.054290251850813216 4.951432700492339 11.711559374146308 0 -1 0
2988 1 4.450481843997164 8.232476305167925 21.69956126770623 0 -1 0
1014 1 1.1203464619639856 1.9374820138260997 22.976959308954825 0 0 -1
3991 1 4.792597854648109 0.02456859212058888 19.039332956888416 1 0 -1
3987 1 4.6696790978259015 2.342400115749711 15.428157968617805 1 1 1
2952 1 2.2835792417517693 7.160126948682582 14.514355106176557 0 0 1
803 1 4.6106531146895 3.6355231648677244 24.922997556912946 0 1 0
3149 1 4.80575040465407 5.28135408062643 15.078942874591336 1 1 0
2033 1 1.5583975698627095 5.197728995357875 21.184616553039234 0 0 0
1898 1 2.5692388531753045 1.8319384325272385 19.148273780768477 0 0 0
3969 1 3.907913184248571 1.38732012463718 22.41340092681161 2 0 0
3025 1 0.7764769067371066 4.330103280470232 16.875335556668162 0 1 -1
915 1 2.149260710235711 2.069124974682728 16.39305990065501 0 1 0
969 1 5.584407061109119 4.726403332241154 18.68456668619286 0 1 -1
2832 1 4.2042111818208205 6.5741710538936795 17.36177684345192 0 0 0
2080 1 4.579290832634263 0.8294065038914125 25.022400219716772 1 1 0
3868 1 3.8662827249735354 3.7763970548231613 20.4514427745995 1 0 0
2851 1 4.676096018984581 8.933776473036215 19.06076694047988 1 -1 0
4000 1 3.924491184908092 6.812774201235287 24.91074484932423 0 1 0
2082 1 1.8016576417274 4.42205307439803 24.085413512518812 1 1 1
815 1 1.1262395869300446 7.751115985762018 24.853083588001347 0 2 0
4025 1 1.8484101073969637 6.1684384892706765 18.395738511871343 0 0 1
874 1 1.4704741671168962 7.9818449022944264 22.111524284631997 1 0 0
936 1 4.756344463317585 9.748727638592984 24.131453581967897 0 1 0
4035 1 0.8312647948868451 0.2645629069167512 20.63450633042462 0 1 0
2967 1 0.2731147555776565 1.4788067560054625 13.998263481085013 1 0 -1
101 2 0 11.366872099805333 3.373436797398422 0 0 0
124 2 0 12.787731112280996 3.373436797398422 0 0 0
126 2 1.2305000000000001 13.49816061851883 3.373436797398422 0 0 0
128 2 1.2305000000000001 10.656442593567498 3.373436797398422 0 0 0
130 2 2.4610000000000003 11.366872099805333 3.373436797398422 0 0 0
161 2 2.4610000000000003 12.787731112280996 3.373436797398422 0 0 0
163 2 3.6915000000000004 13.49816061851883 3.373436797398422 0 0 0
165 2 3.6914999999999996 10.6564425935675 3.373436797398422 0 0 0
167 2 4.922000000000001 11.366872099805333 3.373436797398422 0 0 0
206 2 4.922000000000001 12.787731112280996 3.373436797398422 0 0 0
208 2 6.152499999999999 13.49816061851883 3.373436797398422 0 0 0
122 2 0 15.629449137232333 3.373436797398422 0 0 0
153 2 0 17.050308149708 3.373436797398422 0 0 0
157 2 1.2305000000000001 14.919019630994494 3.373436797398422 0 0 0
159 2 2.4610000000000003 15.629449137232328 3.373436797398422 0 0 0
198 2 2.4610000000000003 17.050308149708 3.373436797398422 0 0 0
202 2 3.6915000000000004 14.919019630994494 3.373436797398422 0 0 0
204 2 4.922000000000001 15.629449137232333 3.373436797398422 0 0 0
245 2 4.922000000000001 17.050308149708 3.373436797398422 0 0 0
249 2 6.152499999999999 14.919019630994494 3.373436797398422 0 0 0
155 2 1.2305000000000001 17.76073765594583 3.373436797398422 0 0 0
194 2 1.2305000000000001 19.181596668421495 3.373436797398422 0 0 0
200 2 3.6914999999999996 17.76073765594583 3.373436797398422 0 0 0
241 2 3.6914999999999996 19.181596668421495 3.373436797398422 0 0 0
102 2 0 9.946013087329664 6.262709554507487 0 0 0
131 2 2.4610000000000003 9.946013087329664 6.262709554507487 0 0 0
168 2 4.922000000000001 9.946013087329664 6.262709554507487 0 0 0
125 2 0 12.787731112280996 6.262709554507487 0 0 0
127 2 1.2305000000000001 12.077301606043163 6.262709554507487 0 0 0
129 2 1.2305000000000001 10.656442593567498 6.262709554507487 0 0 0
162 2 2.4610000000000003 12.787731112280996 6.262709554507487 0 0 0
422 2 0 11.366872099805333 9.151982311616305 0 0 0
434 2 0 12.787731112280996 9.151982311616305 0 0 0
435 2 1.2305000000000001 13.49816061851883 9.151982311616305 0 0 0
436 2 1.2305000000000001 10.656442593567498 9.151982311616305 0 0 0
437 2 2.4610000000000003 11.366872099805333 9.151982311616305 0 0 0
453 2 2.4610000000000003 12.787731112280996 9.151982311616305 0 0 0
164 2 3.6914999999999996 12.077301606043163 6.262709554507487 0 0 0
166 2 3.6914999999999996 10.6564425935675 6.262709554507487 0 0 0
207 2 4.922000000000001 12.787731112280996 6.262709554507487 0 0 0
454 2 3.6915000000000004 13.49816061851883 9.151982311616305 0 0 0
455 2 3.6914999999999996 10.6564425935675 9.151982311616305 0 0 0
456 2 4.922000000000001 11.366872099805333 9.151982311616305 0 0 0
476 2 4.922000000000001 12.787731112280996 9.151982311616305 0 0 0
477 2 6.152499999999999 13.49816061851883 9.151982311616305 0 0 0
123 2 0 14.208590124756663 6.262709554507487 0 0 0
160 2 2.4610000000000003 14.208590124756663 6.262709554507487 0 0 0
205 2 4.922000000000001 14.208590124756663 6.262709554507487 0 0 0
154 2 0 17.050308149708 6.262709554507487 0 0 0
156 2 1.2305000000000001 16.339878643470165 6.262709554507487 0 0 0
158 2 1.2305000000000001 14.919019630994494 6.262709554507487 0 0 0
199 2 2.4610000000000003 17.050308149708 6.262709554507487 0 0 0
433 2 0 15.629449137232333 9.151982311616305 0 0 0
449 2 0 17.050308149708 9.151982311616305 0 0 0
451 2 1.2305000000000001 14.919019630994494 9.151982311616305 0 0 0
452 2 2.4610000000000003 15.629449137232328 9.151982311616305 0 0 0
472 2 2.4610000000000003 17.050308149708 9.151982311616305 0 0 0
201 2 3.6915000000000004 16.339878643470165 6.262709554507487 0 0 0
203 2 3.6915000000000004 14.919019630994494 6.262709554507487 0 0 0
246 2 4.922000000000001 17.050308149708 6.262709554507487 0 0 0
250 2 6.152499999999999 14.919019630994494 6.262709554507487 0 0 0
474 2 3.6915000000000004 14.919019630994494 9.151982311616305 0 0 0
475 2 4.922000000000001 15.629449137232333 9.151982311616305 0 0 0
496 2 4.922000000000001 17.050308149708 9.151982311616305 0 0 0
498 2 6.152499999999999 14.919019630994494 9.151982311616305 0 0 0
152 2 0 18.471167162183658 6.262709554507487 0 0 0
195 2 1.2305000000000001 19.181596668421495 6.262709554507487 0 0 0
197 2 2.4610000000000003 18.471167162183658 6.262709554507487 0 0 0
450 2 1.2305000000000001 17.76073765594583 9.151982311616305 0 0 0
470 2 1.2305000000000001 19.181596668421495 9.151982311616305 0 0 0
242 2 3.6914999999999996 19.181596668421495 6.262709554507487 0 0 0
244 2 4.922000000000001 18.471167162183658 6.262709554507487 0 0 0
473 2 3.6914999999999996 17.76073765594583 9.151982311616305 0 0 0
494 2 3.6914999999999996 19.181596668421495 9.151982311616305 0 0 0
1855 1 4.322661935327978 13.91158669838305 12.462135540060281 0 1 0
1023 1 2.037185492614982 14.841903802888927 11.865747126844013 0 0 -1
4016 1 4.228939949446882 11.279753529885555 11.789482083478877 0 0 -1
3898 1 2.699170804162411 17.48456085547221 11.835215917297628 0 0 0
3977 1 5.2614336735984075 18.403740555731986 12.22575614905915 1 1 1
927 1 1.7454268134374713 9.98386810298959 11.940439848645676 0 0 0
71 1 2.085112114006944 14.991636853744481 16.826333890364296 0 2 0
2880 1 4.398050684577679 13.668545688073435 15.103504443206036 1 -1 -1
3038 1 5.33220217575265 11.374804698820267 17.790876542258687 1 0 0
2122 1 2.6592470751667587 17.77473908509756 16.127904807251632 1 1 0
3905 1 3.6949898071397254 13.683092633019795 21.986936953465573 1 0 -1
964 1 1.9703855589436807 9.870378585322426 14.590095814307539 0 0 0
2861 1 4.66617142431602 10.841095408254844 15.178292120337558 1 0 0
2017 1 5.426019496313803 17.063595785618308 22.16279714563428 0 0 -1
4031 1 3.092675169095224 14.513802356217392 24.85184662625437 1 0 0
795 1 0.7215828212719474 10.430395985379214 17.507864434882208 0 0 0
1947 1 1.362922260799491 12.078439808299633 21.728343962345846 1 0 0
3916 1 2.362165644767769 18.147108900191473 21.938646443707114 1 0 0
835 1 4.993058247443805 18.870057960722033 15.013189280244555 1 -1 -1
884 1 1.2693270853031025 16.346691156236297 25.133944997147765 1 1 0
2037 1 1.9221967389825287 9.836131389305724 19.892727673666244 1 0 0
1032 1 4.123016035233447 13.969365012839441 18.486154943731876 1 1 -1
3049 1 3.8808777193658885 17.904482593072757 18.598424937372137 0 1 -1
2915 1 2.8163420734998605 15.845004931154723 20.394024991718567 1 1 0
3893 1 2.9030296924968093 11.69015631296953 24.871144782249182 1 0 -1
3862 1 5.456145816915408 15.646420494828755 24.789229587313685 0 0 0
2111 1 1.9054686550933224 18.92230511903061 24.95872636969625 0 0 0
1791 1 0.7286676663374989 14.26238570014016 14.265038760317086 0 1 0
3853 1 0.7189276422162965 19.553310985787267 15.292407537539532 0 0 -1
2013 1 0.3873733768634148 10.68734316299338 24.301469590545167 0 0 -1
1835 1 0.2511377455509996 15.271721347972996 19.490674044916574 2 1 -1
3029 1 6.019650716121519 15.776819969329965 18.017791909107117 0 0 -1
151 2 0 19.89202617465933 3.373436797398422 0 0 0
196 2 2.4610000000000003 19.89202617465933 3.373436797398422 0 0 0
243 2 4.922000000000001 19.89202617465933 3.373436797398422 0 0 0
188 2 0 24.154603212086325 3.373436797398422 0 0 0
190 2 0 21.312885187135 3.373436797398422 0 0 0
192 2 1.2304999999999993 22.023314693372832 3.373436797398422 0 0 0
233 2 1.2304999999999993 23.4441737058485 3.373436797398422 0 0 0
235 2 2.4610000000000003 24.154603212086325 3.373436797398422 0 0 0
237 2 2.4610000000000003 21.312885187134995 3.373436797398422 0 0 0
239 2 3.6914999999999996 22.023314693372832 3.373436797398422 0 0 0
280 2 3.6915000000000004 23.4441737058485 3.373436797398422 0 0 0
282 2 4.922000000000001 24.154603212086325 3.373436797398422 0 0 0
284 2 4.922000000000001 21.312885187134995 3.373436797398422 0 0 0
286 2 6.152499999999999 22.023314693372832 3.373436797398422 0 0 0
1130 2 0 25.575462224561992 3.373436797398422 0 0 0
1132 2 1.2305000000000001 26.285891730799833 3.373436797398422 0 0 0
1140 2 1.230500000000001 27.706750743275496 3.373436797398422 0 0 0
1144 2 2.4610000000000003 25.575462224561992 3.373436797398422 0 0 0
1146 2 3.691499999999999 26.285891730799833 3.373436797398422 0 0 0
1162 2 3.6914999999999996 27.706750743275496 3.373436797398422 0 0 0
1166 2 4.922000000000001 25.575462224561992 3.373436797398422 0 0 0
1192 2 6.152499999999999 27.706750743275496 3.373436797398422 0 0 0
1128 2 0 28.417180249513333 3.373436797398422 0 0 0
1142 2 2.4610000000000003 28.417180249513326 3.373436797398422 0 0 0
1164 2 4.922000000000001 28.417180249513336 3.373436797398422 0 0 0
193 2 1.2305000000000001 20.60245568089716 6.262709554507487 0 0 0
448 2 0 19.89202617465933 9.151982311616305 0 0 0
471 2 2.4610000000000003 19.89202617465933 9.151982311616305 0 0 0
240 2 3.6915000000000004 20.60245568089716 6.262709554507487 0 0 0
495 2 4.922000000000001 19.89202617465933 9.151982311616305 0 0 0
189 2 0 22.733744199610655 6.262709554507487 0 0 0
191 2 0 21.312885187135 6.262709554507487 0 0 0
234 2 1.2304999999999993 23.4441737058485 6.262709554507487 0 0 0
236 2 2.4610000000000003 22.733744199610655 6.262709554507487 0 0 0
238 2 2.4610000000000003 21.312885187134995 6.262709554507487 0 0 0
467 2 0 24.154603212086325 9.151982311616305 0 0 0
468 2 0 21.312885187135 9.151982311616305 0 0 0
469 2 1.2304999999999993 22.023314693372832 9.151982311616305 0 0 0
490 2 1.2304999999999993 23.4441737058485 9.151982311616305 0 0 0
491 2 2.4610000000000003 24.154603212086325 9.151982311616305 0 0 0
492 2 2.4610000000000003 21.312885187134995 9.151982311616305 0 0 0
281 2 3.6915000000000004 23.4441737058485 6.262709554507487 0 0 0
283 2 4.922000000000001 22.733744199610655 6.262709554507487 0 0 0
285 2 4.922000000000001 21.312885187134995 6.262709554507487 0 0 0
493 2 3.6914999999999996 22.023314693372832 9.151982311616305 0 0 0
514 2 3.6915000000000004 23.4441737058485 9.151982311616305 0 0 0
515 2 4.922000000000001 24.154603212086325 9.151982311616305 0 0 0
516 2 4.922000000000001 21.312885187134995 9.151982311616305 0 0 0
517 2 6.152499999999999 22.023314693372832 9.151982311616305 0 0 0
1129 2 0 26.99632123703766 6.262709554507487 0 0 0
1131 2 0 25.575462224561992 6.262709554507487 0 0 0
1133 2 1.2305000000000001 24.865032718324155 6.262709554507487 0 0 0
1141 2 1.230500000000001 27.706750743275496 6.262709554507487 0 0 0
1143 2 2.4610000000000003 26.99632123703766 6.262709554507487 0 0 0
1145 2 2.4610000000000003 25.575462224561992 6.262709554507487 0 0 0
1444 2 0 25.575462224561992 9.151982311616305 0 0 0
1445 2 1.2305000000000001 26.285891730799833 9.151982311616305 0 0 0
1449 2 1.230500000000001 27.706750743275496 9.151982311616305 0 0 0
1451 2 2.4610000000000003 25.575462224561992 9.151982311616305 0 0 0
1147 2 3.6914999999999996 24.865032718324166 6.262709554507487 0 0 0
1163 2 3.6914999999999996 27.706750743275496 6.262709554507487 0 0 0
1165 2 4.922000000000001 26.99632123703766 6.262709554507487 0 0 0
1167 2 4.922000000000001 25.575462224561992 6.262709554507487 0 0 0
1169 2 6.152499999999999 24.865032718324155 6.262709554507487 0 0 0
1193 2 6.152499999999999 27.706750743275496 6.262709554507487 0 0 0
1452 2 3.691499999999999 26.285891730799833 9.151982311616305 0 0 0
1460 2 3.6914999999999996 27.706750743275496 9.151982311616305 0 0 0
1462 2 4.922000000000001 25.575462224561992 9.151982311616305 0 0 0
1475 2 6.152499999999999 27.706750743275496 9.151982311616305 0 0 0
1139 2 1.2304999999999993 29.127609755751163 6.262709554507487 0 0 0
1443 2 0 28.417180249513333 9.151982311616305 0 0 0
1450 2 2.4610000000000003 28.417180249513326 9.151982311616305 0 0 0
1161 2 3.691499999999999 29.127609755751152 6.262709554507487 0 0 0
1191 2 6.152499999999998 29.127609755751152 6.262709554507487 0 0 0
1461 2 4.922000000000001 28.417180249513336 9.151982311616305 0 0 0
3115 1 1.3028123524933886 21.383920697325337 11.681486653601343 0 0 0
2858 1 4.103360014465782 20.926057665849257 11.488678913057283 1 0 0
1036 1 1.9887444192061905 26.055380059672842 12.08444850820047 0 0 -1
3101 1 1.3539931068505677 28.655564574090786 11.561586818367203 1 0 0
1074 1 4.535517660464467 25.462906466341817 11.567867483749849 1 1 0
1857 1 5.472857809146159 22.89301850726893 12.58693046858734 0 0 -1
4014 1 0.015976652304987283 23.981667107691145 12.057628416361837 1 0 0
839 1 2.6459018809111075 29.198160111149406 21.933507697934587 1 -1 0
3925 1 4.440258220283917 20.01606483930703 25.03557679688393 1 1 -1
3956 1 2.9729928083268202 26.08409423549498 18.435327581777443 0 -1 0
3808 1 6.066907536341154 19.949945844832147 19.0507048627123 1 0 1
921 1 4.876435200368773 21.55771641465578 14.972493286175446 0 0 0
4040 1 1.3790043017511453 23.464996793782234 24.643368063976155 0 0 -2
960 1 5.048616951318578 25.961293629204388 15.993633135657827 0 0 -1
1822 1 2.1844706899132422 25.862140747221883 14.864940148999704 1 0 0
1914 1 5.676913878813987 28.202839928989437 14.398216420017496 0 -1 0
3032 1 3.1032969312992007 20.276449258621533 20.218765110653365 1 1 1
35 1 0.906333248934199 25.678318313172657 22.890536145732327 0 0 1
1897 1 4.8698186502533005 21.56467636535941 22.228744171357924 0 -1 0
2007 1 2.904845910191337 28.968369002504993 18.676437810537934 2 -1 0
3972 1 3.9983193703682094 23.514846689974345 20.19979505016989 0 0 0
15 1 0.11777029955448129 20.86009727452793 24.185776047171103 2 0 1
3114 1 3.439203701545467 26.246798550434416 21.575697751769972 1 1 0
2909 1 2.049524881828137 21.804038447277026 14.468958382714023 0 0 1
2055 1 4.070037291810504 22.863110283889796 24.747593239435822 1 0 1
3877 1 0.9946014042127004 23.835272284455144 20.51717107348454 0 -1 0
43 1 5.07004052079284 28.575135664919422 24.902319590809505 2 0 1
2857 1 1.2391958818540445 28.204104710563794 15.948080530037817 1 0 0
1884 1 4.643020929722097 25.928987297864346 24.13454485430215 1 1 0
2924 1 5.876692310444547 27.37977677199127 18.274861932173522 0 0 -1
57 1 0.33849630657901913 23.868330372544186 14.721925058071763 0 0 0
917 1 0.3711425264485936 20.835133845271663 20.116605842254508 2 -1 -1
2006 1 0.5180362422722814 24.718844041803848 18.215408614929125 0 0 -1
1136 2 0 29.83803926198899 3.373436797398422 0 0 0
1138 2 1.2304999999999993 30.54846876822683 3.373436797398422 0 0 0
1158 2 2.4610000000000003 29.83803926198899 3.373436797398422 0 0 0
1160 2 3.6915000000000004 30.54846876822683 3.373436797398422 0 0 0
1188 2 4.922000000000001 29.83803926198899 3.373436797398422 0 0 0
1134 2 0 32.67975728694033 3.373436797398422 0 0 0
1150 2 0 34.100616299416 3.373436797398422 0 0 0
1154 2 1.2304999999999993 31.969327780702493 3.373436797398422 0 0 0
1156 2 2.4610000000000003 32.67975728694034 3.373436797398422 0 0 0
1180 2 2.4609999999999985 34.100616299416 3.373436797398422 0 0 0
1184 2 3.6914999999999996 31.969327780702493 3.373436797398422 0 0 0
1186 2 4.9220000000000015 32.67975728694034 3.373436797398422 0 0 0
1218 2 4.922000000000001 34.100616299416 3.373436797398422 0 0 0
1152 2 1.230500000000001 34.81104580565383 3.373436797398422 0 0 0
1182 2 3.691500000000002 34.81104580565383 3.373436797398422 0 0 0
1148 2 0 36.94233432436734 3.373436797398422 0 0 0
1172 2 0 38.36319333684299 3.373436797398422 0 0 0
1176 2 1.2304999999999993 36.231904818129486 3.373436797398422 0 0 0
1178 2 2.461000000000002 36.94233432436734 3.373436797398422 0 0 0
1210 2 2.4610000000000003 38.36319333684299 3.373436797398422 0 0 0
1214 2 3.6914999999999996 36.231904818129486 3.373436797398422 0 0 0
1216 2 4.922000000000001 36.942334324367316 3.373436797398422 0 0 0
1255 2 4.922000000000001 38.36319333684299 3.373436797398422 0 0 0
1174 2 1.230500000000001 39.07362284308084 3.373436797398422 0 0 0
1212 2 3.691500000000002 39.07362284308082 3.373436797398422 0 0 0
1135 2 0 31.258898274464656 6.262709554507487 0 0 0
1137 2 0 29.83803926198899 6.262709554507487 0 0 0
1157 2 2.4609999999999985 31.258898274464656 6.262709554507487 0 0 0
1159 2 2.4610000000000003 29.83803926198899 6.262709554507487 0 0 0
1447 2 0 29.83803926198899 9.151982311616305 0 0 0
1448 2 1.2304999999999993 30.54846876822683 9.151982311616305 0 0 0
1458 2 2.4610000000000003 29.83803926198899 9.151982311616305 0 0 0
1187 2 4.921999999999998 31.258898274464656 6.262709554507487 0 0 0
1189 2 4.922000000000001 29.83803926198899 6.262709554507487 0 0 0
1459 2 3.6915000000000004 30.54846876822683 9.151982311616305 0 0 0
1473 2 4.922000000000001 29.83803926198899 9.151982311616305 0 0 0
1151 2 0 34.100616299416 6.262709554507487 0 0 0
1153 2 1.2304999999999993 33.39018679317816 6.262709554507487 0 0 0
1155 2 1.2304999999999993 31.969327780702493 6.262709554507487 0 0 0
1181 2 2.4609999999999985 34.100616299416 6.262709554507487 0 0 0
1446 2 0 32.67975728694033 9.151982311616305 0 0 0
1454 2 0 34.100616299416 9.151982311616305 0 0 0
1456 2 1.2304999999999993 31.969327780702493 9.151982311616305 0 0 0
1457 2 2.4610000000000003 32.67975728694034 9.151982311616305 0 0 0
1469 2 2.4609999999999985 34.100616299416 9.151982311616305 0 0 0
1183 2 3.691499999999998 33.39018679317816 6.262709554507487 0 0 0
1185 2 3.6914999999999996 31.969327780702493 6.262709554507487 0 0 0
1219 2 4.922000000000001 34.100616299416 6.262709554507487 0 0 0
1221 2 6.152499999999999 33.39018679317816 6.262709554507487 0 0 0
1471 2 3.6914999999999996 31.969327780702493 9.151982311616305 0 0 0
1472 2 4.9220000000000015 32.67975728694034 9.151982311616305 0 0 0
1488 2 4.922000000000001 34.100616299416 9.151982311616305 0 0 0
1455 2 1.230500000000001 34.81104580565383 9.151982311616305 0 0 0
1470 2 3.691500000000002 34.81104580565383 9.151982311616305 0 0 0
1149 2 0 35.52147531189165 6.262709554507487 0 0 0
1173 2 0 38.36319333684299 6.262709554507487 0 0 0
1175 2 1.2304999999999993 37.65276383060515 6.262709554507487 0 0 0
1177 2 1.2304999999999993 36.231904818129486 6.262709554507487 0 0 0
1179 2 2.4609999999999985 35.52147531189166 6.262709554507487 0 0 0
1211 2 2.4610000000000003 38.36319333684299 6.262709554507487 0 0 0
1453 2 0 36.94233432436734 9.151982311616305 0 0 0
1465 2 0 38.36319333684299 9.151982311616305 0 0 0
1467 2 1.2304999999999993 36.231904818129486 9.151982311616305 0 0 0
1468 2 2.461000000000002 36.94233432436734 9.151982311616305 0 0 0
1484 2 2.4610000000000003 38.36319333684299 9.151982311616305 0 0 0
1213 2 3.6914999999999996 37.65276383060515 6.262709554507487 0 0 0
1215 2 3.6914999999999996 36.231904818129486 6.262709554507487 0 0 0
1217 2 4.922000000000001 35.52147531189166 6.262709554507487 0 0 0
1256 2 4.922000000000001 38.36319333684299 6.262709554507487 0 0 0
1258 2 6.152499999999998 37.65276383060515 6.262709554507487 0 0 0
1486 2 3.6914999999999996 36.231904818129486 9.151982311616305 0 0 0
1487 2 4.922000000000001 36.942334324367316 9.151982311616305 0 0 0
1506 2 4.922000000000001 38.36319333684299 9.151982311616305 0 0 0
1466 2 1.230500000000001 39.07362284308084 9.151982311616305 0 0 0
1485 2 3.691500000000002 39.07362284308082 9.151982311616305 0 0 0
1075 1 5.970553448630458 38.02752262500223 11.806191832799536 0 1 0
1968 1 1.595948981759874 32.81008628314542 11.820672329604506 0 0 -1
886 1 3.3692406325135704 30.595899318363383 11.839359261164345 0 -1 -1
2827 1 1.7673434844653935 35.81019491070908 11.562064401241162 2 0 0
1799 1 2.976311902747722 38.2423177508895 11.618652627383547 1 0 0
3882 1 4.5769836496168725 35.215701934141585 12.185267578128268 1 0 1
3082 1 3.7108056201934594 32.94072886972387 18.57574853468992 1 -1 0
912 1 1.8787562309038386 32.30888608602294 14.848472026161708 0 0 -1
3962 1 4.949980337172677 33.67909380987195 25.147061135352892 0 0 0
2830 1 4.884410219831395 31.732136447604116 15.874860156941839 1 1 0
786 1 3.085575335646988 34.81722466348342 14.624685723727476 0 1 0
2939 1 3.1775462220786452 37.98064973534794 14.349940345987823 0 -1 -1
878 1 0.8118108996589121 36.15039635160092 14.706987649346503 0 0 -1
3889 1 0.942670357504797 36.533586788497125 24.657327656030816 0 0 -1
791 1 1.9638101175376392 31.397177993425903 20.428130080844824 1 0 0
1091 1 3.7325550030455665 36.11000713925658 24.668984167349542 0 0 -1
2888 1 3.6391114454880698 36.39228832591489 17.113587414855402 1 1 -1
1877 1 4.805462105036232 35.358762184766015 19.637630835616548 -1 -1 0
2115 1 0.8248643487387258 36.96415172136611 21.85204121510087 0 -1 1
1089 1 1.0637386141905254 34.37291823358881 17.42477210548604 0 1 0
4017 1 3.3629615366252694 36.09312512791576 21.760198567570818 0 0 0
3863 1 1.680542531480014 38.05354509778041 18.037679529185176 1 0 0
3036 1 3.2777819181687344 33.330738626816405 22.142158316923307 1 1 0
971 1 2.2624944164852656 32.39916967225047 24.59793532000142 1 -1 -1
2838 1 4.533345173577243 38.869825456476796 24.057387310526707 1 -1 0
937 1 1.2389623752712497 30.99196932870531 17.237519466645978 0 1 0
1030 1 5.228777630105373 29.716877130348458 21.000084077978116 0 -1 -1
3816 1 5.6052072915344695 30.19171699965374 18.045606760403963 -1 0 -1
1033 1 3.3018694631439196 29.764142449600634 14.405372632999676 0 -1 0
1916 1 5.809116164363326 32.14484545492096 22.25480313351504 0 0 0
3124 1 5.941557212109542 38.189137042591724 20.13220010217549 1 0 0
3143 1 2.3782077219469175 29.73497524956957 24.795169529044152 1 1 1
823 1 0.038414191085621496 38.542383598398864 15.957647772370175 1 0 -1
3990 1 5.986091558005365 38.03994670810626 14.68423078333278 0 0 -1
1170 2 0 41.20491136179432 3.373436797398422 0 0 0
1206 2 1.230500000000001 40.494481855556494 3.373436797398422 0 0 0
1208 2 2.4610000000000003 41.20491136179432 3.373436797398422 0 0 0
1251 2 3.6914999999999996 40.494481855556494 3.373436797398422 0 0 0
1253 2 4.922000000000003 41.20491136179432 3.373436797398422 0 0 0
1296 2 6.152499999999998 40.494481855556494 3.373436797398422 0 0 0
1202 2 0 42.62577037427 3.373436797398422 0 0 0
1204 2 1.2304999999999993 43.33619988050783 3.373436797398422 0 0 0
1247 2 2.4610000000000003 42.62577037427 3.373436797398422 0 0 0
1249 2 3.691500000000002 43.33619988050783 3.373436797398422 0 0 0
1292 2 4.922000000000001 42.62577037426999 3.373436797398422 0 0 0
1200 2 0 45.46748839922133 3.373436797398422 0 0 0
1243 2 1.2304999999999993 44.757058892983494 3.373436797398422 0 0 0
1245 2 2.4610000000000003 45.46748839922133 3.373436797398422 0 0 0
1288 2 3.6914999999999996 44.757058892983494 3.373436797398422 0 0 0
1290 2 4.922000000000001 45.46748839922133 3.373436797398422 0 0 0
1239 2 0 46.888347411697 3.373436797398422 0 0 0
1241 2 1.230500000000001 47.59877691793481 3.373436797398422 0 0 0
1284 2 2.4609999999999985 46.888347411697 3.373436797398422 0 0 0
1286 2 3.6914999999999996 47.598776917934835 3.373436797398422 0 0 0
1329 2 4.922000000000001 46.888347411697 3.373436797398422 0 0 0
1171 2 0 39.78405234931866 6.262709554507487 0 0 0
1205 2 1.230500000000001 41.91534086803216 6.262709554507487 0 0 0
1207 2 1.230500000000001 40.494481855556494 6.262709554507487 0 0 0
1209 2 2.4610000000000003 39.78405234931866 6.262709554507487 0 0 0
1464 2 0 41.20491136179432 9.151982311616305 0 0 0
1482 2 1.230500000000001 40.494481855556494 9.151982311616305 0 0 0
1483 2 2.4610000000000003 41.20491136179432 9.151982311616305 0 0 0
1250 2 3.6914999999999996 41.91534086803216 6.262709554507487 0 0 0
1252 2 3.6914999999999996 40.494481855556494 6.262709554507487 0 0 0