
# Create simulation box and atoms

read_data data.ML_graphite_1atm_240K
Reading data file ...
  orthogonal box = (0.0000000 0.0000000 2.0829560) to (49.220000 49.019636 25.757876)
  8 by 5 by 2 MPI processor grid
  reading atoms ...
  4065 atoms
  reading velocities ...
  4065 velocities
  read_data CPU = 0.060 seconds
group water type 1
1305 atoms in group water
group graphite type 2
2760 atoms in group graphite

# Define potential

pair_style sw
pair_coeff * * MLC_e.sw mW C


# Fix graphite atoms in place

fix 5 graphite setforce 0.0 0.0 0.0
velocity graphite set 0.0 0.0 0.0


# Equilibration of molecular water

# Add velocity/set timestep

velocity	    water create ${TEMP} ${SEED} rot yes dist gaussian
velocity	    water create 240 ${SEED} rot yes dist gaussian
velocity	    water create 240 14353 rot yes dist gaussian
timestep	    5.0

# Define output

compute			1 water msd
compute			3 water temp
thermo	    	50
thermo_style	custom step temp press vol etotal ke pe c_1[4] c_3

# Neighbor lists

neigh_modify    delay 0 every 1 check yes

# Set fixes

fix             1 water momentum 10 linear 1 1 1 rescale
fix             2 water nve
fix             3 water temp/csvr ${TEMP} ${TEMP} 500.0 ${SEED}
fix             3 water temp/csvr 240 ${TEMP} 500.0 ${SEED}
fix             3 water temp/csvr 240 240 500.0 ${SEED}
fix             3 water temp/csvr 240 240 500.0 14353
fix             4 water press/berendsen z ${PRES} ${PRES} 1000.0 modulus 20000
fix             4 water press/berendsen z 1 ${PRES} 1000.0 modulus 20000
fix             4 water press/berendsen z 1 1 1000.0 modulus 20000

# Run 0.5 ns equilibration

dump		    1 all atom 2000 ${DIR}/eq.${NAME}-${TEMP}.dump
dump		    1 all atom 2000 run_12/eq.${NAME}-${TEMP}.dump
dump		    1 all atom 2000 run_12/eq.het_freeze_12-${TEMP}.dump
dump		    1 all atom 2000 run_12/eq.het_freeze_12-240.dump

reset_timestep  0

run	            100000
Neighbor list info ...
  update every 1 steps, delay 0 steps, check yes
  max neighbors/atom: 2000, page size: 100000
  master list distance cutoff = 6.6747184
  ghost atom cutoff = 6.6747184
  binsize = 3.3373592, bins = 15 15 8
  1 neighbor lists, perpetual/occasional/extra = 1 0 0
  (1) pair sw, perpetual
      attributes: full, newton on
      pair build: full/bin/atomonly
      stencil: full/bin/3d
      bin: standard
Per MPI rank memory allocation (min/avg/max) = 4.467 | 4.471 | 4.473 Mbytes
Step Temp Press Volume TotEng KinEng PotEng c_1[4] c_3 
       0    77.007874   -452.08497    57121.581   -12745.801    932.87431   -13678.675            0          240 
      50    78.082089   -304.07503    57180.232   -12744.221    945.88737   -13690.108   0.52522513    243.34786 
     100    76.755883   -307.96548    57220.481   -12752.566    929.82169   -13682.388   0.88887965    239.21465 
     150    73.912582   -659.50641    57269.683   -12768.285    895.37791   -13663.662    1.1315699    230.35332 
     200    75.289861   -497.55577     57321.11   -12796.007    912.06228   -13708.069    1.4114994     234.6457 
     250     73.31216   -962.03371    57326.172   -12837.823    888.10439   -13725.927    1.6455397    228.48207 
     300    73.043272   -189.23084    57352.247   -12825.958    884.84707   -13710.805    1.8824224    227.64406 
     350    73.261079   -238.15355    57401.305   -12840.111     887.4856   -13727.597    2.0932403    228.32287 
     400    75.308829   -651.52666    57417.357   -12826.273    912.29206   -13738.565    2.3393341    234.70482 
     450    73.984756   -762.08795    57407.703   -12798.098    896.25223    -13694.35    2.6479196    230.57826 
     500    74.081149   -340.52973    57427.316   -12789.008    897.41993   -13686.428    2.9548915    230.87867 
     550    76.366755   -393.81892    57459.398    -12797.26    925.10779   -13722.368    3.0675183    238.00191 
     600    75.844675   -733.63929     57452.69   -12786.229     918.7833   -13705.012    3.2987617    236.37481 
     650    76.498317   -117.02668    57445.358    -12783.37    926.70154   -13710.071     3.436046    238.41193 
     700     77.92896   -350.37478    57445.911   -12760.406    944.03236   -13704.438    3.6572372    242.87062 
     750    76.223861    -402.4676     57514.14   -12775.262    923.37677   -13698.639    3.9196775    237.55657 
     800    76.927079   -616.72311    57518.199   -12761.076    931.89556   -13692.972     4.062648     239.7482 
     850    77.306276    -505.9928    57510.735   -12744.528    936.48916   -13681.017    4.1900865    240.92999 
     900    79.628239   -454.83652    57524.907    -12741.71    964.61745   -13706.328     4.352999    248.16654 
     950    78.198469   -511.59767     57549.86   -12744.652     947.2972   -13691.949    4.5316615    243.71057 
    1000     78.79043   -720.17694    57549.268   -12716.712    954.46821    -13671.18    4.8730979    245.55545 
    1050    77.702386   -501.55311    57536.146   -12741.266    941.28764   -13682.553     5.096841    242.16449 
    1100    76.460161   -187.20635    57579.584   -12773.776    926.23931   -13700.015    5.2369954    238.29302 
    1150    76.944548   -991.25501    57639.375   -12752.681    932.10718   -13684.788    5.4772251    239.80264 
    1200    79.240912   -473.89999     57639.05    -12718.85    959.92536   -13678.775    5.6240019    246.95941 
    1250    77.471645   -516.93405    57694.018   -12755.613    938.49243   -13694.105    5.8085993    241.44537 
    1300     75.53042   -260.63649    57720.904   -12751.057    914.97642   -13666.033      6.03518    235.39542 
    1350    75.876779   -788.71691    57781.201   -12741.836    919.17222   -13661.009    6.2947134    236.47487 
    1400    75.583114   -485.23256    57752.792   -12755.696    915.61475    -13671.31    6.3629479    235.55964 
    1450     78.44017   -1023.6267    57745.535    -12741.92    950.22517   -13692.146    6.5040953    244.46384 
    1500    76.922028   -665.11869    57759.985   -12742.985    931.83437   -13674.819    6.6855003    239.73246 
    1550    76.626972   -450.09137    57769.364   -12767.528    928.26006   -13695.788    6.7430703    238.81289 
    1600    76.262343   -728.93077    57798.848   -12759.063    923.84294   -13682.906    7.0548735     237.6765 
    1650    80.176414   -681.69168    57827.321   -12754.059    971.25804   -13725.317    7.2438708    249.87496 
    1700    77.956955   -946.16171    57867.225   -12748.774    944.37149   -13693.146    7.3667054    242.95787 
    1750    77.884112   -644.75584    57883.961   -12759.038    943.48907   -13702.527    7.5437692    242.73085 
    1800    75.566864    -1063.664    57840.541   -12762.453     915.4179   -13677.871    7.7914334      235.509 
    1850    77.080627   -545.99328    57810.418   -12752.131    933.75564   -13685.887    8.0268931    240.22674 
    1900    77.586284   -751.40752     57791.47   -12749.493    939.88118   -13689.375    8.2762423    241.80265 
    1950    74.457963   -932.27112    57727.747   -12769.685    901.98466   -13671.669    8.3604932    232.05304 
    2000    76.607274   -1044.0074    57678.278   -12733.304    928.02145   -13661.325    8.7032279    238.75151 
    2050    76.237579   -840.07216    57697.211   -12770.295    923.54295   -13693.838    8.9791564    237.59933 
    2100    74.411011   -375.98954     57668.35   -12776.211    901.41588   -13677.627    9.1345833    231.90671 
    2150    76.350183   -436.60865    57681.862   -12766.619    924.90703   -13691.526    9.2640976    237.95026 
    2200    75.461735    -593.4119    57652.047   -12758.802    914.14437   -13672.946    9.3198125    235.18136 
    2250    80.053333   -474.45324    57635.169   -12722.302    969.76704   -13692.069    9.4821442    249.49137 
    2300    78.190258   -847.62869    57610.153   -12716.059    947.19772   -13663.257    9.6581796    243.68498 
    2350    76.594414   -623.82267    57633.273   -12689.624    927.86565    -13617.49    9.9717439    238.71142 
    2400    77.829561   -400.99931    57607.236   -12717.062    942.82824    -13659.89     10.09292    242.56084 
    2450    78.206557   -743.58774    57619.567   -12733.101    947.39517   -13680.496    10.131178    243.73577 
    2500    75.661255   -354.83649    57665.347   -12755.804    916.56136   -13672.365    10.153564    235.80318 
    2550    75.287721   -501.60569    57799.672   -12736.444    912.03636   -13648.481    10.474008    234.63903 
    2600    77.318264   -373.46262    57834.794   -12719.277    936.63438   -13655.912    10.759118    240.96735 
    2650    77.948966   -1054.6929    57802.725   -12699.555    944.27471   -13643.829    11.007925    242.93297 
    2700    77.096216   -779.60284    57788.377   -12724.257    933.94449   -13658.201    11.160945    240.27532 
    2750    76.086594   -1186.6209    57776.242   -12729.271    921.71392   -13650.985    11.398142    237.12877 
    2800    74.405859   -416.43692    57788.275   -12731.999    901.35347   -13633.352    11.757417    231.89065 
    2850    76.990325   -519.48079    57788.636   -12751.029    932.66173    -13683.69    11.902182    239.94531 
    2900    76.231548   -682.63412    57828.478   -12781.648    923.46989   -13705.118    12.156227    237.58053 
    2950    75.654208   -415.80662    57841.789   -12778.764    916.47599    -13695.24    12.478151    235.78121 
    3000    74.617961   -576.99027    57853.917   -12767.887    903.92288    -13671.81    12.877854    232.55168 
    3050    75.636404   -1148.9652    57824.572   -12748.914    916.26031   -13665.174    13.074317    235.72573 
    3100    77.870913    -629.5053    57745.573   -12745.102    943.32917   -13688.431    13.104709    242.68972 
    3150    77.602065   -1004.8256    57760.376   -12759.457    940.07235   -13699.529    13.245069    241.85183 
    3200    77.100588   -281.38878      57731.5   -12752.684    933.99745   -13686.682    13.438068    240.28895 
    3250    77.891027   -643.64878    57743.474   -12721.771    943.57284   -13665.344    13.522431     242.7524 
    3300    77.271363    -627.3232    57701.235    -12752.09    936.06622   -13688.157    13.767367    240.82118 
    3350    79.289697   -875.94607    57713.662   -12732.647    960.51634   -13693.164    14.024008    247.11145 
    3400     79.26093   -517.82662    57746.705   -12727.102    960.16786   -13687.269    14.093453    247.02179 
    3450    76.388728   -1007.8617    57696.365   -12742.371    925.37397   -13667.745    14.146043    238.07039 
    3500     77.44234    -259.2617    57735.709   -12752.389    938.13744   -13690.526    14.228778    241.35404 
    3550    76.703867   -936.92472    57743.274   -12762.434    929.19157   -13691.626    14.257811    239.05254 
    3600    76.663257   -917.67979    57739.126   -12777.375    928.69962   -13706.075    14.302249    238.92598 
    3650    73.821416   -613.39123    57718.087   -12769.173    894.27352   -13663.446    14.596481     230.0692 
    3700    76.837571   -666.28415    57742.802   -12744.145    930.81126   -13674.956    14.767451    239.46924 
    3750    77.196014   -197.70614    57769.428   -12739.858    935.15344   -13675.011    14.995341    240.58635 
    3800    79.139625   -427.90625    57809.056   -12746.424    958.69837   -13705.122    15.087464    246.64374 
    3850    77.419383   -466.59796    57802.685   -12723.147    937.85933   -13661.007    15.182084    241.28249 
    3900    76.873397    -567.0398    57803.338   -12764.898    931.24525   -13696.143    15.611917    239.58089 
    3950    76.791078    -524.3903    57827.146   -12752.942    930.24805    -13683.19    15.819602    239.32434 
    4000    78.472779   -707.78235    57843.488   -12724.038     950.6202   -13674.658    16.015036    244.56547 
    4050    78.339315   -309.41882    57862.754   -12708.749    949.00341   -13657.752     16.25898    244.14952 
    4100    79.615128   -403.98328     57890.75   -12715.086    964.45861   -13679.545    16.567289    248.12567 
    4150    79.253647   -677.56512    57924.151   -12703.579    960.07964   -13663.658    17.138646     246.9991 
    4200    77.058616   -833.01246    57871.807   -12700.352    933.48901   -13633.841     17.52968    240.15814 
    4250    78.781002   -715.24363    57841.048   -12707.953      954.354   -13662.307    17.764713    245.52607 
    4300    75.968418   -503.59686     57828.98   -12718.842    920.28233   -13639.124    17.909988    236.76047 
    4350    75.847232   -673.51139    57824.214   -12724.737    918.81428   -13643.551    18.157646    236.38278 
    4400    76.749972   -1035.6747    57815.161   -12713.651    929.75008   -13643.401    18.238647    239.19623 
    4450    77.153206   -876.01097    57772.761   -12719.968    934.63487   -13654.603    18.343111    240.45294 
    4500     76.40899   -686.67469    57727.328   -12757.066    925.61942   -13682.685    18.287285    238.13354 
    4550     78.40486   -636.41229    57731.546   -12755.517    949.79742   -13705.315    18.254193     244.3538 
    4600    76.747692   -310.40223    57756.119   -12765.203    929.72247   -13694.926    18.435383    239.18913 
    4650    79.970222   -585.63947    57792.504   -12748.688    968.76023   -13717.449    18.456419    249.23235 
    4700    73.207626   -323.89268    57826.816   -12790.885    886.83806   -13677.723    18.636826    228.15628 
    4750    76.201797   -601.87034    57852.996   -12776.891    923.10949   -13700.001      18.8731    237.48781 
    4800    77.443643   -906.88216    57863.702   -12785.562    938.15323   -13723.715    19.101637     241.3581 
    4850    74.471507   -538.57102    57911.724   -12769.831    902.14873   -13671.979    19.408448    232.09525 
    4900     76.80447   -542.72554    57957.924    -12735.62    930.41028    -13666.03    19.767016    239.36608 
    4950    78.969553   -268.97575    58011.709   -12740.992    956.63811    -13697.63    20.308861     246.1137 
    5000    80.198267   -672.57311     58063.24   -12717.066    971.52277   -13688.589    20.621932    249.94306 
    5050    76.170688   -597.80897    58032.368   -12729.492    922.73263   -13652.225    20.694373    237.39086 
    5100    81.789987   -569.17643    58011.037   -12742.998    990.80489   -13733.803    21.250126    254.90376 
    5150    75.402882   -573.28033    58027.327   -12737.591    913.43142   -13651.023    21.642832    234.99794 
    5200    76.287129    -805.5698    57983.383   -12781.936     924.1432   -13706.079    21.915948    237.75375 
    5250    75.584964   -377.80269    58042.534   -12772.541    915.63716   -13688.178    22.211677    235.56541 
    5300    75.775357   -796.28287    58052.532   -12724.497    917.94359   -13642.441    22.429347    236.15878 
    5350    77.631177    -724.3523    58052.101   -12712.976    940.42501   -13653.401    22.415675    241.94256 
    5400    78.125111   -506.11543    58037.519   -12730.539    946.40854   -13676.947    22.906265    243.48194 
    5450    77.533604   -475.76467    58021.473   -12749.928    939.24301   -13689.171    23.150638    241.63847 
    5500    76.255703   -295.17329    58049.369   -12769.653     923.7625   -13693.415    23.253323    237.65581 
    5550    76.788464   -556.96422    58063.465   -12762.045    930.21638   -13692.261    23.487216    239.31619 
    5600    75.870959    -781.1836    58064.005   -12747.685    919.10171   -13666.787    23.323943    236.45673 
    5650    75.605031   -893.31086    58069.109   -12749.265    915.88025   -13665.146     23.29499    235.62795 
    5700    77.229204   -276.07321     58113.02   -12730.059     935.5555   -13665.615    23.487125    240.68979 
    5750    78.110495   -67.177765     58126.44   -12704.668    946.23148   -13650.899    23.531329    243.43639 
    5800    78.707658   -508.66758    58090.253   -12670.673    953.46551   -13624.138    23.648161    245.29749 
    5850    79.383937   -387.78382    58109.141   -12653.914    961.65797   -13615.572    23.651281    247.40515 
    5900    78.060521   -839.19169    58139.489   -12648.857    945.62609   -13594.483    23.680191    243.28064 
    5950    80.333169   -792.31073    58089.553   -12666.938    973.15697   -13640.095    23.694512     250.3635 
    6000    76.988649   -727.96807     57991.83   -12703.806    932.64142   -13636.448    23.853672    239.94008 
    6050    76.214099   -523.10582    57949.498   -12731.751    923.25851    -13655.01    24.153061    237.52615 
    6100    77.200818   -773.54561    57886.283   -12766.231    935.21164   -13701.443    24.470523    240.60132 
    6150    75.312412    -1088.634    57843.662   -12757.542    912.33547   -13669.877    24.693016    234.71598 
    6200    75.881041   -884.36974    57803.766   -12723.918    919.22384   -13643.141    24.862214    236.48815 
    6250    77.314575   -663.28741     57791.17   -12738.203    936.58969   -13674.793    25.146238    240.95585 
    6300    74.462021   -629.87619    57831.535    -12748.74    902.03382   -13650.774    25.363378    232.06569 
    6350    75.316615   -645.79503    57835.775    -12752.05    912.38639   -13664.436    25.639185    234.72908 
    6400     76.33517   -619.63929    57856.544   -12737.108    924.72517   -13661.833    25.865396    237.90347 
    6450    78.009009   -657.24483    57892.943   -12719.018    945.00207    -13664.02    26.296452     243.1201 
    6500    76.506739    -716.2113     57881.98   -12726.372    926.80356   -13653.175    26.849862    238.43818 
    6550    76.167808   -982.25924    57818.721   -12738.859    922.69774   -13661.557    27.079925    237.38188 
    6600    76.956629   -1240.9512    57757.427   -12731.203    932.25353   -13663.457    27.336905    239.84029 
    6650    78.878302   -749.53963     57704.58    -12695.96     955.5327   -13651.493    27.474371    245.82931 
    6700    76.412172   -618.29581    57649.213   -12705.669    925.65798   -13631.327    27.593919    238.14346 
    6750    78.332771   -633.25044    57607.323   -12714.024    948.92413   -13662.948    27.747978    244.12913 
    6800    79.595402   -1191.9399    57584.179   -12731.711    964.21966   -13695.931     27.96405     248.0642 
    6850    78.246245   -577.36319    57523.949    -12720.42    947.87595   -13668.296    27.936844    243.85946 
    6900     77.62931   -896.79258    57519.048   -12757.499    940.40239   -13697.901    27.967902    241.93674 
    6950    74.058489   -595.20893    57447.868   -12767.639    897.14542   -13664.785    28.082521    230.80805 
    7000    77.109558   -412.36747    57451.835   -12764.606    934.10611   -13698.712    28.383291     240.3169 
    7050    78.271039   -304.90109    57507.213   -12741.983    948.17631    -13690.16     28.60272    243.93674 
    7100    78.683993   -621.93057    57555.475   -12772.953    953.17884   -13726.132    28.771335    245.22373 
    7150    77.584154   -995.94708    57572.096   -12738.932    939.85538   -13678.788    29.186695    241.79601 
    7200    78.094475   -446.73941    57549.955    -12744.41    946.03741   -13690.447    29.458613    243.38646 
    7250    77.291274   -858.03482    57523.867   -12763.907    936.30743   -13700.214    29.697067    240.88323 
    7300    75.763216   -837.17214    57489.529   -12768.676    917.79651   -13686.473    29.950672    236.12094 
    7350    76.574756   -957.43381    57466.107   -12782.584    927.62752   -13710.211    29.885835    238.65016 
    7400    75.002045   -452.04189    57446.246   -12820.025    908.57568   -13728.601     30.33039    233.74871 
    7450    74.741283   -853.19432      57504.7   -12842.958     905.4168   -13748.375    30.866944    232.93602 
    7500    75.305123   -324.24977    57545.366    -12833.35    912.24716   -13745.597    31.190748    234.69327 
    7550    77.169295   -911.94999    57545.818   -12807.182    934.82977   -13742.012    31.395824    240.50308 
    7600    79.134813   -257.75628    57584.793   -12764.619    958.64008   -13723.259    31.243754    246.62874 
    7650    78.118621   -820.02258     57685.78   -12779.792    946.32991   -13726.122    31.495211    243.46171 
    7700    78.102224    -304.9071    57766.992   -12750.258    946.13128    -13696.39    31.752826    243.41061 
    7750    78.803642   -713.96062    57766.624   -12763.964    954.62827   -13718.592    32.084911    245.59663 
    7800    80.691666   -655.40843    57746.523   -12749.219    977.49982   -13726.719    32.405166    251.48078 
    7850    76.698083   -916.56859    57726.266   -12749.019     929.1215    -13678.14    32.809988    239.03452 
    7900    76.537734   -230.34153    57706.451   -12770.419    927.17904   -13697.598    32.684522    238.53478 
    7950    76.281497   -282.20602     57718.42   -12773.625    924.07498     -13697.7    32.881333     237.7362 
    8000    76.315013   -725.25882    57734.416    -12772.34    924.48098   -13696.821    33.047094    237.84065 
    8050    78.933299   -519.66622    57730.555   -12773.817    956.19894   -13730.016    33.252647    246.00071 
    8100    78.088404   -648.80763     57741.71    -12779.46    945.96387   -13725.424    33.493885    243.36754 
    8150    77.374516   -480.08151    57813.484   -12767.382    937.31582   -13704.698    33.906812    241.14266 
    8200    79.981814   -481.46452    57829.877   -12765.814    968.90065   -13734.715    33.950565    249.26847 
    8250     75.89147   -816.32488    57816.113   -12785.745    919.35018   -13705.095    33.777777    236.52065 
    8300    77.488575   -598.17091    57904.792   -12789.639    938.69753   -13728.337      34.0269    241.49814 
    8350    77.235351   -396.21335    57940.786   -12748.562    935.62997   -13684.192    34.044531    240.70895 
    8400    80.009481   -934.60748     57899.48   -12756.745    969.23581   -13725.981    34.150484     249.3547 
    8450    77.990631   -488.80702     57916.26   -12738.748    944.77944   -13683.527    34.506883    243.06283 
    8500    75.711187   -981.70919    57914.006   -12749.286    917.16623   -13666.452    34.676067    235.95879 
    8550     79.33182   -753.27435    57852.227   -12732.555    961.02662   -13693.582    34.966293    247.24273 
    8600    77.140935    -717.4957     57804.63   -12746.828    934.48621   -13681.315      35.0771    240.41469 
    8650    77.635661   -629.05913    57814.464   -12756.379    940.47933   -13696.858    35.121953    241.95654 
    8700     74.15394    -986.9955    57803.031   -12778.188    898.30172    -13676.49    35.308843    231.10553 
    8750    77.395373   -972.66551    57753.688   -12756.538    937.56848   -13694.106    35.524005    241.20766 
    8800    77.320818   -606.32167    57688.214    -12764.91    936.66531   -13701.575    35.881897    240.97531 
    8850    77.371148   -961.68533    57672.683   -12772.464    937.27501   -13709.739    36.070478    241.13217 
    8900    75.829428   -440.61108    57674.288   -12786.274     918.5986   -13704.872    36.166546     236.3273 
    8950    80.418071   -729.78008        57624   -12776.292    974.18548   -13750.477    36.263037     250.6281 
    9000    75.431282   -371.44148    57662.396   -12820.142    913.77546   -13733.918    36.606734    235.08645 
    9050     77.25387   -195.60103    57724.759    -12774.58    935.85432   -13710.434    36.934784    240.76666 
    9100    78.434445   -595.18296    57716.687   -12767.437    950.15581   -13717.593    37.217894      244.446 
    9150    76.026767   -678.73691    57699.078   -12759.895    920.98917   -13680.885     37.38731    236.94232 
    9200    77.377012   -480.66167    57677.876   -12730.096    937.34605   -13667.442    37.357052    241.15044 
    9250    81.170986   -558.75496    57717.139   -12711.685     983.3063   -13694.991    37.702074    252.97461 
    9300    78.072957   -320.93322    57761.841   -12733.079    945.77674   -13678.856    38.264795     243.3194 
    9350    77.611079   -646.55193    57749.125   -12717.016    940.18154   -13657.197    38.566899    241.87993 
    9400    76.919597   -369.90579     57721.89   -12692.827    931.80492   -13624.632    38.832662    239.72488 
    9450    75.675975   -510.31111    57747.915   -12720.049    916.73967   -13636.788    39.200438    235.84905 
    9500    74.954517   -370.31129    57708.341   -12727.666    907.99992   -13635.666    39.494779    233.60058 
    9550    73.343273   -497.47358    57678.022   -12743.186    888.48129   -13631.667    39.417493    228.57903 
    9600    75.808129   -206.85549    57656.398   -12759.196    918.34059   -13677.537    39.792556    236.26092 
    9650    75.191153   -661.00476    57573.485   -12782.622    910.86653   -13693.489    40.242184    234.33807 
    9700    76.040433   -757.25496    57552.389    -12779.43    921.15472   -13700.584    40.529266    236.98491 
    9750     75.77756   -432.59784    57594.594   -12775.726    917.97027   -13693.697    40.440014    236.16565 
    9800    76.468824   -482.90755      57648.1   -12755.546    926.34425    -13681.89    40.369042    238.32001 
    9850    78.054706   -785.94806    57632.279   -12758.325    945.55565   -13703.881    40.405893    243.26252 
    9900    75.951281   -678.04526     57583.23   -12773.247    920.07474   -13693.321    40.652536    236.70706 
    9950    73.739707    -908.8934    57596.852   -12771.996     893.2837    -13665.28    40.861606    229.81455 
   10000    75.143034    -854.5413    57615.055   -12758.486    910.28362    -13668.77    41.225526     234.1881 
   10050    78.078194   -563.43554    57620.023   -12778.171    945.84018   -13724.012    41.463312    243.33572 
   10100    75.711562   -736.64698    57595.979   -12794.073    917.17077   -13711.244    41.424203    235.95996 
   10150      76.6704   -489.25753    57631.315    -12759.67    928.78614   -13688.456    41.635032    238.94824 
   10200    77.019239   -799.69807    57635.343   -12753.638    933.01199    -13686.65    41.915409    240.03542 
   10250     77.58104   -749.05732     57677.75   -12757.751    939.81765   -13697.569    42.313179    241.78631 
   10300    76.194494   -609.13317    57699.767   -12778.853    923.02102   -13701.874    42.469096    237.46505 
   10350    75.343306    173.16999    57706.294    -12766.23    912.70971    -13678.94    42.430986    234.81227 
   10400    75.736875   -678.96244    57726.549   -12752.892    917.47741   -13670.369    42.467574    236.03885 
   10450    75.484167   -439.94908    57752.759   -12740.337    914.41611   -13654.753    42.322941    235.25127 
   10500    77.294337   -395.69272    57759.736   -12733.063    936.34453   -13669.408    42.536695    240.89278 
   10550    76.785056    -421.5684    57791.545   -12738.302    930.17509   -13668.477    42.711328    239.30557 
   10600    79.647023    -502.2508    57797.431   -12734.298    964.84499   -13699.143    42.884349    248.22508 
   10650    76.286932   -182.70618    57825.179   -12769.127    924.14081   -13693.268    43.372764    237.75314 
   10700    75.354757   -374.54615    57891.177   -12785.385    912.84844   -13698.233    43.564833    234.84796 
   10750    77.409203   -507.43388     57873.56   -12751.807    937.73601   -13689.543    43.806559    241.25077 
   10800    77.843418   -577.75751     57892.37   -12760.888    942.99611   -13703.884    44.146567    242.60403 
   10850    78.074574   -496.80506    57893.833   -12730.113    945.79632    -13675.91    44.453718    243.32444 
   10900    77.411785   -606.38732    57874.643   -12730.496     937.7673   -13668.263    44.748519    241.25882 
   10950    76.628596   -780.73112    57840.466   -12742.686    928.27973   -13670.966     44.65312    238.81795 
   11000    78.808775   -811.48878    57843.389   -12723.836    954.69045   -13678.526    44.951714    245.61262 
   11050    78.839495   -882.57119    57799.241    -12723.48    955.06259   -13678.542    44.969824    245.70836 
   11100    79.322305   -345.69729    57763.669   -12713.947    960.91136   -13674.858    45.296489    247.21307 
   11150    78.705124   -415.67193    57796.145   -12727.953    953.43482   -13681.388    45.458118    245.28959 
   11200    77.713245   -577.68285    57818.295   -12755.891    941.41918    -13697.31     45.34001    242.19833 
   11250    76.605825   -471.66627    57804.216   -12767.685    928.00388   -13695.688    45.595939    238.74699 
   11300    79.257263   -502.93555    57824.898   -12760.886    960.12344   -13721.009    45.872538    247.01037 
   11350    75.486709   -877.22039    57822.291   -12782.338     914.4469   -13696.785    45.793066    235.25919 
   11400     76.54676   -343.56223    57824.004   -12756.716    927.28838   -13684.005    46.057838    238.56291 
   11450    74.754255   -755.14776     57859.85   -12787.576    905.57395    -13693.15     46.27469    232.97645 
   11500    77.083197   -550.78828    57873.316   -12774.908    933.78677   -13708.695    46.570968    240.23475 
   11550    77.944573   -1033.7155    57832.359   -12751.703     944.2215   -13695.925    46.711488    242.91928 
   11600    77.326892   -788.86394    57768.084   -12756.328     936.7389   -13693.067    46.801726    240.99424 
   11650    76.003532   -586.41572    57736.598   -12746.495     920.7077   -13667.203    46.828081     236.8699 
   11700    78.467738   -904.96057     57734.89   -12764.155    950.55912   -13714.714    47.016051    244.54976 
   11750    74.938358   -704.46416    57674.914   -12775.909    907.80417   -13683.713    47.067243    233.55022 
   11800    77.142933   -1368.4439    57642.159   -12810.077    934.51042   -13744.587    47.355656    240.42092 
   11850    79.450061   -526.06181    57555.831   -12781.632      962.459   -13744.091     47.29423    247.61123 
   11900    78.935999   -534.66411    57525.765   -12774.695    956.23164   -13730.927    46.981728    246.00913 
   11950    76.054316    -441.0944    57547.502   -12768.748    921.32291   -13690.071    47.086144    237.02818 
   12000    74.641292   -346.13692    57550.581   -12751.479    904.20551   -13655.685    47.148127    232.62439 
   12050    77.619624    -362.8556     57584.56   -12733.065    940.28506    -13673.35    47.555057    241.90656 
   12100    81.977465   -603.65693     57564.23   -12697.856      993.076   -13690.932    47.887271    255.48805 
   12150     77.93755   -435.08617    57602.354   -12681.663    944.13641   -13625.799    48.165205    242.89739 
   12200    78.945172   -391.62046    57577.412   -12682.737    956.34277    -13639.08    48.169671    246.03771 
   12250    78.035024    -617.3413    57600.721   -12689.252    945.31722   -13634.569    48.438297    243.20118 
   12300    77.651799   -571.59333    57617.326    -12691.62    940.67483   -13632.295    48.859712    242.00683 
   12350    76.973023   -516.09066    57647.788   -12731.527    932.45213   -13663.979    49.169508    239.89138 
   12400    76.423141   -895.00771    57692.097   -12756.127    925.79085   -13681.918     49.32027    238.17764 
   12450    76.743922   -779.27363    57635.622   -12777.443    929.67679    -13707.12    49.459359    239.17738 
   12500    74.872011   -612.48732     57629.92   -12792.212    907.00044   -13699.212    49.833604    233.34345 
   12550    77.170834   -917.42212    57673.748    -12766.21    934.84841   -13701.058    49.921333    240.50787 
   12600    74.979364   -989.72584    57646.969   -12755.868    908.30092   -13664.169    50.359273    233.67802 
   12650    73.036581    -864.7615    57618.611   -12745.511    884.76603   -13630.277    50.572741    227.62321 
   12700    76.714074   -809.94603    57649.956   -12766.303    929.31522   -13695.618    50.990918    239.08435 
   12750    79.167003   -584.38247    57706.084   -12731.285    959.03003   -13690.315    51.255415    246.72906 
   12800     78.66549   -702.22129     57725.55   -12733.931    952.95469   -13686.886    51.602632    245.16607 
   12850    77.232229   -545.87949    57731.528   -12712.567    935.59215    -13648.16    51.805756    240.69922 
   12900    79.969327   -251.17429    57790.954   -12680.759    968.74939   -13649.508    52.164108    249.22956 
   12950    78.141011   -387.95533    57816.761   -12705.346    946.60115   -13651.947    52.963843     243.5315 
   13000    78.685983   -897.06615    57799.622    -12716.83    953.20294   -13670.033    52.894804    245.22993 
   13050     76.06524   -543.04429    57774.351    -12742.96    921.45523   -13664.415     53.39297    237.06222 
   13100    77.413293   -759.93029    57714.797   -12733.829    937.78556   -13671.614    53.870167    241.26351 
   13150    77.675262    -604.9356    57665.139   -12751.852    940.95906   -13692.811    53.871015    242.07996 
   13200    77.025446   -418.76255    57631.155   -12766.963    933.08718    -13700.05    54.268286    240.05476 
   13250     79.08425   -812.95716    57641.385   -12742.079    958.02756   -13700.106    54.623975    246.47116 
   13300     76.51995    -807.8426     57602.52   -12733.212    926.96359   -13660.176    54.567599    238.47935 
   13350     78.96371   -589.45503     57619.26   -12677.428    956.56733   -13633.995    54.724495    246.09549 
   13400    81.434341    -710.0587    57664.588   -12640.195    986.49659   -13626.692    54.653386    253.79537 
   13450    80.461098   -765.68874    57669.054   -12664.223    974.70671    -13638.93    55.211668    250.76219 
   13500    84.360689   -670.61294    57663.606   -12661.913    1021.9464   -13683.859    55.760962    262.91552 
   13550    75.541895   -838.80099    57681.174   -12689.833    915.11543   -13604.948     56.02227    235.43118 
   13600     80.11747   -340.97313    57653.701   -12667.795      970.544   -13638.339    56.350646    249.69126 
   13650    78.946141   -583.96758    57639.959   -12691.337    956.35451   -13647.692    56.604768    246.04073 
   13700    78.612378   -865.67519    57602.375   -12700.578     952.3113    -13652.89    56.923655    245.00054 
   13750     76.99672   -331.09615     57563.34   -12712.959    932.73919   -13645.698     56.97569    239.96524 
   13800    76.774274   -792.51688    57590.538   -12707.973    930.04448   -13638.017    57.539663    239.27197 
   13850    76.342671   -865.58227    57571.701   -12736.743    924.81604   -13661.559    57.627506    237.92685 
   13900    77.315773   -644.00698    57533.972   -12722.673    936.60421   -13659.277    57.949743    240.95959 
   13950     79.08368   -932.81687    57475.003   -12746.952    958.02065   -13704.973    57.954534    246.46938 
   14000    75.169541   -677.84528    57433.177   -12760.894    910.60472   -13671.499    57.921627    234.27072 
   14050    78.032257   -708.84239    57424.067   -12757.393    945.28371   -13702.676    57.888841    243.19256 
   14100    76.822765   -725.22984    57441.825     -12779.5    930.63191   -13710.132    58.281431     239.4231 
   14150     78.22123   -335.95742    57472.502   -12764.732    947.57293   -13712.305    58.941312     243.7815 
   14200    79.847972   -496.87249    57493.664   -12738.746    967.27929   -13706.025    59.287722    248.85135 
   14250    77.214456   -713.27104    57493.733   -12742.395    935.37686   -13677.772    59.600333    240.64383 
   14300    77.764773   -589.73677    57515.934   -12755.352     942.0434   -13697.395    59.612572    242.35893 
   14350    74.535557   -429.76494    57606.062   -12796.753    902.92463   -13699.677    59.571655    232.29486 
   14400    78.485204   -574.87183    57605.795   -12768.193    950.77071   -13718.964    59.273243    244.60419 
   14450    77.868743   -414.14533    57631.581   -12751.427    943.30289    -13694.73    59.529926    242.68295 
   14500    77.531978   -488.29802    57659.496   -12759.014    939.22332   -13698.237    59.438689     241.6334 
   14550    77.807277   -673.83104    57646.643   -12744.239    942.55829   -13686.797    59.527808    242.49139 
   14600    80.399623    -150.8139    57687.982   -12722.105      973.962   -13696.067    59.980947     250.5706 
   14650    76.503374     -259.428    57727.412   -12726.612    926.76279   -13653.375    60.285808    238.42769 
   14700    80.023894    -1122.492    57737.577   -12726.123    969.41041   -13695.533    60.165698    249.39962 
   14750    76.073215   -664.85779    57747.566   -12747.166    921.55185   -13668.718    60.238729    237.08708 
   14800    77.231614   -382.21112    57757.532   -12765.289    935.58471   -13700.874    60.423853     240.6973 
   14850     75.28102   -785.51843    57808.603   -12752.707    911.95518   -13664.662    60.742166    234.61815 
   14900    75.573892   -914.62835    57813.234   -12764.643    915.50304   -13680.146    60.785276     235.5309 
   14950     75.48273   -517.03011     57821.93   -12774.709     914.3987   -13689.108    60.756265    235.24679 
   15000    76.366248    -806.2793    57816.513   -12766.003    925.10164   -13691.104    60.920021    238.00033 
   15050    73.501044   -725.03626    57779.834   -12789.124    890.39253   -13679.517    61.565918    229.07074 
   15100    75.413496   -350.12521    57746.066   -12803.584       913.56   -13717.144    61.991869    235.03102 
   15150     77.71218   -567.09408    57705.108   -12746.859    941.40629   -13688.265    62.018603    242.19502 
   15200    78.380064    -69.36127    57722.676   -12749.545    949.49704   -13699.042    62.123861    244.27652 
   15250    78.486852   -692.13552    57764.009   -12747.624    950.79067   -13698.415    61.961998    244.60933 
   15300    78.700806   -496.14094    57769.899   -12753.293    953.38251   -13706.675    62.021939    245.27613 
   15350    76.024744   -765.33391    57752.352   -12761.028    920.96466   -13681.993    62.276142    236.93601 
   15400    79.815484   -789.44957    57698.377   -12741.004    966.88573    -13707.89    62.535105     248.7501 
   15450    76.997713   -1002.5989    57615.831   -12778.046    932.75122   -13710.797    62.365374    239.96833 
   15500    79.406536   -640.21937    57601.516   -12782.213    961.93174   -13744.144     62.85972    247.47559 
   15550    79.018854   -380.51632    57592.087   -12735.189    957.23534   -13692.425    63.387454    246.26735 
   15600    77.065465   -711.46054    57591.176    -12752.53    933.57197   -13686.102    63.427119    240.17949 
   15650    77.895189   -594.23739    57512.294   -12762.532    943.62325   -13706.155     63.66583    242.76537 
   15700    73.524961   -721.89821    57401.612   -12814.099    890.68226   -13704.782    63.979686    229.14528 
   15750    77.506027   -866.39515    57348.802   -12805.674    938.90894   -13744.583    64.101733    241.55253 
   15800    77.048323   -376.16415    57323.729   -12781.277    933.36431   -13714.641      64.2995    240.12606 
   15850    76.531295    -500.1088    57333.396   -12770.901    927.10103   -13698.002    64.328522    238.51471 
   15900    73.171037   -689.67526     57325.15    -12777.35    886.39483   -13663.745    64.532736    228.04225 
   15950    78.012148   -469.68007    57336.076   -12740.273    945.04011   -13685.313    64.695604    243.12989 
   16000    75.906158    -303.5743    57370.785   -12739.212    919.52811    -13658.74    65.108023    236.56643 
   16050    79.074205   -704.94853    57425.737   -12706.569    957.90587   -13664.475    65.297647    246.43985 
   16100    79.755032   -283.69298    57430.074   -12685.872    966.15342   -13652.025     65.54066     248.5617 
   16150    77.395813   -795.55246     57382.82   -12709.406    937.57381    -13646.98    65.943029    241.20904 
   16200    81.726021   -497.34646    57394.818   -12688.214       990.03   -13678.244    66.522367    254.70441 
   16250    79.000713   -396.66423    57425.216   -12679.456    957.01558   -13636.472     67.02856    246.21081 
   16300    76.380769   -570.25866    57457.377   -12680.076    925.27756   -13605.354    67.217124    238.04559 
   16350    79.297694   -571.97037    57480.583   -12677.031    960.61323   -13637.644    66.947404    247.13637 
   16400    77.189113   -441.42716    57566.882    -12693.55    935.06985    -13628.62    66.735158    240.56484 
   16450    74.106899   -775.04746    57533.788   -12707.783    897.73187   -13605.514    66.729416    230.95893 
   16500    77.478655   -740.10275    57520.176   -12695.736    938.57736   -13634.313    66.797846    241.46722 
   16550    77.176488    -553.9575    57506.934   -12701.681    934.91691   -13636.598    67.214085     240.5255 
   16600    77.310297   -318.94562    57496.103   -12736.443    936.53787   -13672.981    67.464428    240.94252 
   16650    76.943849   -124.01407     57491.82   -12732.411    932.09872   -13664.509    67.890498    239.80046 
   16700     75.67169   -371.60522    57490.298   -12738.551    916.68776   -13655.239    68.327003     235.8357 
   16750    76.136059   -368.17007    57457.075   -12756.881    922.31313   -13679.195    68.376891    237.28293 
   16800    79.559754   -424.31326    57455.842   -12755.774    963.78782   -13719.562    68.269985     247.9531 
   16850    74.183782   -865.56399    57453.061   -12773.224    898.66323   -13671.887    68.629388    231.19854 
   16900    75.303183   -636.21705    57431.072   -12776.257    912.22366   -13688.481    68.764297    234.68722 
   16950    74.997173   -586.79558    57456.066    -12782.38    908.51665   -13690.897    68.459339    233.73352 
   17000    76.063999   -992.51485     57444.39   -12761.848    921.44019   -13683.288    68.624077    237.05835 
   17050    75.972985   -1047.9535    57491.375   -12754.283    920.33766   -13674.621    68.742049     236.7747 
   17100    76.945804   -630.23164    57457.761   -12742.178     932.1224   -13674.301     68.58985    239.80656 
   17150    79.262508   -639.78044    57463.383   -12733.105    960.18698   -13693.292    68.963185    247.02671 
   17200     78.46523   -607.64245    57475.328   -12753.299    950.52874   -13703.828    69.228731    244.54194 
   17250    78.163568   -689.78581    57522.473   -12730.664    946.87441   -13677.539    69.700191     243.6018 
   17300    79.447683    -526.4788    57586.299    -12731.74    962.43019    -13694.17    69.954869    247.60382 
   17350    77.097646   -633.78997    57579.202   -12767.677    933.96181   -13701.639    69.971973    240.27978 
   17400    77.506855   -653.57465    57592.106   -12757.008    938.91898   -13695.927    69.949723    241.55511 
   17450    77.882881   -533.36276    57646.962   -12763.633    943.47416   -13707.108    69.827657    242.72702 
   17500     78.48819   -252.61718    57682.795   -12749.492    950.80688   -13700.298    70.105028     244.6135 
   17550    77.222681    -314.2557    57766.916   -12774.968    935.47649   -13710.445    70.617773    240.66946 
   17600    76.946035   -606.20326    57833.606   -12780.339    932.12519   -13712.464    70.746913    239.80727 
   17650    76.399201   -557.97784    57821.342   -12781.393    925.50084   -13706.894    70.820864    238.10303 
   17700    76.953637   -1001.1962    57776.801   -12809.864    932.21728   -13742.081    70.715661    239.83097 
   17750    76.853822   -356.60509    57737.911   -12795.628    931.00813   -13726.636    70.627455    239.51989 
   17800    76.487307   -396.71266    57757.298   -12780.016    926.56815   -13706.584    71.182785    238.37762 
   17850    75.822634   -316.73503    57847.294   -12790.851     918.5163   -13709.367    71.479111    236.30612 
   17900    76.432372    -913.5588    57855.988   -12803.077    925.90267   -13728.979    71.792762    238.20641 
   17950    77.420861    -612.1666      57854.9    -12771.54    937.87724   -13709.417    72.178382     241.2871 
   18000    77.574533   -964.42144     57839.73   -12774.877    939.73883   -13714.616      72.6071    241.76603 
   18050     76.05773   -482.04991    57857.005   -12779.075    921.36426   -13700.439    72.775484    237.03882 
   18100    76.236333   -832.56227    57785.145   -12774.041    923.52786   -13697.569    73.153085    237.59544 
   18150    77.250743   -443.51109        57718   -12780.222    935.81643   -13716.038    73.283592    240.75692 
   18200    75.427586   -471.10796    57659.349   -12791.532    913.73069   -13705.263    73.779978    235.07493 
   18250    78.055261   -505.30488    57695.288   -12805.253    945.56237   -13750.815    74.023719    243.26425 
   18300      76.1251   -700.72836    57710.385   -12779.841    922.18038   -13702.021    74.103677    237.24878 
   18350    78.473179   -797.78058    57707.936   -12772.205    950.62503    -13722.83    73.969228    244.56672 
   18400    75.406582    -406.2077    57642.282   -12740.526    913.47625   -13654.003    74.187328    235.00947 
   18450    74.538981   -500.28554     57627.57   -12773.286    902.96612   -13676.252    74.365974    232.30554 
   18500    76.234408   -791.93134    57680.026   -12778.848    923.50454   -13702.352    74.524434    237.58944 
   18550    77.530395   -650.33369    57669.952   -12753.231    939.20414   -13692.435     74.99891    241.62847 
   18600    77.746781   -618.33457    57636.735   -12771.026    941.82544   -13712.852    75.012253    242.30285 
   18650    78.185411   -451.55076    57586.514    -12750.78    947.13902   -13697.919    74.831289    243.66987 
   18700    76.207421   -1064.3614     57508.81   -12756.123    923.17761   -13679.301    75.224059    237.50534 
   18750    77.604384   -554.98777    57490.164   -12775.331    940.10044   -13715.431    75.533847    241.85906 
   18800    77.004369    -740.7678    57491.873   -12766.307    932.83186   -13699.139      75.5774    239.98908 
   18850    76.109457   -575.40249    57498.711   -12770.009    921.99088       -13692    75.295731    237.20003 
   18900    75.387404   -451.92411    57508.311   -12790.988    913.24392   -13704.232    75.497744     234.9497 
   18950    76.201712    -764.6614    57475.998   -12783.562    923.10845   -13706.671    75.421142    237.48754 
   19000    74.818114   -668.30662    57434.768   -12774.805    906.34753   -13681.152    75.820257    233.17547 
   19050    75.976331    -636.1666    57408.326   -12811.261    920.37819    -13731.64    75.992383    236.78513 
   19100    74.375782   -630.88303     57379.79     -12796.1    900.98912   -13697.089    76.135002    231.79691 
   19150    76.455376   -465.20514    57396.609    -12793.09    926.18135   -13719.271    76.335008     238.2781 
   19200    76.055172   -224.89187    57435.187   -12781.008    921.33327   -13702.341    76.687827    237.03084 
   19250     73.95177   -570.34821    57426.752   -12789.725    895.85263   -13685.577    76.614491    230.47545 
   19300    76.610529   -362.63888    57448.587   -12783.796    928.06087   -13711.857    76.868058    238.76165 
   19350    76.998525    -236.5793    57516.821    -12793.26    932.76106   -13726.021    77.104239    239.97086 
   19400    75.957105   -736.09943    57546.574   -12808.081    920.14529   -13728.226    77.158572    236.72521 
   19450    75.497375   -710.82958    57543.815   -12791.634     914.5761    -13706.21    77.850426    235.29243 
   19500    77.906383   -724.82978    57545.153   -12782.635    943.75886   -13726.394    78.517026    242.80026 
   19550     77.21897   -585.95039    57611.978   -12746.185    935.43153   -13681.617    79.022394    240.65789 
   19600    75.675647   -347.35989    57635.749   -12747.967     916.7357   -13664.702    79.036202    235.84803 
   19650    75.220302   -480.37237    57587.597   -12748.304    911.21964   -13659.523    78.924392    234.42892 
   19700    75.875097   -999.44183    57562.084   -12751.604    919.15184   -13670.756    79.203023    236.46963 
   19750    75.163039    -498.1336    57488.035   -12762.668    910.52596   -13673.194    79.501017    234.25045 
   19800    76.057896   -639.79122    57466.397    -12782.04    921.36627   -13703.407    79.669467    237.03933 
   19850    72.972112   -415.21945    57440.396   -12799.195    883.98504    -13683.18     79.99741    227.42229 
   19900    73.513646   -622.25419    57454.014    -12788.99    890.54519   -13679.535    80.271582    229.11001 
   19950    75.006448   -608.14305    57498.841   -12761.044    908.62901   -13669.673    80.271148    233.76243 
   20000    74.571811   -41.677107    57564.614   -12751.995    903.36382   -13655.358    80.559473    232.40785 
   20050    81.740503   -631.31963     57582.36   -12756.946    990.20543   -13747.152    80.936041    254.74954 
   20100    78.818772   -778.81935     57607.92   -12788.024    954.81155   -13742.836    81.403868    245.64378 
   20150     75.64002   -648.37582    57613.387   -12796.131    916.30411   -13712.435    81.263691    235.73699 
   20200    74.198906   -834.42032     57614.19   -12822.456    898.84645   -13721.303    81.455277    231.24567 
   20250    76.742371   -565.15244    57631.082   -12823.687    929.65801   -13753.345     81.50629    239.17254 
   20300     73.28028   -584.60567    57649.318   -12837.514    887.71819   -13725.232     81.75469    228.38271 
   20350    75.705668   -793.71734    57616.457    -12827.26    917.09937   -13744.359    82.202109    235.94159 
   20400    76.191526   -655.52631     57610.55   -12785.136    922.98506   -13708.121    82.075851     237.4558 
   20450    78.710772   -529.64322     57610.16   -12787.292    953.50324   -13740.795    82.060653    245.30719 
   20500    76.867008   -742.99464    57560.013   -12785.269    931.16786   -13716.437    82.413522    239.56098 
   20550    75.035035   -955.81969    57589.323   -12805.584    908.97532   -13714.559    82.801514    233.85152 
   20600    77.460803   -502.14524    57577.116    -12818.31     938.3611   -13756.671    82.873321    241.41158 
   20650    76.957354   -930.53677    57542.257   -12790.792    932.26232   -13723.055     83.34588    239.84255 
   20700    78.250615   -474.61541    57529.756   -12780.451    947.92889    -13728.38    83.532092    243.87308 
   20750    78.711865   -167.61895    57625.139   -12762.077    953.51649   -13715.593    83.819167     245.3106 
   20800    77.851122   -600.44578    57690.025   -12788.939    943.08943   -13732.028    84.313892    242.62804 
   20850    77.702813   -418.18969    57727.075   -12778.724    941.29281   -13720.017    84.467315    242.16582 
   20900    77.115443   -406.68361    57731.955   -12758.656     934.1774   -13692.833    84.464521    240.33524 
   20950    78.866865    -534.2382    57735.438   -12770.563    955.39415   -13725.957     84.59762    245.79366 
   21000     75.79521   -515.46097    57750.672   -12802.534    918.18408   -13720.718    84.594629    236.22065 
   21050    76.223921   -476.74618    57788.319   -12791.979    923.37749   -13715.357    84.833708    237.55676 
   21100    77.246008   -612.46763    57750.912   -12759.305    935.75907   -13695.064    84.981601    240.74216 
   21150    79.522409   -275.24992    57810.834   -12739.278    963.33542   -13702.613    85.395146    247.83671 
   21200    81.420546   -356.00575    57877.851   -12702.594    986.32947   -13688.923    85.521848    253.75238 
   21250    78.995506   -684.38665    57897.398   -12706.075    956.95251   -13663.028    85.625881    246.19458 
   21300    78.915615   -375.51955    57981.478   -12696.325    955.98471    -13652.31    85.599883     245.9456 
   21350    82.605649   -715.02636    57985.959   -12691.979    1000.6858   -13692.665    85.811232    257.44582 
   21400    81.014528    -618.8594    57989.011   -12704.176    981.41097   -13685.587    85.800271    252.48699 
   21450    78.392771   -908.46875    57949.099   -12742.882    949.65097   -13692.533    85.941335    244.31612 
   21500    77.522831   -871.10508    57911.264   -12747.496    939.11251   -13686.608    85.576851     241.6049 
   21550    78.130501   -393.87599    57863.222   -12774.183    946.47383   -13720.657    85.346511    243.49874 
   21600    76.297434   -804.64597    57815.741   -12809.077    924.26804   -13733.345    85.515529    237.78587 
   21650    74.902833   -470.96603    57812.532   -12786.104    907.37382   -13693.477    85.587014     233.4395 
   21700    75.797375   -761.19528    57813.441   -12800.198    918.21031   -13718.408    86.049344     236.2274 
   21750    77.641794   -835.95821    57815.328   -12770.422    940.55363   -13710.975    86.384253    241.97565 
   21800    76.381445   -876.49992    57730.511   -12769.779    925.28574   -13695.064    86.567519    238.04769 
   21850    75.601751   -485.27253    57695.469   -12770.245    915.84053   -13686.086    87.068172    235.61773 
   21900     76.11908   -993.24208    57676.273   -12760.062    922.10745   -13682.169     86.87839    237.23002 
   21950    78.966297   -103.70034    57661.696    -12763.77    956.59868   -13720.368    86.831377    246.10355 
   22000    78.750352   -295.29948    57690.339   -12778.078    953.98271    -13732.06    87.206643    245.43054 
   22050     77.51642   -507.94371    57777.115   -12791.295    939.03484    -13730.33    87.465692    241.58492 
   22100    75.143672   -692.74255    57777.947   -12776.284    910.29135   -13686.575    87.855957    234.19009 
   22150    81.051128   -287.94009    57770.203   -12774.019    981.85434   -13755.873    88.129689    252.60106 
   22200    77.126688   -851.96485    57773.255   -12792.767    934.31362    -13727.08    88.449405    240.37029 
   22250    77.194664   -896.02858    57770.851   -12791.587    935.13708   -13726.724    88.813631    240.58214 
   22300     76.18718   -854.10213    57729.676    -12760.85    922.93241   -13683.782    89.285468    237.44225 
   22350    78.019129   -510.61404    57745.068   -12746.162    945.12466   -13691.286    89.407537    243.15164 
   22400     77.44961   -750.41015    57745.355   -12745.424     938.2255    -13683.65    89.963525     241.3767 
   22450    78.258063    -423.0177    57748.659   -12740.176    948.01912   -13688.195    90.251491    243.89629 
   22500    78.569062   -841.96341      57718.9   -12738.471    951.78656   -13690.258    90.559758    244.86554 
   22550    76.156239    -737.2059    57713.284   -12771.512    922.55759   -13694.069    90.823783    237.34582 
   22600    76.197368   -1002.4092    57673.267   -12765.397    923.05583   -13688.452    90.880266    237.47401 
   22650    77.837143   -655.45987    57597.426   -12766.881    942.92009   -13709.801    90.872995    242.58447 
   22700    77.460862    -1019.835    57595.613    -12767.53    938.36181   -13705.891    91.359521    241.41177 
   22750    77.159949   -990.91328     57584.92   -12773.108    934.71655   -13707.825    91.409097    240.47395 
   22800     75.68261   -890.97975    57530.849   -12777.502    916.82004   -13694.322    91.369116    235.86973 
   22850    79.451781    -644.2562    57536.377   -12742.476    962.47983   -13704.956    90.958594    247.61659 
   22900    76.884601   -708.23917    57547.136   -12745.137    931.38098   -13676.518    91.164389    239.61581 
   22950    77.366002   -709.10929    57515.748   -12720.265    937.21268   -13657.477    90.957561    241.11613 
   23000    80.320251   -677.56702    57507.697   -12713.695    973.00049   -13686.696    90.963315    250.32324 
   23050     81.06098   -659.61719    57525.432   -12710.117    981.97368   -13692.091    91.017655    252.63176 
   23100    76.367452   -757.10762    57521.997   -12764.773    925.11623    -13689.89    91.237444    238.00408 
   23150    76.469823   -603.41021     57509.13   -12795.712    926.35635   -13722.068    91.820194    238.32313 
   23200    74.754975    -523.1527    57493.313   -12829.811    905.58267   -13735.393    91.857785     232.9787 
   23250      76.0515    -636.5162    57517.906    -12800.78    921.28879   -13722.069    92.283844     237.0194 
   23300    72.594266   -470.95915    57476.371   -12812.696    879.40782   -13692.104    92.396224    226.24471 
   23350    76.579889   -581.09698    57497.441   -12774.766     927.6897   -13702.456    92.644218    238.66616 
   23400    77.660649   -755.16405    57513.879   -12761.179    940.78204   -13701.961    92.635391    242.03441 
   23450    75.080735   -608.86244    57458.389   -12766.572    909.52893   -13676.101    92.541909    233.99395 
   23500    76.286777   -335.19808    57474.421   -12761.289    924.13894   -13685.428    92.984989    237.75266 
   23550    77.613054   -838.60344    57456.687   -12737.806    940.20548   -13678.012    93.290182    241.88608 
   23600    75.774307   -548.39979    57495.377   -12746.547    917.93086   -13664.478    93.407391    236.15551 
   23650    74.897009   -976.51685    57542.931   -12750.039    907.30327   -13657.343    92.989295    233.42135 
   23700    77.413592   -1025.6281    57522.846   -12758.354    937.78918   -13696.143    93.192327    241.26444 
   23750    75.760786   -863.95156     57494.07   -12770.782    917.76708   -13688.549    93.223955    236.11337 
   23800    76.946331   -847.80058    57477.581   -12752.278    932.12878   -13684.406    93.035053     239.8082 
   23850    77.335345   -574.07405    57445.529   -12747.487     936.8413   -13684.328     93.07833    241.02058 
   23900    79.620728   -717.11043    57461.234   -12763.428    964.52646   -13727.955    93.290754    248.14313 
   23950    74.614988   -236.49754    57448.918   -12799.671    903.88687   -13703.558    93.505079    232.54242 
   24000    75.065116    -573.3896    57500.032    -12803.85    909.33972   -13713.189    93.712162    233.94527 
   24050     74.70489   -646.56609    57485.289   -12797.729    904.97594   -13702.705    94.058658     232.8226 
   24100    77.949063   -822.32374    57478.783   -12778.472    944.27588   -13722.748    94.183678    242.93327 
   24150    76.912731   -331.52781    57457.013   -12797.968    931.72174   -13729.689    94.440506    239.70348 
   24200    76.045712   -757.10257    57519.728   -12796.981    921.21868     -13718.2    94.754466    237.00136 
   24250    76.400081   -830.79747    57476.116   -12802.034     925.5115   -13727.546    95.001075    238.10577 
   24300    77.702458   -654.31617    57466.619   -12779.788    941.28851   -13721.077    95.117398    242.16471 
   24350    78.931036    -740.3941    57423.642   -12739.478    956.17152    -13695.65    95.606634    245.99366 
   24400     75.06917   -326.21442    57472.498   -12767.083    909.38883   -13676.472    96.193577     233.9579 
   24450    76.234401   -476.05777     57540.08   -12782.513    923.50445   -13706.017    97.097205    237.58942 
   24500     75.21991   -237.17175     57569.57    -12756.81     911.2149   -13668.025    97.507969     234.4277 
   24550     79.71003   -872.64591    57561.363    -12758.06    965.60826   -13723.668    97.853638    248.42144 
   24600    77.458418   -1021.7524     57504.53   -12776.557    938.33221   -13714.889    98.105408    241.40415 
   24650    74.961305   -936.64445      57466.4   -12759.027    908.08216   -13667.109    98.546216    233.62174 
   24700    73.967257   -752.48973    57400.081   -12748.455    896.04025   -13644.495    98.609724    230.52372 
   24750    77.063708   -623.17504    57398.618   -12742.939    933.55069   -13676.489    99.052914    240.17401 
   24800    75.369794    -603.9711    57396.195   -12724.724    913.03059   -13637.755    99.166956    234.89482 
   24850    79.173185   -483.49394    57433.299   -12708.639    959.10492   -13667.744    99.529947    246.74833 
   24900    76.882958   -521.02783    57491.755   -12701.979    931.36108   -13633.341    100.44674    239.61069 
   24950    76.337319   -583.70151    57575.529   -12705.515     924.7512   -13630.266    100.96212    237.91017 
   25000    77.083513    -564.7532    57596.861   -12694.842    933.79061   -13628.633    101.32144    240.23573 
   25050     76.67067   -772.55297    57559.808   -12707.361    928.78942    -13636.15    101.68234    238.94908 
   25100    76.471481   -727.58327     57532.35   -12719.148    926.37644   -13645.525    101.86773     238.3283 
   25150    75.156702   -352.72727    57548.246   -12715.679    910.44919   -13626.129    101.90252     234.2307 
   25200     77.97201   -783.54854    57562.736   -12703.657    944.55387   -13648.211    101.80381    243.00479 
   25250    76.341814   -378.74603    57504.634   -12706.247    924.80565   -13631.052    101.81004    237.92418 
   25300    74.477979   -418.53649    57435.557   -12707.553    902.22714    -13609.78    102.13058    232.11542 
   25350    75.184374   -521.61452    57406.559   -12725.717    910.78442   -13636.501    102.35893    234.31695 
   25400    79.816571   -655.73064    57340.161   -12682.665    966.89891   -13649.564    101.86429    248.75349 
   25450     77.31432   -612.85706    57329.314    -12701.28     936.5866   -13637.866    102.01181    240.95506 
   25500    78.054528   -622.77185    57311.295    -12693.35    945.55349   -13638.903    102.35437    243.26196 
   25550    77.181446   -708.59972    57312.081   -12726.284    934.97696   -13661.261    102.66611    240.54095 
   25600    77.749303   -539.90405    57265.356   -12709.549      941.856   -13651.405    102.56643    242.31071 
   25650    78.960425   -552.51783    57315.041   -12730.939    956.52754   -13687.467    102.85207    246.08525 
   25700    77.755094   -462.82482    57318.435   -12722.931    941.92614   -13664.857    103.43452    242.32876 
   25750    76.688047   -539.01203    57347.289   -12725.808    928.99993   -13654.808    103.55021    239.00324 
   25800    76.543551   -657.84817    57367.797   -12728.045     927.2495   -13655.295    104.02567    238.55291 
   25850    79.344361   -709.47845    57388.821   -12719.142    961.17854    -13680.32    104.16754    247.28181 
   25900    76.240801   -555.98239    57373.374   -12774.847    923.58198   -13698.429     104.3913    237.60937 
   25950    75.443663   -954.57526    57382.801   -12787.922    913.92544   -13701.847    104.44799    235.12503 
   26000    76.717063   -282.92232    57378.855   -12759.411    929.35143   -13688.763    105.23269    239.09367 
   26050    81.183405   -860.26433    57401.102   -12758.416    983.45675   -13741.873    106.03059    253.01331 
   26100    77.854532   -441.82582    57445.972   -12755.713    943.13073   -13698.844    106.44823    242.63866 
   26150    74.879915   -467.24947    57377.198   -12747.842    907.09619   -13654.938    106.73651    233.36808 
   26200    77.247254   -640.72381    57354.612    -12764.87    935.77417   -13700.644    107.22034    240.74604 
   26250     74.97181   -667.99342    57346.475   -12749.426     908.2094   -13657.635    107.25642    233.65447 
   26300    80.092642   -649.93779    57382.356   -12715.768    970.24323   -13686.012    107.69061    249.61388 
   26350    77.368915   -598.68106     57365.28   -12735.599    937.24797   -13672.847    108.22829    241.12521 
   26400    78.258205   -409.50442    57350.312   -12731.931    948.02084   -13679.952    108.97321    243.89674 
   26450    82.698118   -914.50431    57337.689   -12679.721     1001.806   -13681.527    109.24474    257.73401 
   26500     78.38311   -413.84732    57347.385   -12710.672    949.53394   -13660.205    109.42324    244.28601 
   26550    77.681197   -511.40437    57361.911   -12737.686    941.03095   -13678.717    109.82937    242.09845 
   26600    76.561424   -561.31562    57343.362   -12748.507    927.46601   -13675.973    109.47577    238.60861 
   26650    80.027558   -615.97767     57331.31   -12730.821     969.4548   -13700.276    109.55455    249.41104 
   26700    78.114445   -787.19272    57295.057   -12754.782    946.27933   -13701.061    109.65634     243.4487 
   26750    77.188684    -496.5535    57229.275   -12707.993    935.06465   -13643.058    109.91357    240.56351 
   26800    76.268632   -532.12897    57220.667   -12740.452    923.91913   -13664.372      110.145     237.6961 
   26850    75.095955   -698.52014    57201.611   -12768.418     909.7133   -13678.132    110.26757    234.04138 
   26900     75.37203   -572.16636    57185.712   -12774.783    913.05767   -13687.841    110.45308    234.90179 
   26950    77.502712   -823.51109    57184.956   -12769.047    938.86879   -13707.916    110.75061     241.5422 
   27000    73.896373   -825.16031    57200.728   -12784.644    895.18155   -13679.826    111.64767    230.30281 
   27050    77.238431   -193.69793    57234.634   -12761.485    935.66728   -13697.153    111.96507    240.71854 
   27100    76.607133   -719.50478    57346.934   -12771.556    928.01973   -13699.576    112.27816    238.75106 
   27150    77.061803   -241.72743    57376.543   -12799.222    933.52761   -13732.749    112.65747    240.16807 
   27200    75.719015   -841.70461    57391.515   -12792.606    917.26107   -13709.867    112.99876    235.98319 
   27250    77.194659   -166.64826    57386.953   -12801.203    935.13702    -13736.34    112.67106    240.58213 
   27300    77.210758   -353.17409    57396.927   -12766.708    935.33205   -13702.041    113.13632     240.6323 
   27350    76.869722   -446.61659    57441.481   -12776.929    931.20074    -13708.13    113.55679    239.56944 
   27400    74.903896   -449.28933    57483.707   -12762.044     907.3867    -13669.43    113.51405    233.44282 
   27450    75.768134   -994.21509    57462.349   -12751.116    917.85609   -13668.972    113.78831    236.13627 
   27500    78.038359   -645.78816    57444.164   -12756.229    945.35762   -13701.587    113.66846    243.21157 
   27550    75.460163   -734.78151    57429.449   -12760.668    914.12532   -13674.793    113.70095    235.17646 
   27600    77.748944   -530.85109    57431.759   -12728.906    941.85165   -13670.758    113.85392    242.30959 
   27650    78.967608   -534.61814    57457.901    -12750.46    956.61455   -13707.075    114.22187    246.10764 
   27700     76.88197   -752.10768    57443.033   -12769.943    931.34911   -13701.292    114.02884    239.60761 
   27750    75.273193   -426.36575    57366.649   -12749.751    911.86037   -13661.612    114.18358    234.59375 
   27800    73.810563   -851.20956    57363.914   -12772.531    894.14204   -13666.673    114.65927    230.03537 
   27850    78.551917   -330.69293    57411.298   -12746.041    951.57886   -13697.619    114.41035    244.81211 
   27900    74.290102   -739.70614    57414.629   -12766.387    899.95119   -13666.338    114.95945    231.52989 
   27950    76.460097   -528.98497    57406.678    -12742.15    926.23854   -13668.388    115.58238    238.29282 
   28000    77.542221   -411.79938    57437.793   -12721.227     939.3474   -13660.575    115.77172    241.66533 
   28050    76.323789   -576.04324    57468.871   -12720.151     924.5873   -13644.738    115.65301    237.86801 
   28100    79.149602   -388.15353    57463.998    -12707.91    958.81923   -13666.729    116.39415    246.67483 
   28150    75.435362   -675.51613    57468.407   -12686.208    913.82488   -13600.033    116.80556    235.09916 
   28200    75.312293   -314.96536    57464.748   -12714.022    912.33402   -13626.356    117.04568    234.71561 
   28250    74.778845   -711.70801    57484.238   -12731.529    905.87183   -13637.401    117.64164    233.05309 
   28300    76.066258   -652.23443    57490.424   -12736.289    921.46756   -13657.757     117.9953    237.06539 
   28350     76.81435    -868.1564    57464.331   -12728.538    930.52996   -13659.068    118.38742    239.39687 
   28400    75.596181   -437.06886    57436.589   -12749.193    915.77304   -13664.966    118.12034    235.60037 
   28450    78.525524    -586.5202        57426   -12721.338    951.25914   -13672.597    118.41575    244.72985 
   28500    77.760117   -669.40947    57468.617   -12729.384    941.98699   -13671.371    118.52823    242.34441 
   28550    75.293347   -466.75015    57488.614   -12766.651    912.10451   -13678.755    118.74708    234.65656 
   28600    76.446438   -667.04694    57495.129   -12745.988    926.07307   -13672.061     118.7852    238.25025 
   28650    74.734148   -303.40919    57564.959   -12763.687    905.33037   -13669.018    118.71352    232.91379 
   28700    77.002818   -891.98508    57557.661   -12764.171    932.81307   -13696.985    118.78117    239.98424 
   28750    75.527976   -722.64109    57509.661   -12731.297    914.94681   -13646.244    119.10536     235.3878 
   28800    79.410402   -381.00918    57496.884   -12708.544    961.97856   -13670.522    119.38702    247.48763 
   28850     79.35579   -393.31553    57492.621    -12693.91    961.31699   -13655.227    119.76244    247.31743 
   28900     78.37425   -621.92312    57527.165    -12682.47    949.42661   -13631.896    120.11131     244.2584 
   28950    78.439018   -381.27916    57544.532   -12717.224    950.21121   -13667.435    120.99044    244.46025 
   29000    76.804862   -394.08668    57553.458   -12741.232    930.41503   -13671.647    121.94069     239.3673 
   29050    77.733588   -806.72312    57534.669    -12734.85    941.66562   -13676.515    122.58348    242.26173 
   29100    78.083051   -563.85339    57590.354   -12693.623    945.89903   -13639.522    122.89436    243.35086 
   29150    79.289402   -681.81196    57654.769   -12687.737    960.51277    -13648.25    123.85673    247.11053 
   29200    79.553273   -820.97632    57640.444   -12698.398     963.7093   -13662.108    124.49929     247.9329 
   29250    76.348168   -1054.9995    57583.603   -12704.136    924.88263   -13629.018    124.72498    237.94398 
   29300    77.517237   -764.60291    57568.844   -12719.408    939.04474   -13658.452    124.63546    241.58746 
   29350     76.67342   -777.09029    57495.203   -12723.779    928.82273   -13652.602    124.83292    238.95765 
   29400    75.693182   -712.54771    57513.657   -12750.505    916.94812   -13667.453    124.81831    235.90268 
   29450     75.70731   -640.81886     57480.96   -12761.128    917.11926   -13678.247    125.01051    235.94671 
   29500    77.899507   -862.27721    57467.554   -12760.131    943.67556   -13703.807     124.7718    242.77883 
   29550     76.78857   -717.90548    57431.126   -12763.973    930.21766    -13694.19    124.66269    239.31653 
   29600    74.134192   -1004.8974    57395.634   -12784.811     898.0625   -13682.874    124.95153    231.04399 
   29650    76.410491   -562.61892    57394.737   -12799.307     925.6376   -13724.945    124.70821    238.13822 
   29700    77.955549   -537.03755    57373.705   -12781.374    944.35446   -13725.728    124.53202    242.95349 
   29750    74.024968   -699.60525    57386.268   -12785.413    896.73935   -13682.153    124.54041    230.70358 
   29800    73.845158   -598.73898    57396.147   -12779.435    894.56113   -13673.996    124.78069    230.14319 
   29850    75.199609   -554.19931     57365.81   -12784.178    910.96897   -13695.147    124.64215    234.36443 
   29900    76.770105   -546.41701    57421.403   -12777.907    929.99398   -13707.901     124.8993    239.25898 
   29950    78.569067    -677.5957    57469.609   -12729.475    951.78662   -13681.262    125.00692    244.86556 
   30000    75.795929   -439.82737    57502.233    -12755.25     918.1928   -13673.443    125.22001     236.2229 
   30050    77.255349   -779.75613    57510.647   -12750.542    935.87223   -13686.414    125.44097    240.77127 
   30100    76.700653   -713.66726    57521.346   -12742.168    929.15264   -13671.321    125.48353    239.04253 
   30150    75.938194   -467.07762     57525.05   -12754.844     919.9162    -13674.76    125.92648    236.66627 
   30200    76.681441   -1093.8486    57498.521   -12778.861     928.9199   -13707.781    125.79483    238.98265 
   30250    79.562488   -725.27867    57479.385   -12783.899    963.82094    -13747.72    125.95257    247.96162 
   30300    76.590337   -888.49466    57466.688   -12762.133    927.81627   -13689.949    126.19428    238.69872 
   30350    77.954653   -205.51509    57411.888   -12741.907     944.3436    -13686.25    126.53651     242.9507 
   30400    79.339477   -279.06879    57436.879   -12728.454    961.11938   -13689.574    126.81746    247.26659 
   30450    77.095339   -293.32462    57435.511    -12741.72    933.93387   -13675.654    126.67565    240.27259 
   30500    75.976374   -462.37884    57451.964   -12753.834    920.37871   -13674.213    126.81459    236.78526 
   30550     74.76164    -492.2322    57503.011   -12789.798    905.66341   -13695.461    127.08321    232.99947 
   30600    72.537801   -699.13371    57491.827   -12804.569    878.72379   -13683.293    127.69206    226.06873 
   30650    74.603738   -455.44568    57521.141   -12775.099    903.75058    -13678.85    128.18925    232.50735 
   30700    75.911498   -556.33427    57549.196   -12788.746     919.5928   -13708.338    128.48532    236.58307 
   30750    77.524611   -636.27623     57562.35   -12770.809    939.13408   -13709.943    129.10966    241.61045 
   30800    77.954759   -279.10321    57597.872    -12790.54    944.34489   -13734.885    129.30925    242.95103 
   30850    75.918177    -797.5243    57603.444   -12787.868    919.67371   -13707.542    129.86227    236.60389 
   30900    78.609212   -447.56031    57690.523   -12751.194    952.27295   -13703.467    130.02716    244.99067 
   30950    77.675275   -834.17862    57699.758   -12743.788    940.95921   -13684.747     129.9875       242.08 
   31000    77.063935   -719.24551    57700.179   -12751.318    933.55344   -13684.871    130.17585    240.17472 
   31050    78.598031   -1022.4246    57654.985   -12763.233     952.1375    -13715.37    130.00866    244.95583 
   31100    73.814172   -730.85011    57658.837   -12795.996    894.18577   -13690.182    129.86581    230.04662 
   31150    78.283661   -987.40047    57659.975   -12788.214    948.32921   -13736.543    129.98712    243.97607 
   31200     75.92191   -889.76839    57583.243   -12757.486    919.71893   -13677.205    129.82896    236.61552 
   31250    77.082987   -743.90558    57544.066   -12763.464    933.78423   -13697.248    130.06588    240.23409 
   31300    76.778524     -498.253    57540.835   -12775.985    930.09597   -13706.081    130.45281    239.28522 
   31350    75.169475   -504.80487     57533.51   -12756.112    910.60393   -13666.716    130.79592    234.27051 
   31400    74.481165   -858.19144    57598.377   -12777.007    902.26573   -13679.272    130.83723    232.12535 
   31450    75.396626   -771.11588     57584.55   -12783.917    913.35563   -13697.273    131.20126    234.97844 
   31500    78.315822   -718.49955    57556.916   -12775.294    948.71881   -13724.013    131.58062     244.0763 
   31550    75.595527   -404.60161    57579.901   -12743.543    915.76513   -13659.309    131.59293    235.59833 
   31600     77.04764   -1136.7778    57590.636   -12744.937    933.35604   -13678.293    131.95697    240.12393 
   31650    78.307699   -389.29786        57565   -12740.015    948.62041   -13688.635    132.43728    244.05099 
   31700    78.383036   -494.36291    57567.172   -12752.216    949.53304   -13701.749    133.05154    244.28578 
   31750    78.307774   -606.85779    57571.158   -12773.727    948.62132   -13722.349    133.24207    244.05122 
   31800    74.940062   -675.42424    57552.225   -12762.334    907.82482   -13670.158    133.48832    233.55553 
   31850     77.97186   -473.16429    57532.995   -12753.367    944.55205   -13697.919    133.31687    243.00432 
   31900    78.214757   -818.17246    57565.005   -12763.886    947.49451    -13711.38    133.88634    243.76133 
   31950    76.502288   -482.41294    57592.917   -12775.884    926.74964   -13702.633     134.3149    238.42431 
   32000    75.817913   -929.81671    57588.701    -12787.98    918.45911   -13706.439    134.93579    236.29141 
   32050    72.377551   -335.46599    57537.354   -12767.816    876.78252   -13644.599    135.11255     225.5693 
   32100    75.629434   -1080.6869    57511.066   -12765.298    916.17588   -13681.474    134.89532      235.704 
   32150    74.839898   -432.28699    57521.901   -12758.264    906.61143   -13664.875    135.13291    233.24336 
   32200    77.367528   -678.61373    57503.732   -12738.491    937.23116   -13675.723     135.5896    241.12088 
   32250    78.421337   -521.77029    57499.139   -12724.072    949.99702   -13674.069    135.81193    244.40515 
   32300    78.818763   -283.55589    57498.465   -12711.078    954.81144   -13665.889    135.88299    245.64375 
   32350    78.616381   -403.73832    57597.905   -12707.211    952.35979   -13659.571    136.54448    245.01302 
   32400    77.720642   -244.43163    57614.771   -12748.156    941.50879   -13689.665    136.35681    242.22139 
   32450    77.176478   -545.72356    57592.313   -12724.909    934.91678   -13659.826    136.36904    240.52546 
   32500    80.177106   -1076.5217    57601.001   -12696.804    971.26643   -13668.071    136.81986    249.87712 
   32550    77.094905   -640.74136    57572.292    -12713.67    933.92861   -13647.598     136.4914    240.27124 
   32600    80.252502   -131.80477    57643.254   -12729.423    972.17977   -13701.603    136.82241    250.11209 
   32650    78.934539   -156.71468    57747.903   -12733.074    956.21395   -13689.288    137.17437    246.00457 
   32700    77.550198    -292.6861    57785.982   -12733.229    939.44404   -13672.673    137.56182    241.69019 
   32750    76.540205   -166.11361    57820.237   -12748.972    927.20896   -13676.181    137.43093    238.54248 
   32800    76.580608   -467.33438    57803.851   -12747.126     927.6984   -13674.824    138.18819     238.6684 
   32850    77.446814    -579.3159    57747.777   -12743.575    938.19164   -13681.767    138.40214    241.36799 
   32900     78.12713   -632.38148    57684.733   -12710.517    946.43299   -13656.949    138.47442    243.48823 
   32950    78.740712   -977.65061     57643.78   -12707.296    953.86593   -13661.162    138.68044     245.4005 
   33000    80.199539   -758.84636    57607.287   -12706.192    971.53818   -13677.731    138.93138    249.94703 
   33050     77.66772   -333.69112    57650.566   -12741.463     940.8677    -13682.33    138.91838    242.05645 
   33100    80.128023   -914.95314    57652.342   -12729.012    970.67183   -13699.684    138.91414    249.72414 
   33150    78.287466   -314.19159    57667.547   -12738.437     948.3753   -13686.812    139.19791    243.98793 
   33200    77.736873   -422.87173    57711.931   -12765.486    941.70541   -13707.192    139.25815    242.27197 
   33250     76.10079   -222.05589     57738.78   -12767.426    921.88589   -13689.312    139.40733    237.17301 
   33300    76.774451   -107.21941    57727.601    -12775.67    930.04662   -13705.716    139.61243    239.27252 
   33350    78.297804   -892.54875    57727.756   -12764.536    948.50055   -13713.037    139.73456    244.02015 
   33400      77.7269   -833.19999    57706.356   -12809.628     941.5846   -13751.213    139.56033    242.24089 
   33450     76.71789   -464.84113    57717.406   -12834.069    929.36145   -13763.431    139.68122    239.09625 
   33500    77.259687   -642.29617     57709.51   -12825.474    935.92478   -13761.399    139.42051    240.78479 
   33550    77.117736   -812.29175    57684.077   -12813.505    934.20518    -13747.71    139.58978    240.34239 
   33600    79.354356   -626.79721     57667.68   -12788.127    961.29962   -13749.427    139.59489    247.31296 
   33650    76.837462   -768.60321    57560.651   -12802.168    930.80994   -13732.977     139.2217     239.4689 
   33700    75.042279    -779.2488    57487.666     -12803.4    909.06307   -13712.463    138.83058     233.8741 
   33750    76.604257   -235.69232    57422.774   -12788.557    927.98489   -13716.541    139.03445     238.7421 
   33800    75.982934   -429.88625    57346.257   -12796.198    920.45818   -13716.656    139.50911    236.80571 
   33850    73.319185   -433.61451     57337.09   -12822.332    888.18949   -13710.522    140.17225    228.50396 
   33900    74.833335    -806.7899    57319.709   -12836.788    906.53192    -13743.32    140.44424    233.22291 
   33950    74.758402   -686.86241     57335.71   -12818.582    905.62419   -13724.207    140.92825    232.98938 
[...]
   92050    73.695616   -525.08758    57558.153   -12774.929    892.74958   -13667.679    357.51312    229.67714 
   92100    75.991894   -686.75189    57528.824   -12772.859    920.56672   -13693.426    357.84508    236.83363 
   92150    77.712777   -494.15368    57521.576   -12741.371    941.41352   -13682.784    357.11211    242.19688 
   92200     78.71834   -700.15982    57534.266   -12735.353    953.59492   -13688.948     356.9169    245.33078 
   92250    78.529441   -478.03245    57507.624   -12747.469    951.30659   -13698.776    357.40263    244.74206 
   92300    77.857257   -407.78251    57514.269   -12769.002    943.16375   -13712.166    357.73804    242.64716 
   92350    74.727118   -473.90297    57594.582   -12798.103     905.2452   -13703.348    357.56068    232.89188 
   92400    74.702583   -610.48999     57594.42   -12795.407    904.94799   -13700.355    358.35691    232.81541 
   92450    76.414389   -782.45374    57588.621   -12773.884    925.68483   -13699.568    358.38675    238.15037 
   92500    79.852386    6.2926147    57577.375   -12740.362    967.33277   -13707.695    359.10731    248.86511 
   92550    79.994408   -604.62829    57584.614   -12737.445    969.05323   -13706.499    358.46653    249.30773 
   92600    80.323264   -481.01046    57576.741    -12724.86    973.03698   -13697.897    358.46346    250.33263 
   92650    79.313081   -261.42524     57600.19   -12714.047    960.79962   -13674.847    358.55125    247.18433 
   92700    80.817056   -301.84075    57600.657   -12711.482     979.0188     -13690.5    358.83892    251.87156 
   92750     79.46159    79.309331    57609.704   -12709.889    962.59865   -13672.487     358.1833    247.64716 
   92800    77.617861   -421.68942    57635.125   -12742.374    940.26371   -13682.638    357.96509    241.90106 
   92850    78.482688   -425.16168    57651.131   -12758.067    950.74023   -13708.807    358.69106    244.59635 
   92900     78.49082   -603.51297    57685.302   -12772.981    950.83874    -13723.82    359.49033     244.6217 
   92950    75.144767   -497.70695    57689.199   -12758.091    910.30462   -13668.395    359.37722    234.19351 
   93000    77.677772    -949.1905    57641.754   -12758.771    940.98946   -13699.761    359.42204    242.08778 
   93050    77.430785   -144.88935    57563.569   -12746.628    937.99746   -13684.625    359.52397    241.31803 
   93100    79.386528   -612.40515    57566.179   -12734.802    961.68935   -13696.491    360.30022    247.41323 
   93150    78.680167   -431.84873    57530.356   -12714.258    953.13249    -13667.39     360.5791    245.21181 
   93200    79.864232   -611.06973    57515.932   -12732.618    967.47627   -13700.095    360.58765    248.90202 
   93250    79.166518   -463.59279     57563.14   -12736.329    959.02415   -13695.354    361.16252    246.72755 
   93300    76.458206   -771.11389    57573.361   -12763.023    926.21563   -13689.239    360.89714    238.28692 
   93350    74.368058   -434.51666    57624.855   -12763.167    900.89556   -13664.063    360.57936    231.77284 
   93400     77.42821   -254.36855    57661.816   -12726.544    937.96626    -13664.51    361.21703       241.31 
   93450    75.367879   -730.03728    57737.866    -12722.71     913.0074   -13635.718    361.62153    234.88885 
   93500     76.74878   -615.77947    57756.005   -12719.418    929.73564   -13649.153    360.84341    239.19252 
   93550    78.498902   -609.20781     57801.42   -12689.118    950.93664   -13640.054    360.44773    244.64688 
   93600    76.462072    -1021.798    57797.204   -12712.604    926.26246   -13638.867    361.64857    238.29897 
   93650    78.319456   -591.78382     57783.33   -12686.715    948.76283   -13635.478    362.63901    244.08763 
   93700    77.989325   -796.92666    57702.357   -12694.021    944.76362   -13638.785    362.80952    243.05875 
   93750    78.499106   -609.54423    57671.206   -12704.641    950.93911    -13655.58    361.81999    244.64752 
   93800    76.515846   -1050.0246     57633.74   -12717.378    926.91388   -13644.291    362.34424    238.46656 
   93850    75.462437   -740.48646    57620.245   -12724.906    914.15287   -13639.059    362.69556    235.18355 
   93900    79.530674    -337.2931    57607.227   -12707.475    963.43554    -13670.91    362.75809    247.86247 
   93950    76.494619   -705.46872    57640.922   -12704.761    926.65674   -13631.418    363.41874    238.40041 
   94000    75.664401   -772.23142    57625.758   -12718.879    916.59946   -13635.479    364.05313    235.81298 
   94050    77.828748   -513.29956    57535.852   -12692.495    942.81839   -13635.313    363.04119    242.55831 
   94100    75.110052   -509.08435    57529.943   -12710.802    909.88407   -13620.686    362.89205    234.08531 
   94150    77.307823   -269.51976    57488.568    -12687.87     936.5079   -13624.378    363.44064    240.93481 
   94200     78.79789   -761.25862    57492.546   -12689.307    954.55859   -13643.866    363.67762     245.5787 
   94250    79.631061   -525.85821    57509.837   -12691.446    964.65163   -13656.098    363.98479    248.17533 
   94300    77.897656   -439.55972    57524.994   -12656.756    943.65315   -13600.409    365.24762    242.77306 
   94350    81.465748   -18.344627    57518.228   -12637.626    986.87705   -13624.503    365.24031    253.89325 
   94400    80.279553   -720.76686    57557.609   -12654.183    972.50747   -13626.691    365.74987     250.1964 
   94450    81.753773   -392.22494    57570.997   -12638.952     990.3662   -13629.318    365.84052     254.7909 
   94500    78.660526   -835.79039    57562.534   -12649.706    952.89456     -13602.6    366.27109     245.1506 
   94550    79.947989   -606.60281     57551.59   -12701.447     968.4909   -13669.938    365.13147    249.16306 
   94600    79.582718   -484.82851     57537.84    -12702.22      964.066   -13666.286    364.85729    248.02467 
   94650    76.458632   -129.25814    57576.393   -12695.803    926.22079   -13622.024    364.70485    238.28825 
   94700    78.058883   -498.72469    57583.168   -12698.976    945.60625   -13644.582    365.27129    243.27554 
   94750    77.217152   -719.96474    57546.298    -12703.85    935.40951    -13639.26    365.65772    240.65223 
   94800    80.276622   -820.13231    57437.864   -12712.902    972.47197   -13685.374     364.7895    250.18726 
   94850    76.662523   -655.90893    57398.951   -12747.967    928.69073   -13676.657    364.77631    238.92369 
   94900    75.799278   -940.57155     57423.32   -12772.147    918.23336    -13690.38    365.17457    236.23333 
   94950    77.278155   -522.82778    57393.836   -12725.451    936.14851   -13661.599    364.90337    240.84235 
   95000    80.820943    -851.8403    57413.875   -12722.819    979.06588   -13701.885     364.9918    251.88368 
   95050    78.732493   -182.75508    57422.975    -12680.21    953.76637   -13633.976    364.80692    245.37489 
   95100    76.942979   -812.37203    57395.043   -12713.319    932.08817   -13645.407    364.81196    239.79775 
   95150    79.369718   -347.16166    57346.013   -12711.165    961.48573   -13672.651    364.66081    247.36084 
   95200     77.93803   -925.57153    57303.743   -12704.578    944.14224    -13648.72    364.50907    242.89889 
   95250    79.872572   -126.68407    57329.841   -12713.917     967.5773   -13681.494    365.01163    248.92801 
   95300    78.565152   -871.28699    57333.639   -12726.912     951.7392   -13678.651    364.65075    244.85336 
   95350    78.707867   -593.66998    57261.876   -12713.413    953.46805   -13666.881    363.96601    245.29814 
   95400    76.167739   -832.64592    57235.842   -12704.353    922.69691    -13627.05    364.37117    237.38166 
   95450    76.932608   -181.71862    57291.708   -12695.658    931.96254   -13627.621    364.88764    239.76543 
   95500     77.82276   -743.26681    57295.777   -12695.867    942.74586   -13638.612    364.74335    242.53965 
   95550    77.793901   -413.46102    57278.711   -12698.985    942.39626   -13641.381    364.99615     242.4497 
   95600    80.396257   -544.57026    57293.452   -12695.747    973.92123   -13669.668    365.03774    250.56011 
   95650    77.175346    -569.8198    57327.214   -12717.054    934.90307   -13651.957    365.44778    240.52194 
   95700    79.170806   -430.71851    57329.721   -12731.725     959.0761   -13690.801    365.64361    246.74092 
   95750    76.410349   -538.18532    57334.691    -12719.98    925.63588   -13645.615    366.09848    238.13777 
   95800      78.0489   -715.36732    57301.945   -12726.333    945.48531   -13671.818    365.66467    243.24442 
   95850    77.357775   -844.46411    57254.866   -12718.951    937.11302   -13656.064    366.52549    241.09049 
   95900    79.616741   -324.76473    57238.759   -12755.217    964.47816   -13719.695     367.3171     248.1307 
   95950    76.486095   -963.35664      57209.2   -12789.895    926.55348   -13716.448     367.8979    238.37384 
   96000    75.918551   -190.11267    57182.013   -12759.287    919.67824   -13678.966     367.5461    236.60505 
   96050    73.504356   -172.26821    57190.733   -12768.735    890.43265   -13659.167    368.26134    229.08106 
   96100    77.137548   -242.19607    57213.963   -12751.541    934.44518   -13685.986    367.99653    240.40414 
   96150    77.496931   -621.22815    57243.939   -12749.471    938.79875   -13688.269    368.78417    241.52418 
   96200    75.302181   -153.44767    57277.182   -12763.908    912.21153    -13676.12    368.49641     234.6841 
   96250    78.617525   -181.86292    57281.118   -12748.792    952.37365   -13701.166    369.42748    245.01658 
   96300    75.205435    -338.9956    57260.441   -12787.175    911.03955   -13698.215    369.85702    234.38258 
   96350    76.651814   -372.36918    57247.061   -12791.153      928.561   -13719.714    370.62509    238.89032 
   96400    76.397965   -59.585107    57253.613   -12805.052    925.48587   -13730.538    370.44014    238.09918 
   96450    76.637466   -763.94332    57294.352   -12770.257    928.38718   -13698.644    370.86322     238.8456 
   96500    78.259068   -357.21098    57317.804   -12746.555    948.03129   -13694.586    370.55771    243.89943 
   96550    77.466743    -517.8873     57357.98   -12724.216    938.43305   -13662.649    370.61963    241.43009 
   96600    78.338986   -249.64822    57377.307   -12732.525    948.99942   -13681.524    371.44001     244.1485 
   96650    78.112692   -467.68331    57379.734   -12723.895    946.25809   -13670.153    371.82166    243.44324 
   96700    78.033939   -565.87894    57416.752   -12742.236    945.30408   -13687.541    372.59533     243.1978 
   96750    76.717629   -593.22545    57375.401   -12771.012    929.35828    -13700.37    372.85761    239.09543 
   96800    76.339153    -655.3304    57340.178   -12789.261    924.77342   -13714.034    373.56577    237.91589 
   96850    75.350149   -487.33302     57359.77   -12836.111    912.79261   -13748.903    373.63207    234.83359 
   96900     75.61877   -653.66724    57363.178   -12824.002    916.04669   -13740.049    373.22826    235.67077 
   96950    75.121989   -207.26602    57348.331   -12811.205    910.02867   -13721.234    373.00116    234.12252 
   97000    76.814506   -505.79692     57372.99   -12779.103    930.53186   -13709.635    373.71145    239.39736 
   97050    78.637662   -648.43512    57360.846   -12766.978    952.61758   -13719.595    374.32136    245.07934 
   97100    78.511521   -454.70961    57359.924   -12747.919    951.08952   -13699.008    374.33443    244.68621 
   97150     79.60294   -554.73339    57376.115    -12731.38    964.31098   -13695.691    375.12469    248.08769 
   97200    77.046164   -467.26918    57399.027   -12767.136    933.33816   -13700.474    375.11858    240.11933 
   97250    75.547383   -118.01853    57426.717   -12743.079     915.1819   -13658.261    375.20044    235.44828 
   97300    76.618686   -505.28304     57428.45   -12741.426    928.15969   -13669.586    374.52735    238.78707 
   97350    76.023323   -300.36355    57408.909   -12739.907    920.94745   -13660.855    374.45065    236.93158 
   97400    77.374306   -643.13558    57419.184   -12742.861    937.31327   -13680.175      374.916    241.14201 
   97450    77.858202   -776.11555     57382.15   -12733.948    943.17519   -13677.124    374.90694     242.6501 
   97500    76.907911   -178.15607    57350.545   -12738.281    931.66336   -13669.944      375.041    239.68846 
   97550     80.20238   -807.64238    57306.371   -12709.852     971.5726   -13681.424     376.0435    249.95588 
   97600    79.774146    -480.6997    57351.308   -12707.793    966.38497   -13674.178    375.96602    248.62127 
   97650    78.048938   -702.08531    57383.758    -12718.69    945.48578   -13664.176     376.4548    243.24454 
   97700    77.749086   -188.44326    57416.651   -12739.529    941.85337   -13681.383    376.67733    242.31004 
   97750    76.371454   -797.42558    57427.115   -12753.215    925.16472   -13678.379    377.03606    238.01656 
   97800    74.572775   -453.57462    57376.812   -12738.533     903.3755   -13641.908     376.9314    232.41086 
   97850    76.519625   -731.04653    57357.887   -12762.742    926.95966   -13689.702    377.97065    238.47834 
   97900    76.702402   -742.76622    57321.089   -12772.409    929.17382   -13701.583    377.42623    239.04798 
   97950    76.509745   -336.17662    57349.736   -12751.517    926.83998   -13678.357    377.85795    238.44755 
   98000    75.791662   -716.85791    57381.901   -12773.336    918.14111   -13691.477    378.56674     236.2096 
   98050    75.671074   -399.17242    57449.884   -12748.278    916.68031   -13664.958     379.5437    235.83378 
   98100    76.685953   -825.68923    57437.909   -12754.256    928.97455   -13683.231    379.25783    238.99671 
   98150    74.821797   -370.35045    57443.295   -12727.824    906.39215   -13634.216    378.89576    233.18695 
   98200     77.85594   -551.71098    57515.789   -12723.556     943.1478   -13666.704    379.83475    242.64305 
   98250      76.7269   -717.21992    57520.983   -12713.262    929.47059   -13642.732    380.04632    239.12433 
   98300    76.733997   -371.11343    57542.703   -12727.303    929.55656   -13656.859    379.83131    239.14644 
   98350      78.3133    -449.6835    57562.587   -12729.156    948.68826   -13677.844    379.59113    244.06844 
   98400    81.195184   -663.20581    57575.467   -12720.033    983.59943   -13703.632     380.8568    253.05002 
   98450    80.720288   -739.29687    57595.035   -12737.453    977.84654   -13715.299    381.41641    251.56998 
   98500    78.039615   -799.93187    57581.782   -12721.653    945.37283   -13667.026    381.94647    243.21549 
   98550    77.571152   -419.32929    57625.857   -12742.466    939.69787   -13682.164    381.96993    241.75549 
   98600    72.971087    -498.5714    57713.561   -12736.732    883.97263   -13620.705    382.46322    227.41909 
   98650    77.006066   -984.61785    57748.294   -12767.931    932.85241   -13700.784    382.66972    239.99436 
   98700    77.563666   -691.06268    57746.756   -12731.337    939.60718   -13670.944    383.11637    241.73216 
   98750    76.306503   -452.92694    57754.088   -12738.099     924.3779   -13662.477    382.82849    237.81413 
   98800    76.188764   -611.92396    57724.539   -12771.218     922.9516   -13694.169    383.86065    237.44719 
   98850     75.62024   -620.51557    57760.924   -12758.352     916.0645   -13674.416    384.18653    235.67535 
   98900    77.220219   -814.21773    57718.888   -12768.246    935.44666   -13703.693    384.29973    240.66179 
   98950    76.109603   -891.32692    57693.527   -12778.299    921.99264   -13700.292    384.18899    237.20048 
   99000     78.35124   -1057.6046    57625.227   -12791.181    949.14787   -13740.329    384.81406    244.18669 
   99050     77.65502   -461.19642    57583.395   -12785.766    940.71385    -13726.48    385.21944    242.01687 
   99100    74.002549   -390.52785    57617.628   -12790.226    896.46776   -13686.693    386.43964    230.63371 
   99150     78.00603    -692.8734    57681.203   -12769.882    944.96598   -13714.848    385.71653    243.11082 
   99200    77.308734   -740.45722    57680.953   -12783.895    936.51893   -13720.414    384.44405    240.93765 
   99250    76.464624   -428.13077    57714.142   -12786.192    926.29337   -13712.485    385.01823    238.30693 
   99300    76.750242   -432.96952    57746.202   -12775.291    929.75336   -13705.044    385.13683    239.19707 
   99350    78.186098   -448.54363    57773.455   -12760.527    947.14734   -13707.674    385.33187    243.67201 
   99400    77.743825   -597.09285    57802.137    -12768.83    941.78964    -13710.62    385.05425    242.29364 
   99450    74.897588   -339.79295     57802.25   -12766.579    907.31028   -13673.889    385.38748    233.42316 
   99500    74.543042   -321.64284     57815.42   -12773.637    903.01531   -13676.652    385.45379    232.31819 
   99550    80.653833   -691.69539    57809.287   -12762.477    977.04151   -13739.518    385.59025    251.36287 
   99600    80.300682    -564.0203     57832.42   -12798.374    972.76343   -13771.138    385.67763    250.26225 
   99650    72.472955   -503.76778    57870.907   -12811.864    877.93824   -13689.802    387.19844    225.86663 
   99700    77.713418   -611.01891    57865.567   -12830.104    941.42128   -13771.525    388.11263    242.19887 
   99750    74.248331    -279.5653    57886.838   -12845.395    899.44517    -13744.84    388.42353    231.39971 
   99800    76.049785   -298.04177      57902.4   -12840.642    921.26801    -13761.91    388.39533    237.01405 
   99850    74.777399   -539.07825      57911.1   -12824.361    905.85431   -13730.215    388.24817    233.04858 
   99900    75.542839   -792.35157    57871.695   -12811.135    915.12686   -13726.262    387.33258    235.43412 
   99950     77.06164    -834.6718    57841.026   -12779.117    933.52564   -13712.643    387.32655    240.16757 
  100000    76.799866   -461.21643    57865.457   -12792.782     930.3545   -13723.136    386.71132    239.35173 
Loop time of 97.5456 on 80 procs for 100000 steps with 4065 atoms

Performance: 442.870 ns/day, 0.054 hours/ns, 1025.162 timesteps/s
99.5% CPU use with 80 MPI tasks x no OpenMP threads

MPI task timing breakdown:
Section |  min time  |  avg time  |  max time  |%varavg| %total
---------------------------------------------------------------
Pair    | 60.494     | 63.243     | 67.994     |  20.4 | 64.83
Neigh   | 0.52645    | 1.2389     | 2.2533     |  63.7 |  1.27
Comm    | 18.08      | 23.962     | 27.277     |  42.9 | 24.56
Output  | 0.13805    | 0.14271    | 0.27691    |   4.1 |  0.15
Modify  | 7.3214     | 7.9816     | 8.6714     |  12.0 |  8.18
Other   |            | 0.9781     |            |       |  1.00

Nlocal:        50.8125 ave          87 max          22 min
Histogram: 34 6 0 0 0 0 3 11 18 8
Nghost:        720.962 ave         757 max         682 min
Histogram: 5 3 13 7 8 10 10 8 13 3
Neighs:         0.00000 ave           0 max           0 min
Histogram: 80 0 0 0 0 0 0 0 0 0
FullNghs:      5626.23 ave       11269 max        1263 min
Histogram: 40 0 0 0 0 0 2 8 18 12

Total # of neighbors = 450098
Ave neighs/atom = 110.72522
Neighbor list builds = 5514
Dangerous builds = 0

write_data		${DIR}/data.eq-${NAME}-${TEMP}
write_data		run_12/data.eq-${NAME}-${TEMP}
write_data		run_12/data.eq-het_freeze_12-${TEMP}
write_data		run_12/data.eq-het_freeze_12-240
System init for write_data ...
undump          1

reset_timestep  0

unfix           2
unfix           3
unfix           4


################################################
#######         Run Simulation         #########
################################################

log				${DIR}/log.run_${NAME}
log				run_12/log.run_${NAME}
log				run_12/log.run_het_freeze_12
