LAMMPS data file via write_data, version 16 Mar 2018, timestep = 100000

6768 atoms
2 atom types

0.0000000000000000e+00 4.9219999999999999e+01 xlo xhi
0.0000000000000000e+00 4.9019635930410494e+01 ylo yhi
-8.5858378942962332e-02 6.0147858378942999e+01 zlo zhi

Masses

1 18.015
2 12.01

Atoms # atomic

3167 1 2.2908352923301383e+00 2.6269828267012012e+00 3.7982439572734079e+00 -1 1 1
1653 1 2.3239046801642818e-01 1.2851027270482254e+00 2.6547308403089120e+00 1 1 1
3817 1 3.5225823515650081e+00 1.7492387320133009e+00 -6.8607955808010074e-03 -1 0 0
3074 1 4.6137519585251709e+00 3.2786400308717987e+00 2.0115310490534348e+00 0 1 1
6620 1 7.2412276739324266e+00 4.0248218958598194e+00 1.9612716485069659e+00 1 2 1
5096 1 5.1073520139453183e+00 8.8326515088750412e-01 3.1996531921287019e+00 2 0 0
1630 1 7.3652777207568612e+00 1.0000634781845559e+00 4.3657350472575807e-01 0 1 1
1330 1 1.0193704426024413e+01 1.1638078982170439e+00 2.3449122281185089e+00 0 1 1
5399 1 1.1048609202688629e+01 4.0262481183462802e+00 4.2193882566195313e+00 0 1 0
4779 1 8.3632462179037894e+00 2.6630410830402305e+00 4.2773979422097916e+00 0 1 1
1728 1 1.0091302188680464e+01 2.8310686621646157e+00 2.5857252819158694e-01 0 1 0
1758 1 8.0744276140186630e-02 5.5782746795516376e+00 5.2485961756268884e-01 1 1 0
3813 1 1.2005779558980891e+00 5.3265508053687007e+00 3.5172920421024036e+00 2 1 0
5600 1 3.9084902655779539e+00 7.4079700508847104e+00 5.7697836219340504e-01 1 1 1
3145 1 3.3211656107620655e+00 7.4267051937995037e+00 3.2319470899095677e+00 -1 1 0
4933 1 7.7577592944363394e+00 6.6762638935960386e+00 3.3009414762055980e+00 0 1 1
1798 1 6.5039810624941072e+00 8.0844732922427571e+00 7.3841684617025394e-01 0 1 1
3455 1 5.3986798133823095e+00 6.0043607402626362e+00 4.5110695391387505e+00 -1 2 0
4727 1 9.9241997282539955e+00 8.1518965066365343e+00 3.9537925953307802e+00 1 0 1
410 1 1.8285033370795614e+00 9.9735203652002884e+00 3.9699921656688453e+00 0 -1 0
4896 1 3.3970517779685672e+00 1.2067888079419681e+01 3.0584424126624401e+00 1 0 1
1418 1 4.2234193991626162e-01 1.0257730163520844e+01 2.0232670311682349e-01 1 0 1
3168 1 6.9332780930401468e+00 1.0811357451075040e+01 6.8188655821496624e-01 0 1 0
1777 1 4.3551676744629821e+00 1.1819097231699725e+01 5.7560190193583327e-01 -1 0 0
1890 1 7.8422831023221615e+00 1.1779209842171756e+01 3.1214150120142112e+00 1 1 0
5521 1 1.0902032454013204e+01 9.2700865608111602e+00 1.4109416928333114e+00 0 1 0
158 1 9.3391745455854291e+00 1.0653573676378373e+01 4.9124133747718624e+00 0 0 0
59 1 1.0099546663676325e+01 1.1905786993233743e+01 1.1957382491759272e+00 0 0 1
3056 1 3.0202688249576104e+00 2.2920342067333945e+00 6.5309863932680665e+00 -1 0 1
1341 1 1.3759424100549489e+00 3.9408829781432715e+00 7.9769452927659064e+00 0 0 1
1640 1 5.1139862027795919e+00 2.0724337482364446e+00 8.8097283124097068e+00 0 1 0
1986 1 8.0042851648470119e+00 1.7242389217086247e+00 6.9764266420073122e+00 1 1 0
2189 1 5.6032384690209218e+00 3.5025389519916001e+00 5.4688011265411287e+00 1 -1 0
1766 1 1.0573781051208412e+01 2.7401747907642839e+00 7.8419423135317325e+00 0 1 1
166 1 8.2061764979230944e-01 6.0329673583321419e+00 6.3195519493519017e+00 1 0 0
6762 1 5.3994749241026518e+00 4.9537440998398257e+00 8.6775689762789074e+00 0 0 1
1612 1 6.0793339126178578e+00 7.3107926890773083e+00 6.7412563593557717e+00 0 0 1
2123 1 9.6719386146909052e+00 7.7864546735882936e+00 8.9460094349575261e+00 0 1 0
3047 1 1.1313289646411778e+01 6.5714787075938599e+00 5.4883210811848047e+00 0 0 1
5222 1 1.1229141784956667e+01 5.5344976366038532e+00 8.1387352121847218e+00 1 0 1
28 1 6.4572502236965068e-01 1.0733710838309738e+01 7.4773348406194033e+00 2 -1 0
352 1 1.8193040179339184e+00 8.5331395822896017e+00 6.3061710355352583e+00 1 0 0
5256 1 3.8484117192559868e+00 8.4609829897606375e+00 8.0823975210935526e+00 0 0 0
6637 1 5.7794644343087178e+00 1.0558969130797111e+01 8.5331332199805026e+00 1 0 1
339 1 7.8437217038497637e+00 9.2310680381993429e+00 6.9648262506771452e+00 0 0 0
2244 1 1.1118556584551564e+01 1.2178333577906061e+01 7.7469365229713585e+00 0 2 1
6433 1 1.1543810948630652e+01 1.1803290079626505e+01 5.2735957676712104e+00 1 1 0
5692 1 1.1647373754984047e+01 9.8292622456400540e+00 8.8531264901534961e+00 0 1 1
5028 1 2.5757575028582158e+00 8.9121265386402915e-01 1.0928318112128103e+01 -1 0 1
1356 1 3.9408430918381292e+00 2.1999840758141920e+00 1.2588919588537449e+01 0 1 1
3335 1 3.9894457016109014e-01 3.0621614297967241e+00 1.0697990752532966e+01 2 2 1
3434 1 8.6695892856007672e-01 3.6850743230621980e-01 1.4279779218769322e+01 2 0 1
5608 1 6.1079195829278108e+00 2.3019516641657973e+00 1.1424812458838019e+01 2 1 0
4882 1 7.7896284465664731e+00 8.1812547361322452e-01 1.3085083737126803e+01 -1 1 1
6694 1 1.1425920092008111e+01 1.6626705495745517e+00 1.0119654373399120e+01 0 1 1
5110 1 1.0160437953741164e+01 2.4902597788334293e+00 1.2563901191613654e+01 1 1 1
6359 1 1.9671739049360437e-01 6.7213740587955177e+00 1.0106141250987992e+01 1 -1 1
5150 1 2.9971298004835178e+00 5.9026691398557167e+00 1.0033464352895569e+01 0 1 1
5338 1 3.1266196380868401e+00 4.9241979758537449e+00 1.2647665656045293e+01 1 2 0
1584 1 6.3802554445546313e+00 5.4528465874255696e+00 1.1521506125171511e+01 1 0 1
5606 1 5.3411281441809590e+00 6.0747118122954298e+00 1.3835325210096922e+01 1 0 1
4782 1 8.2998176437855591e+00 6.9572871920525650e+00 1.1070002932480440e+01 -2 1 1
2318 1 1.0018796797227953e+01 5.5072651797997967e+00 1.3150103809109758e+01 0 0 1
150 1 1.1992351188919434e+01 7.0938226793138410e+00 1.2090922599340708e+01 0 1 0
492 1 3.4864249073393943e+00 1.1708055402539715e+01 1.0590446275982735e+01 -1 1 1
3628 1 2.9593666768908544e-01 9.7993365239626726e+00 1.2251856484495747e+01 0 0 0
6403 1 2.8761314116581742e+00 9.1155584638477603e+00 1.0833511269599988e+01 1 -1 1
3829 1 3.8297507038591458e+00 8.4052156777801095e+00 1.3526798020232485e+01 0 1 0
5533 1 6.5086786081218795e-01 1.1823916376296872e+01 1.3743449619953441e+01 -1 1 0
4753 1 4.9378742366710151e+00 1.0601489036692245e+01 1.4724403219309954e+01 0 0 1
1660 1 7.9513432429542510e+00 9.8023000858742435e+00 1.4896407768797392e+01 0 2 1
3729 1 7.2155591126489407e+00 1.1279697977292610e+01 1.0499979677440674e+01 -1 0 0
3521 1 1.1699860382614599e+01 9.9742079358762332e+00 1.1613318466010956e+01 2 -1 1
3281 1 1.0501925108657396e+01 1.1879128757987596e+01 1.2807874396774377e+01 1 1 0
3928 1 8.4244989094778742e+00 9.5750888502636542e+00 1.2411711692968002e+01 -1 0 1
5164 1 3.3332431806558986e+00 2.9637602875041882e+00 1.9052221552289925e+01 0 1 0
42 1 2.2668368488428450e+00 2.2244124085792412e+00 1.6528203856212691e+01 -1 -1 0
6474 1 5.3949830203528792e+00 1.1815910713717568e+00 1.9779429244769243e+01 0 1 0
3211 1 6.4913655312109793e+00 2.0396182674542467e+00 1.5299969030821744e+01 1 1 1
5453 1 4.1681046429134785e+00 1.0690892806539205e+00 1.5141073592946755e+01 0 1 0
1409 1 6.1510710765818040e+00 3.4637209209911639e-02 1.7463463234199427e+01 -1 0 1
1738 1 9.2400565935980890e+00 3.2331579003281425e+00 1.6989292956814616e+01 0 1 1
4890 1 1.1084974052449986e+01 1.7500924135680231e+00 1.4996037113621732e+01 0 1 1
557 1 9.6219992507179715e+00 3.7327126793380110e+00 1.9739769218510165e+01 -1 1 1
1957 1 8.8984197683936408e+00 1.4968166927172888e-01 1.7507069708283584e+01 2 1 0
3561 1 2.5681556730558341e+00 6.6395746682186720e+00 1.7797641694571940e+01 0 0 0
3410 1 8.6614149158109577e-01 4.3143551427224249e+00 1.5323569560108005e+01 0 0 0
2063 1 1.8948174883978082e+00 6.6921911386181874e+00 1.5106557782293670e+01 0 1 0
2113 1 6.5767521474687616e+00 4.6527625228578291e+00 1.5958659147386886e+01 0 1 0
451 1 4.9956646577865715e+00 4.9985893875171774e+00 1.8336890551981927e+01 1 0 0
1483 1 6.7167201783165060e+00 7.5580540003415280e+00 1.8605586740178573e+01 0 1 1
4744 1 9.1863612275312310e+00 5.9288908851774620e+00 1.5794410734313391e+01 0 0 1
3743 1 1.2105384648006773e+01 5.7547807709225438e+00 1.6668090551508843e+01 -1 1 0
1982 1 1.7541243039043077e+00 9.5749618245645305e+00 1.6268181126390761e+01 0 2 1
1831 1 6.7169168540099489e-01 9.2738290846883480e+00 1.8876863614326215e+01 0 0 0
1529 1 3.7852705887742064e+00 1.1041848382649405e+01 1.7258782616955582e+01 -1 0 1
1740 1 4.7623936275002521e+00 9.1821846592676621e+00 1.9177091392550192e+01 1 0 0
5159 1 8.6858052764681322e+00 8.2055044592227961e+00 1.7058299247735558e+01 0 0 0
3201 1 1.0023115285113933e+01 9.4843004864988067e+00 1.8942325813570118e+01 -1 0 1
194 1 1.0430530967012528e+01 1.1226818215205219e+01 1.6204016022982383e+01 1 0 0
1974 1 1.0012960457988689e+00 3.8898810365636347e+00 2.0251911834929608e+01 0 1 0
3406 1 7.6923630089002726e-01 1.3140983489202234e+00 2.1111286762320336e+01 0 1 1
5340 1 2.3166921002049952e+00 1.7762959169369121e+00 2.4231429133613467e+01 0 1 0
3925 1 3.3393974347248441e+00 2.2407402181848107e-01 2.1272698245583147e+01 1 0 1
2239 1 7.2863271082379608e+00 2.7319303155662644e+00 2.1070232698590768e+01 0 0 0
1410 1 7.9175584070798450e+00 2.6419387298792651e+00 2.3844653741986715e+01 -1 0 1
227 1 6.9202988534576990e+00 2.2096173688257553e-01 2.3922493459283551e+01 0 0 0
1824 1 1.0518178785651433e+01 3.8434980427779593e+00 2.3948889141931954e+01 1 1 0
453 1 1.1007359648071494e+01 1.7538409451133461e+00 2.0211279309244350e+01 2 0 0
5576 1 1.1949273123021518e+01 1.7887333149355673e+00 2.2862539469689693e+01 1 0 1
573 1 3.2043141905394186e+00 4.3514733622297390e+00 2.4352292344107170e+01 1 0 1
2231 1 1.3169313365942263e+00 6.6264278687391593e+00 2.3748823267014867e+01 0 1 0
3204 1 3.1747475715497195e+00 5.6122856186182961e+00 2.1442648762704241e+01 0 2 1
2171 1 2.4147116926298153e+00 8.1564288424797446e+00 2.0554688882100603e+01 1 1 0
3323 1 5.8372029026208123e+00 4.6836745728240681e+00 2.4385902291953428e+01 1 1 1
3745 1 5.8655040433079044e+00 5.0718494693595551e+00 2.1216139475246287e+01 1 1 0
3292 1 8.1994389656073388e+00 7.3831731582527835e+00 2.0881221766577056e+01 0 0 0
3584 1 6.6581866112249442e+00 7.3028621654406818e+00 2.3660761839459855e+01 0 0 0
1655 1 1.0756222712123060e+01 6.2842902019238878e+00 2.3191793593178787e+01 0 1 1
4740 1 1.0677467624964562e+01 6.0201094537922648e+00 2.0390077086563117e+01 0 0 1
3744 1 2.1775866908905330e+00 9.3152505001976085e+00 2.3488710014157338e+01 0 2 1
6737 1 1.3538828246402557e+00 1.1951564819049723e+01 2.3923938008381914e+01 -1 2 0
2003 1 5.4349718101719997e+00 1.1942381496396488e+01 2.4348289145399260e+01 2 1 0
3312 1 4.9120358393160632e+00 9.2683833204711217e+00 2.3811131945992503e+01 1 1 1
159 1 5.8622504640389774e+00 1.0343089314616922e+01 2.1384262988249205e+01 0 -1 0
1822 1 8.6444808347168145e+00 1.0752943041870841e+01 2.1381243299514239e+01 1 1 0
3353 1 9.1551845431688381e+00 8.1876033703114892e+00 2.4454775617187558e+01 0 0 1
105 1 1.0265049862062989e+01 1.0378991642347994e+01 2.3511884513538554e+01 1 1 1
623 2 0.0000000000000000e+00 2.8417180249513345e+00 2.6813667265853237e+01 0 0 0
625 2 0.0000000000000000e+00 0.0000000000000000e+00 2.6813667265853237e+01 0 0 0
627 2 1.2305000000000001e+00 7.1042950623783474e-01 2.6813667265853237e+01 0 0 0
634 2 1.2305000000000001e+00 2.1312885187134998e+00 2.6813667265853237e+01 0 0 0
636 2 2.4610000000000003e+00 2.8417180249513345e+00 2.6813667265853237e+01 0 0 0
638 2 2.4610000000000003e+00 0.0000000000000000e+00 2.6813667265853237e+01 0 0 0
640 2 3.6915000000000004e+00 7.1042950623783474e-01 2.6813667265853237e+01 0 0 0
655 2 3.6914999999999996e+00 2.1312885187134998e+00 2.6813667265853237e+01 0 0 0
624 2 0.0000000000000000e+00 1.4208590124756650e+00 3.0030999999999931e+01 0 0 0
626 2 0.0000000000000000e+00 0.0000000000000000e+00 3.0030999999999931e+01 0 0 0
633 2 1.2305000000000001e+00 3.5521475311891644e+00 3.0030999999999931e+01 0 0 0
635 2 1.2305000000000001e+00 2.1312885187134998e+00 3.0030999999999931e+01 0 0 0
637 2 2.4610000000000003e+00 1.4208590124756650e+00 3.0030999999999931e+01 0 0 0
639 2 2.4610000000000003e+00 0.0000000000000000e+00 3.0030999999999931e+01 0 0 0
654 2 3.6914999999999996e+00 3.5521475311891644e+00 3.0030999999999931e+01 0 0 0
656 2 3.6914999999999996e+00 2.1312885187134998e+00 3.0030999999999931e+01 0 0 0
657 2 4.9220000000000006e+00 2.8417180249513332e+00 2.6813667265853237e+01 0 0 0
659 2 4.9220000000000006e+00 0.0000000000000000e+00 2.6813667265853237e+01 0 0 0
661 2 6.1524999999999999e+00 7.1042950623783407e-01 2.6813667265853237e+01 0 0 0
684 2 6.1524999999999999e+00 2.1312885187134989e+00 2.6813667265853237e+01 0 0 0
686 2 7.3829999999999991e+00 2.8417180249513345e+00 2.6813667265853237e+01 0 0 0
688 2 7.3829999999999991e+00 0.0000000000000000e+00 2.6813667265853237e+01 0 0 0
658 2 4.9220000000000006e+00 1.4208590124756650e+00 3.0030999999999931e+01 0 0 0
660 2 4.9220000000000006e+00 0.0000000000000000e+00 3.0030999999999931e+01 0 0 0
683 2 6.1524999999999999e+00 3.5521475311891644e+00 3.0030999999999931e+01 0 0 0
685 2 6.1524999999999999e+00 2.1312885187134989e+00 3.0030999999999931e+01 0 0 0
687 2 7.3829999999999991e+00 1.4208590124756659e+00 3.0030999999999931e+01 0 0 0
689 2 7.3829999999999991e+00 0.0000000000000000e+00 3.0030999999999931e+01 0 0 0
690 2 8.6134999999999984e+00 7.1042950623783407e-01 2.6813667265853237e+01 0 0 0
721 2 8.6134999999999984e+00 2.1312885187135002e+00 2.6813667265853237e+01 0 0 0
723 2 9.8440000000000012e+00 2.8417180249513332e+00 2.6813667265853237e+01 0 0 0
725 2 9.8440000000000012e+00 0.0000000000000000e+00 2.6813667265853237e+01 0 0 0
727 2 1.1074500000000002e+01 7.1042950623783330e-01 2.6813667265853237e+01 0 0 0
766 2 1.1074500000000002e+01 2.1312885187135002e+00 2.6813667265853237e+01 0 0 0
720 2 8.6134999999999984e+00 3.5521475311891657e+00 3.0030999999999931e+01 0 0 0
722 2 8.6134999999999984e+00 2.1312885187135002e+00 3.0030999999999931e+01 0 0 0
724 2 9.8440000000000012e+00 1.4208590124756659e+00 3.0030999999999931e+01 0 0 0
726 2 9.8440000000000012e+00 0.0000000000000000e+00 3.0030999999999931e+01 0 0 0
765 2 1.1074500000000002e+01 3.5521475311891644e+00 3.0030999999999931e+01 0 0 0
767 2 1.1074500000000002e+01 2.1312885187135002e+00 3.0030999999999931e+01 0 0 0
628 2 0.0000000000000000e+00 7.1042950623783341e+00 2.6813667265853237e+01 0 0 0
630 2 0.0000000000000000e+00 4.2625770374269996e+00 2.6813667265853237e+01 0 0 0
632 2 1.2305000000000001e+00 4.9730065436648339e+00 2.6813667265853237e+01 0 0 0
647 2 1.2305000000000001e+00 6.3938655561404980e+00 2.6813667265853237e+01 0 0 0
649 2 2.4610000000000003e+00 7.1042950623783341e+00 2.6813667265853237e+01 0 0 0
651 2 2.4610000000000003e+00 4.2625770374269996e+00 2.6813667265853237e+01 0 0 0
653 2 3.6914999999999996e+00 4.9730065436648339e+00 2.6813667265853237e+01 0 0 0
676 2 3.6914999999999996e+00 6.3938655561404980e+00 2.6813667265853237e+01 0 0 0
629 2 0.0000000000000000e+00 5.6834360499026637e+00 3.0030999999999931e+01 0 0 0
631 2 0.0000000000000000e+00 4.2625770374269996e+00 3.0030999999999931e+01 0 0 0
646 2 1.2305000000000001e+00 7.8147245686161639e+00 3.0030999999999931e+01 0 0 0
648 2 1.2305000000000001e+00 6.3938655561404980e+00 3.0030999999999931e+01 0 0 0
650 2 2.4610000000000003e+00 5.6834360499026637e+00 3.0030999999999931e+01 0 0 0
652 2 2.4610000000000003e+00 4.2625770374269996e+00 3.0030999999999931e+01 0 0 0
675 2 3.6914999999999996e+00 7.8147245686161639e+00 3.0030999999999931e+01 0 0 0
677 2 3.6914999999999996e+00 6.3938655561404980e+00 3.0030999999999931e+01 0 0 0
678 2 4.9220000000000006e+00 7.1042950623783341e+00 2.6813667265853237e+01 0 0 0
680 2 4.9220000000000006e+00 4.2625770374269978e+00 2.6813667265853237e+01 0 0 0
682 2 6.1524999999999999e+00 4.9730065436648339e+00 2.6813667265853237e+01 0 0 0
713 2 6.1524999999999999e+00 6.3938655561404980e+00 2.6813667265853237e+01 0 0 0
715 2 7.3830000000000009e+00 7.1042950623783341e+00 2.6813667265853237e+01 0 0 0
717 2 7.3829999999999991e+00 4.2625770374269996e+00 2.6813667265853237e+01 0 0 0
679 2 4.9220000000000006e+00 5.6834360499026637e+00 3.0030999999999931e+01 0 0 0
681 2 4.9220000000000006e+00 4.2625770374269978e+00 3.0030999999999931e+01 0 0 0
712 2 6.1524999999999999e+00 7.8147245686161639e+00 3.0030999999999931e+01 0 0 0
714 2 6.1524999999999999e+00 6.3938655561404980e+00 3.0030999999999931e+01 0 0 0
716 2 7.3829999999999991e+00 5.6834360499026637e+00 3.0030999999999931e+01 0 0 0
718 2 7.3829999999999991e+00 4.2625770374269996e+00 3.0030999999999931e+01 0 0 0
719 2 8.6135000000000002e+00 4.9730065436648339e+00 2.6813667265853237e+01 0 0 0
758 2 8.6135000000000002e+00 6.3938655561404980e+00 2.6813667265853237e+01 0 0 0
760 2 9.8440000000000012e+00 7.1042950623783341e+00 2.6813667265853237e+01 0 0 0
762 2 9.8440000000000012e+00 4.2625770374270004e+00 2.6813667265853237e+01 0 0 0
764 2 1.1074500000000002e+01 4.9730065436648339e+00 2.6813667265853237e+01 0 0 0
805 2 1.1074500000000002e+01 6.3938655561404980e+00 2.6813667265853237e+01 0 0 0
757 2 8.6135000000000002e+00 7.8147245686161639e+00 3.0030999999999931e+01 0 0 0
759 2 8.6135000000000002e+00 6.3938655561404980e+00 3.0030999999999931e+01 0 0 0
761 2 9.8440000000000012e+00 5.6834360499026637e+00 3.0030999999999931e+01 0 0 0
763 2 9.8440000000000012e+00 4.2625770374270004e+00 3.0030999999999931e+01 0 0 0
804 2 1.1074500000000002e+01 7.8147245686161639e+00 3.0030999999999931e+01 0 0 0
806 2 1.1074500000000002e+01 6.3938655561404980e+00 3.0030999999999931e+01 0 0 0
641 2 0.0000000000000000e+00 1.1366872099805333e+01 2.6813667265853237e+01 0 0 0
643 2 0.0000000000000000e+00 8.5251540748539991e+00 2.6813667265853237e+01 0 0 0
645 2 1.2305000000000001e+00 9.2355835810918343e+00 2.6813667265853237e+01 0 0 0
668 2 1.2305000000000001e+00 1.0656442593567498e+01 2.6813667265853237e+01 0 0 0
670 2 2.4610000000000003e+00 1.1366872099805333e+01 2.6813667265853237e+01 0 0 0
672 2 2.4610000000000003e+00 8.5251540748539991e+00 2.6813667265853237e+01 0 0 0
674 2 3.6915000000000004e+00 9.2355835810918343e+00 2.6813667265853237e+01 0 0 0
705 2 3.6914999999999996e+00 1.0656442593567499e+01 2.6813667265853237e+01 0 0 0
642 2 0.0000000000000000e+00 9.9460130873296642e+00 3.0030999999999931e+01 0 0 0
644 2 0.0000000000000000e+00 8.5251540748539991e+00 3.0030999999999931e+01 0 0 0
667 2 1.2305000000000001e+00 1.2077301606043163e+01 3.0030999999999931e+01 0 0 0
669 2 1.2305000000000001e+00 1.0656442593567498e+01 3.0030999999999931e+01 0 0 0
671 2 2.4610000000000003e+00 9.9460130873296642e+00 3.0030999999999931e+01 0 0 0
673 2 2.4610000000000003e+00 8.5251540748539991e+00 3.0030999999999931e+01 0 0 0
704 2 3.6914999999999996e+00 1.2077301606043163e+01 3.0030999999999931e+01 0 0 0
706 2 3.6914999999999996e+00 1.0656442593567499e+01 3.0030999999999931e+01 0 0 0
707 2 4.9220000000000006e+00 1.1366872099805333e+01 2.6813667265853237e+01 0 0 0
709 2 4.9220000000000006e+00 8.5251540748539991e+00 2.6813667265853237e+01 0 0 0
711 2 6.1524999999999999e+00 9.2355835810918343e+00 2.6813667265853237e+01 0 0 0
750 2 6.1524999999999999e+00 1.0656442593567499e+01 2.6813667265853237e+01 0 0 0
752 2 7.3829999999999991e+00 1.1366872099805333e+01 2.6813667265853237e+01 0 0 0
754 2 7.3830000000000009e+00 8.5251540748539991e+00 2.6813667265853237e+01 0 0 0
708 2 4.9220000000000006e+00 9.9460130873296642e+00 3.0030999999999931e+01 0 0 0
710 2 4.9220000000000006e+00 8.5251540748539991e+00 3.0030999999999931e+01 0 0 0
749 2 6.1524999999999999e+00 1.2077301606043163e+01 3.0030999999999931e+01 0 0 0
751 2 6.1524999999999999e+00 1.0656442593567499e+01 3.0030999999999931e+01 0 0 0
753 2 7.3830000000000009e+00 9.9460130873296642e+00 3.0030999999999931e+01 0 0 0
755 2 7.3830000000000009e+00 8.5251540748539991e+00 3.0030999999999931e+01 0 0 0
802 2 9.8440000000000012e+00 8.5251540748539956e+00 3.0030999999999931e+01 0 0 0
796 2 8.6135000000000002e+00 1.2077301606043163e+01 3.0030999999999931e+01 0 0 0
801 2 9.8440000000000012e+00 8.5251540748539956e+00 2.6813667265853237e+01 0 0 0
797 2 8.6134999999999984e+00 1.0656442593567498e+01 2.6813667265853237e+01 0 0 0
843 2 1.1074500000000002e+01 1.2077301606043163e+01 3.0030999999999931e+01 0 0 0
803 2 1.1074500000000002e+01 9.2355835810918343e+00 2.6813667265853237e+01 0 0 0
845 2 1.1074500000000002e+01 1.0656442593567498e+01 3.0030999999999931e+01 0 0 0
800 2 9.8440000000000012e+00 9.9460130873296642e+00 3.0030999999999931e+01 0 0 0
756 2 8.6134999999999984e+00 9.2355835810918343e+00 2.6813667265853237e+01 0 0 0
798 2 8.6134999999999984e+00 1.0656442593567498e+01 3.0030999999999931e+01 0 0 0
799 2 9.8440000000000012e+00 1.1366872099805333e+01 2.6813667265853237e+01 0 0 0
846 2 1.2304999999999998e+01 1.1366872099805333e+01 2.6813667265853237e+01 0 0 0
844 2 1.1074500000000002e+01 1.0656442593567498e+01 2.6813667265853237e+01 0 0 0
952 2 0.0000000000000000e+00 2.8417180249513345e+00 3.3248332734145450e+01 0 0 0
953 2 0.0000000000000000e+00 0.0000000000000000e+00 3.3248332734145450e+01 0 0 0
954 2 1.2305000000000001e+00 7.1042950623783474e-01 3.3248332734145450e+01 0 0 0
958 2 1.2305000000000001e+00 2.1312885187134998e+00 3.3248332734145450e+01 0 0 0
959 2 2.4610000000000003e+00 2.8417180249513345e+00 3.3248332734145450e+01 0 0 0
960 2 2.4610000000000003e+00 0.0000000000000000e+00 3.3248332734145450e+01 0 0 0
961 2 3.6915000000000004e+00 7.1042950623783474e-01 3.3248332734145450e+01 0 0 0
969 2 3.6914999999999996e+00 2.1312885187134998e+00 3.3248332734145450e+01 0 0 0
970 2 4.9220000000000006e+00 2.8417180249513332e+00 3.3248332734145450e+01 0 0 0
971 2 4.9220000000000006e+00 0.0000000000000000e+00 3.3248332734145450e+01 0 0 0
972 2 6.1524999999999999e+00 7.1042950623783407e-01 3.3248332734145450e+01 0 0 0
984 2 6.1524999999999999e+00 2.1312885187134989e+00 3.3248332734145450e+01 0 0 0
985 2 7.3829999999999991e+00 2.8417180249513345e+00 3.3248332734145450e+01 0 0 0
986 2 7.3829999999999991e+00 0.0000000000000000e+00 3.3248332734145450e+01 0 0 0
987 2 8.6134999999999984e+00 7.1042950623783407e-01 3.3248332734145450e+01 0 0 0
1003 2 8.6134999999999984e+00 2.1312885187135002e+00 3.3248332734145450e+01 0 0 0
1004 2 9.8440000000000012e+00 2.8417180249513332e+00 3.3248332734145450e+01 0 0 0
1005 2 9.8440000000000012e+00 0.0000000000000000e+00 3.3248332734145450e+01 0 0 0
1006 2 1.1074500000000002e+01 7.1042950623783330e-01 3.3248332734145450e+01 0 0 0
1026 2 1.1074500000000002e+01 2.1312885187135002e+00 3.3248332734145450e+01 0 0 0
955 2 0.0000000000000000e+00 7.1042950623783341e+00 3.3248332734145450e+01 0 0 0
956 2 0.0000000000000000e+00 4.2625770374269996e+00 3.3248332734145450e+01 0 0 0
957 2 1.2305000000000001e+00 4.9730065436648339e+00 3.3248332734145450e+01 0 0 0
965 2 1.2305000000000001e+00 6.3938655561404980e+00 3.3248332734145450e+01 0 0 0
966 2 2.4610000000000003e+00 7.1042950623783341e+00 3.3248332734145450e+01 0 0 0
967 2 2.4610000000000003e+00 4.2625770374269996e+00 3.3248332734145450e+01 0 0 0
968 2 3.6914999999999996e+00 4.9730065436648339e+00 3.3248332734145450e+01 0 0 0
980 2 3.6914999999999996e+00 6.3938655561404980e+00 3.3248332734145450e+01 0 0 0
981 2 4.9220000000000006e+00 7.1042950623783341e+00 3.3248332734145450e+01 0 0 0
982 2 4.9220000000000006e+00 4.2625770374269978e+00 3.3248332734145450e+01 0 0 0
983 2 6.1524999999999999e+00 4.9730065436648339e+00 3.3248332734145450e+01 0 0 0
999 2 6.1524999999999999e+00 6.3938655561404980e+00 3.3248332734145450e+01 0 0 0
1000 2 7.3830000000000009e+00 7.1042950623783341e+00 3.3248332734145450e+01 0 0 0
1001 2 7.3829999999999991e+00 4.2625770374269996e+00 3.3248332734145450e+01 0 0 0
1002 2 8.6135000000000002e+00 4.9730065436648339e+00 3.3248332734145450e+01 0 0 0
1022 2 8.6135000000000002e+00 6.3938655561404980e+00 3.3248332734145450e+01 0 0 0
1023 2 9.8440000000000012e+00 7.1042950623783341e+00 3.3248332734145450e+01 0 0 0
1024 2 9.8440000000000012e+00 4.2625770374270004e+00 3.3248332734145450e+01 0 0 0
1025 2 1.1074500000000002e+01 4.9730065436648339e+00 3.3248332734145450e+01 0 0 0
1046 2 1.1074500000000002e+01 6.3938655561404980e+00 3.3248332734145450e+01 0 0 0
962 2 0.0000000000000000e+00 1.1366872099805333e+01 3.3248332734145450e+01 0 0 0
963 2 0.0000000000000000e+00 8.5251540748539991e+00 3.3248332734145450e+01 0 0 0
964 2 1.2305000000000001e+00 9.2355835810918343e+00 3.3248332734145450e+01 0 0 0
976 2 1.2305000000000001e+00 1.0656442593567498e+01 3.3248332734145450e+01 0 0 0
977 2 2.4610000000000003e+00 1.1366872099805333e+01 3.3248332734145450e+01 0 0 0
978 2 2.4610000000000003e+00 8.5251540748539991e+00 3.3248332734145450e+01 0 0 0
979 2 3.6915000000000004e+00 9.2355835810918343e+00 3.3248332734145450e+01 0 0 0
995 2 3.6914999999999996e+00 1.0656442593567499e+01 3.3248332734145450e+01 0 0 0
996 2 4.9220000000000006e+00 1.1366872099805333e+01 3.3248332734145450e+01 0 0 0
997 2 4.9220000000000006e+00 8.5251540748539991e+00 3.3248332734145450e+01 0 0 0
998 2 6.1524999999999999e+00 9.2355835810918343e+00 3.3248332734145450e+01 0 0 0
1018 2 6.1524999999999999e+00 1.0656442593567499e+01 3.3248332734145450e+01 0 0 0
1019 2 7.3829999999999991e+00 1.1366872099805333e+01 3.3248332734145450e+01 0 0 0
1020 2 7.3830000000000009e+00 8.5251540748539991e+00 3.3248332734145450e+01 0 0 0
1021 2 8.6134999999999984e+00 9.2355835810918343e+00 3.3248332734145450e+01 0 0 0
1042 2 8.6134999999999984e+00 1.0656442593567498e+01 3.3248332734145450e+01 0 0 0
1043 2 9.8440000000000012e+00 1.1366872099805333e+01 3.3248332734145450e+01 0 0 0
1044 2 9.8440000000000012e+00 8.5251540748539956e+00 3.3248332734145450e+01 0 0 0
1045 2 1.1074500000000002e+01 9.2355835810918343e+00 3.3248332734145450e+01 0 0 0
1066 2 1.1074500000000002e+01 1.0656442593567498e+01 3.3248332734145450e+01 0 0 0
1067 2 1.2304999999999998e+01 1.1366872099805333e+01 3.3248332734145450e+01 0 0 0
91 1 2.8895987062836275e+00 2.5505969019229342e+00 3.6210717754731277e+01 -1 0 -1
1990 1 2.7994606306159335e+00 2.7885441789463736e+00 3.8932945467073736e+01 0 0 -1
6360 1 4.4642828704111637e-01 3.7451122491439399e+00 3.6183478828412831e+01 0 0 0
4798 1 5.1497354319242676e+00 3.4650866581182642e+00 3.6120614514666855e+01 0 0 0
127 1 7.2080107957031148e+00 1.8999559875728023e+00 3.6907155814161086e+01 0 0 -1
5414 1 6.4488914502204313e+00 3.4732405047984215e-02 3.8865550037114829e+01 1 1 -1
3376 1 9.7519574915783274e+00 2.8723172849043976e+00 3.6817429915163473e+01 2 -1 0
3364 1 1.1617406097209326e+01 2.6808801546445582e+00 3.8934012216473150e+01 0 0 0
1546 1 1.2089499494416019e+01 2.3932126693550133e+00 3.5763593918216941e+01 1 0 0
3263 1 3.6162661632719106e-01 6.5540801196124709e+00 3.6097223941690388e+01 0 0 0
5381 1 5.0511857415222998e+00 6.4433483624419745e+00 3.6138770973600714e+01 0 1 -1
4946 1 5.1629014393917050e+00 4.7774931536220642e+00 3.9183054490841641e+01 1 -1 0
1377 1 6.9977363620749005e+00 7.2712089788487333e+00 3.9063621759758050e+01 1 0 0
3362 1 7.8635671387786994e+00 7.4474089533141603e+00 3.6432400611010280e+01 1 1 0
3508 1 9.2963338545396788e+00 5.2692343299946920e+00 3.5610679540098971e+01 1 1 -1
3486 1 1.0117430609964615e+01 7.3365678496266611e+00 3.8964513916803682e+01 0 0 -1
4899 1 1.1395656644383937e+01 7.1444642741055731e+00 3.6655540394292075e+01 0 0 0
507 1 2.7967830542428649e+00 8.3177045397481049e+00 3.6509489743009269e+01 1 0 -1
175 1 2.9147431510740835e+00 8.5985397222340456e+00 3.9205923653076070e+01 1 0 -1
5580 1 2.4128537554310840e+00 1.1324994976719950e+01 3.6090054677273713e+01 0 1 0
5673 1 2.9035551254723332e-02 9.1092623534732091e+00 3.9579872891355734e+01 0 1 0
4770 1 8.8366314748482444e-01 1.1992244205779011e+01 3.8858694674612153e+01 1 0 0
610 1 6.8764487396416101e+00 1.1499187254009618e+01 3.5372826251377930e+01 2 0 -1
4957 1 7.4297469458626173e+00 1.1462906837186742e+01 3.8764640084101444e+01 -1 0 -1
4707 1 5.7141452464464768e+00 9.5484169470717859e+00 3.9657834418418147e+01 1 0 0
6745 1 1.1727951861748922e+01 9.6598863150254903e+00 3.5697608446952614e+01 -1 -1 -1
3591 1 9.6838589757771985e+00 9.8653399971300573e+00 3.9684175140412961e+01 -1 -1 -1
4804 1 9.7218143564351962e+00 1.1452155644208442e+01 3.6370685765440456e+01 0 -2 0
3557 1 1.1365482767277094e+01 1.1712072938770090e+01 3.8643486979947809e+01 0 0 -1
3527 1 6.5074474522929582e-01 1.6407773180314260e+00 4.4920618013896927e+01 0 1 0
1501 1 3.5238842989130057e+00 7.2117339964655192e-01 4.0749964587943836e+01 -1 0 0
3165 1 2.4455492726244481e+00 2.5610176917827485e+00 4.3162073741509090e+01 1 2 0
1915 1 1.4148491873127483e-01 6.2244835992373460e-02 4.1035609194214175e+01 0 0 -1
3569 1 5.8175937226991570e+00 1.5572155308838915e+00 4.1931366685194746e+01 0 0 -1
1448 1 7.2409981171908946e+00 3.0075550018752488e+00 4.0132542515872416e+01 -1 0 0
5090 1 4.9819488585661613e+00 2.6150447677607240e+00 4.4509503392211428e+01 0 0 -1
6755 1 1.0694706385796321e+01 3.0864415436983363e+00 4.3564628086142264e+01 2 0 0
4774 1 1.0029679582294216e+01 3.9435897587288231e+00 4.1063445725446513e+01 1 -1 0
1429 1 1.0091060102751966e+01 1.6254705371517464e-01 4.3664297432853189e+01 -1 0 0
320 1 1.1381091788177662e+00 4.8554995944753969e+00 4.3109371773938221e+01 0 0 0
615 1 3.3990527577294514e+00 6.3802916006227681e+00 4.0996895986641391e+01 1 0 0
75 1 9.8586591424446068e-01 4.2086332415530237e+00 4.0206399377692577e+01 -1 -1 -1
6734 1 8.1937918664230818e+00 4.9725296052454979e+00 4.4231822366037647e+01 1 1 0
27 1 5.4622193585753891e+00 7.1998258991429402e+00 4.2914517447797650e+01 1 0 -1
2278 1 7.6658667561303790e+00 5.7859614007774809e+00 4.1419822354504348e+01 1 0 0
4755 1 1.0303686345809016e+01 7.6115619569639135e+00 4.3695924705320692e+01 0 0 0
6627 1 1.1271092041910180e+01 6.5567422861571467e+00 4.1375835071492105e+01 1 0 0
6469 1 2.0840275622850508e+00 8.2250117309315485e+00 4.3333836679576436e+01 0 0 0
118 1 2.8802097083372686e+00 1.1723390897343750e+01 4.0540334109162188e+01 1 0 -1
1749 1 4.3848195527680716e+00 9.8805547618625997e+00 4.2211434625581262e+01 1 2 -1
3703 1 5.5066013764223589e+00 1.1566866808378464e+01 4.3796906476057188e+01 1 -1 -1
5651 1 8.0470759151979347e+00 1.1585099038973713e+01 4.3167802828501436e+01 0 0 -1
6636 1 1.0643041870702575e+01 9.9804183825626591e+00 4.2500244907754919e+01 1 0 0