LAMMPS data file via write_data, version 16 Mar 2018, timestep = 6000000

6768 atoms
2 atom types

0.0000000000000000e+00 4.9219999999999999e+01 xlo xhi
0.0000000000000000e+00 4.9019635930410494e+01 ylo yhi
2.0735010955074884e-01 5.9854649890440520e+01 zlo zhi

Masses

1 18.015
2 12.01

Atoms # atomic

5301 1 1.8328571648465890e+00 3.6883067279419470e+00 1.2665654235312471e+00 -1 -1 0
6395 1 5.4971106135149181e+00 1.0560620589053043e+01 1.2535824534501565e+01 1 1 1
6480 1 4.6244251109659712e-01 1.4336638601111578e+00 2.0798139110831722e+00 2 1 1
6394 1 4.1943106260477752e+00 3.8963114196327822e+00 2.6466840622538803e+00 1 1 0
5029 1 5.4541804298424212e+00 1.6103027457792067e+00 1.6374148257482739e+00 1 0 0
5665 1 8.1165889895923105e+00 1.6780372153994074e+00 2.6537534151184201e+00 3 -1 1
5471 1 9.6079845021091437e+00 3.8368489592068471e+00 1.6950996412124861e+00 1 0 0
3240 1 4.1496940174562874e-01 9.9655858539838391e+00 5.4403802907434029e+00 1 1 1
3764 1 1.1621318537819445e+01 8.5602212442930234e+00 5.3533945338166058e+00 -1 0 0
6518 1 5.6020986603828655e+00 6.0898728805979836e+00 1.7310139399857323e+00 -1 -1 1
130 1 8.1138266934627623e+00 6.2012958114830026e+00 2.4366662017475083e+00 -2 2 0
5422 1 8.1595688815007730e+00 5.8401411986545533e+00 4.9618545566731322e+00 1 2 0
5352 1 2.0978364113176724e+00 8.0540881553000947e+00 1.7464821502909118e+00 3 2 0
5492 1 4.8927407535779688e-01 1.4767002616421616e+00 5.0687250192031748e+00 0 -1 0
3083 1 5.6147933167206643e-01 5.8187893002644548e+00 5.0910297411086640e+00 0 0 1
2114 1 4.4629657445336557e+00 8.0662812700338513e+00 2.7252108274695814e+00 0 0 1
3760 1 5.2076889913077666e+00 1.0305278128013375e+01 1.7065047903894612e+00 -1 -1 0
117 1 8.1039801558724722e+00 1.0536676063805409e+01 2.4572944772295719e+00 2 1 0
6608 1 7.9946398260069671e+00 1.0444563286622591e+01 5.3590156211362823e+00 1 2 1
2306 1 9.5085710700673260e+00 8.4748646784418185e+00 1.7397624286087816e+00 1 2 1
615 1 1.2098322103588313e+01 4.1408851535039917e+00 2.6318982930492862e+00 1 1 1
4815 1 4.1880651243342317e+00 8.2478900760203580e+00 1.3524338089767580e+01 -1 1 1
6763 1 3.1211176990948002e+00 1.2499917316230726e+00 5.9939139595539475e+00 1 0 1
1718 1 2.7823309318608596e+00 1.5321106068071333e+00 8.7648221330353326e+00 -2 1 0
6411 1 1.6332500689981031e+00 3.4972187427678691e+00 9.6981071427563972e+00 1 1 1
1812 1 4.4410369345830656e+00 3.6017645934459002e+00 5.2052614653288787e+00 1 0 0
3287 1 6.8114257771828379e+00 3.9538385892785977e+00 6.3430005513658028e+00 0 1 0
6678 1 6.3383076721023741e+00 3.6501841444669134e+00 8.7817206787389512e+00 1 1 1
5620 1 7.8316162627363193e+00 1.7138029323896278e+00 5.2861905674868881e+00 0 2 1
5134 1 1.0704383722112761e+01 1.7822711714703094e+00 6.2302398956263065e+00 1 1 1
1960 1 1.0256250957508682e+01 1.8286836053915922e+00 9.0019113038133707e+00 1 1 0
107 1 8.7886517334912835e+00 3.9486883384367344e+00 9.9349811695016861e+00 1 1 0
3637 1 8.0845066386675306e+00 1.0475730333212972e+01 1.3538243738922384e+01 1 -1 0
6651 1 3.2120494003523508e+00 5.7209191576058194e+00 6.1601428521688488e+00 1 2 1
4935 1 2.9055425218233326e+00 6.0182415328908769e+00 8.9034526116341635e+00 1 0 1
1506 1 1.5468119527925672e+00 8.0076945150099323e+00 9.9713458035101770e+00 0 2 1
28 1 4.4233820190244346e+00 8.1002116901206804e+00 5.3502974502157548e+00 3 0 0
5583 1 1.1827429046455748e+01 4.1663872849983337e+00 1.3210185075179695e+01 1 2 1
3794 1 5.3018842409157401e+00 5.9810645418241251e+00 9.7483799175355088e+00 1 -2 0
6482 1 6.5490884146038320e-01 5.8604616296677197e+00 2.4052102771754336e+00 0 -1 1
2174 1 1.0352513859626042e+01 6.2608774033146908e+00 6.4560147257232900e+00 1 1 0
3079 1 1.0018216972425062e+01 6.3267605035389343e+00 9.0349785452046021e+00 0 -3 1
4940 1 9.2214646346873099e+00 8.3141604185129037e+00 1.0198983466517655e+01 0 -3 1
5671 1 2.9617453808662519e+00 1.0289369591657612e+01 6.5068127519877974e+00 1 -1 1
3009 1 3.1613447687755261e+00 1.0378853247077870e+01 9.2494217420612870e+00 -2 1 1
3800 1 7.1914238054953721e+00 8.1083111086163182e+00 6.0852329200280639e+00 1 1 0
5642 1 6.7487811127364905e+00 8.2794382290243060e+00 8.9905585435233100e+00 -1 -2 1
3329 1 5.6182305787477507e+00 1.0418250531114589e+01 9.9541811478293525e+00 -1 -1 0
3996 1 1.0673428483368749e+01 1.0888760571296677e+01 6.1370281513640323e+00 -1 -2 1
282 1 1.0540436707983654e+01 1.0608901600171297e+01 8.9221850738692012e+00 2 -1 1
3972 1 1.5768479474246559e+00 3.3701975269780511e+00 1.2456774665570723e+01 -2 1 1
5001 1 4.4463610514539054e-01 1.1711673827957083e+00 1.3446671135769744e+01 1 -1 1
3737 1 5.2412064868657664e+00 1.3116113416217370e+00 9.7291706527785529e+00 -1 2 0
6434 1 5.2442909824312727e+00 1.3869822462192543e+00 1.2438584405881198e+01 1 1 1
614 1 8.0586598228030102e+00 1.5086932587452666e+00 1.3400935936483982e+01 -1 -2 0
2047 1 1.2261911120768387e+01 8.3781708539629207e+00 2.6235849815536683e+00 1 0 0
1613 1 9.0953481103878460e+00 8.2059502191117701e+00 1.2781070735314541e+01 1 0 1
1758 1 4.5460810996235318e-01 6.0334642735053956e+00 1.3133117767323027e+01 1 0 0
444 1 4.0662215689621677e+00 3.6163084815524997e+00 1.3657825056852529e+01 1 3 0
4829 1 5.0407733017508392e+00 5.8708609064754542e+00 1.2617515152989577e+01 0 2 1
5408 1 7.8565188092896880e+00 5.8510029076582475e+00 1.3616924571520086e+01 2 1 0
5306 1 9.1668972124335983e+00 3.8562477885361157e+00 1.2646434776027034e+01 2 0 1
497 1 5.3343793903108294e-01 1.0485224027019896e+01 1.3887017195784104e+01 0 -1 0
1670 1 1.7685185334432072e+00 8.6007079955093815e+00 1.2714268876118279e+01 0 0 0
6611 1 1.1433784737614340e+01 8.6297292021718359e+00 1.3675597535743742e+01 0 3 0
1335 1 1.1951179682070666e+01 4.1272533539895671e+00 5.5172714249816091e+00 -2 1 1
4771 1 3.8238547975771925e-01 1.0023532874889437e+01 2.9406832228880733e+00 3 0 1
2345 1 1.1643935113322042e+01 2.1611629117782627e-01 1.3472768880168891e+01 0 1 0
5126 1 1.5468892042427043e+00 3.4000270719276462e+00 1.9712861503783927e+01 1 0 0
5550 1 4.1212584162334120e-01 1.1459704009663292e+00 1.6144608544216126e+01 0 -1 0
129 1 4.0815864280251457e+00 3.4644575255064818e+00 1.6195680201160158e+01 2 0 0
6512 1 5.6456122492771605e+00 1.6410601660489341e+00 1.7091301570715061e+01 -1 -1 1
6654 1 5.1539753555450005e+00 1.5747502315398541e+00 1.9729756522864768e+01 2 0 1
388 1 1.1830372255218141e+01 4.5014524663164384e+00 2.0852191266625908e+01 1 0 0
1830 1 8.1774819065167232e+00 1.5828116930243679e+00 1.6179933463245035e+01 -1 1 0
843 2 1.1074500000000002e+01 1.2077301606043163e+01 3.0030999999995558e+01 0 0 0
3349 1 1.4998697972534527e+00 3.3570688274169878e+00 1.6949164334816995e+01 -1 0 0
235 1 3.2586284463401610e-01 1.7531031504804866e+00 2.3668895559849229e+01 1 2 0
3690 1 5.4605540717956806e+00 5.8252498791387355e+00 1.6998102896953736e+01 1 3 0
3396 1 7.9092636232562716e+00 5.8094045862361634e+00 1.6188596941454065e+01 0 -1 1
190 1 9.5289148616600148e+00 4.0362202206366833e+00 1.6986028457107480e+01 2 1 0
4811 1 9.2436140902554698e+00 4.1032125505346846e+00 1.9941779097234232e+01 3 1 1
5399 1 1.4366276261314384e+00 7.9351996693960070e+00 1.7109111216845704e+01 1 1 0
5393 1 1.4995375883755810e+00 7.7929351822399324e+00 1.9778728537440916e+01 0 1 0
5271 1 4.6301909557668902e-01 5.5559611380400122e+00 2.0618269532838873e+01 2 1 0
6642 1 4.0474944510878563e+00 8.2049706444210848e+00 1.6264656518934714e+01 1 1 0
2155 1 5.3410305448291702e+00 1.0675166723138373e+01 1.6975321950668153e+01 2 1 0
5172 1 7.7566393038009096e+00 1.0596079385903110e+01 1.6309143718719714e+01 1 1 1
4817 1 5.5350617069855970e+00 1.0557337087657219e+01 1.9683989504471835e+01 1 1 1
4891 1 8.9306833412366249e+00 8.1326971547327016e+00 1.6882913512153223e+01 0 1 1
5307 1 2.7032364714603241e-01 5.6324440698346026e+00 1.5865786849215519e+01 -1 -1 0
2159 1 7.0416910120152139e+00 1.1940841842735141e+01 2.4319169560416718e+01 -1 1 0
801 2 9.8440000000000012e+00 8.5251540748539956e+00 2.6844990229759965e+01 0 0 0
5531 1 5.0095331590469732e+00 2.2673984566642686e+00 2.4369540281872087e+01 -1 2 0
1725 1 7.4749984318129714e+00 2.0232493381383021e+00 2.3535843083019092e+01 -1 2 0
6487 1 7.7932861770283717e+00 1.8277614944543097e+00 2.0719405377650830e+01 1 0 1
3404 1 3.8504488216950805e+00 3.7778221442077315e+00 2.0499323504623003e+01 1 -2 1
800 2 9.8440000000000012e+00 9.9460130873296642e+00 3.0030999999995558e+01 0 0 0
5466 1 1.1770711593571708e+01 4.4339731684595591e+00 1.5869225652272027e+01 0 0 0
1587 1 4.0495130290889669e+00 4.4129232090429538e+00 2.3216319723260867e+01 0 1 1
3391 1 1.1573797338598184e+00 4.5745613769269129e+00 2.3414601457143728e+01 0 1 1
3032 1 5.4017348753033625e+00 5.7382996812538991e+00 1.9831635961387104e+01 0 2 0
3541 1 4.7859198978553028e+00 7.0746348829615284e+00 2.3610762156209955e+01 2 0 0
5221 1 7.5957384156705272e+00 6.8566315852512609e+00 2.3275296986058031e+01 2 -1 0
2137 1 7.8746904622068952e+00 6.2579342240388112e+00 2.0646979871925172e+01 1 0 1
6736 1 1.1588558980662764e+01 8.8468768355265990e+00 2.0761403624881936e+01 1 1 1
56 1 1.1034876353947505e+01 4.7537710533144795e+00 2.3568032916337064e+01 0 -1 1
5506 1 8.4883048441701092e+00 4.3940505677115986e+00 2.4343284853887106e+01 2 -1 0
3943 1 6.2827692398660040e-01 9.6846281223217083e+00 2.3662908664806999e+01 -1 1 0
1353 1 3.2554853925079699e+00 9.3064839873779075e+00 2.3864019931654344e+01 0 1 1
573 1 4.2778578832994452e-01 1.0145956191086782e+01 2.0823807580737842e+01 1 0 1
6458 1 3.8968230018789551e+00 8.0652381423523583e+00 2.0660867668329491e+01 1 0 1
797 2 8.6134999999999984e+00 1.0656442593567498e+01 2.6844990229759965e+01 0 0 0
3261 1 1.1601678974693138e+01 3.9949625563261919e-02 2.0755635648608077e+01 -1 2 1
19 1 9.2760911810482067e+00 8.1926092474385168e+00 1.9701470291849667e+01 -1 -1 0
6368 1 8.0906064904004111e+00 1.0479240414829404e+01 2.0489037939302893e+01 1 -1 1
4840 1 1.0876267005355459e+01 9.3408165276810955e+00 2.3204204909060895e+01 -1 0 1
799 2 9.8440000000000012e+00 1.1366872099805333e+01 2.6844990229759965e+01 0 0 0
1880 1 8.3290387177607261e+00 9.5999448651700412e+00 2.3450085327192795e+01 -1 0 0
623 2 0.0000000000000000e+00 2.8417180249513345e+00 2.6844990229759965e+01 0 0 0
625 2 0.0000000000000000e+00 0.0000000000000000e+00 2.6844990229759965e+01 0 0 0
627 2 1.2305000000000001e+00 7.1042950623783474e-01 2.6844990229759965e+01 0 0 0
634 2 1.2305000000000001e+00 2.1312885187134998e+00 2.6844990229759965e+01 0 0 0
636 2 2.4610000000000003e+00 2.8417180249513345e+00 2.6844990229759965e+01 0 0 0
638 2 2.4610000000000003e+00 0.0000000000000000e+00 2.6844990229759965e+01 0 0 0
640 2 3.6915000000000004e+00 7.1042950623783474e-01 2.6844990229759965e+01 0 0 0
655 2 3.6914999999999996e+00 2.1312885187134998e+00 2.6844990229759965e+01 0 0 0
624 2 0.0000000000000000e+00 1.4208590124756650e+00 3.0030999999995558e+01 0 0 0
626 2 0.0000000000000000e+00 0.0000000000000000e+00 3.0030999999995558e+01 0 0 0
633 2 1.2305000000000001e+00 3.5521475311891644e+00 3.0030999999995558e+01 0 0 0
635 2 1.2305000000000001e+00 2.1312885187134998e+00 3.0030999999995558e+01 0 0 0
637 2 2.4610000000000003e+00 1.4208590124756650e+00 3.0030999999995558e+01 0 0 0
639 2 2.4610000000000003e+00 0.0000000000000000e+00 3.0030999999995558e+01 0 0 0
654 2 3.6914999999999996e+00 3.5521475311891644e+00 3.0030999999995558e+01 0 0 0
656 2 3.6914999999999996e+00 2.1312885187134998e+00 3.0030999999995558e+01 0 0 0
657 2 4.9220000000000006e+00 2.8417180249513332e+00 2.6844990229759965e+01 0 0 0
659 2 4.9220000000000006e+00 0.0000000000000000e+00 2.6844990229759965e+01 0 0 0
661 2 6.1524999999999999e+00 7.1042950623783407e-01 2.6844990229759965e+01 0 0 0
684 2 6.1524999999999999e+00 2.1312885187134989e+00 2.6844990229759965e+01 0 0 0
686 2 7.3829999999999991e+00 2.8417180249513345e+00 2.6844990229759965e+01 0 0 0
688 2 7.3829999999999991e+00 0.0000000000000000e+00 2.6844990229759965e+01 0 0 0
658 2 4.9220000000000006e+00 1.4208590124756650e+00 3.0030999999995558e+01 0 0 0
660 2 4.9220000000000006e+00 0.0000000000000000e+00 3.0030999999995558e+01 0 0 0
683 2 6.1524999999999999e+00 3.5521475311891644e+00 3.0030999999995558e+01 0 0 0
685 2 6.1524999999999999e+00 2.1312885187134989e+00 3.0030999999995558e+01 0 0 0
687 2 7.3829999999999991e+00 1.4208590124756659e+00 3.0030999999995558e+01 0 0 0
689 2 7.3829999999999991e+00 0.0000000000000000e+00 3.0030999999995558e+01 0 0 0
690 2 8.6134999999999984e+00 7.1042950623783407e-01 2.6844990229759965e+01 0 0 0
721 2 8.6134999999999984e+00 2.1312885187135002e+00 2.6844990229759965e+01 0 0 0
723 2 9.8440000000000012e+00 2.8417180249513332e+00 2.6844990229759965e+01 0 0 0
725 2 9.8440000000000012e+00 0.0000000000000000e+00 2.6844990229759965e+01 0 0 0
727 2 1.1074500000000002e+01 7.1042950623783330e-01 2.6844990229759965e+01 0 0 0
766 2 1.1074500000000002e+01 2.1312885187135002e+00 2.6844990229759965e+01 0 0 0
720 2 8.6134999999999984e+00 3.5521475311891657e+00 3.0030999999995558e+01 0 0 0
722 2 8.6134999999999984e+00 2.1312885187135002e+00 3.0030999999995558e+01 0 0 0
724 2 9.8440000000000012e+00 1.4208590124756659e+00 3.0030999999995558e+01 0 0 0
726 2 9.8440000000000012e+00 0.0000000000000000e+00 3.0030999999995558e+01 0 0 0
765 2 1.1074500000000002e+01 3.5521475311891644e+00 3.0030999999995558e+01 0 0 0
767 2 1.1074500000000002e+01 2.1312885187135002e+00 3.0030999999995558e+01 0 0 0
628 2 0.0000000000000000e+00 7.1042950623783341e+00 2.6844990229759965e+01 0 0 0
630 2 0.0000000000000000e+00 4.2625770374269996e+00 2.6844990229759965e+01 0 0 0
632 2 1.2305000000000001e+00 4.9730065436648339e+00 2.6844990229759965e+01 0 0 0
647 2 1.2305000000000001e+00 6.3938655561404980e+00 2.6844990229759965e+01 0 0 0
649 2 2.4610000000000003e+00 7.1042950623783341e+00 2.6844990229759965e+01 0 0 0
651 2 2.4610000000000003e+00 4.2625770374269996e+00 2.6844990229759965e+01 0 0 0
653 2 3.6914999999999996e+00 4.9730065436648339e+00 2.6844990229759965e+01 0 0 0
676 2 3.6914999999999996e+00 6.3938655561404980e+00 2.6844990229759965e+01 0 0 0
629 2 0.0000000000000000e+00 5.6834360499026637e+00 3.0030999999995558e+01 0 0 0
631 2 0.0000000000000000e+00 4.2625770374269996e+00 3.0030999999995558e+01 0 0 0
646 2 1.2305000000000001e+00 7.8147245686161639e+00 3.0030999999995558e+01 0 0 0
648 2 1.2305000000000001e+00 6.3938655561404980e+00 3.0030999999995558e+01 0 0 0
650 2 2.4610000000000003e+00 5.6834360499026637e+00 3.0030999999995558e+01 0 0 0
652 2 2.4610000000000003e+00 4.2625770374269996e+00 3.0030999999995558e+01 0 0 0
675 2 3.6914999999999996e+00 7.8147245686161639e+00 3.0030999999995558e+01 0 0 0
677 2 3.6914999999999996e+00 6.3938655561404980e+00 3.0030999999995558e+01 0 0 0
678 2 4.9220000000000006e+00 7.1042950623783341e+00 2.6844990229759965e+01 0 0 0
680 2 4.9220000000000006e+00 4.2625770374269978e+00 2.6844990229759965e+01 0 0 0
682 2 6.1524999999999999e+00 4.9730065436648339e+00 2.6844990229759965e+01 0 0 0
713 2 6.1524999999999999e+00 6.3938655561404980e+00 2.6844990229759965e+01 0 0 0
715 2 7.3830000000000009e+00 7.1042950623783341e+00 2.6844990229759965e+01 0 0 0
717 2 7.3829999999999991e+00 4.2625770374269996e+00 2.6844990229759965e+01 0 0 0
679 2 4.9220000000000006e+00 5.6834360499026637e+00 3.0030999999995558e+01 0 0 0
681 2 4.9220000000000006e+00 4.2625770374269978e+00 3.0030999999995558e+01 0 0 0
712 2 6.1524999999999999e+00 7.8147245686161639e+00 3.0030999999995558e+01 0 0 0
714 2 6.1524999999999999e+00 6.3938655561404980e+00 3.0030999999995558e+01 0 0 0
716 2 7.3829999999999991e+00 5.6834360499026637e+00 3.0030999999995558e+01 0 0 0
718 2 7.3829999999999991e+00 4.2625770374269996e+00 3.0030999999995558e+01 0 0 0
719 2 8.6135000000000002e+00 4.9730065436648339e+00 2.6844990229759965e+01 0 0 0
758 2 8.6135000000000002e+00 6.3938655561404980e+00 2.6844990229759965e+01 0 0 0
760 2 9.8440000000000012e+00 7.1042950623783341e+00 2.6844990229759965e+01 0 0 0
762 2 9.8440000000000012e+00 4.2625770374270004e+00 2.6844990229759965e+01 0 0 0
764 2 1.1074500000000002e+01 4.9730065436648339e+00 2.6844990229759965e+01 0 0 0
805 2 1.1074500000000002e+01 6.3938655561404980e+00 2.6844990229759965e+01 0 0 0
757 2 8.6135000000000002e+00 7.8147245686161639e+00 3.0030999999995558e+01 0 0 0
759 2 8.6135000000000002e+00 6.3938655561404980e+00 3.0030999999995558e+01 0 0 0
761 2 9.8440000000000012e+00 5.6834360499026637e+00 3.0030999999995558e+01 0 0 0
763 2 9.8440000000000012e+00 4.2625770374270004e+00 3.0030999999995558e+01 0 0 0
804 2 1.1074500000000002e+01 7.8147245686161639e+00 3.0030999999995558e+01 0 0 0
806 2 1.1074500000000002e+01 6.3938655561404980e+00 3.0030999999995558e+01 0 0 0
641 2 0.0000000000000000e+00 1.1366872099805333e+01 2.6844990229759965e+01 0 0 0
643 2 0.0000000000000000e+00 8.5251540748539991e+00 2.6844990229759965e+01 0 0 0
645 2 1.2305000000000001e+00 9.2355835810918343e+00 2.6844990229759965e+01 0 0 0
668 2 1.2305000000000001e+00 1.0656442593567498e+01 2.6844990229759965e+01 0 0 0
670 2 2.4610000000000003e+00 1.1366872099805333e+01 2.6844990229759965e+01 0 0 0
672 2 2.4610000000000003e+00 8.5251540748539991e+00 2.6844990229759965e+01 0 0 0
674 2 3.6915000000000004e+00 9.2355835810918343e+00 2.6844990229759965e+01 0 0 0
705 2 3.6914999999999996e+00 1.0656442593567499e+01 2.6844990229759965e+01 0 0 0
642 2 0.0000000000000000e+00 9.9460130873296642e+00 3.0030999999995558e+01 0 0 0
644 2 0.0000000000000000e+00 8.5251540748539991e+00 3.0030999999995558e+01 0 0 0
667 2 1.2305000000000001e+00 1.2077301606043163e+01 3.0030999999995558e+01 0 0 0
669 2 1.2305000000000001e+00 1.0656442593567498e+01 3.0030999999995558e+01 0 0 0
671 2 2.4610000000000003e+00 9.9460130873296642e+00 3.0030999999995558e+01 0 0 0
673 2 2.4610000000000003e+00 8.5251540748539991e+00 3.0030999999995558e+01 0 0 0
704 2 3.6914999999999996e+00 1.2077301606043163e+01 3.0030999999995558e+01 0 0 0
706 2 3.6914999999999996e+00 1.0656442593567499e+01 3.0030999999995558e+01 0 0 0
709 2 4.9220000000000006e+00 8.5251540748539991e+00 2.6844990229759965e+01 0 0 0
711 2 6.1524999999999999e+00 9.2355835810918343e+00 2.6844990229759965e+01 0 0 0
750 2 6.1524999999999999e+00 1.0656442593567499e+01 2.6844990229759965e+01 0 0 0
752 2 7.3829999999999991e+00 1.1366872099805333e+01 2.6844990229759965e+01 0 0 0
754 2 7.3830000000000009e+00 8.5251540748539991e+00 2.6844990229759965e+01 0 0 0
708 2 4.9220000000000006e+00 9.9460130873296642e+00 3.0030999999995558e+01 0 0 0
710 2 4.9220000000000006e+00 8.5251540748539991e+00 3.0030999999995558e+01 0 0 0
749 2 6.1524999999999999e+00 1.2077301606043163e+01 3.0030999999995558e+01 0 0 0
751 2 6.1524999999999999e+00 1.0656442593567499e+01 3.0030999999995558e+01 0 0 0
753 2 7.3830000000000009e+00 9.9460130873296642e+00 3.0030999999995558e+01 0 0 0
755 2 7.3830000000000009e+00 8.5251540748539991e+00 3.0030999999995558e+01 0 0 0
707 2 4.9220000000000006e+00 1.1366872099805333e+01 2.6844990229759965e+01 0 0 0
846 2 1.2304999999999998e+01 1.1366872099805333e+01 2.6844990229759965e+01 0 0 0
756 2 8.6134999999999984e+00 9.2355835810918343e+00 2.6844990229759965e+01 0 0 0
844 2 1.1074500000000002e+01 1.0656442593567498e+01 2.6844990229759965e+01 0 0 0
798 2 8.6134999999999984e+00 1.0656442593567498e+01 3.0030999999995558e+01 0 0 0
803 2 1.1074500000000002e+01 9.2355835810918343e+00 2.6844990229759965e+01 0 0 0
796 2 8.6135000000000002e+00 1.2077301606043163e+01 3.0030999999995558e+01 0 0 0
802 2 9.8440000000000012e+00 8.5251540748539956e+00 3.0030999999995558e+01 0 0 0
845 2 1.1074500000000002e+01 1.0656442593567498e+01 3.0030999999995558e+01 0 0 0
2308 1 1.1352568249579857e+01 8.9644853815825289e+00 1.6195507504485150e+01 0 1 1
5275 1 3.6561995572452588e-01 1.1749547679996795e+00 2.1050928795437862e+01 2 0 1
5035 1 4.5490657403186505e+00 1.1835305060898724e+01 2.3358868396972181e+01 1 1 1
6638 1 1.2184460032818640e+01 7.0275994293432804e+00 2.3778438999972714e+01 -1 0 1
5588 1 9.0491048427704435e+00 1.5203337207515943e-01 2.4260741255741884e+01 3 0 0
6582 1 1.1591050719767996e+01 3.2813909342043956e-01 2.3508785051167532e+01 -3 2 1
952 2 0.0000000000000000e+00 2.8417180249513345e+00 3.3217009770227222e+01 0 0 0
953 2 0.0000000000000000e+00 0.0000000000000000e+00 3.3217009770227222e+01 0 0 0
954 2 1.2305000000000001e+00 7.1042950623783474e-01 3.3217009770227222e+01 0 0 0
958 2 1.2305000000000001e+00 2.1312885187134998e+00 3.3217009770227222e+01 0 0 0
959 2 2.4610000000000003e+00 2.8417180249513345e+00 3.3217009770227222e+01 0 0 0
960 2 2.4610000000000003e+00 0.0000000000000000e+00 3.3217009770227222e+01 0 0 0
961 2 3.6915000000000004e+00 7.1042950623783474e-01 3.3217009770227222e+01 0 0 0
969 2 3.6914999999999996e+00 2.1312885187134998e+00 3.3217009770227222e+01 0 0 0
970 2 4.9220000000000006e+00 2.8417180249513332e+00 3.3217009770227222e+01 0 0 0
971 2 4.9220000000000006e+00 0.0000000000000000e+00 3.3217009770227222e+01 0 0 0
972 2 6.1524999999999999e+00 7.1042950623783407e-01 3.3217009770227222e+01 0 0 0
984 2 6.1524999999999999e+00 2.1312885187134989e+00 3.3217009770227222e+01 0 0 0
985 2 7.3829999999999991e+00 2.8417180249513345e+00 3.3217009770227222e+01 0 0 0
986 2 7.3829999999999991e+00 0.0000000000000000e+00 3.3217009770227222e+01 0 0 0
987 2 8.6134999999999984e+00 7.1042950623783407e-01 3.3217009770227222e+01 0 0 0
1003 2 8.6134999999999984e+00 2.1312885187135002e+00 3.3217009770227222e+01 0 0 0
1004 2 9.8440000000000012e+00 2.8417180249513332e+00 3.3217009770227222e+01 0 0 0
1005 2 9.8440000000000012e+00 0.0000000000000000e+00 3.3217009770227222e+01 0 0 0
1006 2 1.1074500000000002e+01 7.1042950623783330e-01 3.3217009770227222e+01 0 0 0
1026 2 1.1074500000000002e+01 2.1312885187135002e+00 3.3217009770227222e+01 0 0 0
955 2 0.0000000000000000e+00 7.1042950623783341e+00 3.3217009770227222e+01 0 0 0
956 2 0.0000000000000000e+00 4.2625770374269996e+00 3.3217009770227222e+01 0 0 0
957 2 1.2305000000000001e+00 4.9730065436648339e+00 3.3217009770227222e+01 0 0 0
965 2 1.2305000000000001e+00 6.3938655561404980e+00 3.3217009770227222e+01 0 0 0
966 2 2.4610000000000003e+00 7.1042950623783341e+00 3.3217009770227222e+01 0 0 0
967 2 2.4610000000000003e+00 4.2625770374269996e+00 3.3217009770227222e+01 0 0 0
968 2 3.6914999999999996e+00 4.9730065436648339e+00 3.3217009770227222e+01 0 0 0
980 2 3.6914999999999996e+00 6.3938655561404980e+00 3.3217009770227222e+01 0 0 0
981 2 4.9220000000000006e+00 7.1042950623783341e+00 3.3217009770227222e+01 0 0 0
982 2 4.9220000000000006e+00 4.2625770374269978e+00 3.3217009770227222e+01 0 0 0
983 2 6.1524999999999999e+00 4.9730065436648339e+00 3.3217009770227222e+01 0 0 0
999 2 6.1524999999999999e+00 6.3938655561404980e+00 3.3217009770227222e+01 0 0 0
1000 2 7.3830000000000009e+00 7.1042950623783341e+00 3.3217009770227222e+01 0 0 0
1001 2 7.3829999999999991e+00 4.2625770374269996e+00 3.3217009770227222e+01 0 0 0
1002 2 8.6135000000000002e+00 4.9730065436648339e+00 3.3217009770227222e+01 0 0 0
1022 2 8.6135000000000002e+00 6.3938655561404980e+00 3.3217009770227222e+01 0 0 0
1023 2 9.8440000000000012e+00 7.1042950623783341e+00 3.3217009770227222e+01 0 0 0
1024 2 9.8440000000000012e+00 4.2625770374270004e+00 3.3217009770227222e+01 0 0 0
1025 2 1.1074500000000002e+01 4.9730065436648339e+00 3.3217009770227222e+01 0 0 0
1046 2 1.1074500000000002e+01 6.3938655561404980e+00 3.3217009770227222e+01 0 0 0
962 2 0.0000000000000000e+00 1.1366872099805333e+01 3.3217009770227222e+01 0 0 0
963 2 0.0000000000000000e+00 8.5251540748539991e+00 3.3217009770227222e+01 0 0 0
964 2 1.2305000000000001e+00 9.2355835810918343e+00 3.3217009770227222e+01 0 0 0
976 2 1.2305000000000001e+00 1.0656442593567498e+01 3.3217009770227222e+01 0 0 0
977 2 2.4610000000000003e+00 1.1366872099805333e+01 3.3217009770227222e+01 0 0 0
978 2 2.4610000000000003e+00 8.5251540748539991e+00 3.3217009770227222e+01 0 0 0
979 2 3.6915000000000004e+00 9.2355835810918343e+00 3.3217009770227222e+01 0 0 0
995 2 3.6914999999999996e+00 1.0656442593567499e+01 3.3217009770227222e+01 0 0 0
996 2 4.9220000000000006e+00 1.1366872099805333e+01 3.3217009770227222e+01 0 0 0
997 2 4.9220000000000006e+00 8.5251540748539991e+00 3.3217009770227222e+01 0 0 0
998 2 6.1524999999999999e+00 9.2355835810918343e+00 3.3217009770227222e+01 0 0 0
1018 2 6.1524999999999999e+00 1.0656442593567499e+01 3.3217009770227222e+01 0 0 0
1019 2 7.3829999999999991e+00 1.1366872099805333e+01 3.3217009770227222e+01 0 0 0
1020 2 7.3830000000000009e+00 8.5251540748539991e+00 3.3217009770227222e+01 0 0 0
1021 2 8.6134999999999984e+00 9.2355835810918343e+00 3.3217009770227222e+01 0 0 0
1042 2 8.6134999999999984e+00 1.0656442593567498e+01 3.3217009770227222e+01 0 0 0
1043 2 9.8440000000000012e+00 1.1366872099805333e+01 3.3217009770227222e+01 0 0 0
1044 2 9.8440000000000012e+00 8.5251540748539956e+00 3.3217009770227222e+01 0 0 0
1045 2 1.1074500000000002e+01 9.2355835810918343e+00 3.3217009770227222e+01 0 0 0
1066 2 1.1074500000000002e+01 1.0656442593567498e+01 3.3217009770227222e+01 0 0 0
1067 2 1.2304999999999998e+01 1.1366872099805333e+01 3.3217009770227222e+01 0 0 0
6502 1 1.5923715242723606e+00 2.3172465338485275e+00 3.5620876199329970e+01 3 0 -1
4955 1 3.8314294126672559e+00 3.0968759514391344e+00 3.9640654264003160e+01 1 0 0
245 1 3.8463310780854956e+00 3.4528327705705135e+00 3.6960770413305724e+01 1 -2 -1
470 1 9.5581780862560070e-02 9.4445146650504714e+00 3.9348577249171754e+01 0 1 -1
1845 1 5.2625201968872011e+00 9.8147109180845895e+00 4.4453705007037982e+01 0 1 0
1557 1 5.1440307226823414e+00 1.1602141663296699e+00 3.6377398719266310e+01 0 0 0
3749 1 7.5138723425139187e+00 1.1039555904512823e+00 3.9743114147450996e+01 2 2 -1
390 1 7.7078384153221640e+00 1.2804652433098973e+00 3.6917817646243790e+01 1 1 -1
3121 1 1.1507162124977123e+01 3.3920288409151924e+00 3.9352852739192102e+01 0 2 0
6724 1 1.1324047462815262e+01 3.3780073329688536e+00 3.6641308550931740e+01 1 -2 0
3860 1 8.7510021434473888e+00 3.1543158240762041e+00 3.5927260318256785e+01 1 0 -1
3053 1 1.0441822603171433e+00 7.4871190925500199e+00 3.5847272281713074e+01 -1 1 0
1890 1 3.4839358888711609e+00 7.3518843187347072e+00 3.9540350065507383e+01 1 -1 -1
593 1 3.6592394629237073e+00 7.4220487149340810e+00 3.6783382476918504e+01 -1 -2 0
5285 1 4.7961703268738676e+00 5.4585677519960853e+00 3.5696309094473648e+01 -2 -2 -1
3030 1 7.3328114131443476e+00 5.5443953374927979e+00 3.6601565097791578e+01 1 2 0
1748 1 7.3374466549320045e+00 5.4719618764207532e+00 3.9428904511007545e+01 1 4 -1
4851 1 1.1090818978917753e+01 7.6204664571401732e+00 3.6610973280626780e+01 0 2 0
1703 1 8.5307951353873808e+00 7.8884273900125610e+00 3.5876710247414437e+01 0 1 0
4744 1 1.1081769305525262e+01 7.8269880517228501e+00 3.9190637788267111e+01 0 0 0
3441 1 6.1955245000741295e+00 1.1888243728898686e+01 4.0699452026338818e+01 0 -1 -1
1583 1 6.3718231037183912e+00 1.1902256484277750e+01 4.3277685928081382e+01 0 0 0
111 1 4.3532920327874036e-01 4.9990285515310315e+00 3.6606665066628054e+01 2 2 -1
3722 1 9.8740949276629735e+00 1.0204424387095749e+01 4.2853062358360319e+01 1 0 -1
5216 1 4.6698395188635020e+00 9.9387257971085301e+00 3.6317209173611985e+01 2 -1 -1
3782 1 7.1455782804964718e+00 1.0058689452177017e+01 3.7089518914125264e+01 0 0 0
1352 1 7.4610172415353304e+00 9.8929965913691245e+00 3.9655477023675999e+01 0 2 0
5613 1 2.3543021707162320e-01 3.1399055593134367e-01 3.6821008251178910e+01 0 0 0
3011 1 1.0021528973561662e+01 1.0324418121978512e+01 4.0056464623374040e+01 0 1 0
3436 1 2.4375746562024192e+00 1.0451089035551231e+00 4.0542909953596990e+01 0 0 0
6407 1 1.3175809978043413e+00 2.8849123591925956e+00 4.4157818260766888e+01 1 0 0
556 1 2.9145126114675559e+00 8.4817162680470126e-01 4.3203834768348159e+01 2 2 0
5442 1 6.3977855563456218e+00 3.2036596800499995e+00 4.0351351871338338e+01 1 -1 -1
1321 1 5.5538732689621657e+00 1.0826864760955945e+00 4.4008848216425022e+01 1 -1 0
5548 1 6.6691593506942661e+00 3.1769149811253805e+00 4.2993887290233715e+01 1 1 -1
5137 1 9.0627648546859838e+00 3.5702922834144912e+00 4.3858766269319986e+01 1 1 0
3740 1 1.0141439817839572e+01 1.1273803605308124e+00 4.0605138441154949e+01 0 -1 -1
597 1 1.0568309683144740e+01 1.3741861168045562e+00 4.3247685560773405e+01 -1 1 0
6408 1 2.2988127870966091e+00 5.2460269903400647e+00 4.0477174781970774e+01 0 2 0
6409 1 2.4147718077642697e+00 5.0903639305856405e+00 4.3258715855899069e+01 1 -2 0
503 1 1.1509487354170600e+00 7.2277534042762595e+00 4.4172497137965095e+01 -1 0 -1
546 1 6.1762276494808317e+00 7.5175495220244120e+00 4.3079489114775754e+01 1 0 0
5537 1 5.1104258144691128e+00 5.2534270551710680e+00 4.3988930476232682e+01 1 0 0
605 1 5.9259235890031610e+00 7.6150585324888249e+00 4.0481320475444662e+01 0 0 0
5412 1 1.0112456145637328e+01 5.4940704447534845e+00 4.0194701376912121e+01 0 2 -1
6378 1 1.0229126062712398e+01 5.5563351864442252e+00 4.2947767588073390e+01 0 -1 0
5668 1 8.7900577050050082e+00 7.5338679458057092e+00 4.3692524426901144e+01 1 0 0
1802 1 2.5912512401510890e+00 9.6027151490939726e+00 4.0521898419411997e+01 1 0 -1
5529 1 2.4915894413895683e+00 9.5487235749917065e+00 4.3347043117868012e+01 0 0 0
1964 1 1.2435933714084597e+00 1.1622727880935416e+01 4.4436541473774042e+01 1 1 -1
411 1 1.5036071097140968e+00 1.1871138155274533e+01 3.6305201006752483e+01 1 0 -1
3432 1 3.9692106785055388e+00 1.1684614049608657e+01 3.9335300994170311e+01 0 0 0
1381 1 8.4991866039610245e-02 9.4063001407782310e-01 3.9425376065662434e+01 -1 -1 0
3252 1 7.4336883092751188e-02 5.1845875408613704e+00 3.9347387466305804e+01 0 1 0
2339 1 1.0858258059032227e+01 1.1846275277630802e+01 3.5491933254059632e+01 -1 2 0
368 1 1.6053131569974002e+00 3.5687420537566856e+00 4.6580785562598848e+01 1 1 -1
3946 1 4.4678336455652907e+00 3.5214164936067762e+00 4.7337404301950372e+01 1 2 0
3226 1 4.9976380826263317e-01 5.8188541794714110e+00 5.0554164730485098e+01 -2 1 -1
494 1 5.6584974176665641e+00 1.4349308513799179e+00 4.6660587109854404e+01 1 -1 -1
5273 1 8.1111481795583185e+00 1.4328381849758689e+00 4.7787537156092995e+01 2 0 -1
3437 1 9.1318380459519268e+00 3.7522500483049894e+00 4.6753660938943582e+01 -1 -1 -1