
# Create simulation box and atoms

read_data data.graphite_substrate_500
  orthogonal box = (0 0 -0.518223) to (49.22 49.0196 60.5802)
  4 by 2 by 4 MPI processor grid
  reading atoms ...
  6750 atoms
  reading velocities ...
  6750 velocities
group water type 1
3990 atoms in group water
group graphite type 2
2760 atoms in group graphite

# Define potential

pair_style sw
pair_coeff * * mWC.sw mW C
Reading potential file mWC.sw with DATE: 2019-02-27


# Fix graphite atoms in place

fix 5 graphite setforce 0.0 0.0 0.0
velocity graphite set 0.0 0.0 0.0


# Equilibration of molecular water

# Add velocity/set timestep

velocity	    water create ${TEMP} ${SEED} rot yes dist gaussian
velocity	    water create 225 ${SEED} rot yes dist gaussian
velocity	    water create 225 301 rot yes dist gaussian
timestep	    5.0

# Define output

compute			1 water msd
compute			3 water temp
thermo	    	50
thermo_style	custom step temp press vol etotal ke pe c_1[4] c_3

# Neighbor lists

neigh_modify    delay 0 every 1 check yes

# Set fixes

fix             1 water momentum 10 linear 1 1 1 rescale
fix             2 water nve
fix             3 water temp/csvr ${TEMP} ${TEMP} 500.0 ${SEED}
fix             3 water temp/csvr 225 ${TEMP} 500.0 ${SEED}
fix             3 water temp/csvr 225 225 500.0 ${SEED}
fix             3 water temp/csvr 225 225 500.0 301
fix             4 water press/berendsen z ${PRES} ${PRES} 1000.0 modulus 20000
fix             4 water press/berendsen z -500 ${PRES} 1000.0 modulus 20000
fix             4 water press/berendsen z -500 -500 1000.0 modulus 20000

# Run 0.5 ns equilibration

dump		    1 all atom 2000 ${DIR}/eq.${NAME}-${TEMP}.dump
dump		    1 all atom 2000 run_7/eq.${NAME}-${TEMP}.dump
dump		    1 all atom 2000 run_7/eq.het_freeze_7-${TEMP}.dump
dump		    1 all atom 2000 run_7/eq.het_freeze_7-225.dump

reset_timestep  0

run	            100000
Neighbor list info ...
  update every 1 steps, delay 0 steps, check yes
  max neighbors/atom: 2000, page size: 100000
  master list distance cutoff = 7.76
  ghost atom cutoff = 7.76
  binsize = 3.88, bins = 13 13 16
  1 neighbor lists, perpetual/occasional/extra = 1 0 0
  (1) pair sw, perpetual
      attributes: full, newton on
      pair build: full/bin/atomonly
      stencil: full/bin/3d
      bin: standard
Per MPI rank memory allocation (min/avg/max) = 4.108 | 4.238 | 4.553 Mbytes
Step Temp Press Volume TotEng KinEng PotEng c_1[4] c_3 
       0    132.98637   -1273.0418    147415.06    -35990.25    2675.3515   -38665.602            0          225 
      50    170.15852   -1154.4081    146928.01   -36365.138    3423.1617   -39788.299   0.84556591    287.89166 
     100    167.17512    -1392.192    146536.25   -36759.022    3363.1433   -40122.166    1.8165648    282.84404 
     150    163.33508   -1385.6452    146090.39   -37061.939    3285.8913   -40347.831    2.7119683    276.34707 
     200    158.88064   -1470.8299    145594.28   -37363.328    3196.2792   -40559.607    3.5909034    268.81059 
     250    156.52781   -1191.4621    145269.68   -37581.715    3148.9462   -40730.661     4.337981    264.82983 
     300      149.338   -1067.7163    144963.95   -37785.587    3004.3052   -40789.892    5.0466159    252.66537 
     350    148.76123   -1287.1918    144632.34   -37942.463    2992.7021   -40935.165    5.6688282    251.68953 
     400    145.75028   -1173.6617    144313.29   -38167.167    2932.1293   -41099.297     6.238587    246.59529 
     450    147.98424   -1068.1882     144030.9   -38314.896     2977.071   -41291.967    6.8043187    250.37494 
     500    143.35054    -1087.453    143808.63   -38475.979    2883.8527   -41359.832    7.3640443    242.53518 
     550    139.10523   -877.99026    143661.69   -38615.239    2798.4476   -41413.686    7.8934125    235.35251 
     600     140.6448   -1028.6875     143500.6   -38656.309    2829.4199   -41485.729    8.3622524    237.95732 
     650    143.11133   -1166.2764    143273.22   -38695.525    2879.0403   -41574.565    8.7959634    242.13045 
     700    141.31102   -852.83132    143135.53   -38733.932    2842.8226   -41576.755    9.2332221     239.0845 
     750    137.93286   -964.90422    143017.29   -38818.884    2774.8625   -41593.746    9.6765305    233.36898 
     800    139.53269    -750.8211    142924.63   -38876.049     2807.047   -41683.096    10.030753    236.07573 
     850    137.71473   -842.32417    142822.52   -38921.542    2770.4743   -41692.017    10.423911    232.99993 
     900    135.89409   -808.97362    142675.47   -38996.058    2733.8476   -41729.906    10.889721    229.91958 
     950    136.26596   -905.06291    142600.01   -39048.631    2741.3287   -41789.959    11.216841    230.54875 
    1000    137.47338   -809.88021    142513.75   -39091.044     2765.619   -41856.663    11.674117    232.59159 
    1050    136.94217   -962.39039    142432.89   -39179.277    2754.9323   -41934.209    12.044532    231.69283 
    1100    134.20305   -809.31315    142404.59   -39198.527    2699.8281   -41898.355     12.23111     227.0585 
    1150    135.38891   -739.62712    142361.51   -39259.359    2723.6847   -41983.043    12.511559    229.06487 
    1200     132.7893   -768.27856    142356.27   -39294.804     2671.387   -41966.191    12.904705    224.66658 
    1250    131.25784   -812.61624    142374.66   -39332.651    2640.5779   -41973.229    13.296828     222.0755 
    1300    133.37918   -577.65108    142375.16   -39290.873     2683.254   -41974.127    13.555216     225.6646 
    1350    132.08348   -656.60487    142407.55   -39353.555    2657.1877   -42010.743    13.857655     223.4724 
    1400    133.64773    -796.6032    142383.77   -39335.837    2688.6564   -42024.494    14.145077    226.11896 
    1450    130.72874   -635.90171    142322.54   -39393.183    2629.9338   -42023.117    14.471366    221.18032 
    1500    134.32915    -770.0465    142347.72   -39331.576    2702.3649   -42033.941    14.721336    227.27185 
    1550    130.88089   -620.18629    142338.81   -39368.048    2632.9945   -42001.043    14.970022    221.43773 
    1600    131.29319   -1001.1883    142225.87   -39380.937     2641.289   -42022.226    15.172458     222.1353 
    1650    130.31516   -759.40654    142202.23   -39374.932    2621.6135   -41996.546    15.442158    220.48057 
    1700    133.23999   -744.95757    142251.71   -39332.495    2680.4538   -42012.949    15.630877    225.42911 
    1750    134.78214   -819.91382    142227.97   -39322.804    2711.4779   -42034.282    15.816925    228.03827 
    1800    134.72229   -717.54346    142268.31   -39332.538    2710.2739   -42042.812    15.984665    227.93701 
    1850    134.60142    -707.2442    142267.85   -39336.755    2707.8424   -42044.598    16.238911    227.73252 
    1900    131.54079   -627.15695    142180.83   -39410.425    2646.2702   -42056.695    16.604085    222.55422 
    1950    132.48377    -526.1315    142151.54   -39427.771    2665.2405   -42093.012    16.850379    224.14965 
    2000    131.73048    -494.0062    142227.66   -39454.006    2650.0862   -42104.092     17.27435    222.87516 
    2050    133.31118   -478.85789     142275.7   -39429.948     2681.886   -42111.834    17.459905    225.54955 
    2100    134.50121   -480.62947    142379.68   -39441.413    2705.8264   -42147.239    17.636225    227.56297 
    2150    131.97092    -575.9325    142458.32   -39422.765    2654.9233   -42077.688    17.808516    223.28197 
    2200    133.72588    -534.7418    142523.82   -39430.701    2690.2286   -42120.929    17.901579    226.25118 
    2250    131.32038    -917.0792    142498.89   -39439.756    2641.8361   -42081.592    18.194728    222.18131 
    2300    130.36951   -495.35009     142497.9   -39465.799     2622.707   -42088.506      18.4152    220.57254 
    2350    134.49963   -588.20332    142609.81   -39440.482    2705.7945   -42146.276    18.613124    227.56029 
    2400    134.16302   -807.26037    142689.09   -39397.405    2699.0229   -42096.427    18.816236    226.99079 
    2450    133.97851   -808.96284    142648.26   -39414.512    2695.3109   -42109.823    19.156533    226.67861 
    2500    132.55059    -722.6942    142653.04   -39442.682    2666.5849   -42109.267     19.38518    224.26271 
    2550    133.78277   -747.79545    142616.26   -39421.696    2691.3731   -42113.069    19.603163    226.34743 
    2600    134.18911   -605.46406     142625.1   -39384.015    2699.5477   -42083.562    19.721561    227.03492 
    2650    134.93427   -362.20511    142624.68   -39404.415    2714.5384   -42118.953    19.952971    228.29566 
    2700    135.71886    -548.6413    142703.27   -39433.455    2730.3223   -42163.777      20.0245     229.6231 
    2750    132.93293   -870.02025    142733.59   -39473.774    2674.2766   -42148.051    20.261633     224.9096 
    2800    133.11006   -676.14383     142698.9    -39455.31    2677.8399    -42133.15    20.486501    225.20927 
    2850    132.86523   -685.45813    142632.52   -39531.332    2672.9146   -42204.247    20.806783    224.79505 
    2900    132.64797   -704.17241     142656.1   -39524.549    2668.5437   -42193.093    21.007024    224.42746 
    2950    133.69772   -721.96411     142677.6   -39503.577    2689.6622   -42193.239    21.118486    226.20355 
    3000    134.05315   -802.37407    142775.83   -39511.502    2696.8126   -42208.314    21.294681     226.8049 
    3050    135.66272   -699.73938    142835.73   -39491.246     2729.193   -42220.439    21.574479    229.52813 
    3100    133.38377   -506.47916    142806.52   -39489.599    2683.3463   -42172.945    21.791811    225.67236 
    3150     132.9567   -469.80839    142936.69   -39523.433    2674.7546   -42198.188    21.778251     224.9498 
    3200    133.82473   -644.77902    142915.54   -39513.092    2692.2172   -42205.309    21.980088    226.41842 
    3250    132.72757   -540.80077    142952.02   -39542.624    2670.1452   -42212.769     22.07418    224.56215 
    3300    132.84303   -688.16861    142952.03   -39559.778    2672.4679   -42232.246    22.161458    224.75748 
    3350    132.59011    -619.4086    142918.28   -39608.536    2667.3799   -42275.916    22.377071    224.32957 
    3400    135.49014   -524.53794    142962.66   -39597.605    2725.7212   -42323.326    22.710198    229.23614 
    3450    131.21848   -630.62737    142979.76   -39620.658    2639.7861   -42260.445    22.893694    222.00891 
    3500    133.73085   -438.88575    143102.26    -39591.98    2690.3287   -42282.308    22.868393    226.25959 
    3550    132.91803   -560.45325    143162.17   -39573.194    2673.9767   -42247.171    23.087381    224.88437 
    3600    134.32636   -316.44327    143266.37   -39580.622    2702.3087   -42282.931      23.3184    227.26713 
    3650    135.78182   -513.02967    143378.86   -39537.239     2731.589   -42268.828    23.416397    229.72963 
    3700     131.9034   -479.09621    143413.41   -39536.753    2653.5649   -42190.318    23.490663    223.16772 
    3750    132.66116   -732.54725    143438.04   -39540.378    2668.8091   -42209.187    23.629083    224.44978 
    3800    133.60259   -687.41634    143425.68   -39573.249    2687.7484   -42260.998    23.738775    226.04259 
    3850    132.59488    -664.9715    143423.17   -39537.918    2667.4757   -42205.394    23.772283    224.33764 
    3900    132.39828    -763.3116    143397.32    -39571.19    2663.5207   -42234.711    23.885988    224.00502 
    3950    132.63561   -656.60144    143398.73   -39632.558    2668.2952   -42300.853    24.026578    224.40655 
    4000    130.92551   -718.89073    143471.02   -39586.758    2633.8923    -42220.65    24.203691    221.51323 
    4050    132.30008   -738.53351    143497.72   -39541.753    2661.5451   -42203.298    24.346891    223.83887 
    4100    133.56144   -719.98396     143538.5   -39574.116    2686.9206   -42261.037    24.545319    225.97297 
    4150    132.89587    -770.6967    143522.57   -39606.235    2673.5309   -42279.766    24.897851    224.84688 
    4200    133.46128   -735.44941    143540.01   -39570.025    2684.9055    -42254.93    25.180085     225.8035 
    4250     132.6192   -489.77483    143560.75   -39562.019     2667.965   -42229.984    25.473804    224.37878 
    4300    136.42765   -400.08543    143663.99   -39509.849    2744.5815   -42254.431    25.720904    230.82232 
    4350    134.54854   -546.71387    143655.97   -39537.994    2706.7784   -42244.772    25.932419    227.64304 
    4400    135.56494   -748.53221    143591.21   -39566.312    2727.2258   -42293.538    26.110564    229.36268 
    4450    134.03118   -639.39597       143436   -39598.026    2696.3706   -42294.397    26.232199    226.76772 
    4500    133.33974   -565.55573    143406.65   -39630.991    2682.4605   -42313.452    26.422516    225.59787 
    4550    132.44266   -630.21318    143367.72   -39618.774    2664.4136   -42283.188    26.550921     224.0801 
    4600    130.11703    -680.2474    143381.17   -39660.616    2617.6276   -42278.244    26.873415    220.14535 
    4650    136.30517   -571.20556    143400.52   -39643.601    2742.1175   -42385.719    26.982918    230.61509 
    4700    133.37205   -524.70137    143464.86   -39598.759    2683.1105    -42281.87    27.227569    225.65253 
    4750    133.36326   -813.15368     143433.1   -39618.274    2682.9337   -42301.208    27.493138    225.63767 
    4800    132.42545   -747.19486    143387.03   -39640.648    2664.0672   -42304.715    27.767152    224.05098 
    4850     133.3169   -596.89206    143429.42   -39652.724     2682.001   -42334.726    27.836246    225.55923 
    4900    132.17403   -938.94385    143366.69   -39658.012    2659.0093   -42317.022    28.150423     223.6256 
    4950    132.95265   -517.54508    143334.48   -39677.086    2674.6732   -42351.759    28.318921    224.94295 
    5000    131.97933   -464.47952    143387.09   -39695.846    2655.0925   -42350.939    28.509533     223.2962 
    5050    132.23227   -618.79156    143439.73   -39666.683    2660.1809   -42326.864    28.800735    223.72413 
    5100    130.31684   -836.90671    143499.37   -39652.643    2621.6474    -42274.29     29.08021    220.48342 
    5150    135.64651   -529.73465    143526.04   -39592.076    2728.8669   -42320.943    29.271063     229.5007 
    5200    135.01983   -876.72345       143527   -39637.956    2716.2597   -42354.216    29.335799    228.44042 
    5250    131.72219   -559.50154    143582.01   -39651.727    2649.9194   -42301.646    29.413846    222.86113 
    5300    130.12934   -771.37458    143617.35   -39693.562    2617.8753   -42311.437      29.5714    220.16619 
    5350    132.69486   -816.16872    143499.79   -39689.521    2669.4871   -42359.008     29.76538    224.50679 
    5400    132.41739   -796.34707    143515.98   -39677.767    2663.9052   -42341.673    30.041149    224.03735 
    5450    132.05074   -693.39335    143462.06   -39670.134     2656.529   -42326.663    30.277006      223.417 
    5500     131.1962   -766.14289    143456.69   -39722.342    2639.3379    -42361.68    30.475976    221.97121 
    5550    129.43815    -653.8025    143415.56   -39706.752    2603.9703   -42310.722    30.498691    218.99676 
    5600    130.02145   -902.94565    143323.99   -39716.545    2615.7049    -42332.25    30.659656    219.98365 
    5650    132.87241   -822.57774    143334.39   -39682.377    2673.0591   -42355.436    30.846354     224.8072 
    5700    131.33697   -668.70172    143399.27   -39685.848    2642.1699   -42328.018    30.969563    222.20939 
    5750    132.66427     -774.189    143291.17   -39668.853    2668.8717   -42337.725    31.095192    224.45504 
    5800    134.37217   -652.47258    143297.85   -39678.452    2703.2304   -42381.682    31.207295    227.34465 
    5850    134.07691   -744.35556    143387.21   -39625.728    2697.2906   -42323.019    31.413679     226.8451 
    5900    133.94082   -758.49336     143368.3   -39570.703    2694.5527   -42265.256    31.750097    226.61484 
    5950    134.21645    -597.2314     143334.8   -39569.583    2700.0977    -42269.68    31.914136    227.08118 
    6000    135.90318   -665.66139    143238.71   -39605.474    2734.0306   -42339.504    32.209885    229.93497 
    6050     133.4056   -657.98218    143183.96   -39660.289    2683.7853   -42344.074    32.521326    225.70929 
    6100     134.9658   -801.22568    143137.42    -39662.12    2715.1727   -42377.292    32.711193      228.349 
    6150    133.56386   -644.22365    143123.19   -39676.164    2686.9691   -42363.133    32.892065    225.97705 
    6200    131.32056    -753.3531    143219.56    -39695.03    2641.8396   -42336.869    33.041867    222.18161 
    6250    132.09406   -605.36964    143212.97   -39666.441    2657.4005   -42323.842     33.06136     223.4903 
    6300    134.23619     -642.312       143194   -39674.558    2700.4949   -42375.053    33.255423    227.11458 
    6350    131.11691   -776.83322    143243.53   -39693.776    2637.7428   -42331.519    33.441088    221.83706 
    6400     133.5176    -775.1192     143270.7   -39671.439    2686.0387   -42357.478    33.508321     225.8988 
    6450    133.61394   -759.14311    143221.62   -39632.398    2687.9768   -42320.375    33.598631     226.0618 
    6500    135.13375   -449.20636    143181.87   -39636.758    2718.5516    -42355.31    33.762936    228.63317 
    6550     134.4052   -485.55299    143249.58   -39619.769     2703.895   -42323.664    33.975384    227.40053 
    6600    135.11199   -596.18173    143269.03   -39632.544    2718.1138   -42350.658    34.149414    228.59635 
    6650    134.19114   -662.23231    143281.23    -39650.08    2699.5885   -42349.669    34.231123    227.03836 
    6700    134.44484   -931.00945    143260.17   -39663.358    2704.6923   -42368.051    34.235573    227.46759 
    6750    135.80949   -738.91467    143253.74   -39663.635    2732.1457    -42395.78      34.4769    229.77645 
    6800    133.75258   -576.71715    143267.91   -39654.426    2690.7657   -42345.191    34.711181    226.29635 
    6850    133.63447    -623.9698    143222.72   -39672.692    2688.3898   -42361.082    34.970792    226.09653 
    6900    132.70279    -547.5793    143230.32   -39690.166    2669.6467   -42359.813    35.088769    224.52022 
    6950    134.69508    -536.5757     143311.4   -39625.976    2709.7266   -42335.703    35.177332    227.89098 
    7000     133.8533   -528.07866    143291.11   -39630.057    2692.7921   -42322.849     35.25161    226.46677 
    7050    134.49074   -698.69942    143278.58   -39590.344    2705.6157    -42295.96    35.404121    227.54525 
    7100    134.06979   -717.58642    143255.28   -39655.838    2697.1472   -42352.986    35.415807    226.83304 
    7150    135.73292   -776.57009    143192.04   -39632.055    2730.6052    -42362.66    35.645686    229.64689 
    7200    132.04193   -723.35999    143138.04   -39742.594    2656.3518   -42398.946    35.741714     223.4021 
    7250    130.91062   -554.81389    143192.43   -39748.088    2633.5927   -42381.681    35.877671    221.48804 
    7300    130.64337   -788.99901    143207.64   -39798.976    2628.2163   -42427.193     35.95558    221.03587 
    7350    129.69644   -715.55117    143147.13   -39814.416    2609.1664   -42423.582    36.255088    219.43375 
    7400    129.66735   -615.04494    143079.27   -39776.997    2608.5812   -42385.579    36.459827    219.38454 
    7450    134.34191   -627.42125    143176.35   -39706.457    2702.6216   -42409.079    36.669379    227.29344 
    7500    132.49164   -670.93766    143223.37   -39665.731    2665.3989    -42331.13    36.895115    224.16297 
    7550    134.35137   -708.66369    143261.84   -39669.346     2702.812   -42372.158    37.092704    227.30945 
    7600    133.70003   -523.39688    143271.48   -39667.489    2689.7087   -42357.198    37.321802    226.20745 
    7650    130.59451   -707.84765     143216.2   -39724.718    2627.2334   -42351.951    37.499769    220.95321 
    7700    131.69993   -720.31405    143220.64   -39732.571    2649.4717   -42382.043    37.768058    222.82348 
    7750    130.50407   -670.54239    143169.59   -39761.792    2625.4139   -42387.206    37.921422    220.80019 
    7800    131.66093   -674.16484    143103.24   -39773.697     2648.687   -42422.384    38.197628    222.75749 
    7850    133.64698   -747.19243    143098.53    -39740.16    2688.6413   -42428.801    38.455011    226.11768 
    7900    133.18006   -611.99629    143208.31   -39783.133    2679.2481   -42462.381    38.533086     225.3277 
    7950    129.84177   -824.75907    143246.62    -39785.87    2612.0901    -42397.96    38.696709    219.67964 
    8000    131.95465    -672.0491    143209.41    -39790.68    2654.5959   -42445.276    38.824071    223.25442 
    8050    130.22993   -688.78615    143230.23   -39817.704    2619.8989   -42437.603    38.829892    220.33637 
    8100    130.71579   -587.43916    143261.66     -39819.9    2629.6731   -42449.574    39.069871     221.1584 
    8150    130.55631     -784.565    143199.47   -39837.495    2626.4648    -42463.96     39.13849    220.88857 
    8200    130.78987   -699.35647    143131.56   -39820.052    2631.1635   -42451.216    39.358324    221.28374 
    8250      129.483   -620.59293    143021.04   -39830.098    2604.8726   -42434.971    39.573281    219.07265 
    8300    130.99494   -669.13056    142920.28   -39796.522     2635.289   -42431.811    39.648089     221.6307 
    8350     131.5154   -493.06669    142942.68   -39725.472    2645.7594   -42371.232     39.78356    222.51126 
    8400    133.77885    -560.2011    142983.23   -39709.014    2691.2942   -42400.308    39.868408    226.34079 
    8450    131.68982    -474.3367    143021.09   -39739.447    2649.2683   -42388.715    39.880457    222.80637 
    8500    131.97846   -608.50246     143027.5   -39680.598     2655.075   -42335.673    39.996906    223.29472 
    8550    130.91892   -689.42907    143035.86   -39700.537    2633.7598   -42334.297    40.153303    221.50209 
    8600    132.91319   -573.06119    143056.56   -39640.922    2673.8794   -42314.801    40.420542    224.87619 
    8650    133.19574    -630.3213    143125.19    -39637.81    2679.5635   -42317.374    40.520532    225.35423 
    8700    134.18804   -749.16744     143104.2   -39662.875    2699.5262   -42362.401    40.573073    227.03312 
    8750    132.50559   -812.36105    143046.15   -39732.918    2665.6796   -42398.597    40.679984    224.18658 
    8800    131.59465   -906.04329     143034.3   -39741.646    2647.3538   -42388.999    40.815043    222.64536 
    8850    133.24626   -800.69624    143006.79   -39682.537    2680.5799   -42363.117    41.037855    225.43971 
    8900    131.58198   -742.39613    143041.07   -39740.467    2647.0987   -42387.566    41.231436    222.62391 
    8950    130.20589    -770.4539    143017.24   -39697.168    2619.4152   -42316.583    41.407369    220.29569 
    9000    132.19825   -787.28171    142984.46   -39742.311    2659.4966   -42401.808    41.594678    223.66658 
    9050    130.87863   -719.45218    142883.15   -39748.188    2632.9492   -42381.137    41.863901    221.43392 
    9100    131.77414   -576.09589    142882.58   -39720.797    2650.9646   -42371.762    41.853163    222.94903 
    9150    132.03431   -674.56386    142868.35    -39759.03    2656.1985   -42415.229    41.896056    223.38921 
    9200    131.59896   -472.40316    142936.35   -39719.936    2647.4404   -42367.376    41.893604    222.65264 
    9250    130.89922   -685.83318    143036.43   -39755.771    2633.3634   -42389.134    42.082072    221.46875 
    9300    130.92374   -573.10653    143099.78   -39754.334    2633.8567   -42388.191     42.27362    221.51024 
    9350    132.39377   -546.49324    143129.65   -39731.384      2663.43   -42394.814    42.464538    223.99739 
    9400    131.79399   -870.88831    143112.03   -39680.637    2651.3639   -42332.001    42.506498    222.98261 
    9450    133.77763    -637.3832     143077.3   -39650.145    2691.2698   -42341.415    42.629927    226.33874 
    9500    131.75959    -620.3419    143015.76   -39652.249    2650.6719   -42302.921    42.863932    222.92441 
    9550     132.6833   -668.32507    142997.95   -39608.755    2669.2546   -42278.009    43.057893    224.48724 
    9600    133.16742   -821.06232     142938.5   -39625.225    2678.9939   -42304.219    43.248656    225.30633 
    9650    131.53697   -667.17206    142813.43   -39639.886    2646.1932   -42286.079     43.53443    222.54775 
    9700    133.70493   -596.48998    142859.27   -39691.756    2689.8072   -42381.563    43.788181    226.21574 
    9750    132.05155   -568.98317    142840.01   -39675.135    2656.5454    -42331.68    43.920052    223.41839 
    9800    133.52506   -747.72705    142837.14   -39665.537    2686.1886   -42351.726    44.215359    225.91141 
    9850    131.45615   -686.15979    142865.67   -39634.544    2644.5673   -42279.111    44.450613    222.41101 
    9900    132.41734    -544.2109    142862.77    -39648.19    2663.9041   -42312.094    44.656855    224.03725 
    9950    134.68693   -542.61634    142927.12   -39607.098    2709.5625   -42316.661    44.858866    227.87718 
   10000    134.88312   -532.64417    142985.92   -39634.037    2713.5093   -42347.546    44.903678    228.20911 
   10050    130.89824   -778.22425    142964.01   -39636.377    2633.3435   -42269.721     45.13948    221.46708 
   10100    131.06471   -749.96014    142908.15   -39656.504    2636.6927   -42293.197    45.129692    221.74875 
   10150    133.51122   -724.31343    142862.44   -39651.197    2685.9102   -42337.107    45.122963      225.888 
   10200    132.33224   -501.94551    142825.38   -39672.658    2662.1921    -42334.85    45.272191    223.89328 
   10250    132.26866   -690.75987    142871.72   -39655.919    2660.9131   -42316.833     45.69199    223.78572 
   10300    136.24863   -590.73929    142890.66   -39640.982    2740.9801   -42381.963    45.917695    230.51944 
   10350    134.02728   -330.72399       142997   -39639.657    2696.2921   -42335.949    45.915391    226.76112 
   10400    134.80487    -632.3626    143127.06   -39635.639    2711.9353   -42347.574    46.167591    228.07673 
   10450    131.35366    -664.5802    143133.82   -39665.091    2642.5055   -42307.597    46.492124    222.23761 
   10500    131.81875   -588.97233    143192.78   -39691.616    2651.8619   -42343.478    46.646061     223.0245 
   10550    133.78989   -721.88901    143204.15   -39664.856    2691.5164   -42356.373    46.921068    226.35948 
   10600    131.91955   -611.19482    143175.96   -39661.064    2653.8898   -42314.954    47.260974    223.19505 
   10650    135.67165   -548.32274    143139.98   -39677.441    2729.3728   -42406.814    47.528184    229.54324 
   10700    134.56552   -675.82284    143145.59   -39649.728      2707.12   -42356.848    47.613607    227.67177 
   10750    135.61156   -482.59641    143126.86    -39638.07    2728.1638   -42366.234    47.910264    229.44157 
   10800    133.94879   -387.17785    143141.04   -39643.476    2694.7131   -42338.189    48.044436    226.62833 
   10850    132.03238   -604.05668    143148.55    -39657.28    2656.1596   -42313.439    48.228532    223.38594 
   10900    135.76038    -607.1653    143180.56   -39686.275    2731.1577   -42417.433    48.363925    229.69336 
   10950    134.09318    -684.8687    143200.37   -39700.856    2697.6178   -42398.474    48.466954    226.87262 
   11000    132.08307   -597.99085    143244.83   -39655.113    2657.1794   -42312.293    48.589805     223.4717 
   11050    131.96694   -776.23784    143245.62   -39693.591    2654.8432   -42348.434    48.573455    223.27522 
   11100    134.02881   -692.90004     143242.8   -39713.153    2696.3229   -42409.476    48.669294    226.76372 
   11150    133.01097   -713.91906    143241.95   -39741.165    2675.8465   -42417.011    48.914479    225.04163 
   11200    132.59014   -704.11852    143230.87   -39751.107    2667.3805   -42418.487    49.205367    224.32962 
   11250    132.88096   -855.49655    143198.53   -39735.476     2673.231   -42408.707    49.435714    224.82166 
   11300    130.78093   -790.60794    143119.61   -39773.924    2630.9836   -42404.908    49.771983    221.26861 
   11350    132.21259   -728.27219    143139.21   -39741.176    2659.7851   -42400.962    49.907767    223.69084 
   11400    131.56196    -491.0315    143167.49   -39731.709     2646.696   -42378.405    50.025769    222.59004 
   11450    129.58964   -603.23154    143175.84   -39811.832    2607.0178    -42418.85    50.224564    219.25306 
   11500    131.21178   -508.26225    143188.72   -39800.652    2639.6513   -42440.303    50.498543    221.99757 
   11550    129.92002   -662.96298    143171.48   -39788.943    2613.6643   -42402.607    50.692184    219.81203 
   11600    131.35325    -650.0993    143148.62   -39778.937    2642.4973   -42421.434    50.844749    222.23692 
   11650    130.53748   -599.26602    143088.05   -39745.976    2626.0861   -42372.063    51.143553    220.85673 
   11700    129.74213   -599.09412    143144.45   -39746.626    2610.0855   -42356.712    51.441598    219.51106 
   11750    133.46772   -598.93387    143200.74   -39727.367    2685.0351   -42412.403    51.482278     225.8144 
   11800    132.38271   -705.52539    143245.89   -39756.548    2663.2074   -42419.756    51.612968    223.97867 
   11850    133.29712   -802.47358    143218.03   -39698.838     2681.603   -42380.441    51.963904    225.52576 
   11900    132.00179   -659.49758    143220.49   -39727.714    2655.5444   -42383.258    51.974391     223.3342 
   11950    132.27338   -689.90578     143283.8   -39732.264     2661.008   -42393.272    52.388531    223.79369 
   12000    131.70165   -811.50513    143296.34   -39690.653    2649.5062   -42340.159    52.497644    222.82638 
   12050    132.20226   -655.50123    143346.19   -39649.991    2659.5772   -42309.569    52.693896    223.67336 
   12100    133.96875   -981.32387    143325.22   -39664.542    2695.1146   -42359.657    52.839562    226.66209 
   12150    131.11293   -824.27334    143243.76   -39722.036    2637.6627   -42359.698    53.103898    221.83033 
   12200     130.8576   -664.01851       143176   -39719.145    2632.5261   -42351.672     53.28778    221.39834 
   12250    133.29363   -608.85768    143070.99    -39741.94    2681.5329   -42423.473    53.466699    225.51986 
   12300    137.01343   -775.20528    143046.11    -39719.27    2756.3659   -42475.636    53.300234    231.81339 
   12350    131.49101   -782.00629    143046.23   -39686.117    2645.2686   -42331.385    53.393628    222.46999 
   12400    130.70731   -536.51056    143112.02   -39717.897    2629.5026     -42347.4    53.305518    221.14405 
   12450    132.31533    -690.1573    143147.31   -39726.148    2661.8519       -42388    53.521477    223.86467 
   12500    134.69879   -602.43909    143186.82   -39687.513    2709.8012   -42397.315    53.870736    227.89725 
   12550    133.87121   -688.01522    143234.25   -39677.179    2693.1523   -42370.331    54.089836    226.49706 
   12600    131.42408   -750.34715     143267.5   -39750.808    2643.9222    -42394.73    54.199355    222.35676 
   12650    132.21471     -697.909    143298.69   -39727.004    2659.8277   -42386.832    54.660812    223.69443 
   12700    131.03094    -713.1952    143311.66   -39731.623    2636.0132   -42367.636    54.755553     221.6916 
   12750    135.44365   -729.47728    143354.63   -39712.746    2724.7859   -42437.532    55.026403    229.15748 
   12800    133.48398   -634.19319    143337.51   -39719.654    2685.3623   -42405.016    55.170512    225.84192 
   12850    130.90242   -394.79111    143433.86   -39758.652    2633.4278    -42392.08    55.253164    221.47417 
   12900    133.25566   -634.36861    143493.91    -39704.94    2680.7691   -42385.709    55.392121    225.45562 
   12950    131.99248   -690.63599    143485.21    -39738.55    2655.3569   -42393.907    55.299887    223.31843 
   13000    131.84752   -718.42075    143448.39   -39751.526    2652.4408   -42403.967    55.135419    223.07318 
   13050    131.37961   -549.76876    143486.21   -39780.042    2643.0275   -42423.069    55.326578    222.28151 
   13100    132.35888   -564.82653    143566.79   -39736.774    2662.7281   -42399.503    55.492843    223.93836 
   13150    131.61907   -671.12754    143471.24   -39724.907     2647.845   -42372.752    55.590134    222.68667 
   13200    133.67112   -779.90071    143371.25    -39703.26    2689.1269   -42392.387     55.94232    226.15853 
   13250     134.2496   -667.67909    143220.55   -39699.733    2700.7646   -42400.497    56.088731    227.13726 
   13300    131.88465   -803.18167    143214.76   -39735.256    2653.1877   -42388.444    56.267291    223.13599 
   13350    135.17957   -438.51822    143227.53   -39683.982    2719.4733   -42403.455    56.330906    228.71069 
   13400    133.33238   -642.08778    143359.06   -39686.269    2682.3124   -42368.581    56.300096    225.58542 
   13450    130.86687   -514.97018    143381.91   -39695.809    2632.7125   -42328.521    56.451335    221.41401 
   13500    131.23542   -557.44128    143455.53   -39694.516    2640.1269   -42334.643    56.638119    222.03757 
   13550    134.05068   -771.13786    143474.82   -39678.293    2696.7628   -42375.056    56.884624    226.80071 
   13600    133.03324   -703.23328    143428.36   -39641.873    2676.2945   -42318.168    57.115762     225.0793 
   13650    136.11955   -687.80517    143386.75   -39607.582    2738.3832   -42345.965    57.305505    230.30103 
   13700    133.86342   -696.69201    143395.15   -39644.449    2692.9957   -42337.445     57.51492    226.48389 
   13750    132.60751    -531.1105    143433.25   -39638.345    2667.7298   -42306.075    57.591903      224.359 
   13800    133.07434    -632.0559    143522.31   -39623.543    2677.1213   -42300.664     57.71522    225.14884 
   13850    132.61113   -716.48423    143519.99   -39648.112    2667.8028   -42315.915    57.938302    224.36514 
   13900    132.42979   -573.29168     143551.1   -39642.065    2664.1545    -42306.22    58.121865    224.05832 
   13950    134.41593   -619.06001    143568.65   -39573.017    2704.1108   -42277.128    58.122247    227.41869 
   14000    130.30657   -879.50959    143573.14   -39598.873    2621.4407   -42220.314    58.339963    220.46604 
   14050    131.53433   -645.34397     143511.2   -39611.073    2646.1402   -42257.214    58.579493    222.54329 
   14100    134.13795   -647.91582    143454.91   -39578.987    2698.5184   -42277.506     58.71572    226.94836 
   14150    132.19818   -541.73084    143405.19   -39568.049    2659.4952   -42227.544    58.703729    223.66647 
   14200    132.48941   -639.71281    143381.17   -39604.895     2665.354   -42270.249    58.844588     224.1592 
   14250    132.70092   -683.39466    143332.94   -39580.632    2669.6091   -42250.241    58.982236    224.51705 
   14300    133.41323   -625.78143    143304.55   -39612.882     2683.939   -42296.821    59.143643    225.72222 
   14350    130.56213   -592.00629       143135   -39597.419     2626.582   -42224.001    59.322258    220.89843 
   14400    133.29268   -639.42148    143087.97   -39604.447    2681.5138   -42285.961     59.51425    225.51825 
   14450      134.576    -454.1168    143133.05   -39592.723    2707.3308   -42300.054    59.832675    227.68949 
   14500    130.84071   -656.68832    143126.44   -39571.795    2632.1864   -42203.981    60.023371    221.36976 
   14550    132.50118   -478.99773    143168.21   -39559.362    2665.5908   -42224.952    60.049789    224.17911 
   14600    132.94036   -572.17317    143270.39    -39590.93    2674.4259   -42265.355    60.160665    224.92215 
   14650    133.05611   -515.97728    143299.44   -39510.821    2676.7546   -42187.575    60.225616      225.118 
   14700    137.00148   -552.94601    143319.99   -39462.458    2756.1255   -42218.583    60.278106    231.79318 
   14750     137.8633   -396.17986    143409.06   -39475.847    2773.4632    -42249.31    60.388947     233.2513 
   14800    134.87696   -650.38156    143437.19   -39502.585    2713.3855    -42215.97    60.412623     228.1987 
   14850    132.61863   -657.29477    143379.15   -39506.681    2667.9537   -42174.635    60.537137    224.37783 
   14900    135.63807     -782.388    143336.13   -39573.523     2728.697    -42302.22     60.65779    229.48641 
   14950       131.28    -768.6769    143313.39   -39584.188    2641.0237   -42225.212    60.826409    222.11299 
   15000    133.23825   -798.77914    143247.03   -39619.666    2680.4188   -42300.085    61.023472    225.42616 
   15050    133.68397   -614.97298    143263.64   -39608.337    2689.3855   -42297.723    61.254016    226.18027 
   15100    129.81461   -598.90498    143255.98   -39611.256    2611.5437     -42222.8    61.439811    219.63369 
   15150    130.95423   -813.79517    143272.26   -39670.242      2634.47   -42304.712    61.414208    221.56182 
   15200    130.86955   -1143.8915     143186.2   -39658.044    2632.7664    -42290.81    61.378899    221.41854 
   15250     132.6392   -755.45137    143103.67   -39656.027    2668.3675   -42324.394    61.680403    224.41263 
   15300    132.76839   -618.66592    143113.08   -39592.163    2670.9663    -42263.13    61.858426     224.6312 
   15350    132.35063   -708.75049    143142.63   -39579.889     2662.562   -42242.451     62.15064    223.92439 
   15400    133.36094   -709.11391    143079.03   -39583.461     2682.887   -42266.348    62.366378    225.63374 
   15450    132.83553   -608.24125    143087.77    -39567.91    2672.3171   -42240.227    62.497514     224.7448 
   15500    133.79007   -585.69178    143127.36   -39569.964    2691.5201   -42261.484    62.705751    226.35979 
   15550    134.90457   -744.22129    143148.95   -39548.715     2713.941   -42262.656    62.943884    228.24542 
   15600    135.58518   -713.53997    143175.05    -39543.14     2727.633   -42270.773    62.922406    229.39693 
   15650    132.00073    -752.7407    143177.47   -39587.821    2655.5229   -42243.344    63.295811    223.33239 
   15700    134.02171   -536.44122    143167.66    -39600.79      2696.18    -42296.97    63.606285     226.7517 
   15750    130.04251    -869.2831    143157.26   -39623.278    2616.1286   -42239.406    63.979428    220.01929 
   15800    130.43191   -667.21946    143087.35   -39687.711    2623.9622   -42311.673    64.254929     220.6781 
   15850    131.39054   -559.87071    143048.31   -39710.193    2643.2475   -42353.441    64.437073    222.30002 
   15900    133.73441   -753.09623       142999   -39684.414    2690.4002   -42374.814    64.673324    226.26561 
   15950     131.4138   -419.36712    143012.25   -39657.303    2643.7154   -42301.019    64.772063    222.33937 
   16000    133.49353   -573.10972    143102.84   -39633.798    2685.5544   -42319.352    65.038294    225.85807 
   16050    133.17726   -584.20414    143080.83   -39624.134    2679.1919   -42303.325    65.217261    225.32297 
   16100    132.89361    -693.8721    143091.04   -39595.423    2673.4854   -42268.908    65.092043    224.84306 
   16150    131.99378   -858.96013     143028.8   -39615.377    2655.3832    -42270.76    65.241069    223.32064 
   16200    131.50157   -715.48263    142921.64   -39591.462    2645.4812   -42236.943    65.543786    222.48787 
   16250     132.4657   -563.57951    143030.94   -39545.187    2664.8769   -42210.064    65.492069    224.11907 
   16300    133.98628   -644.06621    143187.96   -39553.505    2695.4673   -42248.973    65.745824    226.69176 
   16350    132.25068   -586.13744    143288.41    -39545.63    2660.5514   -42206.182    65.940083    223.75529 
   16400    131.19998   -796.07668    143311.88   -39562.446     2639.414    -42201.86    66.282927    221.97761 
   16450    135.97966   -814.57858    143285.23   -39557.162     2735.569   -42292.731    66.281914    230.06436 
   16500    133.03961   -894.22624    143256.87   -39493.855    2676.4226   -42170.278    66.176847    225.09008 
   16550    134.22068   -656.47172    143221.62   -39503.439    2700.1828   -42203.622    66.548531    227.08834 
   16600     133.3013    -704.5342     143184.2    -39503.09    2681.6873   -42184.777    66.546062    225.53284 
   16650    133.83975   -730.99977    143170.33   -39466.672    2692.5194   -42159.191    66.681494    226.44384 
   16700    132.77955   -768.81976    143217.03   -39452.586    2671.1909   -42123.777     66.63511    224.65009 
   16750    134.80023   -796.82611    143221.01   -39495.982    2711.8418   -42207.824    66.868421    228.06887 
   16800    134.07606   -720.86337    143252.17   -39526.941    2697.2734   -42224.214    67.030234    226.84365 
   16850    133.74027   -745.29396    143309.78   -39496.922    2690.5181    -42187.44    67.374982    226.27552 
   16900    132.71378   -769.27737    143274.86   -39598.494    2669.8678   -42268.362    67.505677    224.53881 
   16950    132.01917   -654.90756    143236.98   -39616.732    2655.8939   -42272.626    67.651446    223.36359 
   17000    135.65467   -554.54654    143287.69   -39612.378    2729.0311   -42341.409    67.982587    229.51451 
   17050    132.76721    -781.6176    143243.49   -39676.737    2670.9427    -42347.68    68.134768    224.62921 
   17100    130.20134   -731.69562    143223.09   -39687.246    2619.3237    -42306.57    68.430898      220.288 
   17150    130.23413   -665.91094    143205.89   -39711.946    2619.9835   -42331.929    68.711021    220.34348 
   17200    130.42133   -658.49753    143199.73   -39697.282    2623.7493   -42321.031    68.918039     220.6602 
   17250    134.31561   -657.05412    143158.06   -39660.676    2702.0926   -42362.768    69.456217    227.24895 
   17300    134.17273   -577.80721    143134.01   -39651.995    2699.2181   -42351.213    69.949437     227.0072 
   17350    131.51606   -446.81792    143206.31   -39659.249    2645.7726   -42305.021    70.142272    222.51238 
   17400    131.49997   -710.60877    143219.47   -39694.647     2645.449   -42340.096    70.341915    222.48516 
   17450    131.85131   -717.36787    143160.14   -39693.667     2652.517   -42346.184    70.607132    223.07959 
   17500    132.63401   -665.91097    143065.08   -39669.835    2668.2629   -42338.098    70.829007    224.40384 
   17550    132.62284   -826.50491    142986.89   -39633.154    2668.0382   -42301.192    71.171433    224.38494 
   17600     133.8574   -620.07442    142977.82   -39650.343    2692.8745   -42343.218    71.337029     226.4737 
   17650    133.66534    -595.3602    142967.25    -39667.91    2689.0108   -42356.921    71.292095    226.14876 
   17700    131.78352   -595.46597    143016.93   -39613.425    2651.1533   -42264.578    71.424316     222.9649 
   17750    133.44485   -521.16044    143063.02   -39634.787    2684.5751   -42319.362    71.446938    225.77571 
   17800    133.96399   -622.01898    143133.33   -39635.533    2695.0187   -42330.552    71.586589    226.65403 
   17850    129.89163   -628.96224    143198.17   -39643.823    2613.0931   -42256.916    71.718922      219.764 
   17900    132.56326   -782.92526    143153.63   -39639.393    2666.8397   -42306.233    71.843727    224.28415 
   17950    131.57309    -695.0717    143051.19   -39652.654    2646.9199   -42299.574    72.216022    222.60887 
   18000    132.68797   -729.89552    143053.37   -39615.347    2669.3485   -42284.696    72.460847    224.49514 
   18050    134.23605   -781.91212    142990.39   -39608.866     2700.492   -42309.358    72.894348    227.11434 
   18100    133.47219   -739.72917    142934.71   -39577.953     2685.125   -42263.078    73.287396    225.82196 
   18150    134.67692   -699.90909    142880.19   -39571.858    2709.3612   -42281.219    73.590879    227.86025 
   18200    135.18302   -576.59437    142881.06   -39586.733    2719.5426   -42306.276    73.931973    228.71652 
   18250    134.49375   -752.32822     142949.8   -39563.598    2705.6764   -42269.274     74.19094    227.55035 
   18300    134.27359   -868.00593    142938.53   -39503.057    2701.2472   -42204.304    74.747858    227.17785 
   18350    133.52707    -821.0519    142799.97   -39510.669    2686.2291   -42196.899    75.325789    225.91482 
   18400    134.83934   -768.58307    142834.77   -39538.494    2712.6286   -42251.122    75.817868    228.13504 
   18450    133.84614   -599.00467    142888.86   -39508.711    2692.6479   -42201.359    76.176528    226.45464 
   18500    135.04617   -605.31989    142894.23   -39447.701    2716.7895   -42164.491    76.398276    228.48498 
   18550    132.22892   -895.14898    142880.27    -39470.77    2660.1135   -42130.884    76.663269    223.71847 
   18600    132.72823   -655.27163    142850.41   -39548.388    2670.1585   -42218.547    76.809024    224.56326 
   18650    133.86337   -959.01782    142818.48   -39551.043    2692.9947   -42244.038    77.087039    226.48381 
   18700    133.59115   -784.60268    142750.44   -39586.997    2687.5181   -42274.515    77.186359    226.02322 
   18750    135.64206   -425.74588    142740.57   -39518.505    2728.7774   -42247.283    77.604609    229.49318 
   18800    135.99951   -602.36094    142760.74   -39502.923    2735.9683   -42238.891    77.899561    230.09794 
   18850    134.84998   -408.76857    142825.64   -39513.396    2712.8428   -42226.239    78.203675    228.15306 
   18900    134.48392    -564.6999    142898.77    -39534.49    2705.4784   -42239.968    78.271475     227.5337 
   18950    136.67464   -772.25613    142930.94    -39505.42    2749.5503    -42254.97     78.62654    231.24019 
   19000    132.19142   -752.56256    142844.68   -39538.179    2659.3591   -42197.538    79.029837    223.65502 
   19050    132.79041   -408.87649    142893.18   -39585.161    2671.4093    -42256.57    79.248389    224.66846 
   19100    131.86265   -529.34396    143005.51    -39560.97    2652.7451   -42213.716    79.341968    223.09877 
   19150    131.62532   -709.01645       143015   -39556.747    2647.9707   -42204.718    79.668804    222.69724 
   19200    134.66974   -569.75183    143070.63   -39585.317    2709.2168   -42294.534    79.850266    227.84811 
   19250    132.30634   -739.48528    143127.06   -39628.367     2661.671   -42290.038    80.185523    223.84945 
   19300    128.75154    -537.3894     143147.3   -39646.073    2590.1575    -42236.23    80.698669    217.83509 
   19350    128.82107   -583.30687    143165.01   -39687.386    2591.5563   -42278.943    80.894439    217.95273 
   19400    130.41658   -579.25135    143115.64   -39658.156    2623.6538    -42281.81    81.195875    220.65216 
   19450    130.81577   -572.44213    143132.25   -39658.306    2631.6846   -42289.991    81.251891    221.32757 
   19500    132.34478   -734.68903    143091.54   -39639.633    2662.4443   -42302.077    81.486552    223.91449 
   19550    133.33711   -655.46599     143126.5   -39651.896    2682.4076   -42334.303    81.583844    225.59342 
   19600     131.1452   -726.38114     143156.5   -39642.113    2638.3119   -42280.425    81.632405    221.88493 
   19650    132.60925   -681.99049    143108.56   -39596.405    2667.7648    -42264.17     81.77141    224.36195 
   19700    135.72149   -788.02235    143102.54   -39651.289    2730.3754   -42381.664    82.107294    229.62757 
   19750    134.09087   -508.48001    143123.23   -39637.358    2697.5713   -42334.929    82.198172    226.86871 
   19800    133.80765   -652.95639    143188.14   -39604.772    2691.8736   -42296.645    82.421781    226.38952 
   19850    133.34518   -471.42718    143219.95   -39604.021    2682.5699   -42286.591    82.509718    225.60707 
   19900    133.28254   -828.51694    143156.38   -39586.309    2681.3099   -42267.619    82.714676     225.5011 
   19950    136.29153   -693.35404    143102.78   -39510.814    2741.8432   -42252.658    82.808476    230.59202 
   20000    135.59635   -692.75172    143005.69   -39533.543    2727.8578   -42261.401    83.075675    229.41583 
   20050    136.72664   -760.16768    142991.82   -39565.907    2750.5963   -42316.503    83.170177    231.32817 
   20100    132.93559    -622.8048    142935.87    -39569.96      2674.33    -42244.29    83.469881    224.91408 
   20150    135.27448   -601.39367    142883.17   -39519.906    2721.3826   -42241.288    83.717182    228.87126 
   20200     134.1405   -507.92553    142941.55   -39466.394    2698.5697   -42164.964    83.988895    226.95267 
   20250    136.33519   -469.35126    143071.08   -39553.633    2742.7214   -42296.355    83.914403    230.66588 
   20300    133.19914   -540.63037    143117.69   -39569.023    2679.6319   -42248.655    83.963346    225.35998 
   20350    134.41353   -573.91735    143141.87   -39532.998    2704.0624    -42237.06     84.05286    227.41461 
   20400    133.84296   -855.68285    143153.51   -39553.389    2692.5841   -42245.973    84.371578    226.44927 
   20450    132.90237   -641.36966    143095.55   -39590.687    2673.6617   -42264.349     84.51506    224.85788 
   20500    131.71721   -535.95875    143119.94   -39584.648    2649.8193   -42234.468    84.479987    222.85271 
   20550    133.71898   -718.75866    143139.87    -39541.57    2690.0898    -42231.66    84.688761     226.2395 
   20600    133.81849   -633.47719    143158.18   -39596.331    2692.0916   -42288.423    85.010239    226.40786 
   20650    134.24906   -690.43387    143189.78   -39568.846    2700.7538     -42269.6     85.22824    227.13636 
   20700    134.46517   -627.50231    143212.92   -39524.692    2705.1014   -42229.793    85.354809      227.502 
   20750    136.29126   -735.15797     143163.7   -39593.278    2741.8376   -42335.115    85.472767    230.59155 
   20800    134.34675   -651.21339    143138.19   -39590.007    2702.7191   -42292.726    85.700513    227.30164 
   20850    135.76624   -674.95722    143168.28   -39602.393    2731.2756   -42333.669    85.950472    229.70327 
   20900    135.05562   -635.47765    143129.12   -39591.003    2716.9797   -42307.982    86.239046    228.50097 
   20950    135.30611   -647.76622    143131.19   -39573.122    2722.0189   -42295.141    86.092357    228.92477 
   21000    134.10989   -665.68475     143126.5   -39596.465     2697.954   -42294.419     86.43839    226.90089 
   21050    130.66584   -769.82044     143046.4   -39663.643    2628.6684   -42292.312    86.672146     221.0739 
   21100    128.83219   -791.58044    142955.06   -39728.208    2591.7799   -42319.988    86.655924    217.97153 
   21150    131.79045   -692.46266    142922.05   -39679.131    2651.2926   -42330.424    86.678983    222.97662 
   21200    135.75912   -786.45843    142917.52   -39631.237    2731.1323   -42362.369    86.722975    229.69123 
   21250    135.16562   -716.58505     142886.9    -39613.11    2719.1925   -42332.303    86.837359    228.68707 
   21300    134.61262    -599.1379    142933.01   -39625.298    2708.0676   -42333.365    87.007106    227.75145 
   21350    131.79074   -635.56821    143019.78   -39664.971    2651.2985    -42316.27    87.258963    222.97712 
   21400    134.31707   -571.44292    143011.68    -39628.75    2702.1219   -42330.872     87.29409    227.25142 
   21450    134.09411   -702.55387    143146.26   -39597.496    2697.6365   -42295.132    87.758505    226.87419 
   21500    132.70334   -566.19956    143234.57   -39611.293    2669.6578   -42280.951    88.165918    224.52115 
   21550    131.25994   -812.62332    143311.83   -39625.939    2640.6201   -42266.559    88.421451    222.07905 
   21600    133.36429   -878.91654    143312.84   -39629.433    2682.9543   -42312.387    88.627967     225.6394 
   21650    133.58671   -919.05852    143267.79   -39657.377    2687.4289   -42344.806     88.76384    226.01572 
   21700    131.53031   -621.73562    143266.81   -39620.828    2646.0594   -42266.887    88.925105     222.5365 
   21750    132.73294   -735.87495    143271.14   -39598.379    2670.2531   -42268.632    89.109555    224.57122 
   21800    133.16599   -773.63133    143268.46   -39560.619    2678.9651   -42239.584    89.106752     225.3039 
   21850    134.75245   -537.49639    143308.81   -39580.454    2710.8807   -42291.335    89.179923    227.98804 
   21900    134.22672   -755.19257    143383.75   -39559.024    2700.3043   -42259.328     89.18757    227.09855 
   21950    135.36414   -794.22097    143484.82   -39531.069    2723.1864   -42254.255    89.309779    229.02297 
   22000    136.46408   -737.24369    143444.98   -39490.596    2745.3144    -42235.91     89.49599    230.88395 
   22050    133.22047    -898.4342    143454.21   -39575.302    2680.0611   -42255.363    89.601748    225.39608 
   22100    133.33671   -711.91286    143452.08   -39530.148    2682.3995   -42212.548    89.893529    225.59274 
   22150    135.29001   -718.39767    143398.66   -39541.673     2721.695   -42263.368    89.834835    228.89754 
   22200     133.4092   -687.62786    143464.01   -39585.723    2683.8579   -42269.581    90.000654    225.71539 
   22250    130.90558   -639.84305     143472.1   -39616.095    2633.4913   -42249.586    90.128055     221.4795 
   22300    136.86359   -834.70627    143432.71   -39636.024    2753.3515   -42389.376    90.195217    231.55988 
   22350    133.73694   -493.56858    143426.42   -39615.304    2690.4512   -42305.756    90.350388     226.2699 
   22400    131.88358   -550.19269    143493.08   -39657.335    2653.1663   -42310.501    90.546377     223.1342 
   22450    132.10769   -864.22065    143565.71   -39631.169    2657.6747   -42288.844    90.662373    223.51335 
   22500    132.30389   -709.21304    143532.73   -39651.511    2661.6217   -42313.133    90.947533    223.84531 
   22550    131.29231   -738.09047    143546.59   -39670.185    2641.2713   -42311.456    91.341928    222.13382 
   22600    130.47182   -468.07686    143548.44   -39627.499    2624.7651   -42252.264    91.442023    220.74563 
   22650    131.08561   -761.73783    143570.39   -39648.091     2637.113   -42285.204    91.677042     221.7841 
   22700    132.82154   -755.62008    143478.85   -39652.573    2672.0355   -42324.609    92.052277    224.72112 
   22750    134.61649   -805.66726     143336.6   -39631.725    2708.1454    -42339.87     92.13553      227.758 
   22800    132.31915   -902.28064    143285.19   -39639.415    2661.9287   -42301.344    92.324756    223.87112 
   22850    131.86672     -762.702    143242.06   -39704.099     2652.827   -42356.926    92.412174    223.10566 
   22900    132.79307   -824.88886    143316.89   -39714.625    2671.4628   -42386.088    92.559822    224.67296 
   22950    130.38387   -839.96392    143216.42   -39718.697    2622.9958   -42341.693    93.022538    220.59682 
   23000    129.53196   -742.82834    143245.81   -39710.141    2605.8575   -42315.999    93.117988    219.15548 
   23050    131.61697   -683.87035    143235.24   -39715.969    2647.8027   -42363.772    93.216978    222.68311 
   23100    133.11695    -758.5105    143313.74    -39678.93    2677.9786   -42356.908    93.464239    225.22094 
   23150    132.01252   -744.38348    143307.79   -39724.853    2655.7601   -42380.613    93.445447    223.35234 
   23200     133.5148   -672.71508     143232.2   -39680.018    2685.9823       -42366    93.501292    225.89406 
   23250    134.74345   -683.67279    143238.74    -39658.44    2710.6996    -42369.14    93.492789    227.97281 
   23300    135.60265   -705.69928    143240.45   -39663.706    2727.9845    -42391.69    93.603033    229.42649 
   23350    135.37964    -805.6722    143238.14   -39649.039    2723.4982   -42372.537    93.885657    229.04919 
   23400    135.61299   -814.85406    143192.77   -39669.183    2728.1925   -42397.375    94.073244    229.44398 
   23450     133.6036   -776.49299    143205.24   -39665.193    2687.7686   -42352.962    94.200955    226.04429 
   23500    132.17833   -784.56338    143194.12   -39688.408    2659.0959   -42347.504    94.064039    223.63288 
   23550    134.13087   -629.16786    143195.66   -39709.331     2698.376   -42407.707     94.05715    226.93638 
   23600    131.82288   -479.95572    143187.41   -39752.783     2651.945   -42404.728    94.162579    223.03149 
   23650    131.66643    -582.6641    143217.61   -39748.718    2648.7977   -42397.515    94.281048     222.7668 
   23700    132.68696   -705.21286    143285.49   -39740.645    2669.3282   -42409.973    94.501971    224.49343 
   23750    133.54042   -642.12822    143359.49     -39682.9    2686.4976   -42369.397    94.434036    225.93739 
   23800    131.54715   -878.77682     143325.4   -39684.934    2646.3982   -42331.332     94.47894    222.56499 
   23850    134.81373   -718.22828    143308.01   -39668.118    2712.1134   -42380.232    94.673466    228.09171 
   23900    134.20645   -567.00544    143369.52   -39703.564    2699.8966   -42403.461     94.64991    227.06426 
   23950    131.55543   -840.11128    143374.22   -39787.663    2646.5646   -42434.228    94.990475    222.57899 
   24000    129.95641    -777.6967    143282.69   -39760.616    2614.3965   -42375.013     95.26027    219.87361 
   24050    130.97502   -743.12697    143232.91   -39781.266    2634.8883   -42416.155     95.65803      221.597 
   24100    130.48169   -692.19752    143218.65   -39761.547    2624.9637   -42386.511      95.8542    220.76233 
   24150    132.57537   -775.78495    143171.92   -39756.868    2667.0832   -42423.951    96.137818    224.30462 
   24200     130.9428   -498.67716    143129.26    -39731.19      2634.24    -42365.43    96.358993    221.54248 
   24250    133.02607   -418.99148    143094.44   -39683.822    2676.1503   -42359.972    96.564458    225.06717 
   24300    132.47072   -494.74353    143156.08   -39720.133    2664.9779   -42385.111    96.809099    224.12757 
   24350    135.16746   -622.75024    143239.38    -39688.34    2719.2296   -42407.569    96.821774    228.69019 
   24400    132.82917   -548.96213    143294.95   -39657.099    2672.1892   -42329.288     97.11593    224.73404 
   24450    134.02473   -725.43399    143337.99   -39715.601    2696.2409   -42411.842    97.251581    226.75681 
   24500    130.32906   -722.86293     143364.8   -39745.572    2621.8931   -42367.465     97.51023    220.50409 
   24550    130.53955    -865.0253    143315.85   -39728.608    2626.1277   -42354.736     97.69209    220.86022 
   24600     134.7579   -709.61354     143252.7   -39710.706    2710.9903   -42421.696    97.879502    227.99726 
   24650    135.39313   -564.86537    143297.05   -39737.913    2723.7695   -42461.682    98.183836      229.072 
   24700    131.94221   -538.36302    143324.42   -39791.523    2654.3456   -42445.868    98.381029    223.23338 
   24750    131.18357   -652.35047    143398.13   -39762.252    2639.0838   -42401.335    98.362738    221.94984 
   24800    131.32848    -565.0927     143433.5   -39729.828     2641.999   -42371.827    98.184324    222.19501 
   24850    134.07765   -767.87445    143386.83   -39704.226    2697.3053   -42401.531    98.391839    226.84634 
   24900    133.87414   -554.15073    143324.11   -39670.185    2693.2112   -42363.396    98.468136    226.50202 
   24950    134.02576    -639.3495    143321.08   -39725.502    2696.2615   -42421.763    98.615602    226.75855 
   25000    132.59018   -855.47933    143315.22   -39756.924    2667.3812   -42424.305    98.555298    224.32969 
   25050     133.4999   -734.41326    143305.07     -39750.5    2685.6825   -42436.183    98.693019    225.86885 
   25100    129.89045   -762.35208    143246.86   -39724.687    2613.0695   -42337.756    98.822433    219.76201 
   25150    133.04231   -761.78312    143168.67   -39705.435     2676.477   -42381.912    99.066542    225.09465 
   25200    134.60109   -774.63022    143064.73   -39661.474    2707.8358    -42369.31    99.270373    227.73196 
   25250    136.88855   -739.65304    143148.42    -39669.04    2753.8536   -42422.893     99.28603    231.60211 
   25300    130.66336   -645.61183    143144.86   -39701.568    2628.6185   -42330.187    99.302223     221.0697 
   25350    134.56018   -712.75368    143193.22   -39664.178    2707.0127   -42371.191    99.576694    227.66274 
   25400     133.1514   -812.71491     143156.1   -39711.924    2678.6715   -42390.596    99.982326    225.27921 
   25450     132.3115     -813.373    143103.67   -39731.315    2661.7749    -42393.09     99.94022    223.85819 
   25500    132.76749   -944.42013    142993.36   -39714.025    2670.9484   -42384.973    99.993119    224.62969 
   25550     132.0529   -827.72322    142966.38   -39769.519    2656.5725   -42426.091    100.11495    223.42066 
   25600    129.84632   -707.01021    142951.02   -39757.795    2612.1816   -42369.977    100.32312    219.68734 
   25650    131.85893   -716.29818    142979.33   -39776.307    2652.6702   -42428.977    100.64263    223.09248 
   25700    130.02617   -612.31298    142950.17   -39801.168    2615.7998   -42416.968    100.87595    219.99164 
   25750    132.34293   -680.14843    142930.44   -39757.458    2662.4072   -42419.865    100.91288    223.91137 
   25800    130.94067   -530.75408     142926.7    -39765.06    2634.1971   -42399.257    101.31503    221.53887 
   25850    132.93695   -648.45667    142969.46   -39780.875    2674.3573   -42455.232    101.78107    224.91638 
   25900    133.12734    -744.5292    143011.51   -39781.638    2678.1876   -42459.826    101.79706    225.23851 
   25950    131.96659   -692.81524    143104.49   -39772.104    2654.8362    -42426.94    101.82848    223.27464 
   26000    132.03353   -540.42375    143119.21   -39790.541    2656.1829   -42446.723    101.76566    223.38789 
   26050      130.471   -704.21205    143116.75    -39789.53    2624.7487   -42414.279    102.00098    220.74425 
   26100    130.56243   -833.09062    143044.93   -39820.884    2626.5879   -42447.471    102.42663    220.89892 
   26150    130.10819   -625.30939    143024.77   -39812.515    2617.4498   -42429.965    102.61722     220.1304 
   26200    131.76539   -587.39663    143061.45    -39769.14    2650.7886   -42419.928    102.65529    222.93423 
   26250    131.55271   -592.85582    143042.44   -39747.335      2646.51   -42393.845    102.82759     222.5744 
   26300    133.42426   -824.18833    142995.67   -39716.854    2684.1608   -42401.015    103.12364    225.74087 
   26350     133.5203    -709.4223    142970.39   -39691.209    2686.0929   -42377.302    103.39002    225.90336 
   26400    133.82891   -693.51416    142996.93   -39632.347    2692.3014   -42324.648    103.62686     226.4255 
   26450    130.84104   -793.96994    143022.38   -39664.845    2632.1928   -42297.038    103.70897    221.37031 
   26500    134.25936   -650.22498    143038.43   -39672.348     2700.961   -42373.309    103.88506    227.15378 
   26550    132.06775   -560.66887    143072.44   -39666.077    2656.8713   -42322.948    104.24027     223.4458 
   26600    131.91072   -520.31613    143055.49   -39670.335    2653.7122   -42324.047    104.55956    223.18011 
   26650    130.28198   -424.65407    143067.08   -39663.186    2620.9461   -42284.132    104.80107    220.42444 
   26700    128.41099   -694.22286    143080.88    -39670.01    2583.3064   -42253.316    105.06778     217.2589 
   26750     133.7425   -522.41857    143066.74   -39677.077    2690.5631    -42367.64    105.08308    226.27931 
   26800    130.50097   -724.09739    143152.91   -39638.464    2625.3515   -42263.816     105.1901    220.79494 
   26850    135.91545   -625.15799    143142.03   -39621.479    2734.2773   -42355.756     105.2746    229.95572 
   26900    134.47267   -706.42884    143158.53   -39619.947    2705.2522   -42325.199    105.56945    227.51468 
   26950    135.49616   -395.32944    143249.93   -39582.417    2725.8423   -42308.259    105.75942    229.24633 
   27000    131.28087   -660.30532    143243.53   -39563.548    2641.0413    -42204.59      105.739    222.11447 
   27050    134.15782   -638.06917    143148.73   -39586.348    2698.9182   -42285.267      106.064    226.98198 
   27100    136.54271   -482.81892    143181.24   -39588.929    2746.8961   -42335.825    106.31797    231.01698 
   27150    136.30927   -575.52179    143212.28   -39556.128       2742.2   -42298.328    106.46295    230.62203 
   27200    132.58543    -754.3315     143163.2   -39607.104    2667.2857    -42274.39    106.57871    224.32165 
   27250    133.46832   -658.92276    143084.56   -39573.391    2685.0472   -42258.438    106.57488    225.81541 
   27300    131.69377   -499.05541    143191.61   -39575.188    2649.3477   -42224.536    106.79731    222.81305 
   27350    134.47057    -875.1077    143163.56   -39565.138    2705.2099   -42270.347     106.9634    227.51112 
   27400    135.70944   -675.11032    143143.09   -39608.106     2730.133   -42338.239    107.51564    229.60718 
   27450    135.25394   -438.04217    143195.62    -39558.81    2720.9694   -42279.779    107.79291    228.83651 
   27500    132.12227   -614.59244    143249.55   -39578.724     2657.968   -42236.692    108.00594    223.53803 
   27550    131.41617   -747.79028    143210.64   -39592.366    2643.7631   -42236.129    108.32893    222.34338 
   27600     132.1332    -762.5014    143165.01   -39647.789    2658.1879   -42305.977    108.38823    223.55651 
   27650    134.23074   -440.99628    143186.99   -39621.034    2700.3851    -42321.42    108.65824    227.10535 
   27700      131.339    -819.6649    143223.71   -39615.226    2642.2107   -42257.437    109.13704    222.21282 
   27750    131.38089   -717.54927    143141.59   -39588.948    2643.0533   -42232.001     109.1516    222.28369 
   27800    130.51129   -673.60244    143089.36   -39596.207    2625.5593   -42221.767    109.19674    220.81241 
   27850    133.55435   -608.68086    143061.33   -39571.987    2686.7779   -42258.765    109.32726    225.96097 
   27900     132.5493   -652.86122     143118.4   -39591.636    2666.5587   -42258.195    109.56351    224.26052 
   27950     133.2323   -845.15418    143112.36   -39556.847    2680.2991   -42237.146     109.7434     225.4161 
   28000    131.94901   -634.52515    143092.48   -39559.943    2654.4825   -42214.426    110.10328    223.24489 
   28050    130.58874   -832.46135    143040.55   -39610.009    2627.1173   -42237.126    110.18477    220.94345 
   28100     134.6321   -655.15427    143043.23   -39596.965    2708.4595   -42305.425    110.25564    227.78441 
   28150    133.93527   -647.37628    143080.99   -39593.108     2694.441   -42287.549    110.19481    226.60544 
   28200    133.44464    -622.5702    143129.49   -39629.018    2684.5708   -42313.588    110.60068    225.77535 
   28250    131.86608   -492.03528    143187.02   -39576.919    2652.8141   -42229.733    110.42876    223.10458 
   28300    129.89133   -628.92008    143163.13   -39607.126    2613.0871   -42220.213    110.39835    219.76349 
   28350    132.70022   -595.19366    143118.83   -39572.076    2669.5949   -42241.671    110.66664    224.51586 
   28400    130.06073   -807.87956    143109.76    -39596.83     2616.495   -42213.325    110.69851     220.0501 
   28450    130.81751    -621.7004    143069.79   -39579.387    2631.7196   -42211.107    110.88846    221.33051 
   28500    131.22284   -711.87545    143121.58   -39573.038    2639.8738   -42212.912    110.88278    222.01629 
   28550    131.78785     -638.977    143073.95   -39593.071    2651.2403   -42244.311    111.12677    222.97222 
   28600    132.73151   -766.76346    143086.29    -39598.03    2670.2244   -42268.254      111.346     224.5688 
   28650    130.98175   -570.11058    143102.69   -39608.369    2635.0237   -42243.392    111.64125    221.60838 
   28700    129.71192   -440.45138     143127.2   -39602.627    2609.4779   -42212.105     111.6954    219.45996 
   28750    131.27582   -664.19916    143093.82   -39571.946    2640.9396   -42212.886    111.77116    222.10592 
   28800    132.16738   -730.57355     143068.8   -39638.055    2658.8756    -42296.93     111.6822    223.61436 
   28850    129.39864   -540.03657    143099.28   -39602.227    2603.1755   -42205.402    112.13853    218.92991 
   28900    134.38844   -715.09275    143147.65   -39634.108    2703.5578   -42337.666    112.15266    227.37218 
   28950     133.6261   -756.44742    143123.19   -39596.241    2688.2214   -42284.462    112.29244    226.08237 
   29000    134.43896   -537.32659    143080.57   -39614.255     2704.574   -42318.829    112.52164    227.45764 
   29050    132.01797   -610.63969    143064.41   -39622.225    2655.8699   -42278.095    112.74186    223.36157 
   29100    132.86655   -741.89545    143051.03   -39643.813    2672.9411   -42316.754    112.90624    224.79728 
   29150    133.46207   -540.04151    143062.68   -39616.257    2684.9215   -42301.179    112.84083    225.80485 
   29200    133.76763   -617.07363    143082.71   -39601.246    2691.0685   -42292.315     112.8588    226.32181 
   29250    134.32991   -756.18291    143106.09   -39570.548    2702.3803   -42272.929    112.92618    227.27315 
   29300    133.27221   -605.55056    143181.41   -39568.953     2681.102   -42250.055    113.23388    225.48362 
   29350    131.56108    -617.1807    143218.64   -39623.589    2646.6783   -42270.268    113.39837    222.58855 
   29400    134.12976   -641.65629    143274.08   -39583.224    2698.3537   -42281.578     113.4031    226.93451 
   29450      134.846   -775.66656    143229.52   -39615.788    2712.7626   -42328.551    113.68948    228.14631 
   29500    133.47342   -593.88632    143240.55   -39623.715    2685.1498   -42308.865    113.74078    225.82404 
   29550    131.82977   -715.92297    143247.45   -39612.722    2652.0836   -42264.805    113.81494    223.04314 
   29600    135.85879   -532.37436    143271.84   -39578.165    2733.1374   -42311.302    113.97661    229.85985 
   29650    133.61682   -564.83617    143448.81   -39571.361    2688.0346   -42259.396    114.15751    226.06666 
   29700    132.04635   -713.21082    143443.62   -39583.948    2656.4408   -42240.388    114.26867    223.40958 
   29750    131.63893   -674.70206    143357.75   -39611.448    2648.2444   -42259.692    114.41541    222.72026 
   29800    134.85972   -502.31654    143373.09   -39586.263    2713.0387   -42299.302    114.48026    228.16953 
   29850    137.13343   -850.98385    143397.51    -39602.26    2758.7799    -42361.04    114.73183    232.01642 
   29900    134.06735   -770.50631    143298.99    -39644.98    2697.0983   -42342.079    115.08657    226.82892 
   29950    132.47374   -759.76143    143300.92   -39670.734    2665.0387   -42335.773    115.11341    224.13268 
   30000    130.40925   -731.13458    143253.46   -39651.885    2623.5064   -42275.392    115.53866    220.63977 
   30050    133.48139   -593.69325    143338.33   -39624.272    2685.3102   -42309.582    115.68084    225.83753 
   30100    132.30348   -770.00935    143427.52   -39612.985    2661.6136   -42274.598    115.94593    223.84463 
   30150    133.89859   -709.95179    143384.87   -39629.822    2693.7032   -42323.525    116.09836    226.54339 
   30200    131.95955   -773.32021    143330.05    -39679.58    2654.6944   -42334.274    116.23364    223.26271 
   30250    131.16518   -993.96364     143300.2    -39694.19    2638.7137   -42332.903    116.66018    221.91872 
   30300    131.38427   -693.01426    143306.66   -39704.352    2643.1213   -42347.473    116.77416     222.2894 
   30350    132.29886    -642.0429    143244.72   -39673.579    2661.5206     -42335.1    116.91473    223.83681 
   30400    129.81534     -689.287    143245.58   -39652.319    2611.5584   -42263.877     117.1244    219.63493 
   30450    131.50434   -597.82822    143139.04   -39609.218    2645.5369   -42254.755    117.16657    222.49256 
   30500    131.41753   -449.94421    143142.67   -39617.245    2643.7905   -42261.035    117.39908    222.34568 
   30550     133.3155   -451.26999    143199.91   -39618.475    2681.9729   -42300.448    117.28607    225.55686 
   30600    133.58851   -871.28149    143159.13   -39615.559    2687.4652   -42303.024    117.06034    226.01877 
   30650    134.97395   -527.42473    143065.17   -39603.448    2715.3367   -42318.785     117.1849    228.36279 
   30700    133.18253     -730.934    143043.27   -39580.961    2679.2978   -42260.259     117.3697    225.33189 
   30750    134.43611   -683.49759    143039.87   -39536.364    2704.5167   -42240.881    117.67879    227.45282 
   30800    137.29255   -591.76074    143026.94   -39535.093    2761.9811   -42297.074    117.63104    232.28564 
   30850    135.03892   -643.68408    142997.63   -39564.561    2716.6437   -42281.205    117.70585    228.47272 
   30900    131.33965   -668.20514    143019.68   -39601.726    2642.2237   -42243.949    117.85974    222.21391 
   30950    134.60035    -827.6263    142942.34   -39651.345    2707.8209   -42359.166    117.97288    227.73071 
   31000    133.36342   -554.45033    142893.74   -39664.797    2682.9368   -42347.734    118.53108    225.63793 
   31050    135.50099   -724.59846     142897.7   -39668.654    2725.9394   -42394.593    118.47659    229.25449 
   31100    130.36584   -687.22737    142852.79   -39726.287     2622.633    -42348.92    118.59254    220.56631 
   31150    133.82816   -688.32423    142897.18   -39725.158    2692.2862   -42417.444      118.763    226.42422 
   31200    133.59091    -740.4408    142933.74     -39735.6    2687.5134   -42423.113    119.02582    226.02283 
   31250    131.70966   -676.09985    142953.44    -39704.91    2649.6674   -42354.578     119.1815    222.83993 
   31300    133.28037   -593.98803    142970.38   -39683.667    2681.2662   -42364.933    119.25113    225.49743 
   31350    131.01918    -558.6842    142968.32   -39636.103    2635.7766    -42271.88    119.07639    221.67171 
   31400    135.12765   -656.82211    142983.02    -39688.42    2718.4288   -42406.849    119.28383    228.62285 
   31450     131.2168   -664.85146    142963.21   -39683.081    2639.7523   -42322.834    119.36659    222.00606 
   31500    133.37417   -733.79501     142949.1   -39637.664    2683.1531   -42320.817    119.96172    225.65612 
   31550    131.45151   -623.34936     142998.6   -39660.432    2644.4741   -42304.906     120.2325    222.40317 
   31600    131.80385   -787.71229    142982.39    -39690.75    2651.5622   -42342.312    120.43855    222.99929 
   31650    132.91753   -451.32891    142973.66   -39650.515    2673.9666   -42324.482    120.53831    224.88353 
   31700    133.22773   -611.93569     142991.1   -39641.954    2680.2072   -42322.161    120.99223    225.40836 
   31750    132.80866   -465.09943    143019.57   -39627.608    2671.7765   -42299.385     121.2394    224.69933 
   31800    132.42964   -785.95876    143025.74   -39657.507    2664.1515   -42321.658    121.45074    224.05807 
   31850    131.63671   -683.60886    142957.85   -39602.388    2648.1998   -42250.588    121.83656    222.71651 
   31900    133.92707   -602.69913    142913.29   -39602.592    2694.2761   -42296.868    122.37982    226.59157 
   31950    136.18717   -643.92318    142953.48   -39606.389    2739.7437   -42346.133    122.73094    230.41545 
   32000    135.14697   -668.79962    142955.89     -39622.5    2718.8175   -42341.318    122.70149    228.65553 
   32050    133.93894      -550.79     142979.1   -39624.145     2694.515    -42318.66    123.04291    226.61166 
   32100    134.06784   -731.89626    142998.33   -39582.146     2697.108   -42279.254    123.45727    226.82974 
   32150    133.58702   -661.06218    143000.94   -39618.808    2687.4351   -42306.243    123.73342    226.01624 
   32200    132.80215   -749.65769    143000.72    -39683.24    2671.6455   -42354.885    124.02835    224.68832 
   32250    132.49023   -402.84804    143025.04   -39677.936    2665.3704   -42343.307    124.02736    224.16058 
   32300    133.96701   -546.34297    143019.23   -39670.306    2695.0796   -42365.386    124.36634    226.65915 
   32350    130.54301     -731.273    143048.93   -39676.251    2626.1974   -42302.449    124.61987    220.86608 
   32400     132.0372   -669.08443    142978.34   -39713.594    2656.2567   -42369.851    124.84641    223.39411 
   32450    132.74984   -680.13081    143017.62   -39678.664    2670.5932   -42349.258    125.17291    224.59982 
   32500    134.62569   -546.85276    143030.33   -39653.526    2708.3306   -42361.857    125.34274    227.77357 
   32550    131.58681   -507.82929    143045.97   -39700.089    2647.1959   -42347.285    125.58087    222.63208 
   32600    132.16012   -816.87303    143091.55   -39665.685    2658.7295   -42324.415    125.82926    223.60207 
   32650    135.54954   -718.41674    143087.68   -39661.111    2726.9161   -42388.027    125.94084    229.33664 
   32700    132.49136    -894.2316    143073.56   -39641.278    2665.3933   -42306.672    125.95912     224.1625 
   32750    133.36565   -675.36086    143050.95     -39696.2    2682.9818   -42379.182    126.15862    225.64171 
   32800    133.97403   -674.02001    143082.82   -39711.178    2695.2209   -42406.399     126.1507    226.67103 
   32850    131.97077   -699.34148    143098.26   -39695.527    2654.9202   -42350.447    126.35436     223.2817 
   32900    134.77327   -744.55597    143131.81   -39657.142    2711.2995   -42368.442    126.55493    228.02327 
   32950    133.81366   -619.01056    143189.15   -39646.683    2691.9946   -42338.678    127.26342     226.3997 
   33000    132.57265   -840.31143    143140.39   -39674.316    2667.0286   -42341.344    127.55074    224.30003 
   33050    130.32488   -601.10841    143055.49   -39667.006    2621.8091   -42288.815     127.7487    220.49702 
   33100    132.58384   -541.24629    143128.72   -39715.544    2667.2537   -42382.798    128.01255    224.31896 
   33150    131.64065   -629.87063    143120.02    -39679.02    2648.2791   -42327.299    128.40293    222.72318 
   33200    131.60354   -638.20637    143160.55   -39699.043    2647.5325   -42346.576    128.51377    222.66039 
   33250    130.90716   -648.13575    143236.05   -39739.662    2633.5231   -42373.185    128.92926    221.48218 
   33300    132.87139   -434.62612    143319.79    -39719.24    2673.0384   -42392.278    128.87525    224.80546 
   33350    132.24919   -891.68296    143329.68    -39753.02    2660.5214   -42413.541    129.42386    223.75277 
   33400    133.85397   -791.00833    143302.87   -39777.748    2692.8055   -42470.554     129.8161    226.46789 
   33450    130.64242   -613.62244    143307.18   -39814.194    2628.1972   -42442.391    130.16477    221.03427 
   33500    131.68593   -767.01606    143322.69   -39766.117    2649.1901   -42415.307    130.25143    222.79979 
   33550    133.40947   -675.01623    143322.08   -39717.178    2683.8634   -42401.041    130.40864    225.71585 
   33600    132.32496   -627.05219    143401.62   -39702.864    2662.0457    -42364.91    130.86317    223.88096 
   33650    131.42259   -721.56602    143440.97   -39748.627    2643.8923    -42392.52    130.97671    222.35424 
   33700    130.64581   -528.14193    143398.62   -39724.388    2628.2655   -42352.653    131.14539    221.04001 
   33750    132.49753   -504.74177    143465.76   -39723.696    2665.5173   -42389.213    131.27647    224.17293 
   33800    131.07984   -638.24166    143466.71   -39697.437    2636.9969   -42334.434    131.39993    221.77433 
   33850    135.15107   -598.02553    143513.21   -39654.744    2718.8999   -42373.644    131.36025    228.66247 
   33900    133.76213   -664.23429    143545.19   -39646.084     2690.958   -42337.042    131.61432    226.31252 
   33950    131.31955   -582.47331    143521.55   -39679.899    2641.8193   -42321.719    131.79804     222.1799 
[...]
   92000    134.86593   -695.63494    142991.47   -39646.183    2713.1637   -42359.346    365.10472    228.18004 
   92050    134.68572   -607.86642    142952.06   -39699.413    2709.5383   -42408.951    365.19188    227.87515 
   92100    128.74814   -630.00233    142920.42   -39757.825    2590.0891   -42347.914    365.23485    217.82933 
   92150    133.00599     -555.529    142938.75   -39695.111    2675.7462   -42370.857    365.22142    225.03319 
   92200    133.86895   -757.11814    142960.14   -39685.568    2693.1068   -42378.675    365.43877    226.49324 
   92250    130.86856   -656.31855    142956.16   -39649.523    2632.7466   -42282.269    365.58139    221.41688 
   92300    131.02955   -852.46902    142964.05   -39676.161    2635.9853   -42312.147     365.4832    221.68926 
   92350    132.50612   -653.46969    143030.43   -39668.283    2665.6901   -42333.973    365.64024    224.18746 
   92400    133.74328   -742.25518    143073.51   -39649.788    2690.5787   -42340.367    365.84388    226.28062 
   92450    130.45351   -728.73146    143026.14   -39674.499    2624.3968   -42298.896    365.86683    220.71465 
   92500    132.56641   -582.02484    143100.72   -39670.456    2666.9031   -42337.359     366.1666    224.28947 
   92550    129.36945   -681.73509    143104.45   -39678.681    2602.5882   -42281.269     366.3856    218.88052 
   92600    132.07162   -637.21813     143176.5   -39673.974     2656.949   -42330.924     366.5602    223.45233 
   92650    132.46689   -532.23483    143125.86   -39652.976    2664.9009   -42317.877    366.46739    224.12109 
   92700    133.12863   -676.20212     143161.1   -39636.689    2678.2135   -42314.902    366.56565     225.2407 
   92750    133.49574   -577.39311    143220.27   -39624.671    2685.5987    -42310.27    366.57094     225.8618 
   92800    134.14543   -580.96333    143333.98   -39602.632    2698.6689   -42301.301    366.70806    226.96101 
   92850    134.36326   -709.74987    143402.72   -39591.123    2703.0511   -42294.175    366.83245    227.32956 
   92900    132.86182   -795.76796    143423.47   -39606.808     2672.846   -42279.654    366.86775    224.78928 
   92950    135.39305   -816.47228    143446.11   -39611.432    2723.7678     -42335.2    366.74266    229.07186 
   93000    131.85208   -781.45502     143423.6    -39656.24    2652.5326   -42308.773     366.5065     223.0809 
   93050    131.48902   -914.40795    143332.25   -39685.561    2645.2287    -42330.79    366.34529    222.46664 
   93100    133.83814    -721.9786    143264.81   -39620.669     2692.487   -42313.156    366.05603    226.44111 
   93150    135.11668   -617.71301    143257.71   -39627.759     2718.208   -42345.967    365.82377    228.60427 
   93200    131.33064   -663.61492    143356.76   -39646.613    2642.0425   -42288.655    365.79708    222.19867 
   93250    131.61299   -859.28997    143298.56   -39615.432    2647.7227   -42263.155    365.59343    222.67638 
   93300    131.07719    -784.3212    143172.26   -39646.004    2636.9437   -42282.948    365.56325    221.76986 
   93350    129.62153   -831.95846    143098.32   -39642.002    2607.6594   -42249.661    365.64074    219.30702 
   93400    133.85188   -694.91748    143134.75   -39598.473    2692.7634   -42291.236    365.14454    226.46436 
   93450    134.84714   -609.63271    143152.79   -39603.972    2712.7856   -42316.758    365.05662    228.14825 
   93500    134.01253   -773.84688    143197.49    -39583.77    2695.9953   -42279.765    364.97104    226.73616 
   93550    131.45913   -665.45401    143167.17   -39664.161    2644.6273   -42308.789    365.14316    222.41606 
   93600    132.80731   -700.89638    143139.56   -39622.062    2671.7493   -42293.811    364.90664    224.69705 
   93650    134.54058   -830.82451    143052.54   -39577.382    2706.6183   -42284.001    364.84788    227.62957 
   93700    134.70347    -727.6912    142931.71   -39579.441    2709.8954   -42289.336     365.1231    227.90518 
   93750    136.04615   -738.54785    142916.04   -39627.314    2736.9066    -42364.22    365.16693    230.17685 
   93800    132.89832   -606.95782    142971.31   -39622.694    2673.5802   -42296.274       364.34    224.85103 
   93850    133.19282   -766.84264    143027.54   -39628.155    2679.5049   -42307.659    364.05059     225.3493 
   93900    131.56069    -818.2957    143039.16   -39623.698    2646.6705   -42270.368    364.00572    222.58789 
   93950    132.66624   -766.97968    143112.15   -39641.921    2668.9113   -42310.832    364.06983    224.45837 
   94000    132.89314   -751.75746     143045.8   -39636.132    2673.4761   -42309.608    363.62466    224.84227 
   94050    134.58054   -791.83343    143051.15   -39604.626    2707.4223   -42312.048    363.54604    227.69718 
   94100    133.15007   -617.64956    143069.37   -39570.292    2678.6447   -42248.937    363.69577    225.27696 
   94150    134.27736   -423.63431    143103.66   -39524.009    2701.3231   -42225.332    363.89108    227.18424 
   94200    133.30703   -712.96757    143171.38   -39572.178    2681.8025    -42253.98    363.22168    225.54253 
   94250    132.75387   -759.09068    143078.46   -39638.263    2670.6742   -42308.937    363.15042    224.60663 
   94300    133.07006   -607.47849    143066.08   -39619.005    2677.0352    -42296.04    362.77684     225.1416 
   94350    132.88529   -643.29164    143096.57   -39586.948     2673.318   -42260.266    363.05823    224.82898 
   94400    131.91992   -609.00421    143143.86   -39603.676    2653.8973   -42257.573    363.08398    223.19568 
   94450    130.95182   -660.26168    143123.69   -39633.231    2634.4216   -42267.652    363.04507    221.55775 
   94500    133.37491   -785.39384    143138.21   -39621.554     2683.168   -42304.722    363.54159    225.65737 
   94550    133.47501   -813.11501    143146.84   -39643.363    2685.1817   -42328.545     363.5862    225.82673 
   94600    133.20526   -688.85411    143214.74   -39625.041    2679.7551   -42304.796    363.83287    225.37034 
   94650     133.5935   -697.83001    143199.63     -39591.2    2687.5654   -42278.765    363.50091     226.0272 
   94700    134.25843   -883.06513    143190.96   -39570.943    2700.9422   -42271.885    363.18369     227.1522 
   94750    132.36431    -572.2774    143209.31   -39556.495    2662.8372   -42219.332    362.57791    223.94753 
   94800    131.86088   -895.42441    143118.71   -39571.827    2652.7096   -42224.537    362.86346    223.09579 
   94850    132.62713   -812.28119    143087.29   -39601.654    2668.1245   -42269.779    362.75011     224.3922 
   94900    133.40674    -642.5399    143065.65   -39575.112    2683.8083    -42258.92    362.66062    225.71122 
   94950     132.4293   -799.95144     143002.8   -39628.927    2664.1447   -42293.072    362.93165    224.05749 
   95000    132.56741   -599.86961    142961.42   -39648.044    2666.9231   -42314.967    363.25739    224.29116 
   95050    131.74834   -619.93219    142921.39   -39612.991    2650.4455   -42263.437    363.28884    222.90537 
   95100    131.99562   -673.74077     142936.1    -39615.47    2655.4201    -42270.89    363.53866    223.32374 
   95150    135.09776   -619.74757    142928.31   -39587.395    2717.8275   -42305.222    364.00424    228.57227 
   95200    134.58343   -740.66396    142967.91   -39558.972    2707.4804   -42266.453    364.23123    227.70207 
   95250     132.0974   -877.17838    142970.09   -39572.226    2657.4678   -42229.694    364.49204    223.49595 
   95300    131.83717    -819.1597    142973.06   -39552.728    2652.2325    -42204.96    365.00088    223.05567 
   95350      128.529   -811.56422    142918.58   -39628.559    2585.6804    -42214.24    365.40919    217.45856 
   95400    130.78639   -875.01179    142875.87   -39599.134    2631.0936   -42230.227    365.12665    221.27786 
   95450     134.1438   -896.85406    142794.08   -39598.518    2698.6361   -42297.154    364.93772    226.95826 
   95500    132.19474   -724.91331    142736.33     -39630.4    2659.4259   -42289.826    364.98228    223.66063 
   95550    131.12584   -577.43309    142743.37   -39651.906    2637.9223   -42289.828       364.77    221.85216 
   95600    132.02258   -555.34171    142764.79   -39661.439    2655.9626   -42317.401    364.90201    223.36937 
   95650    135.67986   -658.03102    142808.13   -39635.268    2729.5378   -42364.806    365.20377    229.55713 
   95700    133.04762   -382.40546     142910.3    -39627.29    2676.5838   -42303.873    365.25892    225.10364 
   95750    135.94436   -569.19436    142936.41   -39554.037    2734.8588   -42288.896    364.88952    230.00463 
   95800    131.87226   -539.47066    143004.67   -39584.659    2652.9385   -42237.598    364.84569    223.11504 
   95850    134.63117   -722.02914    142977.21   -39630.256    2708.4407   -42338.697    365.07538    227.78284 
   95900    132.59177   -592.09323    142985.62   -39648.684    2667.4132   -42316.098    365.51156    224.33238 
   95950    132.85513   -587.55447    143004.48   -39652.968    2672.7114   -42325.679    365.53949    224.77796 
   96000    129.72301    -647.3794    143011.48    -39695.42     2609.701   -42305.121    365.79452    219.47872 
   96050    133.02062   -702.87315    143003.19   -39702.327    2676.0406   -42378.367    365.76708    225.05795 
   96100     131.0816   -486.91617    142995.44   -39656.512    2637.0323   -42293.545    365.58599    221.77731 
   96150    134.03539   -611.12705    143036.85    -39611.07    2696.4551   -42307.525    365.38407    226.77484 
   96200    134.96423   -686.04532    143053.78   -39587.692    2715.1411   -42302.833    365.41162    228.34635 
   96250    133.82825   -773.05443    143042.61   -39578.903    2692.2882   -42271.192    365.27693    226.42439 
   96300    133.35151   -637.85426    143088.85   -39606.444    2682.6974   -42289.141     365.0964    225.61779 
   96350    131.15081   -860.04986    143118.63   -39640.453    2638.4248   -42278.878     365.0617    221.89442 
   96400     130.6323   -646.83885    143099.39   -39648.181    2627.9935   -42276.174    364.88977    221.01714 
   96450    134.67817   -831.94453    143066.32   -39673.404    2709.3863   -42382.791    365.26699    227.86236 
   96500    132.51441   -561.65366    143105.42   -39667.595    2665.8569   -42333.452    365.55168    224.20149 
   96550    130.86138   -666.39294    143086.31   -39669.537    2632.6022   -42302.139    366.56176    221.40473 
   96600    130.68803   -660.07652    143049.86   -39708.033    2629.1147   -42337.148    366.87077    221.11143 
   96650    133.25245   -531.30789    143062.36   -39689.276    2680.7043   -42369.981    366.71221    225.45018 
   96700    130.04446   -658.12745    143012.27   -39747.081    2616.1677   -42363.249     366.5351    220.02257 
   96750    130.61522   -707.50769    142973.67   -39746.514    2627.6501   -42374.164    366.64608    220.98826 
   96800    130.27595   -636.74402    142979.53   -39763.919    2620.8247   -42384.744    366.50273    220.41423 
   96850     130.8055   -607.64172    142884.02   -39779.378     2631.478   -42410.856    366.88976    221.31019 
   96900    129.01571   -756.65369    142903.71    -39746.33    2595.4718   -42341.801     367.0543    218.28203 
   96950    131.09482   -725.56092       142841   -39757.535    2637.2983   -42394.833    366.78303    221.79968 
   97000    129.79718   -742.69367    142845.05   -39704.272     2611.193   -42315.465    366.63695     219.6042 
   97050    131.25856   -704.06755    142782.07   -39688.763    2640.5924   -42329.355    367.00975    222.07672 
   97100    131.93624    -537.8863    142819.87   -39687.055    2654.2256   -42341.281    367.43195    223.22328 
   97150    132.25943   -658.19746    142810.76   -39652.452    2660.7273   -42313.179    367.73756    223.77008 
   97200    132.00224   -573.82845    142800.95   -39640.981    2655.5533   -42296.534    368.07153    223.33495 
   97250    132.07358   -565.19139    142848.68    -39622.19    2656.9885   -42279.179     367.6859    223.45565 
   97300    134.10656   -882.09075    142932.99   -39589.186    2697.8869   -42287.072    367.17145    226.89525 
   97350    131.15267   -621.77162    142931.43   -39660.311    2638.4621   -42298.773    367.38649    221.89756 
   97400    135.39504   -543.55944    142984.76   -39609.283     2723.808   -42333.091    367.26666    229.07524 
   97450    131.94635   -542.02706    143009.09    -39599.23    2654.4289   -42253.659    367.26987    223.24038 
   97500    132.63123   -789.13337    143094.99   -39582.142     2668.207   -42250.349    367.00335    224.39914 
   97550    135.09847   -629.12778    143084.81   -39567.985    2717.8417   -42285.827    367.27148    228.57347 
   97600     132.9494   -768.84151     143013.9    -39586.21    2674.6079   -42260.818    367.49958    224.93746 
   97650    132.36675   -518.15862    142982.53   -39537.665    2662.8863   -42200.551    367.71216    223.95166 
   97700    131.93648   -610.50844    142979.33   -39570.691    2654.2303   -42224.921    367.81709    223.22368 
   97750    132.90491   -697.34108    142923.11   -39578.566    2673.7127   -42252.278    367.95134    224.86217 
   97800    135.08549   -582.02828    142995.97   -39543.191    2717.5806   -42260.772    368.57051    228.55151 
   97850    134.99331   -461.02674    143031.34    -39543.97    2715.7261   -42259.696    368.17319    228.39554 
   97900    133.97988   -717.05631    143059.97   -39531.151    2695.3385   -42226.489    368.55647    226.68093 
   97950    132.82104   -604.19048    143096.75   -39559.323    2672.0255   -42231.349    368.24639    224.72028 
   98000    130.94479   -660.00433    143107.52   -39558.543    2634.2802   -42192.823    368.81582    221.54585 
   98050    132.01311   -911.01401    143054.23   -39571.749    2655.7719   -42227.521    368.97434    223.35333 
   98100    134.06642   -849.46141    143033.63   -39582.431    2697.0796    -42279.51    369.40344    226.82735 
   98150    129.53895   -729.36609     143013.5   -39633.878    2605.9982   -42239.876    369.76426     219.1673 
   98200     132.1629   -657.37118     142985.9    -39627.83    2658.7854   -42286.615    369.84698    223.60677 
   98250    130.85587    -627.8527    143017.76   -39596.892    2632.4913   -42229.383    369.78073    221.39541 
   98300    134.94339   -720.72844    142985.37   -39578.984    2714.7218   -42293.706    369.81669    228.31108 
   98350    133.52165   -458.09588    142930.67   -39571.322    2686.1201   -42257.442    369.74265    225.90565 
   98400    131.94234   -649.37077    142972.75   -39600.058    2654.3483   -42254.406    369.91125    223.23361 
   98450    133.89897    -523.9131    143143.06   -39580.883    2693.7108   -42274.594    370.18235    226.54403 
   98500    133.29404   -829.61003    143216.18   -39569.494    2681.5411   -42251.035    370.53827    225.52055 
   98550    131.13636   -897.05281    143139.79   -39623.379    2638.1341   -42261.513    370.68585    221.86997 
   98600    132.31319   -891.80527    143043.98   -39652.741    2661.8089    -42314.55    370.56269    223.86105 
   98650    133.30761   -1003.8777    143011.17   -39594.736    2681.8141    -42276.55    370.52441    225.54351 
   98700    135.23308   -890.02718    142956.91   -39654.426    2720.5498   -42374.976    370.22256    228.80122 
   98750    130.33045   -717.37739    142957.48   -39650.215    2621.9211   -42272.136    370.19866    220.50644 
   98800    135.13151   -815.78006    142862.93   -39641.662    2718.5063   -42360.168    370.45905    228.62936 
   98850    135.08347   -564.11238    142850.61   -39620.465      2717.54   -42338.005    370.73357    228.54809 
   98900    130.80429    -750.3642     142805.9   -39601.211    2631.4536   -42232.664    370.95161    221.30813 
   98950    131.77712   -724.97177    142789.41    -39607.04    2651.0245   -42258.064    371.27756    222.95407 
   99000    131.56864   -603.57446    142761.61   -39667.244    2646.8305   -42314.075    371.74947    222.60135 
   99050    132.44233   -601.28389    142767.82   -39650.419    2664.4068   -42314.826    372.13855    224.07953 
   99100    133.47399   -671.42428    142812.28   -39664.664    2685.1613   -42349.825    372.38543    225.82501 
   99150     131.3473    -720.3038    142836.77   -39631.479    2642.3776   -42273.856    371.89945    222.22685 
   99200    133.20992   -451.89093    142850.15   -39612.889    2679.8488   -42292.737    372.43506    225.37822 
   99250    134.05022   -553.70587    142887.13   -39570.202    2696.7536   -42266.956     373.0894    226.79993 
   99300    133.71696   -874.51003    142898.54   -39563.601    2690.0492    -42253.65    373.72638    226.23609 
   99350    135.08327   -596.60027    142876.75   -39573.679     2717.536   -42291.215    374.35654    228.54776 
   99400    133.95477   -761.74762    142852.51   -39558.551    2694.8334   -42253.384    374.17786    226.63844 
   99450    132.91683   -488.00045    142875.15   -39527.164    2673.9526   -42201.117     374.2096    224.88234 
   99500    135.93632    -535.1923    142957.18   -39474.963    2734.6972    -42209.66    374.35217    229.99103 
   99550    135.31542   -693.53905    143039.66   -39472.588    2722.2062   -42194.794     374.2276    228.94053 
   99600    134.41772   -658.34559    143037.42   -39521.106    2704.1467   -42225.253     374.2696     227.4217 
   99650    133.79074   -812.23415    143063.13   -39504.335    2691.5334   -42195.869    374.25203    226.36091 
   99700    133.75954    -738.7023    143090.95   -39480.363    2690.9057   -42171.269    374.61164    226.30812 
   99750    136.05237   -693.94617    143053.76   -39525.319    2737.0318   -42262.351    374.36091    230.18738 
   99800    133.49618   -715.11111    143074.93   -39540.901    2685.6076   -42226.508    374.32982    225.86255 
   99850    132.09436   -725.47789    143059.86   -39556.575    2657.4065   -42213.981    374.40344     223.4908 
   99900    132.92148   -678.04862    143090.74   -39560.877    2674.0461   -42234.923     374.4538    224.89021 
   99950    133.71009   -740.21697    143172.99   -39547.892     2689.911   -42237.803    374.53011    226.22446 
  100000    133.54582   -696.29663    143205.35   -39564.605    2686.6063   -42251.211    374.59281    225.94653 
Loop time of 219.782 on 32 procs for 100000 steps with 6750 atoms

Performance: 196.558 ns/day, 0.122 hours/ns, 454.996 timesteps/s
98.7% CPU use with 32 MPI tasks x no OpenMP threads

MPI task timing breakdown:
Section |  min time  |  avg time  |  max time  |%varavg| %total
---------------------------------------------------------------
Pair    | 46.839     | 113.79     | 186.72     | 622.9 | 51.77
Neigh   | 2.4265     | 4.7469     | 8.7726     | 115.8 |  2.16
Comm    | 18.675     | 91.464     | 162.72     | 679.2 | 41.62
Output  | 0.11865    | 0.12207    | 0.15115    |   1.6 |  0.06
Modify  | 4.2402     | 8.938      | 19.622     | 194.8 |  4.07
Other   |            | 0.7254     |            |       |  0.33

Nlocal:    210.938 ave 346 max 141 min
Histogram: 16 0 1 5 2 0 0 0 2 6
Nghost:    1377.69 ave 1883 max 942 min
Histogram: 16 0 0 0 0 0 0 0 8 8
Neighs:    0 ave 0 max 0 min
Histogram: 32 0 0 0 0 0 0 0 0 0
FullNghs:  25117.4 ave 54493 max 8880 min
Histogram: 16 0 0 0 8 0 0 0 0 8

Total # of neighbors = 803756
Ave neighs/atom = 119.075
Neighbor list builds = 6123
Dangerous builds = 0

write_data		${DIR}/data.eq-${NAME}-${TEMP}
write_data		run_7/data.eq-${NAME}-${TEMP}
write_data		run_7/data.eq-het_freeze_7-${TEMP}
write_data		run_7/data.eq-het_freeze_7-225
undump          1

reset_timestep  0

unfix           2
unfix           3
unfix           4


################################################
#######         Run Simulation         #########
################################################

log				${DIR}/log.run_${NAME}
log				run_7/log.run_${NAME}
log				run_7/log.run_het_freeze_7
