
# Create simulation box and atoms

read_data data.graphite_substrate_500
  orthogonal box = (0 0 -0.518223) to (49.22 49.0196 60.5802)
  4 by 2 by 5 MPI processor grid
  reading atoms ...
  6750 atoms
  reading velocities ...
  6750 velocities
group water type 1
3990 atoms in group water
group graphite type 2
2760 atoms in group graphite

# Define potential

pair_style sw
pair_coeff * * mWC.sw mW C
Reading potential file mWC.sw with DATE: 2019-02-27


# Fix graphite atoms in place

fix 5 graphite setforce 0.0 0.0 0.0
velocity graphite set 0.0 0.0 0.0


# Equilibration of molecular water

# Add velocity/set timestep

velocity	    water create ${TEMP} ${SEED} rot yes dist gaussian
velocity	    water create 225 ${SEED} rot yes dist gaussian
velocity	    water create 225 28681 rot yes dist gaussian
timestep	    5.0

# Define output

compute			1 water msd
compute			3 water temp
thermo	    	50
thermo_style	custom step temp press vol etotal ke pe c_1[4] c_3

# Neighbor lists

neigh_modify    delay 0 every 1 check yes

# Set fixes

fix             1 water momentum 10 linear 1 1 1 rescale
fix             2 water nve
fix             3 water temp/csvr ${TEMP} ${TEMP} 500.0 ${SEED}
fix             3 water temp/csvr 225 ${TEMP} 500.0 ${SEED}
fix             3 water temp/csvr 225 225 500.0 ${SEED}
fix             3 water temp/csvr 225 225 500.0 28681
fix             4 water press/berendsen iso ${PRES} ${PRES} 1000.0 modulus 20000
fix             4 water press/berendsen iso -500 ${PRES} 1000.0 modulus 20000
fix             4 water press/berendsen iso -500 -500 1000.0 modulus 20000

# Run 0.5 ns equilibration

dump		    1 all atom 2000 ${DIR}/eq.${NAME}-${TEMP}.dump
dump		    1 all atom 2000 run_7/eq.${NAME}-${TEMP}.dump
dump		    1 all atom 2000 run_7/eq.het_freeze_7-${TEMP}.dump
dump		    1 all atom 2000 run_7/eq.het_freeze_7-225.dump

reset_timestep  0

run	            100000
Neighbor list info ...
  update every 1 steps, delay 0 steps, check yes
  max neighbors/atom: 2000, page size: 100000
  master list distance cutoff = 7.76
  ghost atom cutoff = 7.76
  binsize = 3.88, bins = 13 13 16
  1 neighbor lists, perpetual/occasional/extra = 1 0 0
  (1) pair sw, perpetual
      attributes: full, newton on
      pair build: full/bin/atomonly
      stencil: full/bin/3d
      bin: standard
Per MPI rank memory allocation (min/avg/max) = 4.108 | 4.218 | 4.541 Mbytes
Step Temp Press Volume TotEng KinEng PotEng c_1[4] c_3 
       0    132.98637   -1273.0418    147415.06    -35990.25    2675.3515   -38665.602            0          225 
      50     173.9138   -1103.0811    145952.08   -36512.247    3498.7086   -40010.956   0.87414008    294.24524 
     100     169.3604   -924.54269     144958.2   -36875.306    3407.1056   -40282.411    1.9471291    286.54132 
     150    160.59868   -979.09373     144310.1    -37209.92    3230.8419   -40440.762    2.8187346    271.71735 
     200    158.30547   -852.76257     143755.3   -37603.357    3184.7083   -40788.066    3.5422226    267.83746 
     250    152.24672   -687.38129     143133.8   -37867.179    3062.8214       -40930    4.2189209    257.58664 
     300    150.25386   -713.21159    142802.22   -38098.856    3022.7302   -41121.586    4.8228621    254.21492 
     350    144.96092   -715.95862    142347.64   -38264.164    2916.2494   -41180.414    5.4598603    245.25978 
     400    141.86833   -650.12619    142030.41   -38437.174    2854.0342   -41291.208    6.0518095    240.02741 
     450    142.48092   -635.60997    141862.22   -38521.417    2866.3581   -41387.775    6.6743104    241.06386 
     500    141.64878   -465.47804    141815.77   -38589.193    2849.6175    -41438.81    7.2561422    239.65596 
     550    140.52371   -663.00838    141622.23   -38671.262    2826.9838   -41498.246    7.8414014    237.75244 
     600    139.76166   -654.38519     141423.1   -38734.096    2811.6533   -41545.749    8.3288584    236.46313 
     650    137.88438   -621.88897    141211.75   -38822.052    2773.8872   -41595.939    8.8787866    233.28696 
     700    137.92957   -595.77544    141180.57    -38870.74    2774.7964   -41645.537    9.3243848    233.36342 
     750    137.90217   -341.38609    141335.63   -38949.491    2774.2451   -41723.736    9.6676297    233.31706 
     800    138.73343   -606.79104    141290.41   -38935.463     2790.968   -41726.431    10.020002    234.72347 
     850    135.38158   -422.53195    141304.34    -39008.65    2723.5372   -41732.187    10.406703    229.05246 
     900    138.13375   -547.67063    141185.09   -39031.063    2778.9039   -41809.967    10.781234    233.70887 
     950    137.49903   -573.62625     141197.8   -39087.095    2766.1349    -41853.23    11.038947    232.63498 
    1000    137.66694   -553.62816    141060.58   -39111.716    2769.5129   -41881.229    11.375074    232.91907 
    1050    135.39353   -403.37195    140973.29   -39156.154    2723.7776   -41879.931    11.782984    229.07269 
    1100    135.38926   -408.64672    141004.14   -39206.908    2723.6917   -41930.599    12.168688    229.06546 
    1150    132.54173    -387.1673    141082.12   -39222.599    2666.4066   -41889.005    12.417908    224.24772 
    1200    135.08578   -612.21955    141170.35   -39253.646    2717.5864   -41971.232     12.65281      228.552 
    1250    135.77441   -524.23152    141241.11   -39263.587      2731.44   -41995.027    12.978338     229.7171 
    1300    138.60895    -454.8823    141243.11   -39266.616    2788.4637   -42055.079    13.246659    234.51286 
    1350    133.45363    -580.0268    141213.96   -39341.196    2684.7517   -42025.948    13.608729    225.79056 
    1400    136.63661   -469.83932     141162.2   -39316.674    2748.7852   -42065.459    13.882303    231.17585 
    1450    137.53683   -468.44039    141285.49   -39320.269    2766.8954   -42087.165    14.012795    232.69894 
    1500    133.33317   -527.78524    141440.98    -39393.57    2682.3283   -42075.898    14.190046    225.58675 
    1550    131.88139   -580.24772    141519.46   -39417.951    2653.1221   -42071.073    14.482152    223.13048 
    1600     132.5178   -424.11851     141443.4   -39427.234    2665.9251   -42093.159    14.816495    224.20723 
    1650    135.33001   -492.04959    141479.43   -39422.838    2722.4997   -42145.338    14.963638    228.96522 
    1700    130.28205   -512.84465    141506.63   -39462.078    2620.9474   -42083.026    15.224919    220.42455 
    1750    133.61576   -565.37166    141333.35   -39464.745    2688.0133   -42152.758    15.489788    226.06486 
    1800    133.48429   -635.26113    141281.65   -39458.526    2685.3686   -42143.895    15.731965    225.84244 
    1850    132.72093   -450.66899    141435.35   -39456.938    2670.0115    -42126.95    16.076299     224.5509 
    1900    133.12457   -415.07789    141576.91   -39476.214    2678.1319   -42154.346    16.339681    225.23383 
    1950    133.79175   -496.56399    141584.44   -39452.633    2691.5538   -42144.187    16.651089    226.36263 
    2000    132.06988   -561.12044    141477.79    -39478.84    2656.9142   -42135.755    16.862366     223.4494 
    2050    129.99209   -568.95176    141476.53   -39524.183    2615.1141   -42139.297    17.016504    219.93397 
    2100    134.70658   -448.75048    141434.68   -39484.292    2709.9578    -42194.25    17.193706    227.91043 
    2150    132.73248   -482.62867    141446.27   -39460.998     2670.244   -42131.242    17.428505    224.57045 
    2200    133.46682    -435.9946    141473.42    -39408.75     2685.017   -42093.767    17.711433    225.81288 
    2250    135.97336   -460.76966     141501.6     -39426.2    2735.4424   -42161.643    17.940744    230.05371 
    2300    134.43438   -582.44546     141475.6   -39414.505     2704.482   -42118.987    18.269104     227.4499 
    2350    135.37418   -509.35857       141384   -39432.492    2723.3883    -42155.88     18.48678    229.03994 
    2400    133.08242   -522.09635     141364.6   -39472.583    2677.2838   -42149.867    18.726899     225.1625 
    2450    131.97239   -614.16373     141246.6   -39462.905    2654.9528   -42117.857    19.011656    223.28444 
    2500    134.42489   -443.31782     141226.6   -39492.854    2704.2911   -42197.145    19.301381    227.43385 
    2550    130.65713   -378.75458    141320.16   -39576.278    2628.4932   -42204.771    19.562751    221.05916 
    2600    133.00019    -508.0886    141479.17   -39540.084    2675.6296   -42215.713    19.784366    225.02338 
    2650    133.08405   -420.43432    141705.57   -39520.286    2677.3167   -42197.602    19.894226    225.16528 
    2700    135.18429   -507.11811    141958.51    -39523.91    2719.5682   -42243.478    19.911618    228.71867 
    2750    137.35079   -351.21561    141973.48    -39516.07    2763.1527   -42279.223    20.143919    232.38417 
    2800    135.40659   -525.91402    141979.09   -39540.506    2724.0403   -42264.546    20.393954    229.09478 
    2850    134.49237   -609.03683    141917.73   -39561.945    2705.6485   -42267.594    20.663873    227.54801 
    2900    132.84349   -537.38244    141728.84   -39550.727    2672.4772   -42223.204    20.986319    224.75827 
    2950    132.63628   -434.62281    141676.76   -39560.131    2668.3087    -42228.44    21.222002    224.40769 
    3000     133.3959   -543.70801    141635.86   -39570.326    2683.5904   -42253.916    21.358862    225.69289 
    3050    133.52867   -500.09743    141715.39   -39612.322    2686.2613   -42298.583    21.624672    225.91752 
    3100    131.89355   -505.92993    141844.87   -39645.754    2653.3667   -42299.121    21.909896    223.15105 
    3150    132.31387   -461.65518    141834.55   -39638.695    2661.8226   -42300.518    22.040146     223.8622 
    3200    132.71415   -363.09899    141993.95   -39599.651    2669.8753   -42269.526    22.191108    224.53944 
    3250    135.65177   -554.50796    141975.56    -39597.58    2728.9728   -42326.553    22.492525     229.5096 
    3300    131.72217   -595.35639    141940.48   -39661.991     2649.919    -42311.91    22.664173     222.8611 
    3350    130.86615   -521.76376     142056.6   -39647.674    2632.6981   -42280.372    22.927225     221.4128 
    3400    133.96597   -498.24221     142197.7   -39624.309    2695.0587   -42319.368     23.00582    226.65739 
    3450    134.28698    -521.7837    142323.15   -39613.717    2701.5166   -42315.233    23.112722    227.20051 
    3500    135.04318    -449.9205    142322.95   -39613.135    2716.7293   -42329.864    23.344813    228.47992 
    3550    133.15655   -438.62523    142392.77   -39586.163    2678.7751   -42264.938    23.519296    225.28792 
    3600    135.06786   -446.68066     142403.4   -39643.258     2717.226   -42360.484    23.784134    228.52168 
    3650    134.50219   -638.93735     142291.7   -39624.387     2705.846   -42330.233    23.972908    227.56462 
    3700    129.51863   -507.11688    142209.96    -39642.89    2605.5893   -42248.479    24.236387    219.13292 
    3750    133.41577   -532.71972    142187.03   -39644.071      2683.99   -42328.061    24.298297     225.7265 
    3800    132.21303   -607.90695    142130.18   -39635.691    2659.7939   -42295.485    24.492473    223.69158 
    3850    134.58402   -441.35323    142135.61   -39569.079    2707.4923   -42276.571    24.729184    227.70307 
    3900    134.25777   -498.67731     142175.9   -39564.719    2700.9289   -42265.648     24.97851    227.15108 
    3950    134.47559   -534.76675     142148.3   -39590.819    2705.3109    -42296.13    25.178794    227.51962 
    4000    135.27676   -613.71876    142016.86   -39595.087    2721.4285   -42316.516    25.465306    228.87512 
    4050    133.96658   -589.76417     142003.6    -39616.57     2695.071   -42311.641    25.745368    226.65843 
    4100    132.08566   -522.94853    141926.73    -39656.19    2657.2315   -42313.422    25.889628    223.47609 
    4150    133.22897   -468.87378    141833.27    -39617.89     2680.232   -42298.122    26.143204    225.41045 
    4200    135.21756   -510.76577    141882.59   -39600.951    2720.2375   -42321.189    26.294077    228.77495 
    4250    132.38364   -403.90551    141895.07   -39645.633    2663.2263   -42308.859    26.533434    223.98025 
    4300    133.20953     -478.442    142028.35   -39587.151    2679.8409   -42266.992    26.890654    225.37756 
    4350    133.00291   -616.62423    141975.92   -39576.499    2675.6844   -42252.183    27.080922    225.02799 
    4400    132.03417   -654.97285    141786.22   -39617.586    2656.1957   -42273.782    27.270398    223.38897 
    4450    132.18835   -454.03153     141714.8   -39624.415    2659.2975   -42283.713    27.425562    223.64983 
    4500    132.84378   -574.33713    141916.08   -39637.526     2672.483   -42310.009    27.614886    224.75875 
    4550    129.81642   -355.61616    141745.79   -39666.871    2611.5801   -42278.451    27.796469    219.63675 
    4600    129.98621   -488.16992     141920.8   -39668.703    2614.9959   -42283.699    27.963572    219.92402 
    4650    132.92375   -351.63858    142037.98    -39676.81    2674.0919   -42350.902    28.159971    224.89406 
    4700      132.468   -679.61592    142034.11   -39724.881    2664.9232   -42389.804    28.373941    224.12296 
    4750    131.75314    -502.9581    142003.43   -39708.314    2650.5421   -42358.856    28.501601     222.9135 
    4800    132.96177   -659.17746    141948.31   -39690.689    2674.8567   -42365.545    28.907088    224.95839 
    4850    132.18539    -494.3008    141784.13   -39730.314     2659.238   -42389.552    29.115902    223.64483 
    4900    132.10556   -500.59892    141810.24   -39701.754    2657.6318   -42359.386    29.278387    223.50975 
    4950    132.64407    -463.2843    141890.66   -39694.459    2668.4654   -42362.924     29.35983    224.42087 
    5000    132.41219   -511.04315    141755.25   -39694.235    2663.8005   -42358.036    29.541378    224.02855 
    5050    129.62505   -606.02916    141837.86   -39714.123    2607.7302   -42321.853    29.706342    219.31297 
    5100    127.67172   -487.17641       141737   -39737.497    2568.4341   -42305.931    29.858072    216.00813 
    5150    130.48205   -507.62925    141651.58   -39728.732    2624.9709   -42353.703    29.884362    220.76293 
    5200     130.0461   -422.61082     141676.1   -39745.089    2616.2007    -42361.29    29.952459    220.02535 
    5250    130.45029   -558.89966    141605.89    -39691.76    2624.3321   -42316.092    30.139392    220.70921 
    5300     132.6524   -419.69985    141790.11   -39660.181     2668.633   -42328.814    30.205851    224.43497 
    5350    134.33227    -492.0005    141776.73   -39634.206    2702.4277   -42336.634    30.439339    227.27714 
    5400    134.79154   -461.85906    141928.83   -39640.251     2711.667   -42351.918    30.394649    228.05417 
    5450    131.09699   -468.64449    141915.84   -39646.144    2637.3421   -42283.486    30.598299    221.80336 
    5500    133.11657   -539.68556    141793.85   -39702.018    2677.9709   -42379.989    30.858322    225.22029 
    5550    129.72059   -455.38311    141850.94   -39661.502    2609.6522   -42271.155    30.990141    219.47462 
    5600    134.12376   -506.16186    141846.74   -39626.534    2698.2329   -42324.767     31.03045    226.92435 
    5650    134.14793   -514.54776    141852.86   -39574.285    2698.7193   -42273.004    31.410982    226.96526 
    5700    134.53959   -423.81568    141914.09   -39616.663    2706.5985   -42323.262     31.50212     227.6279 
    5750    133.72507   -586.47603    141850.46   -39603.343    2690.2124   -42293.555    31.478568    226.24982 
    5800    133.75378   -508.53556    141739.49   -39644.825    2690.7899   -42335.614    31.648618    226.29838 
    5850     134.6418   -536.78876    141689.34   -39639.834    2708.6547   -42348.489    31.778233    227.80083 
    5900    130.94175    -614.0408    141600.41   -39705.241    2634.2189    -42339.46    31.885528     221.5407 
    5950    132.42804   -441.79358    141612.23   -39672.918    2664.1195   -42337.037    32.112761    224.05537 
    6000    132.38872   -414.46275    141718.88   -39607.112    2663.3283   -42270.441    32.215812    223.98883 
    6050    134.60063   -317.19161    141893.71   -39561.558    2707.8265   -42269.384    32.272266    227.73118 
    6100    134.94147   -534.51304    141968.77   -39571.236    2714.6833   -42285.919    32.434652    228.30784 
    6150    132.34682   -712.09383    141856.48   -39598.949    2662.4855   -42261.434    32.751296    223.91795 
    6200    130.25184   -416.63329    141882.33   -39591.115    2620.3398   -42211.454    33.192834    220.37345 
    6250    132.80945   -495.25662    142021.38   -39567.144    2671.7924   -42238.936    33.402571    224.70068 
    6300    132.42999   -449.04111    142035.53   -39574.475    2664.1586   -42238.633    33.692231    224.05866 
    6350    134.53449   -272.88974    142127.42   -39518.388    2706.4958   -42224.884    33.828166    227.61926 
    6400    134.55921   -566.52488     142144.6   -39562.208    2706.9932   -42269.201    34.121633     227.6611 
    6450    133.28839   -363.48247    142141.94   -39554.949    2681.4275   -42236.377    34.417831      225.511 
    6500    132.69837   -389.26645    142117.91    -39629.22    2669.5577   -42298.778    34.768759    224.51273 
    6550    131.29682   -435.86952    142180.09   -39678.168    2641.3621   -42319.531    34.953308    222.14145 
    6600    133.60796   -474.93531    142278.87   -39708.378    2687.8563   -42396.235    35.028206    226.05167 
    6650    133.88573   -488.33056    142381.91    -39663.47    2693.4445   -42356.914    35.141226    226.52164 
    6700    134.01629   -428.58144    142426.13   -39602.425     2696.071   -42298.496     35.36717    226.74253 
    6750    132.05837   -465.75258    142411.66   -39608.516    2656.6825   -42265.198    35.463954    223.42991 
    6800    133.14451   -504.41118    142337.62   -39553.679     2678.533   -42232.212    35.644978    225.26757 
    6850    136.52236   -536.55443    142253.78   -39538.351    2746.4868   -42284.838    35.744462    230.98255 
    6900    134.90243   -326.24656     142270.3   -39531.103    2713.8978   -42245.001    35.947958    228.24179 
    6950    133.59707   -574.88608    142351.11   -39569.148    2687.6373   -42256.785     36.19282    226.03325 
    7000    133.57786   -543.78734    142344.16   -39544.117    2687.2509   -42231.368     36.53273    226.00075 
    7050    132.81489   -595.36149    142271.48   -39534.675    2671.9018   -42206.577    36.698142    224.70988 
    7100    136.26224   -486.27433    142342.18   -39527.725    2741.2538   -42268.979    36.800367    230.54245 
    7150    134.46387    -606.6043    142330.58   -39537.378    2705.0752   -42242.453     36.85961    227.49979 
    7200    135.94117   -363.45789    142401.19   -39509.518    2734.7948   -42244.313     36.94663    229.99924 
    7250    135.77173   -719.25104     142377.1   -39500.432    2731.3861   -42231.818    37.013495    229.71257 
    7300    134.71867   -481.82018    142304.59   -39539.114    2710.2011   -42249.315    37.119153    227.93089 
    7350    133.75829   -533.58717    142185.76   -39525.668    2690.8808   -42216.549    37.329599    226.30602 
    7400     133.8377   -676.73346    142126.84   -39557.626    2692.4782   -42250.104    37.456057    226.44037 
    7450    132.81835   -551.30626    142005.04   -39596.741    2671.9714   -42268.712    37.611288    224.71573 
    7500    132.20358   -429.74942    142081.22   -39560.121    2659.6039   -42219.724     37.86511     223.6756 
    7550    134.64385   -433.79692    142107.48   -39519.628    2708.6959   -42228.324     38.18038     227.8043 
    7600    134.02109   -564.25443    142080.16   -39544.426    2696.1675   -42240.594    38.560046    226.75065 
    7650    133.03985   -411.82437    142280.81   -39580.232    2676.4274   -42256.659    38.809956    225.09048 
    7700    132.75173   -621.20167    142312.03   -39611.955    2670.6312   -42282.587    38.835152    224.60301 
    7750    132.89416   -511.37366    142165.36   -39586.827    2673.4965   -42260.324    38.936935    224.84399 
    7800    132.84765   -376.57168    142216.52   -39607.453    2672.5609   -42280.014    38.983838     224.7653 
    7850    134.43323   -531.61939    142308.37   -39566.022    2704.4588   -42270.481    39.295432    227.44795 
    7900    135.34248   -570.41133    142198.14   -39543.378    2722.7506   -42266.129    39.509719    228.98631 
    7950    133.62514   -560.92051    142185.02   -39534.165     2688.202   -42222.367    39.870012    226.08074 
    8000     135.0621   -555.45321    142174.34   -39529.172      2717.11   -42246.282    40.106452    228.51193 
    8050    135.15988   -498.40603     142074.9   -39562.628    2719.0771   -42281.705    40.304275    228.67736 
    8100    133.10122   -478.43059    142173.74   -39588.778     2677.662    -42266.44    40.391608    225.19431 
    8150    133.48075   -425.03324    142035.77   -39565.753    2685.2972    -42251.05    40.725468    225.83644 
    8200    131.51836   -388.71583    142070.94   -39586.191     2645.819    -42232.01    41.042322    222.51628 
    8250    131.30294   -656.76689    141996.56   -39589.235    2641.4851    -42230.72    41.265636     222.1518 
    8300    133.08387   -616.45486    141750.83   -39601.222    2677.3129   -42278.535    41.486184    225.16496 
    8350    133.32615   -616.86825    141624.01   -39617.465    2682.1871   -42299.652    41.804371    225.57488 
    8400    134.61336   -340.87716    141662.95    -39623.81    2708.0825   -42331.892    41.984732    227.75271 
    8450    130.79458   -402.03032    141831.56   -39639.413    2631.2582   -42270.671    42.117371     221.2917 
    8500    133.27002    -558.8865    141877.78   -39624.846    2681.0579   -42305.904    42.365725    225.47991 
    8550    129.94485   -478.16823    141930.59   -39661.012    2614.1638   -42275.176    42.399779    219.85405 
    8600    131.22742   -392.91506     141895.7   -39610.745    2639.9659   -42250.711    42.552959    222.02403 
    8650    134.05437   -553.00865    141942.05   -39629.774     2696.837   -42326.611    42.665854    226.80695 
    8700    132.90652   -436.56555    141888.18   -39615.996    2673.7452   -42289.742    42.788295     224.8649 
    8750    129.82282   -485.08901    141885.58   -39655.483    2611.7089   -42267.192    42.923794    219.64758 
    8800    134.19083   -553.04833    141861.33   -39595.737    2699.5822    -42295.32    43.305547    227.03783 
    8850    132.36772   -567.91767    141842.32   -39603.311    2662.9058   -42266.217    43.584995     223.9533 
    8900    132.83839   -511.63385    141757.54   -39613.729    2672.3746   -42286.104    43.665578    224.74963 
    8950    133.06603    -374.3235    141874.06   -39563.544    2676.9541   -42240.498    43.678197    225.13478 
    9000    131.61997   -463.46123    141976.01   -39577.118     2647.863   -42224.981    43.756017    222.68819 
    9050    134.36693   -488.25066    141921.97   -39526.337     2703.125   -42229.462    43.966919    227.33578 
    9100    137.19326   -441.20521     142003.6   -39487.198    2759.9837   -42247.181    44.381522    232.11765 
    9150    132.23587   -707.90589    141817.35   -39562.011    2660.2534   -42222.265    44.494276    223.73023 
    9200    133.61273   -523.97468    141776.15   -39523.806    2687.9523   -42211.759    44.638456    226.05974 
    9250    133.14508   -442.86303    141847.84    -39518.21    2678.5444   -42196.755    44.973766    225.26853 
    9300    134.86149   -284.07606    142026.46   -39485.647    2713.0743   -42198.722    45.283003    228.17253 
    9350    134.88066   -477.14059    142174.76   -39477.544    2713.4599   -42191.004    45.531373    228.20495 
    9400     133.7126   -385.56679    142180.24   -39447.506    2689.9615   -42137.467    45.805547    226.22871 
    9450    137.51115   -581.53311    142189.15   -39444.749    2766.3788   -42211.128    46.045238    232.65549 
    9500    136.28233   -579.56021    142121.98    -39451.74     2741.658   -42193.398    46.237558    230.57644 
    9550    137.08927   -363.79972    142006.69   -39441.945    2757.8916   -42199.836    46.725515    231.94171 
    9600    135.07734   -395.09875    142071.72   -39489.244    2717.4167   -42206.661    47.028589    228.53772 
    9650    135.79973   -424.09114    142164.94   -39494.465    2731.9493   -42226.414    47.119679    229.75994 
    9700    133.73847    -510.2317    142161.94   -39477.685     2690.482   -42168.167    47.380547    226.27249 
    9750    135.32402   -452.47315    142053.39    -39534.67    2722.3792   -42257.049     47.60569    228.95508 
    9800    135.76974   -464.65835    142100.52   -39548.774    2731.3459    -42280.12    47.688288    229.70919 
    9850    132.24082   -517.96569     142112.9   -39607.656     2660.353   -42268.009    47.856313    223.73861 
    9900    131.21112   -451.08378    142055.81   -39555.714     2639.638   -42195.352    48.127173    221.99646 
    9950    136.07721   -592.04573     141964.8   -39500.592    2737.5315   -42238.123    48.279492     230.2294 
   10000    136.32649   -505.21153    141917.05   -39544.042    2742.5464   -42286.588    48.610781    230.65116 
   10050    132.76352   -476.67818     142016.5   -39585.653    2670.8685   -42256.522    48.876295    224.62297 
   10100    131.53586    -377.6864    142184.49   -39545.462    2646.1709   -42191.633    49.083676    222.54588 
   10150    133.57685   -564.90363     142236.4   -39548.821    2687.2306   -42236.052    49.148321    225.99904 
   10200    136.20923   -628.61913    142173.75    -39562.41    2740.1873   -42302.597    49.391823    230.45276 
   10250    131.91225   -450.29541    142168.55   -39623.033     2653.743   -42276.776    49.702011     223.1827 
   10300    130.90313   -603.70275    141924.94   -39659.333    2633.4419   -42292.775    49.879318    221.47536 
   10350    133.01188   -420.49425    141932.14   -39626.397    2675.8647   -42302.262    50.335245    225.04316 
   10400    132.30672   -570.92411    142013.03   -39618.989    2661.6787   -42280.668    50.421335     223.8501 
   10450    134.85087   -561.84294    141942.56   -39591.875    2712.8606   -42304.736    50.541358    228.15456 
   10500    134.48076   -463.71593    142018.16   -39613.276     2705.415   -42318.691    50.782356    227.52837 
   10550    131.36502   -444.65056    142083.04   -39613.597    2642.7342   -42256.331     50.98362    222.25684 
   10600    133.68179   -505.68854    141936.33   -39613.357    2689.3416   -42302.699    51.202834    226.17658 
   10650    132.03201   -458.40681    141981.48   -39659.805    2656.1523   -42315.958    51.403117    223.38533 
   10700    133.32731   -393.75515    142056.72   -39628.289    2682.2103   -42310.499    51.673097    225.57683 
   10750     133.6971   -506.92363    142112.94   -39640.866    2689.6498   -42330.516     51.78727     226.2025 
   10800    134.72223   -569.20469    142211.11   -39621.573    2710.2726   -42331.845     51.97433     227.9369 
   10850    132.48819   -448.29716    142199.41   -39593.549    2665.3295   -42258.879    52.050244    224.15713 
   10900    131.37926   -487.28413    142174.14   -39583.251    2643.0205   -42226.271    52.147407    222.28092 
   10950    133.40089   -692.80396    141968.85   -39585.243    2683.6906   -42268.934    52.503491    225.70133 
   11000    132.81454   -581.95507    141885.54   -39514.991    2671.8947   -42186.886    52.781401    224.70928 
   11050    134.57659   -453.57683    141794.12   -39524.598    2707.3428   -42231.941    53.097902     227.6905 
   11100     133.7533   -549.60023    141750.26   -39592.064    2690.7803   -42282.844    53.283091    226.29757 
   11150    134.79687   -697.96187    141595.15   -39604.147    2711.7743   -42315.921    53.424832     228.0632 
   11200    132.41113   -615.51007     141402.2   -39631.236    2663.7791   -42295.015    53.677705    224.02674 
   11250    130.85789   -353.14712    141446.38   -39672.535     2632.532   -42305.066     53.81955    221.39883 
   11300    133.38996   -429.76101    141751.96   -39652.285    2683.4709   -42335.756    54.027051    225.68284 
   11350    131.13891   -424.98449    141895.37   -39668.628    2638.1853   -42306.813    54.409277    221.87428 
   11400    132.45005   -472.02443    141914.16   -39708.528    2664.5622    -42373.09    54.607697    224.09261 
   11450    130.52104   -564.70612     141908.8    -39668.83    2625.7553   -42294.585    54.884321     220.8289 
   11500    132.92298   -386.40831    142067.19   -39665.172    2674.0763   -42339.248    55.125377    224.89275 
   11550    131.12117   -508.88334    142116.55   -39677.707    2637.8284   -42315.535    55.491888    221.84426 
   11600    130.97615   -574.28684    142040.97   -39653.954     2634.911   -42288.865    55.631786    221.59891 
   11650    131.16753   -560.19039    141980.43   -39647.741     2638.761   -42286.502    56.052891     221.9227 
   11700    132.84169   -439.97348    141952.17    -39663.94     2672.441   -42336.381    56.210609    224.75522 
   11750    131.95228   -430.34342    142031.22    -39641.18    2654.5483   -42295.728    56.256865    223.25042 
   11800    132.84984   -439.54582       142088   -39640.482     2672.605   -42313.087    56.657275    224.76901 
   11850    133.99032   -487.85539     142217.2   -39596.233    2695.5486   -42291.782    56.938092     226.6986 
   11900    132.92843   -508.19386    142273.21   -39561.046    2674.1859   -42235.232    57.293313    224.90197 
   11950    138.79635   -589.09871    142314.36   -39518.559    2792.2338   -42310.793    57.455645    234.82993 
   12000    132.24729   -448.56945    142266.88   -39567.581    2660.4832   -42228.064    57.881759    223.74956 
   12050    133.33724   -362.05038    142289.06   -39551.625    2682.4103   -42234.036    57.831242    225.59365 
   12100    135.74642   -380.78899    142271.61   -39601.992    2730.8769   -42332.869    57.790575    229.66975 
   12150    133.42835    -397.9442    142439.06   -39637.069     2684.243   -42321.312    57.888033    225.74778 
   12200    132.02299   -418.28565    142440.97   -39648.949    2655.9708    -42304.92    57.945833    223.37006 
   12250    131.91403   -509.52961    142316.42   -39686.008    2653.7788   -42339.787    58.022599    223.18571 
   12300    133.48902   -548.69773    142296.98    -39651.18    2685.4637   -42336.643    58.179828    225.85044 
   12350    135.41477   -397.86123    142430.43   -39592.628    2724.2049   -42316.832    58.489296    229.10862 
   12400    137.43841   -440.75947    142562.47    -39554.89    2764.9154   -42319.805    58.714342    232.53242 
   12450    134.88359   -522.16734    142548.47   -39595.467    2713.5189   -42308.986    58.985837    228.20992 
   12500    132.73146     -555.536    142614.06   -39634.699    2670.2233   -42304.922    59.339634    224.56871 
   12550    132.24998   -550.14774    142488.88   -39661.006    2660.5372   -42321.543    59.426794     223.7541 
   12600    132.44867   -604.56527    142517.33   -39711.289    2664.5344   -42375.823    59.630133    224.09027 
   12650    131.61865   -480.21682     142621.5   -39765.068    2647.8366   -42412.904    59.705934    222.68596 
   12700    130.54318   -547.36077    142539.57   -39756.371    2626.2007   -42382.571    59.685377    220.86636 
   12750    129.95333   -390.39074     142565.9   -39779.214    2614.3345   -42393.549    59.834609     219.8684 
   12800    130.57734   -431.09805    142665.26     -39772.5     2626.888   -42399.388    60.058061    220.92417 
   12850    128.61699   -602.22879    142595.05    -39818.96    2587.4506   -42406.411    60.394306    217.60743 
   12900    131.01141   -616.99295    142554.18   -39769.127    2635.6203   -42404.747    60.719968    221.65856 
   12950    133.34491   -509.11592    142531.53   -39756.309    2682.5645   -42438.874    60.670863    225.60662 
   13000    132.91401   -364.37036    142606.61   -39773.597     2673.896   -42447.493    60.785171    224.87758 
   13050    131.64697   -464.59424    142625.79   -39759.322    2648.4062   -42407.728    60.987961    222.73386 
   13100    133.70281   -442.69614    142718.54   -39727.898    2689.7645   -42417.662     61.16594    226.21214 
   13150    133.21363   -408.58211    142792.56   -39756.443    2679.9235   -42436.366    61.093974    225.38451 
   13200     128.7512   -599.64821    142785.01    -39730.75    2590.1505     -42320.9    61.234805     217.8345 
   13250    130.71991   -557.96068    142734.95   -39727.102    2629.7561   -42356.859    61.329963    221.16538 
   13300    135.58241    -685.0649    142627.69   -39684.357    2727.5773   -42411.934    61.241426    229.39224 
   13350    132.71831   -591.92772    142539.03   -39656.576     2669.959   -42326.535    61.280224    224.54648 
   13400    134.91797   -380.80123    142554.94   -39647.124    2714.2106   -42361.335    61.288023    228.26809 
   13450     131.1126    -515.0873    142683.56   -39664.721    2637.6561   -42302.377    61.395597    221.82977 
   13500    132.67146   -633.42688    142639.43   -39665.239    2669.0164   -42334.256    61.405841    224.46721 
   13550    132.44352   -474.80174    142547.84   -39656.772    2664.4309   -42321.203    61.640641    224.08156 
   13600    132.04053   -516.21095    142579.91   -39670.194    2656.3237   -42326.518    61.876604    223.39974 
   13650    132.03977   -563.84986    142489.21   -39612.175    2656.3084   -42268.483    62.228794    223.39845 
   13700    134.75147   -328.05061    142469.85   -39530.675     2710.861   -42241.536    62.279603    227.98639 
   13750    136.19271   -448.99073    142539.45   -39548.408     2739.855   -42288.263    62.486501    230.42481 
   13800    137.03583   -510.09386    142397.97    -39543.59    2756.8164   -42300.407    62.610831    231.85129 
   13850    133.52198   -601.28601    142468.42   -39534.863    2686.1266    -42220.99      62.8951    225.90619 
   13900    134.72434   -493.57141    142469.23   -39549.671    2710.3152   -42259.987     62.97081    227.94048 
   13950    132.26583   -278.53518    142406.36   -39559.323    2660.8561   -42220.179    63.218652    223.78091 
   14000    134.68928   -576.15729    142428.47   -39474.801    2709.6099   -42184.411    63.514064    227.88117 
   14050    135.90548   -542.11381    142503.49   -39498.666    2734.0768   -42232.742    63.711493    229.93886 
   14100    134.19738    -481.5122    142551.11   -39511.425     2699.714   -42211.139    63.763946    227.04891 
   14150    133.66821   -373.22354    142513.44   -39558.106    2689.0684   -42247.175    63.986594    226.15361 
   14200     135.7104   -449.26283    142516.82   -39556.286    2730.1522   -42286.439    64.145773     229.6088 
   14250    133.87429   -481.86914     142635.8   -39581.431    2693.2142   -42274.646    64.370146    226.50227 
   14300    134.35403   -536.09216    142627.65    -39552.87    2702.8654   -42255.736    64.479877    227.31395 
   14350    134.60134   -544.68121    142656.85   -39534.924    2707.8407   -42242.765    64.780729    227.73238 
   14400    133.73462   -418.08398    142742.39   -39571.749    2690.4045   -42262.153    65.078802    226.26597 
   14450    132.42181   -615.29406    142658.73   -39530.569     2663.994   -42194.564    65.463068    224.04482 
   14500    137.77218   -534.40798    142570.62   -39563.104      2771.63   -42334.734    65.626879    233.09713 
   14550    133.17879    -579.5609    142542.08   -39598.588    2679.2226    -42277.81     65.84453    225.32556 
   14600    131.84201   -426.24965    142444.63   -39608.709    2652.3299   -42261.039    66.174193    223.06385 
   14650     133.0865   -644.24984    142256.24   -39599.072     2677.366   -42276.438    66.442895    225.16942 
   14700    132.69892   -401.35368    142230.57    -39627.12    2669.5687   -42296.688    66.588324    224.51366 
   14750    133.24157   -403.12645    142215.42   -39636.087    2680.4855   -42316.573    66.680946    225.43178 
   14800    132.63039   -542.72461    142172.27   -39647.727    2668.1901   -42315.917    66.992243    224.39772 
   14850    130.81078   -442.21444    142165.53   -39694.377    2631.5843   -42325.962     67.00703    221.31912 
   14900    131.96141   -560.30267     142123.1   -39659.819    2654.7319   -42314.551    67.377708    223.26587 
   14950    134.87083   -601.79399    142125.13   -39686.583    2713.2623   -42399.846    67.485928    228.18833 
   15000    131.09688   -590.20774    141987.11   -39725.317    2637.3398   -42362.657    67.579616    221.80317 
   15050    130.12337   -432.74759    141956.57   -39735.058    2617.7551   -42352.813    67.987148    220.15608 
   15100    131.23869   -577.97783    141917.91   -39727.666    2640.1927   -42367.858    68.045886    222.04311 
   15150     130.8554    -398.9675    141949.07   -39729.447    2632.4819   -42361.929     68.19455    221.39461 
   15200    133.50971   -567.37395    141979.78   -39688.664    2685.8798   -42374.544    68.278804    225.88544 
   15250    133.73169   -625.41899    142018.24   -39675.095    2690.3455    -42365.44    68.603764    226.26101 
   15300    133.85687   -448.86958    141969.97   -39650.755    2692.8639   -42343.619    68.737078     226.4728 
   15350    131.72617   -568.25262    141886.38   -39619.494    2649.9995   -42269.493       68.961    222.86787 
   15400    132.76229    -671.1195    141767.33   -39671.881    2670.8436   -42342.724    69.205883    224.62088 
   15450    130.92708   -339.24593    141804.28   -39630.289    2633.9239   -42264.213    69.292617    221.51589 
   15500    134.96055   -393.10413    141849.98   -39629.118    2715.0671   -42344.185    69.232564    228.34012 
   15550    135.05784   -580.98439    141815.24   -39630.716    2717.0244    -42347.74    69.487793    228.50473 
   15600    133.28887   -469.98328    141851.27   -39647.231    2681.4372   -42328.668    69.602631    225.51181 
   15650    132.51604   -415.11633    141873.81    -39661.41    2665.8897     -42327.3    69.804053    224.20425 
   15700    134.31417   -638.27853    141956.72    -39662.25    2702.0636   -42364.314    70.175468    227.24651 
   15750    130.23846   -617.87933    141754.55   -39695.412    2620.0705   -42315.482    70.506865     220.3508 
   15800    132.55054   -358.69375    141687.59   -39718.719    2666.5838   -42385.303    70.602604    224.26263 
   15850     133.0963   -596.26765    141603.23   -39660.266    2677.5631   -42337.829    70.755896      225.186 
   15900    133.71835   -486.09234    141669.48   -39617.566    2690.0772   -42307.643    71.022676    226.23844 
   15950    133.94165   -423.50765    141767.66   -39637.495    2694.5694   -42332.065    71.229083    226.61625 
   16000    131.14554   -546.43267    141804.75   -39679.023    2638.3187   -42317.342     71.30535     221.8855 
   16050    133.19031   -685.38929    141780.25   -39663.319    2679.4543   -42342.773     71.41747    225.34505 
   16100     133.3906   -488.58417    141655.66   -39668.941    2683.4836   -42352.424    71.620707    225.68392 
   16150    134.32296   -429.65321    141749.65   -39618.692    2702.2404   -42320.933    71.688864    227.26139 
   16200    134.60488   -588.31752    141841.64   -39574.806     2707.912   -42282.718    71.775058    227.73837 
   16250    132.42928    -528.2501    141630.95   -39559.699    2664.1444   -42223.843    71.838467    224.05746 
   16300    135.07253   -250.29052    141777.06   -39564.521      2717.32   -42281.841    72.114262    228.52959 
   16350    131.39999   -548.07224    141712.39   -39646.704    2643.4377   -42290.142     72.49636    222.31601 
   16400    132.39714    -530.5306    141687.29   -39638.587    2663.4977   -42302.085    72.688325    224.00308 
   16450    131.35367    -370.6898    141850.09   -39675.433    2642.5058   -42317.939    72.977193    222.23764 
   16500     131.3332   -548.71016    141785.05   -39652.286    2642.0939    -42294.38    73.068168      222.203 
   16550    132.17147    -504.6056    141731.47   -39693.926    2658.9579   -42352.884    73.238275    223.62128 
   16600    132.53398   -519.49823    141752.16   -39672.457    2666.2507   -42338.707    73.557598    224.23461 
   16650    131.54065   -435.61813    141920.81    -39629.07    2646.2673   -42275.338    73.856096    222.55398 
   16700     131.5972   -527.18748    142009.62   -39649.786     2647.405    -42297.19    73.992161    222.64966 
   16750    133.62942   -370.31314    142163.71   -39645.409    2688.2881   -42333.697    74.228424    226.08798 
   16800    131.40247   -585.72486    142178.95   -39615.027    2643.4874   -42258.515     74.56008    222.32019 
   16850    132.62373   -586.94263    142066.38   -39565.476    2668.0563   -42233.533    74.809094    224.38646 
   16900    133.09685   -468.07806    142040.68    -39552.38    2677.5741   -42229.954    75.143928    225.18692 
   16950    134.49999   -419.72741    142112.24    -39537.36    2705.8019   -42243.162    75.486423    227.56091 
   17000    132.67365   -501.19122    142068.29   -39540.227    2669.0605   -42209.287    75.650993    224.47091 
   17050    131.58923   -470.98346    142199.45   -39566.588    2647.2447   -42213.833    75.858945    222.63619 
   17100    134.17926   -404.66277    142339.29   -39513.472    2699.3495   -42212.821    76.061514    227.01825 
   17150    134.24599   -659.91351    142292.61   -39530.415     2700.692   -42231.107    76.211974    227.13116 
   17200    136.36203   -481.99114    142276.13   -39538.376    2743.2614   -42281.637    76.337429    230.71129 
   17250    132.56554   -676.33948    142166.68   -39628.832    2666.8855   -42295.718    76.393205      224.288 
   17300    133.37618   -385.91135    142194.46   -39611.083    2683.1936   -42294.277    76.577847    225.65952 
   17350    132.74432   -491.25159    142214.55   -39642.049    2670.4821   -42312.531     76.81359    224.59047 
   17400     131.2522   -526.36413    142289.78   -39621.231    2640.4645   -42261.696    76.986637    222.06596 
   17450    132.38743   -479.12187    142333.31   -39620.934    2663.3023   -42284.237    77.416507    223.98665 
   17500    131.93036   -598.70027    142209.83   -39626.917    2654.1074   -42281.024    77.689953    223.21334 
   17550    130.87092   -562.33143    142041.42   -39630.149     2632.794   -42262.943    77.695757    221.42086 
   17600    130.65176   -615.72846    142030.84   -39616.699    2628.3852   -42245.084    78.071844    221.05008 
   17650    131.89288   -379.63954    142113.68   -39614.092    2653.3533   -42267.445    78.282076    223.14993 
   17700    131.03179   -637.81266    141985.43   -39656.193    2636.0304   -42292.223    78.421955    221.69305 
   17750    130.81892    -495.9842    142011.89   -39631.387    2631.7479   -42263.135    78.452314    221.33288 
   17800      132.792   -562.78914    141990.61   -39616.469    2671.4414   -42287.911    78.721717    224.67115 
   17850     130.4612   -555.45071     141939.2   -39636.611    2624.5514   -42261.163    79.011031    220.72765 
   17900     135.2578   -372.01669     141887.9   -39628.321     2721.047   -42349.369    79.276136    228.84304 
   17950    130.58186   -610.92211       142015   -39671.492    2626.9789   -42298.471    79.685212     220.9318 
   18000     130.4498   -526.51006    141889.04   -39696.139    2624.3221   -42320.462    79.910066    220.70837 
   18050    132.32863    -424.7353    141893.05   -39698.272    2662.1194   -42360.392    80.113721    223.88716 
   18100    132.43746   -549.34318    141901.67   -39735.394    2664.3089   -42399.703     80.36468     224.0713 
   18150    131.82826   -524.34866    141817.98   -39705.566    2652.0533   -42357.619    80.536722    223.04059 
   18200    132.09362   -652.11243    141820.95   -39705.891    2657.3917   -42363.283    80.797866    223.48956 
   18250    133.76379   -509.17206    141840.35   -39625.181    2690.9914   -42316.172    81.123465    226.31533 
   18300    131.87195   -419.31388     141783.5   -39644.947    2652.9323    -42297.88    81.502279    223.11451 
   18350    132.27227   -240.96515    142062.79   -39650.657    2660.9856   -42311.643    81.836602    223.79181 
   18400    131.01042   -444.98179    142149.59   -39646.644    2635.6004   -42282.245    82.065091    221.65689 
   18450    132.90006   -473.93487    142179.67   -39616.638    2673.6152   -42290.253    82.225444    224.85397 
   18500    132.73042   -448.32953    142076.56   -39637.904    2670.2025   -42308.107    82.393035    224.56696 
   18550     133.0815   -564.05404     141972.2   -39609.901    2677.2654   -42287.167    82.295577    225.16096 
   18600    132.83977   -481.08671    141999.94   -39680.665    2672.4024   -42353.067    82.449513    224.75197 
   18650    132.37036   -587.65321    141874.07   -39668.965    2662.9591   -42331.924      82.7144    223.95778 
   18700    130.72688   -421.81243    141813.26   -39686.046    2629.8964   -42315.943    82.859298    221.17717 
   18750    128.24705   -546.56765    141849.85   -39711.807    2580.0084   -42291.816     82.87233    216.98154 
   18800     132.3613   -493.74805    141899.78   -39706.351    2662.7768   -42369.128    83.109974    223.94245 
   18850    133.88704   -748.56558    141800.44   -39718.818    2693.4708   -42412.289    83.273164    226.52385 
   18900    130.87434   -679.46159    141536.24   -39743.738    2632.8629   -42376.601     83.43039    221.42665 
   18950    130.75941    -520.8864    141408.21   -39708.454    2630.5507   -42339.005    83.473104     221.2322 
   19000    132.27635   -568.02243    141484.19   -39689.541    2661.0678   -42350.609    83.523329    223.79872 
   19050    134.75847   -603.73755       141624   -39659.973    2711.0018   -42370.975    83.570284    227.99823 
   19100    134.04694   -456.37769     141671.9   -39647.384    2696.6875   -42344.072    83.746794    226.79438 
   19150    132.16765   -563.33545    141635.48   -39622.979     2658.881    -42281.86    83.666104    223.61481 
   19200    133.49107   -520.59062    141556.84   -39592.772    2685.5048   -42278.277    83.699252     225.8539 
   19250    132.94456   -210.95568    141574.48   -39581.266    2674.5105   -42255.777    83.685879    224.92927 
   19300    136.00297   -496.03357    141859.27   -39578.565    2736.0379   -42314.603     83.75298    230.10379 
   19350    131.86197   -493.64766    141932.16   -39536.358    2652.7315   -42189.089    83.984089    223.09763 
   19400    133.25864   -613.76688    141764.41   -39569.935    2680.8289   -42250.764    83.984825    225.46065 
   19450    133.12702   -484.19081    141882.58   -39589.064    2678.1811   -42267.245    84.355525    225.23797 
   19500     134.6647    -349.8209    141983.36   -39562.747    2709.1153   -42271.862    84.575491    227.83957 
   19550    133.33462   -406.77727     142081.1   -39554.807    2682.3574   -42237.165    84.735754     225.5892 
   19600     136.1866   -356.72684    142170.18   -39520.094    2739.7322   -42259.827    85.147119    230.41449 
   19650    133.83732   -496.18565    142105.64   -39545.938    2692.4705   -42238.408    85.281785    226.43972 
   19700    135.94556   -672.98578    142084.76   -39555.703     2734.883   -42290.586    85.291689    230.00666 
   19750    135.20399   -442.89891    142086.27   -39541.294    2719.9645   -42261.258    85.632801    228.75199 
   19800    134.50334   -522.44812    142111.91    -39554.34    2705.8692   -42260.209    85.742953    227.56657 
   19850    129.81962   -512.42094    141985.05   -39638.714    2611.6445   -42250.358    85.740966    219.64216 
   19900    133.79921   -470.29835    142106.19   -39620.938    2691.7038   -42312.642    85.581386    226.37524 
   19950    131.50172   -586.78657    142093.93   -39618.479    2645.4842   -42263.963    85.586262    222.48812 
   20000    133.51243   -472.93578    142014.77   -39623.352    2685.9346   -42309.287    85.783659    225.89005 
   20050      133.395   -509.00335    142060.96   -39593.959    2683.5722   -42277.532    85.703901    225.69136 
   20100    133.55174   -492.02679    142118.77   -39576.228    2686.7254   -42262.953    85.991913    225.95656 
   20150     132.8529   -522.38148    142055.93    -39631.42    2672.6664   -42304.087    86.187763    224.77418 
   20200    132.01071   -368.88707    142140.63   -39633.183    2655.7238   -42288.907    86.502485    223.34928 
   20250    132.98246   -504.99853    142259.24   -39610.483     2675.273   -42285.756    86.742432    224.99339 
   20300    135.58734   -501.86141    142297.03    -39626.26    2727.6765   -42353.937    86.882287    229.40059 
   20350    131.80414   -520.36168    142439.07   -39615.389    2651.5682   -42266.957     86.87551    222.99979 
   20400    131.66977   -590.25205    142406.09   -39588.888    2648.8649   -42237.753    87.018189    222.77245 
   20450     134.3117   -543.58489    142266.38   -39599.912    2702.0139   -42301.926    87.163028    227.24233 
   20500    133.92931   -452.89192    142303.83   -39606.431    2694.3211   -42300.753    87.719059    226.59536 
   20550    132.36482   -609.66126    142261.19   -39608.751    2662.8476   -42271.599    87.998131     223.9484 
   20600    133.02963   -484.84709    142258.19   -39573.497    2676.2218   -42249.718    88.114529    225.07319 
   20650    130.81852   -684.40719    142124.61   -39586.884    2631.7399   -42218.624    88.295707    221.33221 
   20700    132.80591    -464.0844     142111.1   -39589.977    2671.7211   -42261.698    88.472305    224.69468 
   20750    135.64287   -435.93015     142034.2   -39578.466    2728.7937    -42307.26     88.51982    229.49455 
   20800    132.08153    -513.4222    142054.22   -39537.234    2657.1485   -42194.383     88.67601     223.4691 
   20850    133.01991   -481.62121    142065.62   -39518.011    2676.0264   -42194.038    88.955994    225.05676 
   20900    135.15388   -458.88625     142064.6   -39504.589    2718.9564   -42223.545    89.044202    228.66722 
   20950    132.13039   -473.49559    142253.14   -39514.134    2658.1314   -42172.266    89.251212    223.55176 
   21000     131.8783   -469.39314    142165.36   -39565.382      2653.06   -42218.442    89.496419    223.12526 
   21050     131.7439   -594.88973    142183.58   -39581.995    2650.3562   -42232.351    89.638588    222.89787 
   21100    133.98139   -430.82967    142049.77   -39598.711     2695.369    -42294.08    89.768753    226.68349 
   21150    134.19601   -409.70629    142169.35   -39572.997    2699.6865   -42272.683    89.994973     227.0466 
   21200    136.14593   -432.96295    142097.51   -39622.884     2738.914   -42361.798    90.470068    230.34568 
   21250    133.70217   -679.39021    142017.58    -39603.17    2689.7518   -42292.922     90.69646    226.21107 
   21300    132.73317   -586.90689     141983.6   -39593.795    2670.2578   -42264.053    90.917882    224.57161 
   21350    131.56689   -559.99034    141996.04   -39614.933    2646.7951   -42261.728    91.070865    222.59837 
   21400    132.60548    -385.9238    141953.88   -39653.375     2667.689   -42321.064    91.498805    224.35557 
   21450    133.19724   -471.29687    141977.99   -39635.003    2679.5938   -42314.597    91.624996    225.35678 
   21500    132.05866   -433.44319    142089.68   -39627.808    2656.6884   -42284.496    91.805396    223.43041 
   21550    131.02312   -539.39324    142090.25   -39623.284     2635.856    -42259.14    91.936615    221.67838 
   21600    131.20847    -536.7921    141816.58   -39625.565    2639.5847   -42265.149    91.917492    221.99197 
   21650    132.49608   -628.65112    141523.26   -39662.885    2665.4882   -42328.373    91.846028    224.17049 
   21700    133.11881   -455.41198    141477.83    -39640.73    2678.0159   -42318.746    92.398368    225.22408 
   21750    134.12375   -338.06324    141603.11   -39576.145    2698.2329   -42274.377    92.774263    226.92434 
   21800     133.0984   -381.82906    141659.03   -39620.814    2677.6054    -42298.42    92.932143    225.18955 
   21850     134.3026    -570.1438    141775.01   -39577.323    2701.8307   -42279.154      93.2258    227.22693 
   21900    136.43782   -451.31059    141837.72   -39516.865    2744.7861   -42261.651    93.422703    230.83952 
   21950    135.25804   -476.22848    141799.86   -39548.272    2721.0519   -42269.323    93.591999    228.84345 
   22000    136.89572   -332.18421    142052.12   -39543.267    2753.9978   -42297.265    93.824604    231.61424 
   22050    134.77557    -613.1801    142012.37   -39518.313    2711.3459   -42229.659    94.247527    228.02716 
   22100    136.53639     -619.344    141843.15   -39494.435    2746.7691   -42241.204    94.176758     231.0063 
   22150    134.53264   -545.59367    141828.78   -39454.145    2706.4586   -42160.603    94.548283    227.61613 
   22200    135.61802   -534.06976     141822.3   -39493.985    2728.2937   -42222.279    94.906657    229.45249 
   22250    134.33364   -292.33279    141907.81   -39502.485    2702.4554   -42204.941    95.217774    227.27946 
   22300    133.82754   -414.03023    142036.68   -39562.025    2692.2737   -42254.299    95.518297    226.42318 
   22350    133.57919   -683.40299    142001.31   -39569.077    2687.2776   -42256.355     95.76248    226.00299 
   22400    133.36183   -418.62099    141959.76    -39620.63    2682.9049   -42303.535     95.85688    225.63524 
   22450     132.4215   -407.66133     142014.8   -39634.999    2663.9878   -42298.986    95.986261     224.0443 
   22500    131.78188   -658.58498    141940.01   -39674.539    2651.1202   -42325.659    95.996034    222.96212 
   22550    128.86018   -499.38764    141957.32   -39715.966    2592.3431   -42308.309    95.990172     218.0189 
   22600    133.71431   -550.50111    141943.44   -39650.754    2689.9958    -42340.75     96.27126     226.2316 
   22650    134.12696   -462.42706    141888.22   -39642.823    2698.2975   -42341.121    96.518782    226.92978 
   22700    131.89285   -383.30123    142021.82   -39653.554    2653.3527   -42306.907    96.982063    223.14987 
   22750    134.00278   -476.12621    142122.58    -39638.48    2695.7992    -42334.28    97.008832    226.71967 
   22800     133.0157   -412.27633    142125.75   -39555.975    2675.9416   -42231.917    96.973661    225.04962 
   22850    133.52563   -434.02149    142109.58   -39576.827    2686.2002   -42263.028    97.166121    225.91238 
   22900    134.96149   -458.05217    142129.24   -39562.678    2715.0861   -42277.764    97.353348    228.34172 
   22950    132.82783   -477.21438    142189.48   -39585.226     2672.162   -42257.388     97.75205    224.73176 
   23000    134.22219   -499.66638    142092.44   -39582.942    2700.2133   -42283.156    98.232285     227.0909 
   23050    132.85111   -502.00028    142004.78   -39656.416    2672.6305   -42329.047    98.736288    224.77116 
   23100    133.13064   -615.20712    141953.98   -39612.574    2678.2538   -42290.828    99.074808    225.24409 
   23150    132.04684   -587.63053    141891.43   -39618.066    2656.4507   -42274.517    99.402867    223.41042 
   23200    131.96226     -458.956    141752.36   -39624.185    2654.7491   -42278.934    99.745023    223.26731 
   23250    132.79506   -495.24216    141912.96   -39626.802    2671.5028   -42298.305    100.21553    224.67632 
   23300    133.63966    -406.7579    141899.91   -39639.825    2688.4942   -42328.319    100.48232    226.10531 
   23350    132.59253   -524.01776    141790.26   -39717.923    2667.4285   -42385.351    100.30573    224.33366 
   23400    131.92711    -593.5394    141781.42   -39679.402    2654.0418   -42333.444    100.52475    223.20783 
   23450    135.29165   -568.99061    141754.35   -39675.748    2721.7281   -42397.476    100.66458    228.90032 
   23500    130.63019   -394.71341    141785.92   -39724.131    2627.9512   -42352.082    100.71703    221.01358 
   23550    130.24729   -442.09298    141752.16   -39771.825    2620.2482   -42392.073    101.01729    220.36575 
   23600    130.11615   -564.19449    141677.48   -39730.524      2617.61   -42348.134    101.37228    220.14387 
   23650     131.6227   -406.68071    141718.22   -39692.377     2647.918   -42340.295     101.4176    222.69281 
   23700    130.56625   -562.19962    141720.09   -39684.924    2626.6649   -42311.588    101.65411     220.9054 
   23750    129.79861   -545.07432    141661.77   -39723.253    2611.2219   -42334.475    102.04048    219.60663 
   23800    131.39387   -501.41348    141570.32   -39676.796    2643.3145    -42320.11    102.23833    222.30565 
   23850    129.80752    -466.5866       141602   -39640.526     2611.401   -42251.927     102.2944    219.62169 
   23900    131.71803   -561.01472    141516.02   -39653.451    2649.8358   -42303.287    102.78075    222.85409 
   23950    131.26751   -424.98447    141607.23   -39664.808    2640.7725    -42305.58    103.12699    222.09187 
   24000    130.82656   -368.22794    141550.03    -39703.93    2631.9016   -42335.831    103.42271    221.34581 
   24050    129.56447   -560.73529    141648.15   -39720.707    2606.5116   -42327.219    103.98074    219.21049 
   24100    132.26235   -350.87496     141753.2   -39707.214    2660.7861       -42368    104.11203    223.77503 
   24150    131.99612   -644.56421    141823.17   -39714.579    2655.4303   -42370.009    104.20021     223.3246 
   24200    129.55802   -366.61751    141873.95   -39707.358    2606.3817    -42313.74    104.38412    219.19956 
   24250    131.57253   -520.57434    141960.26   -39657.119    2646.9087   -42304.027    104.70532    222.60792 
   24300    131.33549   -354.33651    142131.83   -39668.456      2642.14   -42310.596    105.04398    222.20687 
   24350    132.50403   -610.33214     142239.9   -39675.493    2665.6481   -42341.141    105.41481    224.18393 
   24400    132.69411   -573.10701     142168.3   -39683.534     2669.472   -42353.006    105.68444    224.50553 
   24450    132.52998   -543.44743    142071.68   -39663.987    2666.1702   -42330.157    105.59883    224.22784 
   24500    129.86071   -372.73827    141989.31   -39684.486    2612.4712   -42296.957    105.87869    219.71169 
   24550    132.74756   -606.68067     141939.5   -39681.568    2670.5473   -42352.115    105.85801    224.59596 
   24600    135.68447   -566.10271    141931.71   -39659.467    2729.6305   -42389.097    105.89868    229.56492 
   24650    132.54605   -546.35144    142025.36   -39647.348    2666.4934   -42313.842    106.20796    224.25502 
   24700    133.37771   -467.39881    142015.98   -39652.974    2683.2244   -42336.199    106.41211    225.66212 
   24750    132.80225   -536.91898    141896.01   -39670.686    2671.6475   -42342.334    106.52799    224.68849 
   24800    134.47366   -409.03708    141880.16   -39702.497     2705.272   -42407.769     106.7718    227.51635 
   24850    132.17632   -389.82909    142017.69   -39731.173    2659.0553   -42390.229     107.3908    223.62947 
   24900    133.01845   -398.39856    142166.72   -39728.502    2675.9969   -42404.499     107.6731    225.05428 
   24950    133.08929   -504.82868    142344.42   -39745.388    2677.4221    -42422.81    107.69643    225.17414 
   25000    133.17417   -518.42615    142313.97   -39681.622    2679.1297   -42360.751    107.82331    225.31775 
   25050    133.02797   -525.45603    142286.84   -39689.354    2676.1884   -42365.542    108.12952    225.07038 
   25100    133.28977   -471.37864    142149.22   -39709.137    2681.4551   -42390.592    108.16099    225.51332 
   25150    133.11579   -522.26564    142220.64   -39670.638    2677.9551   -42348.593    108.10139    225.21896 
   25200    131.23991   -584.29898    142225.36   -39725.198    2640.2173   -42365.416    108.15918    222.04517 
   25250    132.27673   -350.40632    142171.47   -39698.245    2661.0753    -42359.32    108.17987    223.79935 
   25300    131.90195    -435.9109    142209.95   -39700.563    2653.5357   -42354.098    108.41243    223.16526 
   25350    131.85939   -636.07298    142211.28   -39678.747    2652.6796   -42331.427    108.44298    223.09327 
   25400    134.71841   -418.34482    142114.58   -39631.034    2710.1959    -42341.23     108.6738    227.93045 
   25450    134.30933    -488.4132    142235.73   -39664.684    2701.9661    -42366.65    108.72163    227.23831 
   25500     133.1537   -638.42604    142173.47   -39651.628    2678.7177   -42330.346    109.14846     225.2831 
   25550    133.10103   -599.87052    142074.05     -39631.4    2677.6582   -42309.058    109.33247    225.19399 
   25600    131.45218   -458.43521    142057.64   -39660.027    2644.4875   -42304.515    109.35801     222.4043 
   25650    133.77695   -355.03533    142103.36   -39619.842    2691.2561   -42311.098     109.4924    226.33759 
   25700     134.3367   -459.85157    142175.05       -39598    2702.5168   -42300.516    109.67537    227.28463 
   25750    133.20206   -362.71218    142137.33   -39600.082    2679.6908   -42279.773    109.89661    225.36494 
   25800     134.7441   -499.31248    142129.76   -39611.716    2710.7127   -42322.428    110.06485    227.97391 
   25850    134.39416    -516.9753    142127.42   -39575.488    2703.6728   -42279.161     110.2081    227.38185 
   25900    133.50855   -467.31074    142261.49   -39542.789    2685.8565   -42228.646    110.28934    225.88347 
   25950    134.79038   -443.41011    142149.31   -39574.248    2711.6438   -42285.892    110.22779    228.05222 
   26000    134.61817   -587.96918    142089.97   -39525.186    2708.1792   -42233.365    110.36984    227.76085 
   26050    136.17471   -580.87684    142124.47   -39497.445     2739.493   -42236.938    110.60113    230.39436 
   26100    132.64006     -574.345    142128.28   -39514.779    2668.3846   -42183.163    110.64544    224.41407 
   26150     137.9485   -492.55902     142153.6   -39491.276    2775.1772   -42266.454    110.89233    233.39545 
   26200    134.03578   -404.96668    142203.67    -39473.32    2696.4632   -42169.783    111.20193    226.77551 
   26250    134.06775   -393.38596    142189.94   -39481.315    2697.1063   -42178.421    111.35933     226.8296 
   26300    135.05008   -532.64954    142300.84   -39515.051    2716.8682   -42231.919    111.53261     228.4916 
   26350    132.24991   -541.51762     142294.4   -39559.373    2660.5359   -42219.909    111.66604    223.75399 
   26400    135.64612   -690.17316    142193.51   -39557.608     2728.859   -42286.467    111.67602    229.50003 
   26450     133.3932    -592.7215    142118.91   -39587.813    2683.5359   -42271.349    111.91406    225.68831 
   26500    134.90895   -616.06726    141953.05   -39560.681     2714.029    -42274.71    112.09387    228.25282 
   26550    134.52556   -512.57295    141930.42   -39564.358    2706.3162   -42270.674    112.29984    227.60416 
   26600    135.18216   -533.06534    142015.52   -39563.932    2719.5254   -42283.457     112.5349    228.71507 
   26650    132.96388    -522.7706    141994.34   -39590.333    2674.8992   -42265.232    112.80853    224.96196 
   26700    133.53839   -295.90433    141955.74   -39602.008    2686.4569   -42288.465    113.17079    225.93397 
   26750    129.00231   -607.48379    142013.83   -39630.319    2595.2023   -42225.521    113.37138    218.25936 
   26800    134.77885   -511.14881    141970.84   -39640.239    2711.4118   -42351.651    113.37414    228.03271 
   26850    132.74987   -500.03794    141908.62   -39645.395    2670.5938   -42315.989    113.43967    224.59987 
   26900    132.25588   -600.30368    141954.85   -39640.331    2660.6559   -42300.987    113.69895    223.76408 
   26950    135.71896   -543.77851    142102.51   -39641.257    2730.3244   -42371.582    113.76507    229.62328 
   27000    133.02614   -461.95858    142103.71   -39660.556    2676.1517   -42336.708    113.74908     225.0673 
   27050    135.42892   -396.84452    142144.77    -39627.42    2724.4895   -42351.909    113.91041    229.13255 
   27100    134.62141   -452.26673     142288.5   -39659.655    2708.2445   -42367.899    114.12894    227.76634 
   27150    133.22581    -515.1143    142243.68   -39710.087    2680.1686   -42390.256    114.21851    225.40512 
   27200    133.86388   -579.15092    142129.28    -39685.45    2693.0048   -42378.455    114.66095    226.48466 
   27250    131.19493   -402.53216    142116.49   -39704.403    2639.3123   -42343.716    114.81333    221.96906 
   27300    133.35233   -278.67421    142262.16   -39694.089    2682.7137   -42376.803    115.20739    225.61917 
   27350    133.52865   -562.85831    142345.86   -39718.524    2686.2608   -42404.785    115.70561    225.91748 
   27400    132.30686   -474.86739    142329.29   -39750.677    2661.6816   -42412.359    115.86136    223.85034 
   27450     131.0488   -585.29058    142433.97   -39773.105    2636.3726   -42409.478    116.17876    221.72183 
   27500    131.56675   -430.08376     142324.4   -39774.502    2646.7925   -42421.294    116.40868    222.59815 
   27550    132.65415   -682.65777    142346.65   -39715.923    2668.6681   -42384.592    116.73124    224.43792 
   27600    133.40188   -536.11129    142408.86   -39704.526    2683.7107   -42388.236     116.9437    225.70301 
   27650    130.32117   -444.78529    142510.04   -39721.879    2621.7345   -42343.613    117.24858    220.49075 
   27700    132.72022   -380.95139    142606.07   -39667.041    2669.9972   -42337.038     117.4416    224.54969 
   27750    135.65533   -356.71086    142722.97    -39684.13    2729.0443   -42413.174    117.47717    229.51562 
   27800    134.37073   -734.08894    142595.93   -39684.535    2703.2015   -42387.737    117.82055    227.34221 
   27850    135.45236   -399.29941    142635.62   -39677.838    2724.9611   -42402.799    118.05777    229.17222 
   27900    134.09116   -419.79506    142728.13   -39685.188    2697.5772   -42382.765    118.19386     226.8692 
   27950    133.07856   -614.52587    142723.86   -39716.388    2677.2062   -42393.594    118.34556    225.15598 
   28000    134.82454   -581.04418    142694.73   -39710.433    2712.3309   -42422.764    118.34807       228.11 
   28050    134.85947   -606.64461     142691.9    -39698.51    2713.0337   -42411.543    118.53401    228.16911 
   28100    133.03521    -293.6001    142771.46   -39710.626    2676.3342    -42386.96    118.75956    225.08264 
   28150    134.01781   -668.17751    142740.47   -39719.091    2696.1016   -42415.192    119.06167     226.7451 
   28200    133.15845   -566.96408    142697.95    -39728.52    2678.8134   -42407.334    119.23003    225.29115 
   28250    136.39127   -514.15853    142653.78   -39654.293    2743.8497   -42398.142    119.24192    230.76077 
   28300    135.53867   -499.91434    142758.93   -39696.945    2726.6975   -42423.643    119.09259    229.31825 
   28350    129.50944   -544.20893    142806.91   -39749.191    2605.4044   -42354.595    119.00567    219.11737 
   28400    133.14973   -445.98854    142733.85   -39710.363     2678.638   -42389.001    119.46225     225.2764 
   28450    132.32946   -520.59382     142897.6   -39700.649    2662.1361   -42362.785    119.47778    223.88857 
   28500    131.77064   -609.37451    142878.36   -39727.314    2650.8942   -42378.208    119.61706    222.94311 
   28550    133.46511   -682.23169    142582.69   -39766.971    2684.9825   -42451.953    119.62093    225.80998 
   28600    130.49323   -435.07535    142480.12   -39751.874    2625.1959   -42377.069    119.76216    220.78186 
   28650    131.35999   -480.20831    142626.32   -39696.082     2642.633   -42338.715    120.07386    222.24833 
   28700    132.77963   -487.30654    142680.48   -39714.003    2671.1925   -42385.195    120.18876    224.65022 
   28750    131.75586   -731.05067     142564.6   -39754.583    2650.5968    -42405.18    120.29927     222.9181 
   28800    134.41952   -628.51427     142450.6   -39741.575    2704.1829   -42445.758    120.61201    227.42475 
   28850    132.56883   -548.08402     142221.1   -39762.925    2666.9518   -42429.877    120.85798    224.29357 
   28900    131.25027   -471.77963    142390.22   -39769.564    2640.4256   -42409.989    120.96963    222.06269 
   28950    128.85099    -506.8178    142343.43   -39770.918    2592.1581   -42363.076    121.04732    218.00334 
   29000    132.25655   -508.16458     142333.6   -39757.155    2660.6695   -42417.825    121.09098    223.76522 
   29050    131.40665   -562.37631    142315.23   -39765.907    2643.5716   -42409.479    121.37721    222.32727 
   29100    132.76552    -428.2747    142386.29   -39813.747    2670.9086   -42484.655    121.63015    224.62634 
   29150    128.15369   -458.64941    142372.75   -39825.815    2578.1303   -42403.945    121.85281    216.82358 
   29200    129.89855   -541.45886    142417.07   -39785.432    2613.2325   -42398.664    121.89805    219.77572 
   29250    131.39668   -374.64717    142429.82   -39777.008    2643.3711   -42420.379    122.10578    222.31041 
   29300    132.81532   -617.28265    142318.59    -39748.28    2671.9104    -42420.19    122.24561     224.7106 
   29350    131.99287   -507.33249    142268.67   -39723.528    2655.3648   -42378.893    122.17528     223.3191 
   29400    129.27184   -540.41186    142291.33   -39738.181    2600.6247   -42338.805    122.41001    218.71539 
   29450    133.58233   -567.74464    142163.48   -39726.543    2687.3408   -42413.884    122.69366    226.00831 
   29500    129.46709   -511.19052    142132.46   -39770.297    2604.5525   -42374.849    123.01277    219.04572 
   29550    131.98064   -365.34398    142211.19   -39747.595    2655.1189   -42402.714    123.48855    223.29841 
   29600    130.99421   -686.51745    142049.51   -39718.988    2635.2744   -42354.262    123.81893    221.62947 
   29650    131.07443   -458.02947    141916.74   -39732.419    2636.8881   -42369.307    123.91057    221.76518 
   29700    132.78135   -393.70734    141998.05   -39716.193     2671.227    -42387.42    124.08791    224.65313 
   29750    130.39451   -494.31767    142039.33   -39708.463    2623.2098   -42331.673    124.55392    220.61482 
   29800    128.61588   -313.67521    142237.61   -39736.449    2587.4284   -42323.877    124.63295    217.60557 
   29850    133.33967   -517.15492    142324.65   -39637.773     2682.459   -42320.232    124.89288    225.59774 
   29900    134.19815   -548.94184     142287.4   -39623.919    2699.7296   -42323.649    125.65058    227.05022 
   29950    135.57341   -528.14079    142358.25   -39554.909    2727.3963   -42282.305    126.12513    229.37702 
   30000    132.29798   -443.95314    142297.88   -39630.258    2661.5029   -42291.761    126.36166    223.83532 
   30050    134.39712   -685.26228    142277.89   -39618.268    2703.7324   -42322.001    126.51056    227.38686 
   30100    132.42463   -445.18703    142372.44   -39645.339    2664.0507    -42309.39    126.64436    224.04959 
   30150    131.12147   -423.18335    142346.72    -39684.35    2637.8344   -42322.184    127.12896    221.84477 
   30200    133.23022   -442.95027    142428.05   -39685.277    2680.2572   -42365.535    127.67136    225.41258 
   30250    130.72088   -579.80619    142316.04   -39686.483    2629.7757   -42316.259    127.93209    221.16702 
   30300    130.69311   -465.05607    142333.35   -39666.239     2629.217   -42295.456    128.23536    221.12003 
   30350    130.73869   -664.97441    142213.31   -39674.935    2630.1339   -42305.069    128.38748    221.19714 
   30400    132.43641   -504.05075    142176.35   -39666.424    2664.2877   -42330.712    128.91898    224.06952 
   30450    132.06348   -651.12132    142095.69   -39654.043    2656.7854   -42310.829    129.04778    223.43856 
   30500    133.10373   -336.58768    142200.37   -39654.577    2677.7126   -42332.289    129.41624    225.19857 
   30550    132.78205   -727.10208     142333.4   -39669.136    2671.2412   -42340.377     129.7603    224.65432 
   30600    131.92748   -344.07061    142312.26   -39629.363    2654.0493   -42283.412    129.95073    223.20846 
   30650    134.48186   -475.53894    142186.66   -39616.412    2705.4371   -42321.849    130.48916    227.53022 
   30700    133.51321   -387.59585    142246.55   -39568.296    2685.9503   -42254.247    130.56266    225.89137 
   30750    134.53438   -494.14264    142248.18   -39556.619    2706.4936   -42263.113    130.60141    227.61908 
   30800     132.8736   -452.80777    142215.84   -39547.185    2673.0828   -42220.268    130.83566     224.8092 
   30850    135.94209   -558.33728    142215.05   -39496.888    2734.8132   -42231.701    130.96686    230.00079 
   30900     135.4508   -436.97385    142243.83   -39492.539    2724.9298   -42217.469    130.88169    229.16959 
   30950      134.978   -762.51559    142250.06   -39500.412    2715.4181    -42215.83    130.84784    228.36964 
   31000    134.92625   -491.67012    142094.38   -39517.268    2714.3771   -42231.645    130.80011    228.28209 
   31050    133.93344    -435.9579    142196.63   -39530.185    2694.4043   -42224.589    130.98599    226.60236 
   31100    132.35319   -505.03242    142205.42   -39590.385    2662.6135   -42252.998    131.05016    223.92872 
   31150    135.01406   -415.01163    142044.92    -39627.98    2716.1436   -42344.124     130.8279    228.43065 
   31200    131.01765   -478.85577     142129.2   -39661.549    2635.7459   -42297.295    131.01253    221.66912 
   31250    130.29932   -645.04404    142086.36   -39616.589    2621.2948   -42237.884     130.9824    220.45377 
   31300    134.66554   -572.98425    141880.77   -39603.889    2709.1323   -42313.021     131.5172      227.841 
   31350    133.01185    -631.3408    141761.19   -39631.663    2675.8642   -42307.527    131.79577    225.04311 
   31400    133.09151   -411.03442    141834.25   -39634.932    2677.4668   -42312.398    131.95165    225.17789 
   31450    134.39166   -577.26961    141880.45   -39622.463    2703.6224   -42326.086    132.07971    227.37761 
   31500    134.24169   -361.49183    141912.64   -39567.616    2700.6055   -42268.222    132.15993    227.12388 
   31550    131.57356   -596.43349    141844.09   -39575.775    2646.9294   -42222.705    131.78559    222.60967 
   31600    133.48751   -399.50194     141864.8   -39542.868    2685.4332   -42228.302    131.97356    225.84788 
   31650    132.59447   -587.39458    141854.86   -39510.158    2667.4674   -42177.625    132.29832    224.33694 
   31700    136.06627   -546.79648    141904.55   -39512.704    2737.3115   -42250.015    132.58533     230.2109 
   31750    132.23312   -548.67985    141885.11   -39533.919    2660.1981   -42194.117    132.74051    223.72558 
   31800    130.98806    -442.0491    141860.96   -39505.846    2635.1506   -42140.996    132.94539    221.61906 
   31850    135.17334   -542.07414    142007.58   -39520.593    2719.3479   -42239.941    133.25992    228.70014 
   31900    134.71984   -472.84762    141898.15   -39520.203    2710.2245   -42230.427      133.588    227.93286 
   31950    135.19845   -658.32814    141737.83   -39507.723     2719.853   -42227.576    133.71161    228.74262 
   32000    134.15869   -482.51903    141707.57    -39537.16    2698.9357   -42236.096    133.86353    226.98345 
   32050    135.56002   -660.52039    141741.34   -39500.253    2727.1269    -42227.38    134.09302    229.35436 
   32100    133.67232   -531.69315    141597.22   -39508.887    2689.1512   -42198.039    134.13191    226.16057 
   32150    133.75588   -448.31206    141754.55   -39545.189    2690.8322   -42236.021    133.94712    226.30194 
   32200    133.51942   -317.88163    141753.77   -39495.549    2686.0752   -42181.624    134.10322    225.90187 
   32250    135.02946   -527.42867    141809.79   -39522.599    2716.4533   -42239.052    134.57951    228.45671 
   32300    136.20092   -462.05195    141872.95   -39498.203    2740.0201   -42238.223    134.80794     230.4387 
   32350    133.14149   -486.28402    141985.03   -39537.941    2678.4721   -42216.413    135.02138    225.26244 
   32400    136.39805   -388.98497    141991.17   -39495.557    2743.9859   -42239.542    134.85569    230.77223 
   32450     131.3907   -598.33539    142084.01   -39546.779    2643.2508   -42190.029     135.2556    222.30029 
   32500    133.14208   -595.59156     141875.5    -39613.01    2678.4841   -42291.495    135.27223    225.26345 
   32550    133.62706   -476.18521    141949.62   -39645.176    2688.2407   -42333.417    135.44027    226.08399 
   32600    131.71995   -525.16173    142023.12   -39652.285    2649.8744   -42302.159    135.71794    222.85734 
   32650    134.98385   -402.89321    142041.46   -39595.328    2715.5359   -42310.864    135.67996    228.37955 
   32700     134.4083   -581.16111    141953.27   -39600.726    2703.9572   -42304.683    135.91238    227.40577 
   32750    133.88625     -519.578     141907.4   -39555.917    2693.4548   -42249.372    136.45769    226.52251 
   32800    134.27072   -376.71599    141856.69   -39607.981    2701.1895   -42309.171    136.56139      227.173 
   32850    132.60251   -341.19747    142085.28   -39645.714    2667.6292   -42313.343    136.82615    224.35054 
   32900    136.94734   -425.45664    142191.78   -39620.738    2755.0363   -42375.774    137.34974    231.70158 
   32950    134.85678   -473.48547    142362.03   -39574.273    2712.9796   -42287.253    137.61337    228.16456 
   33000    135.93005   -462.77032    142239.75   -39570.191     2734.571   -42304.762    137.69992    229.98042 
   33050    134.97169   -569.18609    142166.13   -39590.968    2715.2913   -42306.259    137.79444    228.35897 
   33100    134.79754   -385.76743       142270   -39550.548    2711.7878   -42262.336    137.85022    228.06433 
   33150     134.2032   -420.73036    142482.55   -39585.501    2699.8312   -42285.333    138.26336    227.05876 
   33200    132.72239   -428.34725    142466.29    -39567.66    2670.0409   -42237.701      138.468    224.55337 
   33250    132.25798   -469.21786    142478.83   -39607.044    2660.6981   -42267.743    138.77084    223.76763 
   33300    134.08207   -472.77748    142521.14   -39621.277    2697.3943   -42318.671    138.75833    226.85382 
   33350    133.66427    -436.6363    142644.64   -39627.335    2688.9891   -42316.324     138.9563    226.14694 
   33400    133.11574   -605.64384    142650.86    -39601.21    2677.9542   -42279.165      139.484    225.21889 
   33450    133.90505   -411.69756     142557.3   -39595.681    2693.8332   -42289.514    139.45578    226.55433 
   33500    135.35916   -405.39626    142679.48   -39616.507    2723.0862   -42339.593    139.88197    229.01454 
   33550    132.89443   -514.89813    142765.69   -39643.578    2673.5019    -42317.08    140.16171    224.84444 
   33600    133.16058   -514.83642    142862.55   -39648.115    2678.8562   -42326.972     140.4783    225.29475 
   33650    131.88314   -514.95609    142790.58    -39689.41    2653.1574   -42342.568    140.61029    223.13345 
   33700    131.98888   -422.00446    142811.29    -39703.79    2655.2847   -42359.075    141.08994    223.31235 
   33750    132.88201   -606.29183    142728.31   -39700.413    2673.2522   -42373.665    141.69009    224.82344 
   33800    131.83933   -393.42929    142697.33   -39671.074     2652.276    -42323.35    141.92443    223.05932 
   33850    133.31808   -651.79474    142618.45   -39692.445    2682.0247    -42374.47    142.02483    225.56122 
   33900    132.54284   -570.65989    142442.39   -39683.759     2666.429   -42350.188    142.12724     224.2496 
   33950    133.89468   -560.96931    142371.09   -39686.678    2693.6245   -42380.302    142.19781    226.53678 
[...]
   92000     134.3969   -502.35391    142339.31   -39624.591    2703.7279   -42328.318    351.37069    227.38648 
   92050    133.22027   -478.08489    142250.88   -39568.166    2680.0571   -42248.224    351.92861    225.39575 
   92100    133.90804   -441.64558    142283.79   -39518.979    2693.8932   -42212.872    351.89822    226.55938 
   92150    135.03785   -462.95774    142408.89    -39506.87    2716.6223   -42223.492    351.76277    228.47091 
   92200    135.47362   -623.42471    142287.42   -39593.563    2725.3888   -42318.952    351.97094    229.20819 
   92250    131.89061   -591.36639    142089.44   -39618.346    2653.3077   -42271.654    352.60104    223.14609 
   92300    133.34997   -411.48412    141999.99   -39601.839    2682.6663   -42284.506    352.91657    225.61518 
   92350     132.6995   -603.45812    142165.91    -39624.98    2669.5805   -42294.561    353.50657    224.51465 
   92400    132.70659    -504.2354    142042.89    -39571.42    2669.7232   -42241.143    353.61002    224.52665 
   92450    133.53539   -409.83735    142165.45    -39586.14    2686.3965   -42272.537    354.14807    225.92889 
   92500    133.27491   -535.53276    142273.65   -39603.811    2681.1562   -42284.968    354.78808    225.48818 
   92550    135.89627   -568.57479    142095.84   -39582.291    2733.8914   -42316.183    354.51937    229.92326 
   92600    132.15316   -574.91344     142090.7   -39589.812    2658.5894   -42248.402    354.74946    223.59029 
   92650    129.22118   -577.17082    141871.76   -39651.543    2599.6053   -42251.148    354.48214    218.62966 
   92700     132.9665   -457.82133     141894.2   -39662.482    2674.9518   -42337.433    355.00389    224.96638 
   92750     133.1672   -520.97805    141948.91   -39657.518    2678.9894   -42336.508    355.66735    225.30594 
   92800    132.58873   -529.76085    141806.78    -39631.53     2667.352   -42298.882    355.69184    224.32723 
   92850    131.59274   -469.51406    141765.97   -39643.796    2647.3153   -42291.112    355.58011    222.64212 
   92900    132.54068   -429.29541    142036.55   -39639.447    2666.3855   -42305.833    356.55684    224.24594 
   92950    135.24987   -538.09034     142079.9   -39631.066    2720.8875   -42351.953    357.18645    228.82962 
   93000    133.90035   -277.12904    142148.75   -39607.769    2693.7386   -42301.508    357.03817    226.54638 
   93050    132.49633   -575.60123    142392.12   -39641.941    2665.4932   -42307.434    357.64776     224.1709 
   93100    132.44875   -397.37092    142408.89   -39612.975    2664.5361   -42277.511    358.06146    224.09041 
   93150    131.59539   -551.43895    142397.17   -39674.246    2647.3685   -42321.615    358.31932    222.64659 
   93200    132.88053   -507.67644    142498.25   -39672.965    2673.2224   -42346.188    358.70828    224.82093 
   93250    130.75797   -573.34592    142287.04   -39690.468    2630.5217    -42320.99    358.51738    221.22976 
   93300    135.24396   -538.64286    142295.21   -39613.171    2720.7685    -42333.94    358.74615    228.81962 
   93350    136.04378   -392.70499    142380.32   -39569.848    2736.8589   -42306.707     358.8206    230.17284 
   93400    136.47667   -598.78479    142313.41   -39567.277    2745.5676   -42312.845    358.73656    230.90525 
   93450    134.28905   -534.83076    142053.72   -39609.414    2701.5582   -42310.972     358.5652    227.20401 
   93500    131.71073     -600.165    142028.19   -39678.586    2649.6889   -42328.275    359.09414    222.84174 
   93550    132.14696    -444.5592    142049.07   -39676.218    2658.4647   -42334.683    359.13607     223.5798 
   93600    130.17515   -342.67976    142074.04   -39658.993    2618.7969    -42277.79    359.06855    220.24369 
   93650    132.04638   -513.23708    142003.32   -39674.588    2656.4413   -42331.029    359.25306    223.40963 
   93700    129.91132   -592.25381    141939.61   -39682.918    2613.4892   -42296.408    359.56749    219.79731 
   93750    133.98627   -477.33174    141971.13   -39619.715     2695.467   -42315.182    359.65325    226.69173 
   93800    134.39858   -513.79645    141994.16   -39631.404    2703.7616   -42335.166    359.96876    227.38932 
   93850    132.14752   -592.23514    141966.44    -39663.13     2658.476   -42321.606    359.96134    223.58075 
   93900    133.34837   -415.08997    141959.76   -39635.126    2682.6341    -42317.76    359.27557    225.61247 
   93950     132.3243   -326.96024    142003.12   -39642.075    2662.0323   -42304.108    359.33988    223.87984 
   94000    133.25723   -591.20276     142048.6   -39639.715    2680.8006   -42320.516     359.1772    225.45828 
   94050    133.17253   -488.42229    142149.63   -39680.608    2679.0966   -42359.705     359.4031    225.31496 
   94100    134.59993   -521.82843    142290.43   -39639.389    2707.8124   -42347.202    360.01481    227.72999 
   94150    134.27941   -529.38884    142265.02   -39588.881    2701.3643   -42290.246    360.16885     227.1877 
   94200      135.263   -543.21534    142281.14   -39565.681    2721.1517   -42286.832    360.24673    228.85184 
   94250    134.98221   -480.69693    142329.31   -39573.565    2715.5029   -42289.068    360.47322    228.37677 
   94300    131.03409     -597.678     142245.3   -39602.533    2636.0767   -42238.609     360.5225    221.69694 
   94350    132.44576    -375.2044    142189.91   -39600.101    2664.4758   -42264.577    360.46165    224.08534 
   94400    132.74958   -486.74345     142287.5   -39591.254     2670.588   -42261.842    360.87003    224.59938 
   94450    132.97282    -500.9468    142270.49   -39656.956    2675.0791   -42332.035     361.2661    224.97709 
   94500    131.92994   -589.56622    142149.58   -39628.551    2654.0988    -42282.65    361.28159    223.21262 
   94550    132.97025   -529.55909    142079.32   -39641.271    2675.0273   -42316.298     361.6641    224.97273 
   94600    133.79517   -440.02161    142129.24   -39618.374    2691.6226   -42309.997    361.54093    226.36842 
   94650    133.59307    -348.9537    142267.84    -39651.22    2687.5568   -42338.777    362.08906    226.02648 
   94700    132.98235   -368.62477     142600.3   -39637.505    2675.2707   -42312.776    362.53504     224.9932 
   94750    135.21696   -470.65669    142607.36   -39606.079    2720.2254   -42326.305    362.65692    228.77394 
   94800    137.09294   -482.29506    142638.86   -39575.478    2757.9655   -42333.443     362.8372    231.94792 
   94850    133.37157   -624.98368    142591.39    -39641.67    2683.1008   -42324.771    362.64504    225.65172 
   94900     134.7358   -559.04036    142497.03   -39680.252    2710.5457   -42390.798    362.79793    227.95987 
   94950    130.15572   -455.98311    142405.23   -39695.222    2618.4059   -42313.628    362.20953    220.21081 
   95000    131.32237   -385.69653    142501.12   -39709.112    2641.8761   -42350.988    362.33594    222.18468 
   95050     132.2865   -456.43073    142579.65   -39669.999    2661.2719   -42331.271    362.30784    223.81589 
   95100    135.05903   -539.83979    142607.07   -39640.141    2717.0483    -42357.19    362.58737    228.50674 
   95150     136.7427   -618.21806    142497.25   -39627.308    2750.9196   -42378.228    362.30251    231.35535 
   95200    134.04076    -286.7202    142464.79   -39677.618    2696.5632   -42374.181    362.81483    226.78392 
   95250    131.40478   -418.49834    142552.71   -39693.249     2643.534   -42336.783    363.20268    222.32411 
   95300    133.49468   -470.09212    142551.13   -39660.517    2685.5775   -42346.094    363.68852    225.86002 
   95350    133.86695    -588.2398    142487.03   -39599.926    2693.0666   -42292.993    363.94642    226.48985 
   95400    136.41605   -455.36277    142463.82   -39617.599    2744.3482   -42361.947    363.70854    230.80269 
   95450    134.47693   -529.49436    142527.86    -39592.43     2705.338   -42297.768    363.63846    227.52189 
   95500    134.93143   -431.12729    142398.66   -39591.549    2714.4813    -42306.03    363.46159    228.29086 
   95550    136.17712   -483.92425    142505.23   -39619.072    2739.5414   -42358.613     363.9844    230.39844 
   95600    133.84267   -602.27117    142568.89   -39617.848    2692.5782   -42310.426    364.29797    226.44878 
   95650    133.55043   -502.19956    142429.95   -39668.384     2686.699   -42355.083    364.07708    225.95433 
   95700    130.10682   -461.04487    142444.88    -39712.33    2617.4222   -42329.752    364.34201    220.12808 
   95750    130.02434   -582.62634     142437.7   -39693.136    2615.7629   -42308.899     364.5309    219.98853 
   95800    130.92949   -628.51509    142282.83   -39706.435    2633.9724   -42340.407     364.5419    221.51997 
   95850    131.94442   -435.57008    142234.66   -39635.168    2654.3902   -42289.558    364.59972    223.23713 
   95900    132.81466   -508.32925    142254.53   -39628.932    2671.8973   -42300.829    364.97559    224.70949 
   95950    135.84525   -556.91609    142258.41   -39588.886    2732.8651   -42321.751    364.68143    229.83695 
   96000    130.84257   -530.11879    142328.99   -39561.247    2632.2237   -42193.471    364.84544     221.3729 
   96050    132.95426    -403.3425    142447.06   -39535.735    2674.7056   -42210.441    364.90314    224.94568 
   96100    132.48865   -487.41154    142448.85   -39554.285    2665.3387   -42219.624    364.32404    224.15791 
   96150    131.09115   -418.72349    142358.56   -39614.758    2637.2245   -42251.982    364.12128    221.79347 
   96200    131.14147   -450.39922     142214.9   -39575.439    2638.2368   -42213.676    364.35644    221.87861 
   96250    134.36133   -487.61229    142310.29   -39556.075    2703.0122   -42259.087    364.42082    227.32629 
   96300    135.82423   -482.10614    142397.21   -39528.592    2732.4423   -42261.035    364.64175    229.80139 
   96350    135.07801   -411.48944    142538.86   -39470.621    2717.4301   -42188.051    365.17952    228.53885 
   96400    134.50631   -533.37483    142719.14   -39492.758     2705.929   -42198.687    365.62705     227.5716 
   96450    136.38798   -705.24328    142683.77   -39477.462    2743.7834   -42221.245    365.80168    230.75519 
   96500    131.29153   -559.95363    142539.37   -39522.521    2641.2556   -42163.777    365.92823    222.13249 
   96550    133.59892   -459.20586    142654.33   -39557.382    2687.6746   -42245.057    365.92108    226.03638 
   96600    132.63984   -477.48245    142645.37   -39575.749    2668.3802   -42244.129    366.42471     224.4137 
   96650    133.31697     -623.094    142663.03   -39563.423    2682.0024   -42245.426    366.86364    225.55935 
   96700    133.41605   -440.29131    142612.32   -39581.356    2683.9957   -42265.351    367.09519    225.72698 
   96750    132.67598   -580.28943    142603.56   -39573.366    2669.1074   -42242.474    367.31772    224.47486 
   96800    133.21307   -421.81078    142646.49   -39525.723    2679.9123   -42205.635    367.49664    225.38356 
   96850    135.93958   -609.53797    142630.24   -39524.416    2734.7628   -42259.179    367.78037    229.99655 
   96900    131.02922   -603.05181    142499.63   -39595.216    2635.9787   -42231.195    368.02632     221.6887 
   96950    130.61872   -633.18562    142381.95   -39586.315    2627.7203   -42214.035    367.74641    220.99416 
   97000    132.81425   -505.26691    142319.38    -39574.81    2671.8889   -42246.699     367.7275    224.70879 
   97050    134.15773   -582.95924    142264.51   -39611.222    2698.9163   -42310.138    368.02405    226.98183 
   97100    134.04839   -498.94998    142196.59   -39635.243    2696.7168    -42331.96    368.02425    226.79684 
   97150    134.59382    -502.6745    142254.07   -39642.866    2707.6894   -42350.556    368.30514    227.71965 
   97200    132.70426   -613.37248    142290.71   -39634.599    2669.6763   -42304.275    368.69148     224.5227 
   97250    132.48315   -540.32026    142131.12   -39670.751    2665.2281   -42335.979    369.19493    224.14861 
   97300    133.31328   -467.65429    142131.36   -39639.045    2681.9282   -42320.973    369.73196    225.55311 
   97350    135.34416   -531.82451    142179.59   -39610.911    2722.7843   -42333.696    370.12653    228.98915 
   97400    136.22236   -440.95433     142217.2   -39664.976    2740.4515   -42405.428    370.24575    230.47498 
   97450    132.48523   -594.42688     142397.9   -39705.006    2665.2699   -42370.276    370.47415    224.15213 
   97500    131.62125   -382.48358    142489.34   -39681.667    2647.8888   -42329.556    371.02904    222.69036 
   97550    133.56261   -449.11877    142475.85    -39657.87     2686.944   -42344.814    371.54042    225.97494 
   97600    135.35715    -473.9426    142421.48   -39610.831    2723.0457   -42333.876    371.88814    229.01113 
   97650    132.84455   -430.85976    142484.46   -39623.434    2672.4985   -42295.933     372.3469    224.76005 
   97700    135.81216   -631.23458    142600.73   -39556.341    2732.1994    -42288.54    372.34171    229.78097 
   97750    133.61096   -539.38557    142370.68   -39556.714    2687.9167    -42244.63    371.99485    226.05674 
   97800    131.77017   -583.19517    142299.77   -39624.491    2650.8846   -42275.376    372.14523    222.94231 
   97850    131.41272   -397.26063    142360.71   -39649.104    2643.6937   -42292.798    372.21675    222.33754 
   97900    132.68156   -458.25218    142332.65    -39638.84    2669.2195   -42308.059    372.25674    224.48429 
   97950    132.12694   -476.66063    142462.83   -39648.001    2658.0619   -42306.063    372.58311    223.54592 
   98000    131.14481   -603.06709    142512.17   -39691.534    2638.3041   -42329.838    372.97078    221.88427 
   98050    132.63022   -563.48076     142283.9   -39706.289    2668.1867   -42374.475    372.95663    224.39743 
   98100    134.59959   -808.07086    142129.29   -39658.128    2707.8054   -42365.933    372.79179    227.72941 
   98150    131.30417   -336.84373    142198.27   -39622.419      2641.51   -42263.929    373.18516    222.15389 
   98200    133.01202   -458.42181    142159.73   -39630.489    2675.8675   -42306.357    372.81782     225.0434 
   98250    131.39398   -574.10139    142112.69   -39644.359    2643.3167   -42287.676    373.03504    222.30583 
   98300    131.97529   -484.95116    142025.81   -39634.795    2655.0112   -42289.806    373.30126    223.28935 
   98350     132.0861   -490.12302    142014.45   -39655.123    2657.2404   -42312.364    373.57468    223.47684 
   98400    130.43342    -443.4902    141998.63   -39720.639    2623.9926   -42344.632    373.64942    220.68066 
   98450    130.12372   -444.59903    142019.78   -39666.398    2617.7622    -42284.16    373.66497    220.15667 
   98500       132.19   -504.44267    141914.94   -39608.742    2659.3306   -42268.073     373.8261    223.65262 
   98550    132.05039   -530.64269    141990.55   -39623.685    2656.5219   -42280.207    374.43485    223.41641 
   98600    133.61914   -386.63251    142064.02   -39648.207    2688.0813   -42336.288    374.43052    226.07058 
   98650    132.99419   -520.68677    142123.25   -39660.268    2675.5089   -42335.777    374.79972    225.01324 
   98700    134.31632   -456.37908    142245.97   -39614.853    2702.1069    -42316.96    375.27349    227.25016 
   98750    131.49092   -565.54694    142163.59   -39623.318    2645.2669   -42268.585     375.7312    222.46984 
   98800    131.53442   -514.11257    142143.53   -39608.273     2646.142   -42254.415    375.90564    222.54344 
   98850     130.4265    -569.6648    142175.43   -39588.375    2623.8534   -42212.229    375.94563    220.66895 
   98900    132.70709   -432.97483    142130.25   -39585.131    2669.7332   -42254.864    375.82717    224.52749 
   98950    132.56007   -558.97338    141940.84   -39627.724    2666.7756     -42294.5    375.32149    224.27875 
   99000    133.89299   -517.55585    141923.33   -39619.599    2693.5904   -42313.189    375.65473    226.53391 
   99050    131.81473   -513.57308    141991.22   -39680.495    2651.7812   -42332.276      376.136    223.01771 
   99100    129.78565   -569.23832    141820.29    -39655.45     2610.961   -42266.411    375.49779    219.58469 
   99150    131.82542   -565.86774    141772.95   -39653.034    2651.9962    -42305.03    375.46478    223.03579 
   99200    131.94852   -390.27247    141873.28   -39660.884    2654.4727   -42315.357    375.35083    223.24407 
   99250     130.7419   -430.48493     141890.7   -39584.777    2630.1984   -42214.976    375.70942    221.20258 
   99300    135.09446   -434.16834    141957.02   -39555.675     2717.761   -42273.436    376.00762    228.56668 
   99350     134.8236   -448.96577    142101.24   -39486.945    2712.3121   -42199.257    376.53359    228.10842 
   99400    135.13278   -481.89158    142050.95   -39558.132    2718.5319   -42276.664    376.42958    228.63152 
   99450    134.96771   -499.85227    142081.35   -39633.578    2715.2112   -42348.789     376.6616    228.35224 
   99500    133.30316   -516.62008    142186.79   -39612.132    2681.7246   -42293.857    376.82194    225.53598 
   99550    132.20826   -550.88765    142185.85   -39601.109    2659.6979   -42260.807    376.60475    223.68351 
   99600    131.77734   -599.72878    142049.73   -39617.204    2651.0289   -42268.233    376.47403    222.95444 
   99650    134.60791   -511.00195    142010.22   -39662.177    2707.9729    -42370.15    376.85226     227.7435 
   99700    133.71922   -428.64897    142157.65   -39588.095    2690.0946   -42278.189    377.26142    226.23991 
   99750    128.84903   -516.64087    142260.41   -39608.256    2592.1188   -42200.375    377.91155    218.00003 
   99800    131.79107   -416.09326    142330.66   -39600.843    2651.3052   -42252.148     378.4231    222.97767 
   99850    132.81615   -539.04683    142299.66   -39634.577    2671.9271   -42306.504    378.54824      224.712 
   99900    131.92051   -442.91366    142297.57   -39645.868    2653.9091   -42299.777    378.85365    223.19667 
   99950     133.7515   -549.48637    142287.15   -39602.116     2690.744    -42292.86    378.70612    226.29453 
  100000    132.09148   -363.32812    142439.34   -39633.608    2657.3486   -42290.956    378.94057    223.48594 
Loop time of 331.346 on 40 procs for 100000 steps with 6750 atoms

Performance: 130.377 ns/day, 0.184 hours/ns, 301.799 timesteps/s
99.5% CPU use with 40 MPI tasks x no OpenMP threads

MPI task timing breakdown:
Section |  min time  |  avg time  |  max time  |%varavg| %total
---------------------------------------------------------------
Pair    | 54.531     | 143.52     | 275.43     | 645.7 | 43.32
Neigh   | 1.9569     | 4.1396     | 12.243     | 165.5 |  1.25
Comm    | 33.21      | 125.01     | 149.29     | 343.2 | 37.73
Output  | 0.17785    | 0.18498    | 0.29954    |   4.3 |  0.06
Modify  | 8.306      | 57.082     | 125.69     | 724.5 | 17.23
Other   |            | 1.408      |            |       |  0.42

Nlocal:    168.75 ave 410 max 114 min
Histogram: 32 0 0 0 0 0 1 1 4 2
Nghost:    1288.55 ave 1653 max 870 min
Histogram: 16 0 0 0 0 0 0 0 16 8
Neighs:    0 ave 0 max 0 min
Histogram: 40 0 0 0 0 0 0 0 0 0
FullNghs:  20211 ave 75092 max 7199 min
Histogram: 32 0 0 0 0 0 0 1 4 3

Total # of neighbors = 808438
Ave neighs/atom = 119.769
Neighbor list builds = 6132
Dangerous builds = 0

write_data		${DIR}/data.eq-${NAME}-${TEMP}
write_data		run_7/data.eq-${NAME}-${TEMP}
write_data		run_7/data.eq-het_freeze_7-${TEMP}
write_data		run_7/data.eq-het_freeze_7-225
undump          1

reset_timestep  0

unfix           2
unfix           3
unfix           4


################################################
#######         Run Simulation         #########
################################################

log				${DIR}/log.run_${NAME}
log				run_7/log.run_${NAME}
log				run_7/log.run_het_freeze_7
