LAMMPS data file via write_data, version 16 Mar 2018, timestep = 8000000

4537 atoms
2 atom types

0.0000000000000000e+00 4.9219999999999999e+01 xlo xhi
0.0000000000000000e+00 4.9019635930410494e+01 ylo yhi
9.4684110294363677e-01 3.2993158897053505e+01 zlo zhi

Masses

1 18.015
2 12.01

Atoms # atomic

96 2 0.0000000000000000e+00 2.8417180249513345e+00 2.6716700566405827e+00 0 0 0
98 2 0.0000000000000000e+00 0.0000000000000000e+00 2.6716700566405827e+00 0 0 0
100 2 1.2305000000000001e+00 7.1042950623783474e-01 2.6716700566405827e+00 0 0 0
107 2 1.2305000000000001e+00 2.1312885187134998e+00 2.6716700566405827e+00 0 0 0
109 2 2.4610000000000003e+00 2.8417180249513345e+00 2.6716700566405827e+00 0 0 0
111 2 2.4610000000000003e+00 0.0000000000000000e+00 2.6716700566405827e+00 0 0 0
113 2 3.6915000000000004e+00 7.1042950623783474e-01 2.6716700566405827e+00 0 0 0
128 2 3.6914999999999996e+00 2.1312885187134998e+00 2.6716700566405827e+00 0 0 0
130 2 4.9220000000000006e+00 2.8417180249513332e+00 2.6716700566405827e+00 0 0 0
132 2 4.9220000000000006e+00 0.0000000000000000e+00 2.6716700566405827e+00 0 0 0
134 2 6.1524999999999999e+00 7.1042950623783407e-01 2.6716700566405827e+00 0 0 0
157 2 6.1524999999999999e+00 2.1312885187134989e+00 2.6716700566405827e+00 0 0 0
159 2 7.3829999999999991e+00 2.8417180249513345e+00 2.6716700566405827e+00 0 0 0
161 2 7.3829999999999991e+00 0.0000000000000000e+00 2.6716700566405827e+00 0 0 0
163 2 8.6134999999999984e+00 7.1042950623783407e-01 2.6716700566405827e+00 0 0 0
194 2 8.6134999999999984e+00 2.1312885187135002e+00 2.6716700566405827e+00 0 0 0
196 2 9.8440000000000012e+00 2.8417180249513332e+00 2.6716700566405827e+00 0 0 0
198 2 9.8440000000000012e+00 0.0000000000000000e+00 2.6716700566405827e+00 0 0 0
200 2 1.1074500000000002e+01 7.1042950623783330e-01 2.6716700566405827e+00 0 0 0
239 2 1.1074500000000002e+01 2.1312885187135002e+00 2.6716700566405827e+00 0 0 0
103 2 0.0000000000000000e+00 4.2625770374269996e+00 2.6716700566405827e+00 0 0 0
105 2 1.2305000000000001e+00 4.9730065436648339e+00 2.6716700566405827e+00 0 0 0
120 2 1.2305000000000001e+00 6.3938655561404980e+00 2.6716700566405827e+00 0 0 0
124 2 2.4610000000000003e+00 4.2625770374269996e+00 2.6716700566405827e+00 0 0 0
126 2 3.6914999999999996e+00 4.9730065436648339e+00 2.6716700566405827e+00 0 0 0
149 2 3.6914999999999996e+00 6.3938655561404980e+00 2.6716700566405827e+00 0 0 0
101 2 0.0000000000000000e+00 7.1042950623783341e+00 2.6716700566405827e+00 0 0 0
122 2 2.4610000000000003e+00 7.1042950623783341e+00 2.6716700566405827e+00 0 0 0
153 2 4.9220000000000006e+00 4.2625770374269978e+00 2.6716700566405827e+00 0 0 0
155 2 6.1524999999999999e+00 4.9730065436648339e+00 2.6716700566405827e+00 0 0 0
186 2 6.1524999999999999e+00 6.3938655561404980e+00 2.6716700566405827e+00 0 0 0
190 2 7.3829999999999991e+00 4.2625770374269996e+00 2.6716700566405827e+00 0 0 0
151 2 4.9220000000000006e+00 7.1042950623783341e+00 2.6716700566405827e+00 0 0 0
188 2 7.3830000000000009e+00 7.1042950623783341e+00 2.6716700566405827e+00 0 0 0
192 2 8.6135000000000002e+00 4.9730065436648339e+00 2.6716700566405827e+00 0 0 0
231 2 8.6135000000000002e+00 6.3938655561404980e+00 2.6716700566405827e+00 0 0 0
235 2 9.8440000000000012e+00 4.2625770374270004e+00 2.6716700566405827e+00 0 0 0
237 2 1.1074500000000002e+01 4.9730065436648339e+00 2.6716700566405827e+00 0 0 0
278 2 1.1074500000000002e+01 6.3938655561404980e+00 2.6716700566405827e+00 0 0 0
233 2 9.8440000000000012e+00 7.1042950623783341e+00 2.6716700566405827e+00 0 0 0
116 2 0.0000000000000000e+00 8.5251540748539991e+00 2.6716700566405827e+00 0 0 0
118 2 1.2305000000000001e+00 9.2355835810918343e+00 2.6716700566405827e+00 0 0 0
145 2 2.4610000000000003e+00 8.5251540748539991e+00 2.6716700566405827e+00 0 0 0
147 2 3.6915000000000004e+00 9.2355835810918343e+00 2.6716700566405827e+00 0 0 0
114 2 0.0000000000000000e+00 1.1366872099805333e+01 2.6716700566405827e+00 0 0 0
141 2 1.2305000000000001e+00 1.0656442593567498e+01 2.6716700566405827e+00 0 0 0
143 2 2.4610000000000003e+00 1.1366872099805333e+01 2.6716700566405827e+00 0 0 0
178 2 3.6914999999999996e+00 1.0656442593567499e+01 2.6716700566405827e+00 0 0 0
182 2 4.9220000000000006e+00 8.5251540748539991e+00 2.6716700566405827e+00 0 0 0
184 2 6.1524999999999999e+00 9.2355835810918343e+00 2.6716700566405827e+00 0 0 0
227 2 7.3830000000000009e+00 8.5251540748539991e+00 2.6716700566405827e+00 0 0 0
180 2 4.9220000000000006e+00 1.1366872099805333e+01 2.6716700566405827e+00 0 0 0
223 2 6.1524999999999999e+00 1.0656442593567499e+01 2.6716700566405827e+00 0 0 0
225 2 7.3829999999999991e+00 1.1366872099805333e+01 2.6716700566405827e+00 0 0 0
229 2 8.6134999999999984e+00 9.2355835810918343e+00 2.6716700566405827e+00 0 0 0
274 2 9.8440000000000012e+00 8.5251540748539956e+00 2.6716700566405827e+00 0 0 0
276 2 1.1074500000000002e+01 9.2355835810918343e+00 2.6716700566405827e+00 0 0 0
270 2 8.6134999999999984e+00 1.0656442593567498e+01 2.6716700566405827e+00 0 0 0
272 2 9.8440000000000012e+00 1.1366872099805333e+01 2.6716700566405827e+00 0 0 0
317 2 1.1074500000000002e+01 1.0656442593567498e+01 2.6716700566405827e+00 0 0 0
319 2 1.2304999999999998e+01 1.1366872099805333e+01 2.6716700566405827e+00 0 0 0
97 2 0.0000000000000000e+00 1.4208590124756650e+00 5.8075229717019416e+00 0 0 0
99 2 0.0000000000000000e+00 0.0000000000000000e+00 5.8075229717019416e+00 0 0 0
108 2 1.2305000000000001e+00 2.1312885187134998e+00 5.8075229717019416e+00 0 0 0
110 2 2.4610000000000003e+00 1.4208590124756650e+00 5.8075229717019416e+00 0 0 0
112 2 2.4610000000000003e+00 0.0000000000000000e+00 5.8075229717019416e+00 0 0 0
129 2 3.6914999999999996e+00 2.1312885187134998e+00 5.8075229717019416e+00 0 0 0
425 2 0.0000000000000000e+00 2.8417180249513345e+00 8.9433758867632704e+00 0 0 0
426 2 0.0000000000000000e+00 0.0000000000000000e+00 8.9433758867632704e+00 0 0 0
427 2 1.2305000000000001e+00 7.1042950623783474e-01 8.9433758867632704e+00 0 0 0
431 2 1.2305000000000001e+00 2.1312885187134998e+00 8.9433758867632704e+00 0 0 0
432 2 2.4610000000000003e+00 2.8417180249513345e+00 8.9433758867632704e+00 0 0 0
433 2 2.4610000000000003e+00 0.0000000000000000e+00 8.9433758867632704e+00 0 0 0
434 2 3.6915000000000004e+00 7.1042950623783474e-01 8.9433758867632704e+00 0 0 0
442 2 3.6914999999999996e+00 2.1312885187134998e+00 8.9433758867632704e+00 0 0 0
106 2 1.2305000000000001e+00 3.5521475311891644e+00 5.8075229717019416e+00 0 0 0
127 2 3.6914999999999996e+00 3.5521475311891644e+00 5.8075229717019416e+00 0 0 0
131 2 4.9220000000000006e+00 1.4208590124756650e+00 5.8075229717019416e+00 0 0 0
133 2 4.9220000000000006e+00 0.0000000000000000e+00 5.8075229717019416e+00 0 0 0
158 2 6.1524999999999999e+00 2.1312885187134989e+00 5.8075229717019416e+00 0 0 0
160 2 7.3829999999999991e+00 1.4208590124756659e+00 5.8075229717019416e+00 0 0 0
162 2 7.3829999999999991e+00 0.0000000000000000e+00 5.8075229717019416e+00 0 0 0
443 2 4.9220000000000006e+00 2.8417180249513332e+00 8.9433758867632704e+00 0 0 0
444 2 4.9220000000000006e+00 0.0000000000000000e+00 8.9433758867632704e+00 0 0 0
445 2 6.1524999999999999e+00 7.1042950623783407e-01 8.9433758867632704e+00 0 0 0
457 2 6.1524999999999999e+00 2.1312885187134989e+00 8.9433758867632704e+00 0 0 0
458 2 7.3829999999999991e+00 2.8417180249513345e+00 8.9433758867632704e+00 0 0 0
459 2 7.3829999999999991e+00 0.0000000000000000e+00 8.9433758867632704e+00 0 0 0
156 2 6.1524999999999999e+00 3.5521475311891644e+00 5.8075229717019416e+00 0 0 0
195 2 8.6134999999999984e+00 2.1312885187135002e+00 5.8075229717019416e+00 0 0 0
197 2 9.8440000000000012e+00 1.4208590124756659e+00 5.8075229717019416e+00 0 0 0
199 2 9.8440000000000012e+00 0.0000000000000000e+00 5.8075229717019416e+00 0 0 0
240 2 1.1074500000000002e+01 2.1312885187135002e+00 5.8075229717019416e+00 0 0 0
460 2 8.6134999999999984e+00 7.1042950623783407e-01 8.9433758867632704e+00 0 0 0
476 2 8.6134999999999984e+00 2.1312885187135002e+00 8.9433758867632704e+00 0 0 0
477 2 9.8440000000000012e+00 2.8417180249513332e+00 8.9433758867632704e+00 0 0 0
478 2 9.8440000000000012e+00 0.0000000000000000e+00 8.9433758867632704e+00 0 0 0
479 2 1.1074500000000002e+01 7.1042950623783330e-01 8.9433758867632704e+00 0 0 0
499 2 1.1074500000000002e+01 2.1312885187135002e+00 8.9433758867632704e+00 0 0 0
193 2 8.6134999999999984e+00 3.5521475311891657e+00 5.8075229717019416e+00 0 0 0
238 2 1.1074500000000002e+01 3.5521475311891644e+00 5.8075229717019416e+00 0 0 0
102 2 0.0000000000000000e+00 5.6834360499026637e+00 5.8075229717019416e+00 0 0 0
104 2 0.0000000000000000e+00 4.2625770374269996e+00 5.8075229717019416e+00 0 0 0
121 2 1.2305000000000001e+00 6.3938655561404980e+00 5.8075229717019416e+00 0 0 0
123 2 2.4610000000000003e+00 5.6834360499026637e+00 5.8075229717019416e+00 0 0 0
125 2 2.4610000000000003e+00 4.2625770374269996e+00 5.8075229717019416e+00 0 0 0
150 2 3.6914999999999996e+00 6.3938655561404980e+00 5.8075229717019416e+00 0 0 0
429 2 0.0000000000000000e+00 4.2625770374269996e+00 8.9433758867632704e+00 0 0 0
430 2 1.2305000000000001e+00 4.9730065436648339e+00 8.9433758867632704e+00 0 0 0
438 2 1.2305000000000001e+00 6.3938655561404980e+00 8.9433758867632704e+00 0 0 0
440 2 2.4610000000000003e+00 4.2625770374269996e+00 8.9433758867632704e+00 0 0 0
441 2 3.6914999999999996e+00 4.9730065436648339e+00 8.9433758867632704e+00 0 0 0
453 2 3.6914999999999996e+00 6.3938655561404980e+00 8.9433758867632704e+00 0 0 0
119 2 1.2305000000000001e+00 7.8147245686161639e+00 5.8075229717019416e+00 0 0 0
148 2 3.6914999999999996e+00 7.8147245686161639e+00 5.8075229717019416e+00 0 0 0
428 2 0.0000000000000000e+00 7.1042950623783341e+00 8.9433758867632704e+00 0 0 0
439 2 2.4610000000000003e+00 7.1042950623783341e+00 8.9433758867632704e+00 0 0 0
152 2 4.9220000000000006e+00 5.6834360499026637e+00 5.8075229717019416e+00 0 0 0
154 2 4.9220000000000006e+00 4.2625770374269978e+00 5.8075229717019416e+00 0 0 0
187 2 6.1524999999999999e+00 6.3938655561404980e+00 5.8075229717019416e+00 0 0 0
189 2 7.3829999999999991e+00 5.6834360499026637e+00 5.8075229717019416e+00 0 0 0
191 2 7.3829999999999991e+00 4.2625770374269996e+00 5.8075229717019416e+00 0 0 0
455 2 4.9220000000000006e+00 4.2625770374269978e+00 8.9433758867632704e+00 0 0 0
456 2 6.1524999999999999e+00 4.9730065436648339e+00 8.9433758867632704e+00 0 0 0
472 2 6.1524999999999999e+00 6.3938655561404980e+00 8.9433758867632704e+00 0 0 0
474 2 7.3829999999999991e+00 4.2625770374269996e+00 8.9433758867632704e+00 0 0 0
185 2 6.1524999999999999e+00 7.8147245686161639e+00 5.8075229717019416e+00 0 0 0
454 2 4.9220000000000006e+00 7.1042950623783341e+00 8.9433758867632704e+00 0 0 0
473 2 7.3830000000000009e+00 7.1042950623783341e+00 8.9433758867632704e+00 0 0 0
232 2 8.6135000000000002e+00 6.3938655561404980e+00 5.8075229717019416e+00 0 0 0
234 2 9.8440000000000012e+00 5.6834360499026637e+00 5.8075229717019416e+00 0 0 0
236 2 9.8440000000000012e+00 4.2625770374270004e+00 5.8075229717019416e+00 0 0 0
279 2 1.1074500000000002e+01 6.3938655561404980e+00 5.8075229717019416e+00 0 0 0
475 2 8.6135000000000002e+00 4.9730065436648339e+00 8.9433758867632704e+00 0 0 0
495 2 8.6135000000000002e+00 6.3938655561404980e+00 8.9433758867632704e+00 0 0 0
497 2 9.8440000000000012e+00 4.2625770374270004e+00 8.9433758867632704e+00 0 0 0
498 2 1.1074500000000002e+01 4.9730065436648339e+00 8.9433758867632704e+00 0 0 0
519 2 1.1074500000000002e+01 6.3938655561404980e+00 8.9433758867632704e+00 0 0 0
230 2 8.6135000000000002e+00 7.8147245686161639e+00 5.8075229717019416e+00 0 0 0
277 2 1.1074500000000002e+01 7.8147245686161639e+00 5.8075229717019416e+00 0 0 0
496 2 9.8440000000000012e+00 7.1042950623783341e+00 8.9433758867632704e+00 0 0 0
115 2 0.0000000000000000e+00 9.9460130873296642e+00 5.8075229717019416e+00 0 0 0
117 2 0.0000000000000000e+00 8.5251540748539991e+00 5.8075229717019416e+00 0 0 0
144 2 2.4610000000000003e+00 9.9460130873296642e+00 5.8075229717019416e+00 0 0 0
146 2 2.4610000000000003e+00 8.5251540748539991e+00 5.8075229717019416e+00 0 0 0
436 2 0.0000000000000000e+00 8.5251540748539991e+00 8.9433758867632704e+00 0 0 0
437 2 1.2305000000000001e+00 9.2355835810918343e+00 8.9433758867632704e+00 0 0 0
451 2 2.4610000000000003e+00 8.5251540748539991e+00 8.9433758867632704e+00 0 0 0
452 2 3.6915000000000004e+00 9.2355835810918343e+00 8.9433758867632704e+00 0 0 0
140 2 1.2305000000000001e+00 1.2077301606043163e+01 5.8075229717019416e+00 0 0 0
142 2 1.2305000000000001e+00 1.0656442593567498e+01 5.8075229717019416e+00 0 0 0
177 2 3.6914999999999996e+00 1.2077301606043163e+01 5.8075229717019416e+00 0 0 0
179 2 3.6914999999999996e+00 1.0656442593567499e+01 5.8075229717019416e+00 0 0 0
435 2 0.0000000000000000e+00 1.1366872099805333e+01 8.9433758867632704e+00 0 0 0
449 2 1.2305000000000001e+00 1.0656442593567498e+01 8.9433758867632704e+00 0 0 0
450 2 2.4610000000000003e+00 1.1366872099805333e+01 8.9433758867632704e+00 0 0 0
468 2 3.6914999999999996e+00 1.0656442593567499e+01 8.9433758867632704e+00 0 0 0
181 2 4.9220000000000006e+00 9.9460130873296642e+00 5.8075229717019416e+00 0 0 0
183 2 4.9220000000000006e+00 8.5251540748539991e+00 5.8075229717019416e+00 0 0 0
226 2 7.3830000000000009e+00 9.9460130873296642e+00 5.8075229717019416e+00 0 0 0
228 2 7.3830000000000009e+00 8.5251540748539991e+00 5.8075229717019416e+00 0 0 0
470 2 4.9220000000000006e+00 8.5251540748539991e+00 8.9433758867632704e+00 0 0 0
471 2 6.1524999999999999e+00 9.2355835810918343e+00 8.9433758867632704e+00 0 0 0
493 2 7.3830000000000009e+00 8.5251540748539991e+00 8.9433758867632704e+00 0 0 0
222 2 6.1524999999999999e+00 1.2077301606043163e+01 5.8075229717019416e+00 0 0 0
224 2 6.1524999999999999e+00 1.0656442593567499e+01 5.8075229717019416e+00 0 0 0
469 2 4.9220000000000006e+00 1.1366872099805333e+01 8.9433758867632704e+00 0 0 0
491 2 6.1524999999999999e+00 1.0656442593567499e+01 8.9433758867632704e+00 0 0 0
492 2 7.3829999999999991e+00 1.1366872099805333e+01 8.9433758867632704e+00 0 0 0
273 2 9.8440000000000012e+00 9.9460130873296642e+00 5.8075229717019416e+00 0 0 0
275 2 9.8440000000000012e+00 8.5251540748539956e+00 5.8075229717019416e+00 0 0 0
494 2 8.6134999999999984e+00 9.2355835810918343e+00 8.9433758867632704e+00 0 0 0
517 2 9.8440000000000012e+00 8.5251540748539956e+00 8.9433758867632704e+00 0 0 0
518 2 1.1074500000000002e+01 9.2355835810918343e+00 8.9433758867632704e+00 0 0 0
269 2 8.6135000000000002e+00 1.2077301606043163e+01 5.8075229717019416e+00 0 0 0
271 2 8.6134999999999984e+00 1.0656442593567498e+01 5.8075229717019416e+00 0 0 0
316 2 1.1074500000000002e+01 1.2077301606043163e+01 5.8075229717019416e+00 0 0 0
318 2 1.1074500000000002e+01 1.0656442593567498e+01 5.8075229717019416e+00 0 0 0
515 2 8.6134999999999984e+00 1.0656442593567498e+01 8.9433758867632704e+00 0 0 0
516 2 9.8440000000000012e+00 1.1366872099805333e+01 8.9433758867632704e+00 0 0 0
539 2 1.1074500000000002e+01 1.0656442593567498e+01 8.9433758867632704e+00 0 0 0
540 2 1.2304999999999998e+01 1.1366872099805333e+01 8.9433758867632704e+00 0 0 0
3800 1 9.2628728234156359e+00 1.1794902712872656e+01 1.4331886855534405e+01 1 3 0
1500 1 6.7018749931267054e+00 4.5991806444157053e+00 1.5028163664436022e+01 0 -1 0
630 1 4.9752261171209806e+00 2.8467250465786695e+00 1.1609758511628510e+01 2 0 0
1410 1 1.1793916059136235e+01 7.8632501808399722e+00 1.4697374173273715e+01 1 1 0
3611 1 9.9429110747888920e+00 5.1450102705024259e-01 1.1976543282841689e+01 0 0 0
2160 1 9.9737682062179562e+00 3.4082722290390817e+00 1.1491805469947561e+01 2 1 0
3854 1 2.2989973825494388e+00 4.2276673548570169e+00 1.1310944631708866e+01 1 -1 0
94 1 2.1686373869538915e+00 7.1238898283519330e+00 1.1595973949004819e+01 2 2 0
3813 1 7.4247759222088598e+00 4.7086911644455487e+00 1.1570690904198075e+01 1 -1 0
3594 1 7.0982158687101995e+00 7.3837820109425385e+00 1.1320560778671684e+01 -1 1 -1
4429 1 9.2850378203836303e+00 9.0521006081116866e+00 1.4690328603074168e+01 0 1 0
4388 1 1.2067385337378978e+01 7.4478288691089238e+00 1.1832159942327877e+01 1 1 0
721 1 4.6480065115426701e+00 8.8187287434201433e+00 1.4579271977956832e+01 -1 1 0
1408 1 2.2563589355565274e+00 7.3312345555369518e+00 1.4496659055039032e+01 1 0 0
2218 1 4.5053395439581427e+00 8.4997523501514287e+00 1.1791942191830646e+01 1 4 0
2831 1 4.4946232808752828e+00 1.1320915852126635e+01 1.1565283245860286e+01 1 3 0
3600 1 9.4958680915007943e+00 8.7240845573662202e+00 1.1742655091038293e+01 -1 -1 1
2205 1 9.7431743742585848e+00 1.1638910589217774e+01 1.1513636860341796e+01 1 -1 0
810 1 7.2296999415913739e+00 7.2420981509350355e+00 1.4390898720790782e+01 -2 0 0
57 1 4.7532482879902140e+00 1.1519288807979690e+01 1.4287501204888901e+01 0 1 0
3828 1 4.8248028404952441e+00 4.0702453262131622e-01 1.5091073856286267e+01 2 0 0
1533 1 4.5370743496681127e+00 3.0498816184977811e+00 1.4253030769457457e+01 0 2 -1
1519 1 9.2530313289076016e+00 3.7166920902547873e+00 1.4518284194888654e+01 0 1 0
682 1 9.7284530093537516e+00 9.6814360024720725e-01 1.4710770931997390e+01 0 -1 -1
3092 1 2.3180215618048914e+00 4.5268891858331139e+00 1.4530166094888928e+01 2 0 0
4499 1 2.1661528050931253e-01 4.7633899330191098e-01 1.5014897384524694e+01 -1 1 -1
2897 1 1.2020883304434324e+01 5.0104431329041264e+00 1.4768893740234148e+01 -1 0 0
3716 1 1.2178833733103442e+01 4.8189852107767548e+00 1.1830384035588235e+01 1 -1 0
2324 1 2.5743792470795293e+00 1.9939391721084103e+00 1.8519471696093113e+01 0 2 0
2859 1 7.0162372055039013e+00 1.8273080510303559e+00 1.8755894654640979e+01 1 -1 0
69 1 2.4450632960829837e+00 4.7860190263784128e+00 2.4980817329302639e+01 0 3 0
2098 1 1.1468360904158162e+01 1.6814912880035620e+00 1.8392272753532712e+01 1 0 0
2372 1 4.5957153823918775e+00 5.4767688489162736e-01 2.2222405039598542e+01 1 0 0
2933 1 2.6927520976864607e+00 4.6502511621770450e+00 1.7270835425197721e+01 -1 1 -1
1433 1 4.8246615541800093e+00 5.9442838045390314e+00 1.8355228835272147e+01 -1 0 0
2157 1 6.9602870389124769e+00 4.5954773813488758e+00 1.7803443314309224e+01 2 1 0
3777 1 1.1098387451603429e+01 4.2595460083835190e+00 1.7190463544127471e+01 0 1 0
3684 1 9.3460257047061202e+00 5.9400590501448978e+00 1.8329503079823080e+01 -2 1 -1
876 1 9.1378679792369848e+00 3.7365714246028647e-01 1.7532347839195552e+01 1 0 0
1575 1 2.5847496327094883e+00 1.0037383180518502e+01 1.8270106965979959e+01 1 1 -1
3114 1 6.8448596617802995e+00 9.8985159801749436e+00 1.8192285895880794e+01 3 -1 -1
844 1 4.7689478106475072e+00 8.6242366654536333e+00 1.7426475817510202e+01 0 2 1
2389 1 9.2760210219387087e+00 8.4246845378322988e+00 1.7573180511886775e+01 0 -1 0
2224 1 1.1470122499650927e+01 9.7334298615223407e+00 1.8563801087193699e+01 -2 3 0
3823 1 2.3249564858022818e+00 1.8900261415451844e+00 2.1478683367209150e+01 0 0 0
2948 1 6.8757232528444154e+00 2.0833112511412670e+00 2.1619721492776247e+01 1 1 0
2909 1 7.0900081594650644e+00 4.6961292430686399e+00 2.2289336963470422e+01 -2 0 0
93 1 4.6926682874682502e-01 8.4606062061653891e+00 2.1991869218421915e+01 3 1 0
2368 1 9.2557423768010310e+00 8.4707513723921970e+00 2.2001582674168226e+01 0 1 0
2208 1 1.1578160269826359e+01 1.8187277055999398e+00 2.1225123437713364e+01 1 3 0
4435 1 4.8298657609263076e+00 8.3948381081471801e+00 2.1576733277015961e+01 1 -1 0
3883 1 1.1579756885905466e+01 1.0009017346291492e+01 2.1314157162206008e+01 1 -1 0
3741 1 2.2843301130174716e+00 4.5951290248703431e+00 2.2186417868881680e+01 0 0 -1
4393 1 9.0653032164678162e+00 7.2902601042320303e-01 2.2324926315822974e+01 1 -1 0
798 1 4.6732881162282442e+00 5.6348110914990714e+00 2.1104657444052201e+01 -2 -1 0
1616 1 1.1697395660162325e+01 4.3776036053430039e+00 2.2164042835371923e+01 0 0 0
2248 1 9.2990771694164600e+00 5.9044292365029509e+00 2.1261769320198084e+01 0 4 -1
2191 1 4.7222064889039030e+00 3.1276128034576706e-01 1.7764784213638674e+01 -2 2 0
785 1 2.6150535947869820e+00 9.9959423582212885e+00 2.1116620036767472e+01 2 -1 0
2334 1 6.9653294244175115e+00 9.5915702319067719e+00 2.1094885746329954e+01 2 1 1
2853 1 7.0105441596894122e+00 4.5563020164781873e+00 2.4877444761488388e+01 2 1 0
1622 1 6.6468770008119078e+00 1.2242294005983201e+01 2.2176076558331253e+01 3 1 0
637 1 9.2345455897453075e+00 8.5431783346141952e+00 2.4746667236022144e+01 2 2 -1
840 1 1.0443990362769826e-01 8.9481753918093165e+00 2.4964507207885486e+01 1 2 0
3583 1 2.2963926462389480e-02 4.4821771388527204e-01 2.2305937927051872e+01 0 -1 0
3709 1 4.9047385923073943e+00 8.4729096993178654e+00 2.4587647945340979e+01 0 1 -1
651 1 1.3506464215654485e-01 8.6008526067669493e+00 1.7741865984905814e+01 -1 2 0
3682 1 1.1763979517869407e+01 4.3666875977476201e+00 2.4816517175279891e+01 -1 1 0
4472 1 3.3448804294912721e-01 5.9505608582485898e+00 2.1022250040100886e+01 1 1 -1
4501 1 5.0719142470899636e-01 5.9273550971592979e+00 1.8398703969774957e+01 2 2 -1
2140 1 1.5430083307528786e-01 4.5026281522342892e-01 1.7755326553332957e+01 0 1 0
732 1 4.7326200199694162e+00 5.0748186513670668e-01 2.4844799058623007e+01 3 0 0
3778 1 4.7497892906829353e+00 4.9563510890471302e-01 3.1923899232501800e+01 0 -1 -1
4530 1 4.5318221261835943e+00 8.5580849243503945e+00 2.9289961695513590e+01 0 -2 0
2230 1 4.5507842018764020e+00 3.2582003596405227e+00 2.8403027817789788e+01 1 1 0
2927 1 4.6466832244785286e+00 3.2962624030985963e+00 2.5724960858224289e+01 2 2 0
2302 1 9.2406237379880292e+00 3.0469828939330244e+00 2.5620262003224799e+01 -1 1 0
4428 1 9.2554168790085320e+00 3.1459981618958199e+00 2.8198898945448509e+01 2 0 0
2255 1 2.4267274740328539e+00 7.3569624105000795e+00 2.5728647151275073e+01 -1 0 0
3681 1 2.4906129063277778e+00 7.1949188327172173e+00 2.8361096602221210e+01 1 2 0
1583 1 6.6211890589546600e+00 7.2876824861045044e+00 2.8276927680484469e+01 1 -1 0
4506 1 7.0093893152610116e+00 7.1764103555990513e+00 2.5506470618859304e+01 -1 4 0
2144 1 4.6674562906984107e+00 1.1395142462131048e+01 3.2380776319999583e+01 1 -2 0
2849 1 1.1630272589568843e+01 7.0141580220104300e+00 2.5401903863158662e+01 -1 1 0
1541 1 1.1566702366243950e+01 6.9471886679450945e+00 2.8138487320828176e+01 0 4 0
4320 1 1.1353556575195404e+01 4.5071244896164826e+00 2.9254693039157914e+01 1 0 0
4377 1 9.2310618399558155e+00 8.4325953338273667e+00 2.8969474092316268e+01 -1 0 0
741 1 4.8330870524193674e+00 8.8102506736663422e+00 3.1943031584261899e+01 1 0 0
3612 1 4.5960516142130965e+00 1.1067123776939541e+01 2.8152916587016943e+01 2 0 -1
694 1 4.9260159654298930e+00 1.0929036272378273e+01 2.5390032981699822e+01 3 3 -1
4404 1 9.4821749546056537e+00 1.1261489004789922e+01 3.1874029376965623e+01 0 -2 0
826 1 9.3062367037520577e+00 1.1197408713240204e+01 2.8454459290038898e+01 -2 -1 0
4335 1 9.3523761539217176e+00 1.1178365796018479e+01 2.5741894267481666e+01 0 -1 -1
708 1 9.4477876349034133e+00 8.5928282801704690e+00 3.1666451320584176e+01 -3 0 0
2358 1 4.5436380795487921e+00 6.1383419925196192e-01 2.9343999023186484e+01 0 1 1
8 1 4.8730022135265205e+00 3.4000817884878516e+00 3.1780246853225634e+01 3 2 0
4519 1 1.2001235267465219e+01 4.4606647393104772e+00 3.2120105158657005e+01 0 0 -1
3017 1 9.2136092917526504e+00 5.9741392363308399e-01 2.9013130731710465e+01 1 1 0
629 1 8.6672894998308450e-02 8.4293256411915873e+00 2.9062893424216696e+01 2 3 -1
3598 1 9.6794152997353020e+00 3.1998528222775136e+00 3.2350414276204617e+01 3 -1 0
2379 1 2.2577132579146633e+00 4.5488841956773998e+00 2.8912012439388413e+01 1 0 0
4461 1 2.1989958502203479e+00 4.5541030234132753e+00 3.1665127200613004e+01 0 -2 0
1379 1 2.4530268576403587e+00 7.2509585562252887e+00 3.2279329573109521e+01 -2 0 0
1374 1 6.8716495185701003e+00 4.6809218612011829e+00 2.9092445572800109e+01 2 1 0
3585 1 7.1286214596188930e+00 7.4276314584367942e+00 3.2386894066658456e+01 -1 0 -1
3706 1 7.2988728277249093e+00 4.7304326847022899e+00 3.1947416384188159e+01 2 4 0
3692 1 1.0253918139748061e-01 8.5464357502877810e+00 3.1828054126515742e+01 1 1 0
2923 1 9.6888839031186542e+00 5.1217876466950274e-01 3.1956801807501908e+01 3 -2 0
3028 1 1.2060795809936270e+01 7.3872438098230377e+00 3.2291141068745716e+01 0 0 -1
2823 1 6.8503328326269912e+00 1.2119621596335469e+01 2.9054160143434384e+01 -1 1 0
3644 1 1.4990794558755738e-01 2.9241173181341060e+00 3.2113458352959348e+01 0 0 0
3659 1 1.1884256438412215e-01 3.0834283239004625e+00 2.5623122433986264e+01 -1 0 -1
4443 1 5.7541988461565552e-02 1.1280412438635759e+01 2.8430042712448749e+01 2 -1 -1
1548 1 1.7986494974195466e-02 3.0419826895425222e+00 2.8412130156739135e+01 -2 -1 0
3030 1 3.4475597192312790e-01 1.1686793587196989e+01 2.5799834296274810e+01 1 3 -1
2985 1 9.3827986133167620e+00 4.6268694077601685e-01 2.4982166654536680e+01 0 -1 0
3858 1 2.7659357853415056e-01 2.7678214716405469e-01 2.5071276962339475e+01 0 -1 0
137 2 0.0000000000000000e+00 1.2787731112280996e+01 2.6716700566405827e+00 0 0 0
139 2 1.2305000000000001e+00 1.3498160618518829e+01 2.6716700566405827e+00 0 0 0
174 2 2.4610000000000003e+00 1.2787731112280996e+01 2.6716700566405827e+00 0 0 0
176 2 3.6915000000000004e+00 1.3498160618518829e+01 2.6716700566405827e+00 0 0 0
135 2 0.0000000000000000e+00 1.5629449137232333e+01 2.6716700566405827e+00 0 0 0
170 2 1.2305000000000001e+00 1.4919019630994494e+01 2.6716700566405827e+00 0 0 0
172 2 2.4610000000000003e+00 1.5629449137232328e+01 2.6716700566405827e+00 0 0 0
215 2 3.6915000000000004e+00 1.4919019630994494e+01 2.6716700566405827e+00 0 0 0
219 2 4.9220000000000006e+00 1.2787731112280996e+01 2.6716700566405827e+00 0 0 0
221 2 6.1524999999999990e+00 1.3498160618518829e+01 2.6716700566405827e+00 0 0 0
266 2 7.3829999999999991e+00 1.2787731112280996e+01 2.6716700566405827e+00 0 0 0
217 2 4.9220000000000006e+00 1.5629449137232333e+01 2.6716700566405827e+00 0 0 0
262 2 6.1524999999999990e+00 1.4919019630994494e+01 2.6716700566405827e+00 0 0 0
264 2 7.3829999999999991e+00 1.5629449137232333e+01 2.6716700566405827e+00 0 0 0
268 2 8.6135000000000002e+00 1.3498160618518835e+01 2.6716700566405827e+00 0 0 0
313 2 9.8440000000000012e+00 1.2787731112280996e+01 2.6716700566405827e+00 0 0 0
315 2 1.1074500000000002e+01 1.3498160618518829e+01 2.6716700566405827e+00 0 0 0
309 2 8.6135000000000002e+00 1.4919019630994494e+01 2.6716700566405827e+00 0 0 0
311 2 9.8440000000000012e+00 1.5629449137232328e+01 2.6716700566405827e+00 0 0 0
351 2 1.1074500000000002e+01 1.4919019630994494e+01 2.6716700566405827e+00 0 0 0
166 2 0.0000000000000000e+00 1.7050308149707998e+01 2.6716700566405827e+00 0 0 0
211 2 2.4610000000000003e+00 1.7050308149707998e+01 2.6716700566405827e+00 0 0 0
164 2 0.0000000000000000e+00 1.9892026174659328e+01 2.6716700566405827e+00 0 0 0
168 2 1.2305000000000001e+00 1.7760737655945832e+01 2.6716700566405827e+00 0 0 0
207 2 1.2305000000000001e+00 1.9181596668421495e+01 2.6716700566405827e+00 0 0 0
209 2 2.4610000000000003e+00 1.9892026174659328e+01 2.6716700566405827e+00 0 0 0
213 2 3.6914999999999996e+00 1.7760737655945832e+01 2.6716700566405827e+00 0 0 0
254 2 3.6914999999999996e+00 1.9181596668421495e+01 2.6716700566405827e+00 0 0 0
258 2 4.9220000000000006e+00 1.7050308149707998e+01 2.6716700566405827e+00 0 0 0
305 2 7.3830000000000009e+00 1.7050308149707998e+01 2.6716700566405827e+00 0 0 0
256 2 4.9220000000000006e+00 1.9892026174659328e+01 2.6716700566405827e+00 0 0 0
260 2 6.1524999999999999e+00 1.7760737655945832e+01 2.6716700566405827e+00 0 0 0
301 2 6.1524999999999999e+00 1.9181596668421495e+01 2.6716700566405827e+00 0 0 0
303 2 7.3829999999999991e+00 1.9892026174659328e+01 2.6716700566405827e+00 0 0 0
347 2 9.8440000000000012e+00 1.7050308149707998e+01 2.6716700566405827e+00 0 0 0
381 2 1.2304999999999998e+01 1.7050308149707998e+01 2.6716700566405827e+00 0 0 0
307 2 8.6134999999999984e+00 1.7760737655945832e+01 2.6716700566405827e+00 0 0 0
343 2 8.6135000000000002e+00 1.9181596668421495e+01 2.6716700566405827e+00 0 0 0
345 2 9.8440000000000012e+00 1.9892026174659335e+01 2.6716700566405827e+00 0 0 0
349 2 1.1074500000000002e+01 1.7760737655945835e+01 2.6716700566405827e+00 0 0 0
377 2 1.1074500000000002e+01 1.9181596668421495e+01 2.6716700566405827e+00 0 0 0
201 2 0.0000000000000000e+00 2.4154603212086325e+01 2.6716700566405827e+00 0 0 0
203 2 0.0000000000000000e+00 2.1312885187134999e+01 2.6716700566405827e+00 0 0 0
205 2 1.2304999999999993e+00 2.2023314693372832e+01 2.6716700566405827e+00 0 0 0
246 2 1.2304999999999993e+00 2.3444173705848499e+01 2.6716700566405827e+00 0 0 0
248 2 2.4610000000000003e+00 2.4154603212086325e+01 2.6716700566405827e+00 0 0 0
250 2 2.4610000000000003e+00 2.1312885187134995e+01 2.6716700566405827e+00 0 0 0
252 2 3.6914999999999996e+00 2.2023314693372832e+01 2.6716700566405827e+00 0 0 0
293 2 3.6915000000000004e+00 2.3444173705848499e+01 2.6716700566405827e+00 0 0 0
295 2 4.9220000000000006e+00 2.4154603212086325e+01 2.6716700566405827e+00 0 0 0
297 2 4.9220000000000006e+00 2.1312885187134995e+01 2.6716700566405827e+00 0 0 0
299 2 6.1524999999999990e+00 2.2023314693372832e+01 2.6716700566405827e+00 0 0 0
335 2 6.1524999999999999e+00 2.3444173705848499e+01 2.6716700566405827e+00 0 0 0
337 2 7.3830000000000009e+00 2.4154603212086336e+01 2.6716700566405827e+00 0 0 0
339 2 7.3829999999999991e+00 2.1312885187134999e+01 2.6716700566405827e+00 0 0 0
341 2 8.6135000000000002e+00 2.2023314693372832e+01 2.6716700566405827e+00 0 0 0
369 2 8.6134999999999984e+00 2.3444173705848499e+01 2.6716700566405827e+00 0 0 0
371 2 9.8440000000000012e+00 2.4154603212086336e+01 2.6716700566405827e+00 0 0 0
373 2 9.8440000000000012e+00 2.1312885187134999e+01 2.6716700566405827e+00 0 0 0
375 2 1.1074500000000002e+01 2.2023314693372832e+01 2.6716700566405827e+00 0 0 0
395 2 1.1074500000000002e+01 2.3444173705848499e+01 2.6716700566405827e+00 0 0 0
138 2 0.0000000000000000e+00 1.2787731112280996e+01 5.8075229717019416e+00 0 0 0
175 2 2.4610000000000003e+00 1.2787731112280996e+01 5.8075229717019416e+00 0 0 0
447 2 0.0000000000000000e+00 1.2787731112280996e+01 8.9433758867632704e+00 0 0 0
448 2 1.2305000000000001e+00 1.3498160618518829e+01 8.9433758867632704e+00 0 0 0