
# Create simulation box and atoms

read_data data.ML_graphite_m500atm_240K
  orthogonal box = (0 0 1.70882) to (49.22 49.0196 32.2312)
  4 by 4 by 4 MPI processor grid
  reading atoms ...
  4537 atoms
  reading velocities ...
  4537 velocities
group water type 1
1777 atoms in group water
group graphite type 2
2760 atoms in group graphite

# Define potential

pair_style sw
pair_coeff * * MLC_e.sw mW C


# Fix graphite atoms in place

fix 5 graphite setforce 0.0 0.0 0.0
velocity graphite set 0.0 0.0 0.0


# Equilibration of molecular water

# Add velocity/set timestep

velocity	    water create ${TEMP} ${SEED} rot yes dist gaussian
velocity	    water create 240 ${SEED} rot yes dist gaussian
velocity	    water create 240 28532 rot yes dist gaussian
timestep	    5.0

# Define output

compute			1 water msd
compute			3 water temp
thermo	    	50
thermo_style	custom step temp press vol etotal ke pe c_1[4] c_3

# Neighbor lists

neigh_modify    delay 0 every 1 check yes

# Set fixes

fix             1 water momentum 10 linear 1 1 1 rescale
fix             2 water nve
fix             3 water temp/csvr ${TEMP} ${TEMP} 500.0 ${SEED}
fix             3 water temp/csvr 240 ${TEMP} 500.0 ${SEED}
fix             3 water temp/csvr 240 240 500.0 ${SEED}
fix             3 water temp/csvr 240 240 500.0 28532
fix             4 water press/berendsen z ${PRES} ${PRES} 1000.0 modulus 20000
fix             4 water press/berendsen z -500 ${PRES} 1000.0 modulus 20000
fix             4 water press/berendsen z -500 -500 1000.0 modulus 20000

# Run 0.5 ns equilibration

dump		    1 all atom 2000 ${DIR}/eq.${NAME}-${TEMP}.dump
dump		    1 all atom 2000 run_2/eq.${NAME}-${TEMP}.dump
dump		    1 all atom 2000 run_2/eq.het_freeze_2-${TEMP}.dump
dump		    1 all atom 2000 run_2/eq.het_freeze_2-240.dump

reset_timestep  0

run	            100000
Neighbor list info ...
  update every 1 steps, delay 0 steps, check yes
  max neighbors/atom: 2000, page size: 100000
  master list distance cutoff = 6.67472
  ghost atom cutoff = 6.67472
  binsize = 3.33736, bins = 15 15 10
  1 neighbor lists, perpetual/occasional/extra = 1 0 0
  (1) pair sw, perpetual
      attributes: full, newton on
      pair build: full/bin/atomonly
      stencil: full/bin/3d
      bin: standard
Per MPI rank memory allocation (min/avg/max) = 4.071 | 4.206 | 4.511 Mbytes
Step Temp Press Volume TotEng KinEng PotEng c_1[4] c_3 
       0    93.968254   -654.73592     73642.74   -17158.673    1270.5405   -18429.214            0          240 
      50     93.47824   -746.14089    73572.173   -17163.036     1263.915   -18426.951    0.5042231    238.74848 
     100    94.769465   -960.92729    73574.115   -17149.873    1281.3736   -18431.247   0.86191092    242.04634 
     150    94.975178   -713.66967    73569.501   -17134.872    1284.1551   -18419.027    1.0846269    242.57174 
     200    95.739059   -1029.5602    73574.219   -17135.734    1294.4835   -18430.218    1.2618796    244.52273 
     250    94.511505   -827.33551    73592.156   -17166.302    1277.8857   -18444.188    1.4692407    241.38749 
     300    92.356142   -877.00486    73602.355   -17195.892    1248.7432   -18444.635     1.666399    235.88258 
     350      97.7918   -732.13438    73585.832   -17159.931    1322.2385   -18482.169    1.8969384    249.76554 
     400    96.600856   -866.99796    73639.624   -17155.868    1306.1358   -18462.004    2.1425391    246.72381 
     450    95.738948   -694.01224    73659.047   -17126.711     1294.482   -18421.193    2.3087973    244.52245 
     500    96.762895   -672.48477    73667.701   -17124.703    1308.3267    -18433.03    2.4927764    247.13766 
     550    94.830707   -648.92616    73617.367   -17153.099    1282.2017     -18435.3    2.7209611    242.20275 
     600    94.641064   -627.15055    73685.366   -17176.464    1279.6375   -18456.102    2.9361559    241.71839 
     650    94.451409   -802.12979     73734.76    -17162.19    1277.0732   -18439.263    3.1649311    241.23401 
     700     98.03588   -1017.8471    73716.886   -17113.116    1325.5387   -18438.655    3.2965076    250.38894 
     750    90.863206   -817.03701    73681.095   -17144.141    1228.5573   -18372.698    3.4231968    232.06954 
     800    94.220698   -746.36803    73710.373    -17161.45    1273.9538   -18435.404    3.5747148    240.64476 
     850    94.382139   -817.73303    73749.855   -17131.253    1276.1366    -18407.39    3.8777567    241.05708 
     900    92.870134   -766.35797    73776.506   -17140.622    1255.6928   -18396.314    4.1357856    237.19534 
     950    95.895963   -1028.3569    73812.642   -17174.558    1296.6049   -18471.163    4.3206301    244.92347 
    1000    94.362135    -947.4117    73774.918   -17191.522    1275.8661   -18467.388    4.5446688    241.00599 
    1050    95.179973   -853.47721    73721.035    -17174.76    1286.9241   -18461.684    4.8087574     243.0948 
    1100    93.476873   -870.18654    73746.937   -17201.191    1263.8965   -18465.088    5.0199005    238.74499 
    1150    97.683122   -584.74605    73779.813    -17173.49     1320.769   -18494.259    5.1841744    249.48797 
    1200    94.527358   -1395.1411    73792.226   -17175.379    1278.1001   -18453.479    5.2252132    241.42798 
    1250    93.388377   -868.99844    73798.468   -17170.352       1262.7   -18433.052    5.3213009    238.51896 
    1300    95.983906   -829.69468      73797.8   -17182.554     1297.794   -18480.348    5.4716697    245.14808 
    1350    95.482855   -541.36956    73810.962   -17189.487    1291.0193   -18480.506    5.6613075    243.86837 
    1400    91.954604   -659.09959    73805.003   -17221.339     1243.314   -18464.653     5.792079    234.85703 
    1450    95.912068     -784.858    73740.648   -17183.674    1296.8227   -18480.497    5.9321221    244.96461 
    1500    94.409324   -684.38335    73720.474   -17160.814    1276.5042   -18437.318     6.069399    241.12652 
    1550    95.303201   -756.80309    73660.398   -17201.281    1288.5902   -18489.871    6.1415248    243.40953 
    1600    95.200515   -630.87558    73668.825   -17206.962    1287.2018   -18494.164    6.2716149    243.14726 
    1650    93.422786   -1178.1352    73706.067   -17228.361    1263.1652   -18491.526    6.3955888    238.60685 
    1700    92.058383   -805.69239    73678.594   -17243.448    1244.7172   -18488.165    6.6285784    235.12209 
    1750    93.712572   -700.91184    73705.535   -17269.302    1267.0834   -18536.385    6.8449172    239.34697 
    1800    93.370061   -615.69752    73742.656   -17257.186    1262.4523   -18519.639    7.1415689    238.47218 
    1850    94.747036   -702.14955    73748.181    -17236.38    1281.0704    -18517.45    7.3087592    241.98905 
    1900    94.754604   -935.95332    73806.436   -17238.754    1281.1727   -18519.927    7.5110883    242.00838 
    1950    92.602784   -1054.4648    73787.857   -17226.574     1252.078   -18478.652    7.6374143    236.51252 
    2000    96.124355   -1138.0527     73703.12   -17211.724     1299.693   -18511.417    7.9239478     245.5068 
    2050    93.902893   -747.75632    73688.763   -17196.247    1269.6567   -18465.903    8.0940504    239.83307 
    2100     95.29267   -903.49007    73672.496   -17202.637    1288.4478   -18491.085    8.3477836    243.38263 
    2150    95.210989    -936.0576     73746.19   -17248.689    1287.3434   -18536.032     8.474708    243.17401 
    2200    92.423393   -907.00742    73763.091   -17254.591    1249.6525   -18504.243    8.6617003    236.05434 
    2250    92.039038   -769.56116    73762.094   -17263.524    1244.4556   -18507.979    8.7659068    235.07268 
    2300     93.21643    -793.6543    73789.943   -17237.471    1260.3751   -18497.846    8.9864349     238.0798 
    2350    93.353905   -1163.9426    73734.151   -17251.393    1262.2339   -18513.627    9.1569898    238.43092 
    2400     95.00978    -873.7606    73731.466   -17184.884    1284.6229   -18469.507    9.4348909    242.66011 
    2450    94.878504   -815.07407    73760.299   -17231.343    1282.8479   -18514.191    9.6275609    242.32483 
    2500    93.774445   -1001.6473    73754.471   -17208.598      1267.92   -18476.518     9.826361      239.505 
    2550    95.665541   -1084.7194    73781.787   -17197.517    1293.4894   -18491.007    9.9963799    244.33496 
    2600    95.557109   -1098.2508    73772.359   -17210.125    1292.0233   -18502.148    10.338852    244.05802 
    2650    93.533964   -1253.3642    73778.066   -17214.397    1264.6685   -18479.065    10.506708     238.8908 
    2700    96.532599   -889.77583    73728.916   -17190.498    1305.2129   -18495.711    10.749328    246.54948 
    2750    95.645899   -953.63071    73742.427   -17168.027    1293.2238   -18461.251    10.925504     244.2848 
    2800    91.569085   -1211.0757    73734.309   -17217.685    1238.1014   -18455.786    11.048273    233.87239 
    2850    92.994215   -808.93519    73778.811   -17251.521    1257.3705   -18508.891    11.250127    237.51225 
    2900    93.305237   -583.58029    73860.804   -17235.269    1261.5758   -18496.845    11.440525    238.30662 
    2950    93.714649   -888.15847    73815.904   -17256.796    1267.1115   -18523.907     11.76805    239.35228 
    3000    94.650683   -792.17017     73843.19    -17204.87    1279.7676   -18484.638    12.083453    241.74296 
    3050    94.389955   -1126.2739    73854.219   -17220.174    1276.2423   -18496.416    12.166868    241.07705 
    3100     94.79258   -870.98286    73836.823    -17198.38    1281.6862   -18480.067     12.25578    242.10537 
    3150    94.471177   -1121.2624    73789.261   -17194.576    1277.3405   -18471.917    12.453364    241.28449 
    3200    92.456043   -927.45825    73769.488   -17236.107    1250.0939   -18486.201    12.742124    236.13773 
    3250    92.410929   -782.75146    73763.172   -17233.831     1249.484   -18483.315     12.93043    236.02251 
    3300    93.488759   -541.35834    73850.923   -17242.436    1264.0572   -18506.493    13.164671    238.77534 
    3350    92.765315    -913.1206    73919.331   -17238.679    1254.2756   -18492.954      13.4485    236.92763 
    3400     94.63381   -977.03527    73948.077   -17230.237    1279.5394   -18509.776     13.64176    241.69987 
    3450     95.22101   -828.07592    74018.684   -17173.465    1287.4789   -18460.944    13.955386    243.19961 
    3500    94.125314   -751.47456    74086.286   -17171.725    1272.6641   -18444.389    14.075036    240.40114 
    3550    93.247255   -966.03119    74124.537   -17204.867    1260.7919   -18465.658    14.175784    238.15853 
    3600    93.548395    -951.7054        74141   -17218.172    1264.8636   -18483.035     14.23821    238.92766 
    3650    93.880583   -890.90424    74127.767   -17194.703    1269.3551   -18464.058    14.470352    239.77608 
    3700    95.714493   -818.31079    74131.438    -17179.13    1294.1513   -18473.281    14.608891    244.45999 
    3750    96.693726     -809.881    74152.517   -17176.807    1307.3915   -18484.199    14.733935      246.961 
    3800    91.986791   -936.00744    74118.045   -17204.864    1243.7492   -18448.613    14.927654    234.93924 
    3850    91.331836   -856.66638    74163.872   -17220.449    1234.8936   -18455.343    15.041012    233.26645 
    3900    95.384336   -672.81946    74192.067   -17206.756    1289.6873   -18496.443    15.299365    243.61675 
    3950     90.34414   -1173.3364    74157.519    -17238.52     1221.539   -18460.059    15.586226    230.74382 
    4000    93.156287   -1043.5979    74082.371   -17228.745    1259.5619   -18488.307    15.637299    237.92619 
    4050    95.462631   -1000.5765    74103.094   -17200.544    1290.7459    -18491.29    15.735194    243.81672 
    4100    95.411606   -935.18345    74090.136   -17178.332     1290.056   -18468.388    15.847484     243.6864 
    4150    94.906043   -757.20436    74103.682   -17186.779    1283.2203       -18470    15.996626    242.39516 
    4200    92.704323   -1135.9416    74136.697   -17208.505    1253.4509   -18461.956    16.229612    236.77185 
    4250    93.790992   -1080.2183    74136.066    -17234.07    1268.1437   -18502.213    16.321219    239.54726 
    4300    91.936995   -1010.7074    74075.349   -17218.406    1243.0759   -18461.482    16.242205    234.81205 
    4350    92.793154   -932.46885    74048.018   -17206.916     1254.652   -18461.568    16.252144    236.99873 
    4400    95.104757    -1119.821    73981.336   -17182.391    1285.9071   -18468.298    16.329007    242.90269 
    4450    94.930755   -767.25093    73994.387   -17149.393    1283.5544   -18432.948     16.28253    242.45828 
    4500    94.236708   -904.98549    74007.491   -17163.954    1274.1702   -18438.125    16.193454    240.68565 
    4550    93.711552   -789.75405    73967.907   -17158.035    1267.0696   -18425.105    16.134733    239.34437 
    4600    95.862207   -751.81414    73993.548   -17187.311    1296.1485    -18483.46    16.343474    244.83726 
    4650    94.061453   -418.61325    74050.938   -17232.572    1271.8006   -18504.372    16.383514    240.23804 
    4700     94.31886   -1000.7929    74106.001   -17232.517     1275.281   -18507.798    16.397521    240.89547 
    4750    95.102393   -938.09616    74127.572   -17226.035    1285.8751    -18511.91    16.338464    242.89665 
    4800    92.891842   -1123.1985    74098.474   -17228.538    1255.9864   -18484.525    16.423661    237.25079 
    4850    94.989351   -1050.6233    74107.345   -17228.959    1284.3467   -18513.305    16.575905    242.60794 
    4900    90.012607   -1065.6599    74084.919    -17248.15    1217.0564   -18465.206    16.810858    229.89706 
    4950    93.293247   -899.11807    74143.715   -17241.847    1261.4137   -18503.261    16.979972      238.276 
    5000    92.962004   -971.11095    74158.522   -17257.809     1256.935   -18514.744    17.157243    237.42998 
    5050    92.835474   -1275.0704    74136.758    -17257.03    1255.2242   -18512.254    17.447585    237.10682 
    5100    94.425581   -1227.5102     74106.05   -17232.195     1276.724   -18508.919    17.628279    241.16804 
    5150    95.992144    -905.3711    74046.537   -17182.425    1297.9054   -18480.331    17.896271    245.16913 
    5200    93.557121   -946.77424    74030.899   -17207.174    1264.9816   -18472.156    17.934286    238.94994 
    5250    95.542303    -882.4367    74037.893   -17215.692    1291.8231   -18507.515    17.923144    244.02021 
    5300    96.133325   -1011.2143    74083.926   -17222.219    1299.8143   -18522.033    18.165404    245.52971 
    5350    95.824534    -992.9599    74044.478   -17228.265    1295.6391   -18523.904    18.253492    244.74104 
    5400    94.543664   -1046.2995    73994.959   -17230.166    1278.3206   -18508.487    18.311091    241.46963 
    5450    94.649175   -619.27574     73996.51   -17227.351    1279.7472   -18507.098    18.351481    241.73911 
    5500    95.342568   -1044.2343    74041.987   -17251.857    1289.1225    -18540.98    18.537637    243.51007 
    5550    93.740849   -750.24252    74022.958   -17252.674    1267.4657   -18520.139    18.723766     239.4192 
    5600    92.649037   -861.08788    74028.641   -17270.319    1252.7034   -18523.022    18.886971    236.63065 
    5650      94.2939   -697.13319    74070.157   -17250.539    1274.9435   -18525.482    19.074095    240.83172 
    5700    92.958378   -1008.2523     74019.14   -17256.022     1256.886   -18512.908    19.050528    237.42072 
    5750    92.213601   -1169.0882    73924.723   -17293.999    1246.8159   -18540.815    19.179172    235.51852 
    5800    94.133282    -846.8344    73911.915   -17277.456    1272.7718   -18550.228    19.265674    240.42149 
    5850    90.394743   -729.73092    73989.315   -17295.052    1222.2232   -18517.275    19.405323    230.87306 
    5900    92.755449   -644.80979    74090.176   -17304.983    1254.1422   -18559.125    19.453795    236.90243 
    5950    93.646886   -606.26165    74079.188   -17271.639    1266.1953   -18537.834    19.577863    239.17921 
    6000    93.506739   -1011.4643    74019.505   -17287.496    1264.3004   -18551.796    19.659285    238.82127 
    6050    93.096821   -1083.6801    74039.981    -17278.35    1258.7579   -18537.108    19.741603    237.77431 
    6100    92.495721   -723.80773    74079.801    -17265.43    1250.6304    -18516.06    19.719809    236.23907 
    6150    93.177522   -907.58696     74094.53   -17254.601     1259.849    -18514.45    19.757722    237.98043 
    6200    94.008022   -1108.8785    74076.277     -17268.2    1271.0782   -18539.279    19.797943    240.10157 
    6250    94.520578   -868.95287    74058.767   -17234.407    1278.0084   -18512.415    19.841945    241.41066 
    6300    92.930793   -917.93076    74037.125   -17219.789     1256.513   -18476.302    19.955499    237.35027 
    6350     92.54124   -1250.9291    73961.255   -17202.015    1251.2459   -18453.261    19.952849    236.35533 
    6400     94.09178   -801.44829    73957.789   -17205.242    1272.2107   -18477.453    20.221009    240.31549 
    6450    93.366919   -934.12191    73939.175   -17192.413    1262.4099   -18454.823    20.418169    238.46416 
    6500    96.028652   -678.72204    73965.229   -17209.823     1298.399   -18508.222    20.712435    245.26237 
    6550    94.260278    -1014.534    73999.863   -17207.882    1274.4889   -18482.371    20.777008    240.74585 
    6600    95.715063   -756.25825    74037.025   -17225.031     1294.159    -18519.19    20.972656    244.46145 
    6650    95.490974   -999.36758    74033.948   -17219.916    1291.1291   -18511.046    21.121271    243.88911 
    6700    94.492783   -858.07796    74055.258   -17242.255    1277.6326   -18519.888    21.169142    241.33968 
    6750    92.589368   -1010.8312    74111.492   -17276.537    1251.8966   -18528.434    21.264667    236.47825 
    6800    94.787341   -1025.1325     74042.11   -17253.218    1281.6153   -18534.833    21.286103    242.09199 
    6850    94.480996   -1036.6457    74063.256   -17234.685    1277.4732   -18512.159    21.321624    241.30957 
    6900    95.404652   -1254.1095    74100.975   -17260.893    1289.9619   -18550.855    21.558077    243.66864 
    6950    93.061058   -894.84013    74164.937   -17240.206    1258.2743   -18498.481    21.646189    237.68297 
    7000    91.404837   -1174.7124    74156.214   -17222.928    1235.8806   -18458.809    21.867209     233.4529 
    7050    89.879748   -1153.8045    74142.009   -17226.044      1215.26   -18441.304    22.038915    229.55773 
    7100    93.484254   -1381.1984    74102.362   -17236.037    1263.9963   -18500.033    22.062332    238.76384 
    7150    93.722089   -1305.0284    74075.171   -17182.639    1267.2121   -18449.851    22.189325    239.37128 
    7200    95.628804   -1231.3786    73993.216   -17184.937    1292.9927    -18477.93    22.164987    244.24114 
    7250     96.93312   -1390.4016    73901.897   -17208.221    1310.6283   -18518.849    22.139507    247.57243 
    7300    93.186828   -979.06992      73901.5   -17233.289    1259.9749   -18493.264    22.243351     238.0042 
    7350    95.796844   -989.94348    73887.064   -17249.325    1295.2648   -18544.589    22.278717    244.67032 
    7400    93.117415   -804.14391    73872.993   -17240.414    1259.0363   -18499.451    22.429284    237.82691 
    7450     96.17549   -778.58175     73937.31   -17230.156    1300.3844    -18530.54    22.665136     245.6374 
    7500    95.077769   -774.62186    73888.595   -17235.293    1285.5422   -18520.835    22.882637    242.83376 
    7550    95.409204   -640.58435    73934.531   -17174.173    1290.0235   -18464.197    22.980259    243.68026 
    7600    98.754767   -572.35828    73992.251   -17142.909    1335.2587   -18478.168    23.339946    252.22501 
    7650    94.097348   -688.25244    74090.013   -17186.926     1272.286   -18459.212    23.367749    240.32971 
    7700     92.73804   -829.09782    74118.216   -17186.507    1253.9068   -18440.414    23.387211    236.85797 
    7750     94.83995    -902.5521    74060.728   -17197.884    1282.3266   -18480.211    23.756032    242.22636 
    7800    92.643905   -950.75511    74059.343   -17197.182     1252.634   -18449.816    23.727893    236.61754 
    7850    92.338746    -721.0565    74053.973   -17184.581     1248.508   -18433.089    23.965502    235.83815 
    7900    92.808799    -650.1623    74168.161   -17207.121    1254.8635   -18461.984    24.019761    237.03869 
    7950     96.18167   -855.77422    74215.366   -17195.958     1300.468   -18496.426    24.399207    245.65318 
    8000    93.753598   -1081.2885    74209.785   -17249.397    1267.6381   -18517.035    24.521598    239.45176 
    8050    93.638641   -977.81232    74165.525    -17249.46    1266.0838   -18515.544     24.85671    239.15815 
    8100     92.54414   -910.94778    74076.535   -17248.446    1251.2851   -18499.731    25.145933    236.36274 
    8150     94.18454   -692.54535    74026.855   -17252.606    1273.4649    -18526.07    25.250284    240.55241 
    8200    91.035548   -1162.0449    74010.396   -17291.376    1230.8875   -18522.264    25.317158    232.50971 
    8250    95.037256   -1096.7536     73936.86   -17232.308    1284.9944   -18517.302      25.6475    242.73029 
    8300    94.282461   -1026.6799    73904.513   -17233.944    1274.7889   -18508.733    25.843592     240.8025 
    8350    91.149593   -865.48753    73846.567   -17258.044    1232.4295   -18490.473     25.79234    232.80099 
    8400    93.616738   -1069.2459    73858.076    -17277.98    1265.7877   -18543.768    26.037392    239.10221 
    8450    90.413525   -1021.2632    73854.602    -17288.81    1222.4771   -18511.287    26.195887    230.92103 
    8500    93.964367   -1031.6993    73827.832   -17250.554    1270.4879   -18521.042    26.280645    239.99007 
    8550    94.964681   -868.71782    73791.829   -17238.492    1284.0131   -18522.505    26.502685    242.54493 
    8600    91.921008   -929.86663    73804.567   -17261.646    1242.8598   -18504.506    26.400969    234.77122 
    8650    92.932724   -1075.4565    73824.918    -17265.76    1256.5391   -18522.299    26.416892     237.3552 
    8700    94.065708   -917.55334    73806.178   -17250.176    1271.8582   -18522.035    26.706107     240.2489 
    8750    92.697921   -967.30333    73843.248   -17215.386    1253.3644    -18468.75     26.75102     236.7555 
    8800    95.081329   -939.07332    73796.427   -17222.713    1285.5903   -18508.303    26.858098    242.84285 
    8850    94.277603   -976.85363    73777.291   -17255.454    1274.7232   -18530.177    26.673463     240.7901 
    8900    95.866548   -814.85237    73814.642   -17250.062    1296.2072   -18546.269     26.90737    244.84835 
    8950    95.293413   -561.32422    73868.776   -17232.591    1288.4579   -18521.049    27.057934    243.38453 
    9000    96.177455   -442.54181    73926.242   -17243.418     1300.411   -18543.829      27.2194    245.64242 
    9050     95.78119   -884.15551    73931.415   -17273.308    1295.0531   -18568.361    27.333821    244.63034 
    9100    94.954778   -1033.4618    73923.503   -17280.964    1283.8792   -18564.843    27.402464    242.51964 
    9150    92.685184   -1073.6395    73866.031   -17288.343    1253.1921   -18541.535    27.445134    236.72297 
    9200    92.808537   -849.27379    73832.562   -17285.401      1254.86   -18540.261     27.50148    237.03802 
    9250    94.825158   -1259.9631    73841.506   -17278.998    1282.1266   -18561.125    27.501351    242.18858 
    9300    92.361878   -659.22596     73868.97   -17269.025    1248.8207   -18517.846     27.46844    235.89723 
    9350    92.704628    -992.8518     73884.97   -17281.291     1253.455   -18534.746    27.779706    236.77263 
    9400    93.873373   -712.95369    73940.702   -17268.046    1269.2576   -18537.304    28.030785    239.75767 
    9450    94.259024   -891.14773    73980.351   -17293.658     1274.472    -18568.13    28.167377    240.74264 
    9500      91.6507   -719.25284    74037.177   -17279.949    1239.2049   -18519.154    28.219915    234.08084 
    9550     92.42901   -1074.2953    74135.754   -17260.981    1249.7284    -18510.71     28.60932    236.06869 
    9600    95.567597   -752.15647    74145.531   -17256.603    1292.1651   -18548.768    28.924455    244.08481 
    9650     96.25435   -800.79831    74149.414   -17270.085    1301.4507   -18571.536    29.188584    245.83881 
    9700    90.180244    -1313.947    74154.612   -17289.126     1219.323   -18508.449    29.491269    230.32522 
    9750    91.262583   -757.82444    74198.113   -17289.495    1233.9572   -18523.453    29.734305    233.08957 
    9800    94.279561   -1409.6566    74198.362   -17231.207    1274.7496   -18505.957    29.969383     240.7951 
    9850    92.031914    -1147.472     74156.54   -17278.646    1244.3593   -18523.005     30.30692    235.05448 
    9900    94.521237   -600.65914    74172.783   -17278.766    1278.0173   -18556.783     30.41085    241.41235 
    9950    97.172725   -1154.3746    74171.615   -17234.021     1313.868   -18547.889    30.452104    248.18439 
   10000    95.396748   -771.69613    74175.971   -17233.559    1289.8551   -18523.415    30.711853    243.64845 
   10050    93.389481   -634.98954    74239.865   -17214.271    1262.7149   -18476.986    30.763099    238.52178 
   10100    95.496671   -1254.2412    74291.953   -17240.977    1291.2061   -18532.183    30.871256    243.90366 
   10150    93.990175    -1048.283    74336.418   -17254.719    1270.8369   -18525.556    31.070464    240.05599 
   10200    91.307306   -861.79673    74318.199   -17270.941    1234.5619   -18505.503    31.400179    233.20379 
   10250    93.443154   -1110.0958    74278.722   -17250.612    1263.4406   -18514.052    31.602379    238.65887 
   10300     92.26409   -965.61922    74181.047    -17241.51    1247.4985   -18489.009    32.019026    235.64747 
   10350    95.816064   -845.47139    74208.914   -17231.631    1295.5246   -18527.156    32.219771    244.71941 
   10400    92.156577   -877.48105    74278.565    -17247.06    1246.0449   -18493.105    32.253747    235.37288 
   10450    94.339139   -1176.2787    74250.557   -17242.627    1275.5552   -18518.182    32.122331    240.94726 
   10500    94.772723   -1267.3087    74173.899   -17255.627    1281.4177   -18537.044    32.214079    242.05466 
   10550    93.454261   -682.10167    74138.326   -17256.841    1263.5908   -18520.432    32.108272    238.68723 
   10600    94.737043   -908.61433    74068.184   -17249.696    1280.9352   -18530.631    32.267147    241.96353 
   10650     95.32666    -621.7356    74100.445   -17251.691    1288.9074   -18540.598    32.328913    243.46944 
   10700    93.861616   -1024.9563    74076.561    -17228.13    1269.0986   -18497.229    32.440517    239.72764 
   10750     92.94079   -1019.1833    74087.294    -17244.93    1256.6482   -18501.578    32.647311     237.3758 
   10800    94.744214   -941.66727    74004.236   -17201.534    1281.0322   -18482.566    32.731433    241.98184 
   10850    95.412337   -892.14217    74006.781   -17201.257    1290.0659   -18491.323     32.97317    243.68827 
   10900    96.854973   -879.40957    74027.654   -17205.956    1309.5717   -18515.528    33.276393    247.37284 
   10950     93.23225   -823.60518    74080.547   -17215.951     1260.589    -18476.54    33.361665    238.12021 
   11000    93.174246   -1320.5393    73977.953   -17235.319    1259.8047   -18495.124    33.142974    237.97206 
   11050    93.681825   -1164.7592    73895.846   -17219.554    1266.6677   -18486.221    33.083886    239.26844 
   11100    95.106625   -1165.4574    73903.707   -17200.129    1285.9323   -18486.061    33.219168    242.90746 
   11150    96.422468   -867.15292    73920.341   -17193.565    1303.7238   -18497.289    33.339486    246.26819 
   11200    92.405529   -1353.7746    73946.313   -17197.578    1249.4109   -18446.989    33.615132    236.00872 
   11250    93.327223   -1233.8347    73915.928   -17232.925    1261.8731   -18494.798    33.898715    238.36277 
   11300    94.146968   -1298.4103    73846.172   -17201.364    1272.9569   -18474.321    33.959412    240.45645 
   11350    96.370743   -935.41937    73836.465   -17193.359    1303.0244   -18496.383    33.966855    246.13609 
   11400    94.212072   -839.45027    73918.448    -17184.33    1273.8371   -18458.167     34.06784    240.62272 
   11450    100.15643   -823.76735    73958.222   -17161.029    1354.2105    -18515.24    34.395989    255.80493 
   11500    96.547511   -1047.5299    74003.196   -17187.958    1305.4145   -18493.372    34.602392    246.58756 
   11550    94.062276   -1064.8904    73970.107   -17205.555    1271.8117   -18477.367    34.719717    240.24014 
   11600    95.268633    -758.1534    73992.223   -17219.341    1288.1228   -18507.464    35.058761    243.32124 
   11650    92.085357   -1191.8564    74035.989   -17245.343    1245.0819   -18490.425    35.484243    235.19098 
   11700    93.673164   -1069.1443    74029.975   -17244.184    1266.5506   -18510.734    35.451177    239.24632 
   11750    96.051283   -762.16489    74080.139   -17201.588     1298.705   -18500.293    35.733546    245.32017 
   11800    94.782851   -1060.9192    74037.001   -17203.206    1281.5546   -18484.761    35.796982    242.08052 
   11850    97.010552   -556.66783    74066.786   -17187.195    1311.6752   -18498.871    35.716449    247.77019 
   11900    94.090471   -1086.2889    74057.359   -17148.561     1272.193   -18420.754    35.770619    240.31215 
   11950     94.15218   -784.56904    74096.654   -17134.995    1273.0273   -18408.022    35.941843    240.46976 
   12000    93.519939   -1031.5548    74092.119   -17203.303    1264.4788   -18467.782    35.926144    238.85498 
   12050    93.089236   -1107.2063     74042.82   -17212.021    1258.6553   -18470.676    35.844672    237.75494 
   12100    96.645084   -698.17105    74025.858    -17202.68    1306.7338   -18509.414    35.927157    246.83677 
   12150    95.745149   -1057.6355    74010.099    -17213.89    1294.5658   -18508.456    35.855629    244.53829 
   12200    94.030249   -872.38147    74034.477   -17208.834    1271.3787   -18480.213    36.071583    240.15834 
   12250    95.374791   -976.97118    74113.545   -17186.706    1289.5582   -18476.264    36.408762    243.59237 
   12300    95.972103   -840.40118    74143.944   -17157.851    1297.6344   -18455.485    36.569205    245.11794 
   12350    95.051902   -1029.4951    74194.669   -17170.734    1285.1924   -18455.926    36.706758     242.7677 
   12400     95.61365   -973.30069    74220.237   -17191.448    1292.7878   -18484.236    37.060005    244.20243 
   12450    93.921294   -1085.8786    74195.829    -17184.93    1269.9055   -18454.836     37.41436    239.88006 
   12500    95.113059   -855.49761    74153.946   -17213.621    1286.0193    -18499.64    37.910553    242.92389 
   12550    92.692779   -1033.5794    74093.426   -17230.905    1253.2948     -18484.2    38.081963    236.74237 
   12600    92.916819   -964.72616    74073.061   -17229.849    1256.3241   -18486.173    38.281817    237.31458 
   12650    94.109088    -1032.558    74068.476   -17227.392    1272.4447   -18499.837    38.583288     240.3597 
   12700    93.734331   -703.71106    74109.572   -17193.268    1267.3776   -18460.645    38.728651    239.40255 
   12750    94.522083   -740.67245    74137.706    -17194.03    1278.0288   -18472.059    38.835082    241.41451 
   12800    95.149526   -1046.5481    74170.073   -17197.323    1286.5124   -18483.836    38.720909    243.01703 
   12850    94.064038   -1083.5639    74189.556   -17224.942    1271.8356   -18496.777    38.667432    240.24464 
   12900    94.734333   -599.22146    74189.402   -17223.007    1280.8986   -18503.906    38.487503    241.95661 
   12950    93.465135   -990.29385    74226.109   -17236.428    1263.7378   -18500.166    38.480117    238.71501 
   13000    95.510582    -752.8322    74212.653   -17247.561    1291.3942   -18538.955    38.583814    243.93919 
   13050    94.715531   -928.24283    74181.442   -17216.814    1280.6444   -18497.459     38.85092    241.90859 
   13100    96.170188   -992.29279    74204.941   -17189.441    1300.3127   -18489.754     38.81661    245.62386 
   13150     93.17583   -1113.1047    74194.003   -17220.097    1259.8261   -18479.923    39.197052    237.97611 
   13200    92.598366   -1123.5018    74218.122   -17225.789    1252.0183   -18477.807    39.347237    236.50123 
   13250    95.050563   -919.73472    74213.018   -17220.055    1285.1743   -18505.229    39.412868    242.76427 
   13300     92.77953   -858.32185    74240.608   -17221.695    1254.4678   -18476.162    39.779005    236.96393 
   13350    94.228346   -882.02265    74206.836   -17217.383    1274.0572   -18491.441    39.972845    240.66429 
   13400    93.527029   -985.00913    74205.053   -17209.972    1264.5747   -18474.546    40.062763    238.87309 
   13450    92.702314   -883.13967    74241.695   -17196.711    1253.4238   -18450.135    40.186271    236.76672 
   13500    93.760013    -1008.152    74210.273   -17210.214    1267.7249   -18477.939    40.444085    239.46814 
   13550    92.401291   -943.71441    74271.536   -17221.268    1249.3536   -18470.622    40.339665    235.99789 
   13600     93.92571   -1003.8413    74269.328   -17226.535    1269.9652   -18496.501    40.434529    239.89134 
   13650    94.530484   -881.61147    74273.802    -17239.04    1278.1424   -18517.182    40.558362    241.43597 
   13700    91.883523   -1117.3427    74278.025   -17244.541    1242.3529   -18486.894    40.678262    234.67549 
   13750    94.530386   -1004.1531    74248.466   -17218.849     1278.141    -18496.99    40.847039    241.43571 
   13800    94.949017   -1105.4696    74257.522   -17209.057    1283.8013   -18492.858    40.842673    242.50492 
   13850    98.292027   -1139.2047    74214.461   -17178.173     1329.002   -18507.175    41.162944    251.04315 
   13900    96.158535   -955.24926    74168.225   -17158.919    1300.1552   -18459.074    41.456087     245.5941 
   13950    95.117385   -731.59626    74114.954    -17183.92    1286.0778   -18469.998    41.755565    242.93494 
   14000    94.085219   -1007.6527    74048.937   -17219.349    1272.1219   -18491.471    41.718758    240.29873 
   14050    95.300117   -672.92448    74007.204   -17218.808    1288.5485   -18507.356    41.840806    243.40165 
   14100    94.308883   -698.77192    73996.956   -17201.335    1275.1461   -18476.481     41.94997    240.86999 
   14150    95.870485   -1134.4828     74016.87   -17201.424    1296.2605   -18497.685    41.935832     244.8584 
   14200    96.753249   -970.77692    73974.582   -17215.441    1308.1963   -18523.638    41.899101    247.11303 
   14250    97.237209   -776.77878    73955.864   -17211.638    1314.7399   -18526.378    41.973267    248.34909 
   14300    94.726417   -833.42072    73995.564   -17175.273    1280.7916   -18456.064    42.282531    241.93639 
   14350    94.714157   -960.47843     73902.93   -17219.774    1280.6258     -18500.4    42.619966    241.90508 
   14400    96.099087   -865.46313    73860.631     -17198.5    1299.3514   -18497.851    42.661995    245.44226 
   14450    93.157552    -773.8968    73872.914   -17176.822     1259.579   -18436.401    43.116087    237.92942 
   14500    95.372745   -1096.4256    73865.326   -17148.231    1289.5305   -18437.761    43.347926    243.58715 
   14550    95.911408   -772.67619     73843.63   -17148.761    1296.8138   -18445.575    43.458303    244.96292 
   14600    96.423486   -637.85826    73827.003   -17119.304    1303.7376   -18423.042    43.695453    246.27079 
   14650    94.208762   -1045.4398    73831.953   -17159.097    1273.7924   -18432.889    43.864703    240.61427 
   14700    93.788815   -710.06153    73812.798   -17138.643    1268.1143   -18406.758    44.148508     239.5417 
   14750    96.181257   -806.24561    73810.657    -17148.35    1300.4624   -18448.812    44.209017    245.65213 
   14800    93.152357   -660.12855    73811.483   -17171.679    1259.5088   -18431.188    44.558549    237.91615 
   14850    95.496599   -820.96035    73859.136   -17185.102    1291.2052   -18476.307    44.995032    243.90348 
   14900    92.994102   -638.79135    73840.811   -17205.546     1257.369   -18462.915    45.243522    237.51196 
   14950    93.963783   -1025.9832    73851.441   -17214.559      1270.48   -18485.039    45.353393    239.98858 
   15000    94.437063   -947.25349    73886.039   -17215.776    1276.8792   -18492.655    45.377931    241.19736 
   15050     94.87872   -786.98878    73921.494   -17254.685    1282.8508   -18537.536    45.391839    242.32538 
   15100    93.625563   -1080.8206    73923.572   -17236.369     1265.907   -18502.276    45.518438    239.12475 
   15150     91.70282   -880.67523    73926.581   -17207.968    1239.9097   -18447.878    45.747683    234.21396 
   15200    93.222571     -850.943    73931.117   -17224.913    1260.4581   -18485.371    45.845396    238.09549 
   15250    92.503135   -842.84106    73953.919   -17244.483    1250.7307   -18495.213    45.651269    236.25801 
   15300    93.816766   -1072.8706    73937.225   -17219.255    1268.4922   -18487.747     45.32586    239.61309 
   15350    91.443455   -1086.7636    73918.247   -17222.101    1236.4028   -18458.504    45.624839    233.55153 
   15400    91.968092   -742.92875    73955.599   -17208.949    1243.4964   -18452.446    45.779325    234.89148 
   15450    93.386022   -733.78165     74006.91    -17215.36    1262.6681   -18478.028    45.775924    238.51295 
   15500    95.640969   -945.55064    74026.087   -17207.838    1293.1572   -18500.995    46.255297     244.2722 
   15550    93.463127   -1283.6809    74024.474   -17211.206    1263.7107   -18474.917    46.645121    238.70988 
   15600    90.063947   -1095.2683    74016.377   -17247.521    1217.7505   -18465.272    46.757634    230.02819 
   15650    92.907537   -1174.0675    74008.671   -17273.727    1256.1986   -18529.925    46.857133    237.29087 
   15700    88.650403   -882.86995    73980.772   -17282.448    1198.6381   -18481.086    46.961083    226.41792 
   15750    94.846055   -570.71072    74010.619   -17234.951    1282.4092    -18517.36    46.971901    242.24195 
   15800    93.522899   -1199.4917    74036.402   -17264.962    1264.5189   -18529.481    47.234457    238.86254 
   15850    93.070513   -887.04698    74049.485   -17252.576    1258.4022   -18510.978     47.36463    237.70712 
   15900    92.297903   -1039.9702    74053.906   -17244.921    1247.9557   -18492.877    47.642025    235.73383 
   15950    92.831982   -864.92274    74018.894   -17261.389     1255.177   -18516.566    47.723475     237.0979 
   16000    92.310052   -1045.3161    74068.917   -17273.327      1248.12   -18521.447    47.818085    235.76486 
   16050    92.284482   -1111.6316    74085.062    -17255.47    1247.7743   -18503.244    47.937741    235.69956 
   16100    89.744873   -875.61081    74111.474   -17258.814    1213.4363    -18472.25    47.801296    229.21326 
   16150    93.259896   -1193.0446    74116.657   -17249.467    1260.9628    -18510.43    47.650672    238.19082 
   16200    91.015393   -878.38901     74114.27   -17269.167     1230.615   -18499.782    47.869168    232.45823 
   16250    91.162715   -1069.4878    74078.066   -17239.451    1232.6069   -18472.058    47.994126     232.8345 
   16300    91.203245   -1124.4094    74018.346   -17264.734    1233.1549   -18497.889    48.124712    232.93802 
   16350    94.583887   -1237.7215    74008.395   -17256.229    1278.8644   -18535.094    48.084016    241.57236 
   16400    95.342618    -972.8637    74014.888   -17219.807    1289.1232    -18508.93    48.108824     243.5102 
   16450    93.664185   -1197.4543    74001.423   -17224.219    1266.4292   -18490.648    48.314919    239.22339 
   16500    93.751471    -1086.292    73950.109   -17224.795    1267.6094   -18492.405    48.721442    239.44632 
   16550    92.905272   -799.25758    73991.933   -17257.032    1256.1679     -18513.2    48.781682    237.28509 
   16600    93.609649   -1115.2192     74004.36   -17271.179    1265.6918   -18536.871     48.88202     239.0841 
   16650    92.134431   -746.06195    73990.336   -17242.757    1245.7454   -18488.502    49.126365    235.31632 
   16700     91.38313   -627.04259    74073.721   -17259.851    1235.5871   -18495.438    49.314559    233.39745 
   16750    92.612043   -412.16434    74168.219   -17233.529    1252.2032   -18485.732    49.514769    236.53616 
   16800    90.026204   -766.47059    74230.808   -17240.253    1217.2402   -18457.493    49.952166    229.93179 
   16850     90.75931   -763.59148    74310.506   -17228.584    1227.1525   -18455.737      50.1438    231.80418 
   16900     95.47174   -878.86658    74355.566   -17231.348     1290.869   -18522.217    50.436253    243.83998 
   16950     95.03312   -1063.8705     74330.95   -17198.437    1284.9385   -18483.376    50.697474    242.71972 
   17000    92.300432   -829.05247    74319.706   -17202.864    1247.9899   -18450.854    51.084642    235.74029 
   17050    94.391004   -928.11707    74285.929   -17181.446    1276.2565   -18457.703    50.950908    241.07973 
   17100    94.179852   -879.37122    74231.059   -17190.009    1273.4015   -18463.411     51.13089    240.54043 
   17150    95.624174   -865.64004    74246.414   -17219.791    1292.9301   -18512.721    51.315532    244.22931 
   17200    94.079889    -1046.099    74199.075    -17216.64    1272.0499    -18488.69    51.194988    240.28512 
   17250    94.163375   -678.30608    74212.653   -17223.712    1273.1787   -18496.891    51.303349    240.49835 
   17300    90.629319   -1361.0488    74141.788   -17237.849    1225.3949   -18463.244    51.732883    231.47218 
   17350    90.192341    -820.9199    74041.714   -17243.691    1219.4865   -18463.178    52.128582    230.35611 
   17400    91.670275   -1171.2883    73944.981   -17233.661    1239.4696   -18473.131    52.179579    234.13084 
   17450    91.679252    -1268.654    73826.261   -17220.298     1239.591   -18459.889    52.197898    234.15377 
   17500      91.5413   -626.67799    73858.634   -17183.869    1237.7257   -18421.595    52.129482    233.80143 
   17550    89.971387   -1105.7617    73873.931   -17222.451     1216.499    -18438.95    52.289188    229.79179 
   17600    91.936579    -1125.034    73843.803   -17244.198    1243.0703   -18487.268    52.494577    234.81099 
   17650    91.771344   -797.06727    73786.693   -17214.168    1240.8362   -18455.004    52.966594    234.38897 
   17700    89.515685   -1088.5326    73801.575   -17199.118    1210.3375   -18409.456    53.202662     228.6279 
   17750    92.697377   -960.00463    73807.131   -17205.461     1253.357   -18458.818    53.379906    236.75411 
   17800    92.002145    -776.1996    73820.082   -17220.567    1243.9568   -18464.524     53.60149    234.97845 
   17850    92.034174   -833.72868    73836.577   -17221.498    1244.3899   -18465.888    53.666049    235.06026 
   17900    91.962539   -748.61479    73908.662   -17210.003    1243.4213   -18453.424    53.701946     234.8773 
   17950    95.752393   -957.83136    73951.248   -17211.948    1294.6637   -18506.612      54.2495    244.55679 
   18000    95.734528    -939.8581    73965.796    -17211.51    1294.4222   -18505.932    54.232952    244.51116 
   18050     98.11027   -768.23771    74031.648   -17218.306    1326.5445   -18544.851    54.425278    250.57893 
   18100    94.082672   -939.63276      74014.3   -17225.221    1272.0875   -18497.308    54.771117    240.29223 
   18150    97.626534    -956.7605    73954.105   -17223.443    1320.0039   -18543.447    54.930417    249.34345 
   18200    94.135667   -1040.8317    73980.777   -17229.652    1272.8041   -18502.456    55.002303    240.42758 
   18250    96.154538   -1010.1176    73975.021   -17215.501    1300.1011   -18515.602    54.952482    245.58389 
   18300    96.585105    -881.6216    73982.044   -17216.152    1305.9228   -18522.074     54.93401    246.68358 
   18350    94.496739   -1348.3986    73949.207   -17244.611    1277.6861   -18522.297    55.343323    241.34978 
   18400    91.315061   -1000.5953    73910.752   -17288.662    1234.6668   -18523.329    55.201353     233.2236 
   18450    89.205757    -1208.056    73922.643   -17301.759     1206.147   -18507.906    55.396251    227.83633 
   18500    93.803713    -955.6885    73963.711   -17268.444    1268.3157    -18536.76    55.611278    239.57975 
   18550    92.463785   -1187.1147    74017.639   -17281.938    1250.1986   -18532.137    55.813974     236.1575 
   18600    92.521601   -997.33411    73927.857   -17293.679    1250.9803   -18544.659    55.824324    236.30517 
   18650    91.751785   -1046.7615    73844.839   -17295.752    1240.5717   -18536.324    56.416911    234.33902 
   18700     93.48859   -1125.4363    73764.941   -17254.135     1264.055   -18518.189    56.490682    238.77491 
   18750    96.007542   -774.76448    73760.275   -17225.121    1298.1136   -18523.235     56.73105    245.20845 
   18800    93.271348   -747.74658     73760.87   -17212.373    1261.1176    -18473.49    56.983478    238.22006 
   18850    95.424663   -663.47125    73731.649   -17233.404    1290.2325   -18523.636    56.809584    243.71975 
   18900    93.988192   -935.62152     73723.28   -17230.263    1270.8101   -18501.073    56.847398    240.05092 
   18950    91.884594   -1199.6829    73689.141   -17227.982    1242.3674   -18470.349    57.127762    234.67822 
   19000    96.623636   -851.18788    73716.461   -17221.893    1306.4438   -18528.337    57.250288    246.78199 
   19050    96.404312   -481.17545    73745.904   -17216.854    1303.4783   -18520.332    57.625375    246.22182 
   19100    92.975179   -834.60589    73810.071   -17216.743    1257.1132   -18473.856    57.664342    237.46363 
   19150    95.721554   -926.22243    73819.221   -17225.541    1294.2468   -18519.788    57.781808    244.47802 
   19200    93.745451   -910.79173    73853.982   -17229.034     1267.528   -18496.562    58.191585    239.43095 
   19250    94.117529   -566.92463     73852.34   -17216.132    1272.5588   -18488.691    58.356329    240.38126 
   19300     92.69391   -1088.6473    73870.907   -17230.879    1253.3101   -18484.189    58.555351    236.74526 
   19350    91.742831   -1016.6273    73923.639   -17233.465    1240.4506   -18473.916    58.795048    234.31615 
   19400    93.145262   -1020.5817     73971.48   -17278.004    1259.4128   -18537.417    58.834569    237.89804 
   19450    95.802289   -710.83254    73948.874    -17242.82    1295.3384   -18538.158    58.959931    244.68422 
   19500    93.849803   -833.06706    73960.813   -17224.424    1268.9389   -18493.363    58.987905    239.69747 
   19550    92.469001   -713.18071    73947.572   -17238.343    1250.2691   -18488.612    59.220908    236.17083 
   19600    95.533668   -901.02509    73957.798   -17214.904    1291.7064   -18506.611    59.385993    243.99815 
   19650    93.944296    -622.6981    73991.064   -17211.035    1270.2165   -18481.252    59.561156    239.93881 
   19700    94.884668   -885.33893    74064.876   -17177.779    1282.9313   -18460.711    59.443821    242.34057 
   19750    94.349883   -646.00022    74042.748   -17185.059    1275.7005    -18460.76    59.307351     240.9747 
   19800     93.81829   -992.03604    73994.667   -17212.235    1268.5128   -18480.748     59.26895    239.61698 
   19850    95.312291   -877.29031    73977.941   -17174.701    1288.7131   -18463.415     59.29847    243.43274 
   19900     93.42117   -843.86579    73978.364   -17172.078    1263.1434   -18435.222     59.26968    238.60272 
   19950    95.636399    -830.3062    73901.014   -17160.945    1293.0954    -18454.04    59.349374    244.26053 
   20000     92.59431   -1468.2504    73817.796   -17184.181    1251.9634   -18436.144    59.631372    236.49087 
   20050    91.073485   -865.02113    73770.589   -17196.149    1231.4004   -18427.549    59.804133     232.6066 
   20100    93.399556   -1003.5175    73753.984   -17226.632    1262.8511   -18489.483    59.588958    238.54752 
   20150     94.98098    -729.6847    73673.727   -17230.441    1284.2335   -18514.674    59.552013    242.58656 
   20200    94.479655   -953.28571    73664.222   -17210.922    1277.4551   -18488.377    59.650792    241.30615 
   20250    92.425561   -1224.7205    73565.411   -17235.121    1249.6818   -18484.803    60.000842    236.05988 
   20300    94.722426   -745.28303     73584.43   -17207.959    1280.7376   -18488.697    60.259588     241.9262 
   20350    94.489658    -817.7642    73574.875    -17187.09    1277.5904    -18464.68    60.637334    241.33169 
   20400    95.892959   -848.53392    73601.243   -17149.119    1296.5643   -18445.683    60.853931     244.9158 
   20450    96.941467   -1016.7678    73580.118   -17142.666    1310.7412   -18453.407    60.914992    247.59375 
   20500    96.350174   -1119.7948    73538.213   -17113.068    1302.7463   -18415.815    61.008042    246.08355 
   20550    95.326257    -771.7549    73558.062   -17139.406     1288.902   -18428.308    61.284622    243.46841 
   20600    95.649388   -499.17447    73640.989   -17135.622     1293.271   -18428.893    61.223777    244.29371 
   20650    94.950027    -962.4932    73655.904   -17164.444     1283.815   -18448.259    61.468628     242.5075 
   20700    93.165134   -599.12763    73683.634   -17189.327    1259.6815   -18449.008    61.627009    237.94879 
   20750    93.723165   -668.90063    73734.321   -17191.958    1267.2266   -18459.185    61.868165    239.37403 
   20800    95.041339   -495.23079    73829.104   -17194.305    1285.0496   -18479.355    61.899714    242.74072 
   20850    90.841802   -626.85665    73868.697   -17205.035    1228.2679   -18433.303    62.112316    232.01487 
   20900    93.248796   -693.71997    73892.161   -17185.702    1260.8127   -18446.515    62.091306    238.16246 
   20950    95.729944   -946.52614    73902.048   -17168.662    1294.3602   -18463.022    62.075543    244.49945 
   21000    95.748305   -986.38654    73915.679   -17159.484    1294.6085   -18454.093    62.215059    244.54635 
   21050    94.598513   -784.74123    73874.383    -17146.79    1279.0622   -18425.852    62.460221    241.60971 
   21100    95.813659   -1138.5514    73919.153   -17167.624    1295.4921   -18463.116    62.691363    244.71326 
   21150    92.767189   -725.03209    73873.835   -17202.528    1254.3009   -18456.829    63.099533    236.93241 
   21200    92.250606   -1182.8208    73849.199   -17179.656    1247.3162   -18426.972    63.319979    235.61303 
   21250    93.408766   -684.02152    73879.179    -17179.49    1262.9757   -18442.466    63.457964    238.57104 
   21300    94.325442   -901.14293    73876.313   -17156.921      1275.37   -18432.291    63.575238    240.91228 
   21350    94.197075   -780.94228    73871.556   -17149.725    1273.6344   -18423.359     63.86381    240.58442 
   21400    92.234154   -876.44757    73898.222   -17183.147    1247.0938    -18430.24    63.832596    235.57102 
   21450    94.678134   -1031.6016    73871.622   -17159.143    1280.1387   -18439.281    63.687681    241.81307 
   21500    95.340181   -1026.2115    73786.214   -17140.617    1289.0902   -18429.707    64.228155    243.50398 
   21550    97.184795   -610.48777    73737.879   -17152.934    1314.0312   -18466.965    64.690474    248.21522 
   21600    95.750418   -872.29544    73767.488   -17138.208     1294.637   -18432.845    64.770773    244.55174 
   21650    91.975961   -711.80667    73791.827   -17157.341    1243.6028   -18400.944    64.993048    234.91157 
   21700    95.172217   -777.58926    73753.832   -17211.182    1286.8192   -18498.001      65.2015    243.07499 
   21750    91.902307   -1249.7128    73754.009   -17217.822    1242.6069   -18460.429    65.099435    234.72346 
   21800    94.721302    -1127.773     73729.31   -17227.838    1280.7224    -18508.56     65.02196    241.92333 
   21850    95.563459   -1186.6833    73722.576   -17184.133    1292.1092   -18476.243    65.337293    244.07424 
   21900    92.304202   -848.47013    73792.298   -17213.881    1248.0409   -18461.922    65.426591    235.74992 
   21950    92.139456   -1256.0013    73756.199   -17203.851    1245.8134   -18449.664    65.465205    235.32915 
   22000    95.640705    -861.2169    73733.786   -17199.173    1293.1536   -18492.326    65.614175    244.27153 
   22050    93.910175   -743.18749    73808.611   -17175.059    1269.7552   -18444.814    65.861358    239.85166 
   22100    95.794107   -677.93067    73924.517   -17173.414    1295.2278   -18468.641     66.04429    244.66333 
   22150    95.706059   -839.74225    73924.859   -17167.711    1294.0373   -18461.748    66.167733    244.43845 
   22200    95.908306   -1171.7354    73903.699   -17155.238    1296.7718   -18452.009    66.367215      244.955 
   22250    95.685981   -775.56964    73871.965   -17171.968    1293.7658   -18465.734    66.528172    244.38717 
   22300    94.091656   -847.58611    73891.527   -17157.854     1272.209   -18430.063    67.067903    240.31518 
   22350    95.869554   -705.50707    73934.112   -17156.829    1296.2479   -18453.077    67.077916    244.85602 
   22400    93.888034   -1227.0438    73936.577   -17165.114    1269.4558    -18434.57    67.280414    239.79511 
   22450    94.010228   -991.24612    73981.792   -17150.647     1271.108   -18421.755    67.793685     240.1072 
   22500    96.527783   -1133.7025    73975.636   -17153.655    1305.1477   -18458.803    68.155182    246.53717 
   22550    91.145415   -698.00812    74025.162   -17157.064     1232.373   -18389.437    68.379692    232.79032 
   22600    95.467095   -927.10253    74048.143   -17163.786    1290.8062   -18454.592    68.365953    243.82812 
   22650    95.878085   -1065.3897    74105.093    -17137.22    1296.3632   -18433.584    68.579315    244.87781 
   22700    96.156963   -1398.6049    74045.102   -17139.035    1300.1339   -18439.168    68.689503    245.59008 
   22750    94.985699   -894.99937    73949.993   -17145.957    1284.2973   -18430.255    68.581228    242.59861 
   22800    94.255411   -1087.2451    73928.601   -17166.688    1274.4231   -18441.111    68.438185    240.73341 
   22850     93.50557   -1117.3289    73881.456   -17180.633    1264.2846   -18444.917    68.176422    238.81828 
   22900    98.426998   -845.85719    73872.619   -17160.754    1330.8269   -18491.581    68.138139    251.38787 
   22950    97.195334   -908.43817    73926.265   -17148.867    1314.1737    -18463.04    68.261684    248.24214 
   23000    95.006952   -751.68028    73964.834   -17162.017    1284.5847   -18446.602    68.596099    242.65289 
   23050    95.310883   -991.68465    73959.009   -17165.661    1288.6941   -18454.356    68.761254    243.42915 
   23100     93.99705   -956.90627    73973.026    -17225.92    1270.9298    -18496.85     68.83699    240.07355 
   23150    94.160868   -1103.1509    73899.204    -17224.53    1273.1448   -18497.674    69.050724    240.49195 
   23200    92.606519   -994.43689    73850.587   -17224.341    1252.1285   -18476.469    69.091552    236.52205 
   23250    95.831605   -495.43229    73833.964   -17191.278    1295.7348   -18487.013    69.036482     244.7591 
   23300    93.374434   -418.14165    73912.626   -17187.084    1262.5115   -18449.595    69.059192    238.48335 
   23350    94.329363   -639.61097    73996.199   -17191.446     1275.423   -18466.869    69.274522    240.92229 
   23400    95.497699   -1127.0858    74040.818   -17198.891      1291.22   -18490.111    69.311921    243.90629 
   23450    93.375441    -921.8137    74056.396    -17249.68    1262.5251   -18512.205    69.768044    238.48592 
   23500    91.479496    -872.3483    74035.252   -17280.716    1236.8901   -18517.606     69.73687    233.64358 
   23550    95.080835   -1011.1797    74006.891    -17260.31    1285.5836   -18545.894    69.972119    242.84159 
   23600    95.202156   -895.75156    74094.532   -17250.452     1287.224   -18537.676    70.076239    243.15145 
   23650    94.916571   -953.92504    74119.436    -17223.21    1283.3626   -18506.573    70.382381    242.42205 
   23700    94.078853   -897.57833    74158.592   -17213.113    1272.0359   -18485.148    70.614405    240.28248 
   23750    93.403408   -892.09578    74199.686   -17237.134    1262.9032   -18500.037    70.685878    238.55735 
   23800    91.999943   -861.30477    74236.142   -17250.351     1243.927   -18494.278    70.799381    234.97283 
   23850     93.08395   -1406.8205    74261.146   -17239.149    1258.5838   -18497.733    70.890743    237.74144 
   23900    91.841781   -1018.7537    74235.601   -17237.494    1241.7885   -18479.282    70.979822    234.56887 
   23950    93.900741   -1186.5549    74196.749   -17213.439    1269.6276   -18483.066    71.239255    239.82757 
   24000    95.045437    -1381.666    74147.273   -17236.738     1285.105   -18521.843    71.411456    242.75118 
   24050    94.800892   -663.87911    74149.735   -17236.473    1281.7985   -18518.272    71.384841     242.1266 
   24100    93.656341   -1137.9253    74124.453   -17248.888    1266.3231   -18515.212    71.632918    239.20336 
   24150    94.288539   -1059.1418    74110.807   -17230.856     1274.871   -18505.727    71.904264    240.81803 
   24200    93.429702   -1067.1645    74088.437    -17225.87    1263.2587   -18489.128    72.304928    238.62451 
   24250    96.667873   -1082.3953     74096.35   -17216.167    1307.0419   -18523.209    72.556974    246.89497 
   24300    93.949941   -648.04892     74141.12   -17256.891    1270.2929   -18527.184     72.74327    239.95323 
   24350    92.203174   -1221.6189     74147.09   -17266.704    1246.6749   -18513.379     73.01923    235.49189 
   24400    91.214855   -850.84726    74128.569   -17284.439    1233.3119   -18517.751    73.245925    232.96767 
   24450     93.90454    -1155.991    74127.514   -17241.049     1269.679   -18510.728    73.654042    239.83727 
   24500    92.198339   -937.65436    74159.246   -17242.076    1246.6095   -18488.686    74.168009    235.47954 
   24550    91.787572   -775.00089    74235.968   -17237.375    1241.0556    -18478.43    74.376936    234.43042 
   24600    94.136193   -1070.2989    74275.456   -17243.956    1272.8112   -18516.767    74.548793    240.42892 
   24650     93.38225   -1038.3956    74297.016   -17223.681    1262.6171   -18486.298    74.847018    238.50331 
   24700    93.530166   -835.39841    74307.158   -17220.055    1264.6171   -18484.672    75.142058     238.8811 
   24750    93.776726    -804.6584    74260.391   -17227.728    1267.9508   -18495.679    75.473655    239.51083 
   24800    93.519708   -1280.9806    74290.981   -17228.357    1264.4757   -18492.833    75.682455    238.85439 
   24850    93.958053    -1099.903    74253.891   -17251.252    1270.4025   -18521.655     75.83571    239.97395 
   24900    95.668799   -696.23587    74298.093   -17185.811    1293.5335   -18479.345     76.14761    244.34328 
   24950    93.579637   -982.00712    74342.852   -17216.747     1265.286   -18482.033    76.506259    239.00745 
   25000    93.946578   -586.32364    74360.243   -17225.393    1270.2474    -18495.64    76.927412    239.94464 
   25050    95.623461   -1092.7058    74421.487   -17209.591    1292.9205   -18502.512    77.102335    244.22749 
   25100    96.255329   -1030.2348    74394.617   -17218.952    1301.4639   -18520.416     77.37296    245.84131 
   25150    96.389889    -868.5235    74404.389   -17203.449    1303.2833   -18506.733    77.480245    246.18499 
   25200    94.101916   -936.05499    74378.503    -17220.01    1272.3477   -18492.358    77.467848    240.34138 
   25250    90.539042   -890.07434    74353.635   -17247.804    1224.1743   -18471.978    77.496961    231.24161 
   25300    94.355713   -1011.6693     74387.91   -17260.363    1275.7793   -18536.143    77.469449    240.98959 
   25350    91.184776   -996.85688    74399.157   -17256.896    1232.9052   -18489.801    77.730095    232.89085 
   25400    95.197047   -487.21004    74429.532    -17248.78    1287.1549   -18535.935    77.963405     243.1384 
   25450    92.842309   -832.28927    74480.346   -17269.745    1255.3166   -18525.062    78.267321    237.12427 
   25500    95.264117   -1136.3482    74461.635   -17281.296    1288.0618   -18569.358    78.493991     243.3097 
   25550    95.006754   -1196.5589    74436.137   -17266.842     1284.582   -18551.424    78.233258    242.65239 
   25600    94.570458   -902.26536    74403.825   -17250.384    1278.6828   -18529.067    78.183139    241.53806 
   25650     95.51182   -847.76219    74381.785   -17275.635     1291.411   -18567.046    77.925304    243.94235 
   25700    94.002382   -849.58054    74416.676   -17260.504    1271.0019   -18531.506    77.936038    240.08717 
   25750    94.017254   -867.15598    74420.844   -17249.215     1271.203   -18520.418    78.064005    240.12515 
   25800    92.753596   -1215.9778    74459.416   -17265.516    1254.1171   -18519.633    78.214216     236.8977 
   25850    92.801101   -1185.3339    74430.334    -17284.23    1254.7594   -18538.989    77.908394    237.01903 
   25900    91.471318   -1212.1755    74437.298   -17312.719    1236.7795   -18549.499    78.025357    233.62269 
   25950    93.188505     -952.368     74470.35   -17300.889    1259.9975   -18560.887    78.067827    238.00848 
   26000     94.44182   -1442.3496    74463.034   -17278.667    1276.9435   -18555.611    78.080626    241.20951 
   26050    92.889865   -1191.0857    74410.075   -17276.592    1255.9596   -18532.552    78.414224    237.24574 
   26100    96.167472   -1010.2577    74412.624   -17270.645     1300.276   -18570.921    78.413738    245.61692 
   26150    91.658348   -1026.2891    74377.626   -17268.222    1239.3083   -18507.531    78.561272    234.10038 
   26200    94.927084   -795.71024    74349.039   -17247.101    1283.5048   -18530.606    78.121148     242.4489 
   26250    92.811549   -1167.3281     74361.89   -17256.184    1254.9007   -18511.085    78.033161    237.04571 
   26300    94.066769   -1031.3795    74373.418    -17253.65    1271.8725   -18525.523    78.163908    240.25161 
   26350    96.051858   -1182.2951    74387.022   -17266.991    1298.7128   -18565.704    78.246443    245.32164 
   26400    93.252915   -955.03373    74456.689   -17272.882    1260.8684    -18533.75    78.149544    238.17298 
   26450    95.407648   -740.78739    74519.379    -17285.61    1290.0025   -18575.612    78.484752    243.67629 
   26500    92.374258    -1037.708    74537.139   -17300.573    1248.9881   -18549.561    78.843393    235.92885 
   26550    92.219021    -797.4873    74518.079   -17277.419    1246.8892   -18524.308    78.720602    235.53237 
   26600    91.293717   -1136.4531    74491.888   -17300.556    1234.3782   -18534.934    78.930433    233.16909 
   26650    92.420628   -863.94099    74485.872    -17280.37    1249.6151   -18529.985    78.764135    236.04728 
   26700    94.720568   -998.96475    74496.519   -17292.785    1280.7125   -18573.498    78.854197    241.92145 
   26750    93.382322   -1116.2854    74439.873   -17289.238    1262.6181   -18551.856    79.165868     238.5035 
   26800    90.327778    -1243.548    74415.888   -17308.086    1221.3178   -18529.404    79.072257    230.70203 
   26850    94.414309   -1121.5866    74353.865   -17311.303    1276.5716   -18587.874    79.023644    241.13925 
   26900    91.833685   -925.93224    74308.546   -17280.597    1241.6791   -18522.276    79.302627     234.5482 
   26950     92.16061   -600.66834    74281.297   -17272.433    1246.0994   -18518.532    79.503048    235.38318 
   27000      93.2278   -1342.5206    74322.148   -17268.403    1260.5288   -18528.932    79.894684    238.10884 
   27050    96.272538   -1031.4519    74355.474   -17276.863    1301.6966   -18578.559    79.700086    245.88527 
   27100    93.667553   -976.74582    74359.012   -17268.092    1266.4747   -18534.567    80.042322    239.23199 
   27150    95.801218   -772.93825    74423.812   -17272.103    1295.3239   -18567.427    80.572211    244.68149 
   27200    92.898184   -905.51787    74454.799   -17276.974    1256.0721   -18533.046    80.930634    237.26698 
   27250    97.421861   -1033.8463    74529.085   -17246.905    1317.2365   -18564.142    81.221086     248.8207 
   27300    93.572329   -962.32467    74590.932   -17235.791    1265.1872   -18500.978    81.475504    238.98879 
   27350    93.402559    -733.3654    74663.836   -17238.366    1262.8917   -18501.257    81.746842    238.55519 
   27400    94.402736    -721.4693    74736.351   -17241.346    1276.4151   -18517.761    82.060409    241.10969 
   27450    94.686477   -990.63173      74830.4   -17262.696    1280.2515   -18542.948    82.134383    241.83438 
   27500    92.874012   -1048.7818     74809.02   -17275.052    1255.7453   -18530.797    82.180658    237.20525 
   27550    92.659081   -1133.3572    74840.862   -17279.562    1252.8392   -18532.401    82.432015     236.6563 
   27600    95.588208   -1252.5902    74837.296   -17273.124    1292.4438   -18565.568     82.82222    244.13745 
   27650    93.896491   -1119.0484    74799.899   -17280.141    1269.5702   -18549.712    82.813862    239.81671 
   27700    93.290448   -1033.8206    74835.013   -17316.682    1261.3759   -18578.058    82.950058    238.26885 
   27750    95.766222   -794.93392    74882.414   -17309.682    1294.8507   -18604.533    83.345594    244.59211 
   27800    90.509652   -1082.5172    74885.237   -17310.457    1223.7769   -18534.234    83.613934    231.16654 
   27850    91.495654    -991.4638    74830.472   -17328.106    1237.1086   -18565.215    83.571408    233.68484 
   27900    93.983689   -1261.8176    74812.898    -17335.55    1270.7492   -18606.299     83.99794    240.03942 
   27950     93.58046   -1042.7867    74735.786    -17309.98    1265.2971   -18575.277    83.626399    239.00955 
   28000    95.610595   -998.64835    74732.308   -17295.759    1292.7465   -18588.505    83.412187    244.19463 
   28050    93.518081    -1274.227    74726.777   -17315.087    1264.4537   -18579.541    83.604125    238.85023 
   28100    96.847211   -1118.5207    74705.723   -17306.294    1309.4667   -18615.761    83.481421    247.35301 
   28150    92.842373   -1101.8814    74703.316    -17332.28    1255.3175   -18587.597    83.701883    237.12444 
   28200    91.418339   -1107.9531    74685.262   -17320.642    1236.0632   -18556.705     83.44912    233.48738 
   28250    94.024652   -689.93689    74671.841   -17319.025     1271.303   -18590.328    83.318393    240.14404 
   28300    94.599711   -811.19864    74622.977   -17320.677    1279.0784   -18599.755    83.248695    241.61278 
   28350    93.215043   -841.70101    74580.775   -17300.617    1260.3563   -18560.973    83.187696    238.07626 
   28400    95.150405   -1049.4253    74599.389   -17306.084    1286.5243   -18592.609    83.427048    243.01928 
   28450    92.006206   -928.63188     74536.06   -17306.667    1244.0117   -18550.679    83.563476    234.98882 
   28500    91.883242   -791.42873    74555.154   -17339.349    1242.3491   -18581.698    84.005113    234.67477 
   28550     89.89816   -910.41144     74575.56   -17324.365    1215.5089   -18539.874    84.119117    229.60476 
   28600    96.019602   -1082.0092    74653.984    -17278.31    1298.2767   -18576.587    84.199865    245.23925 
   28650    93.891555    -897.2394    74668.534   -17286.552    1269.5034   -18556.055    84.237193    239.80411 
   28700    93.716278    -1059.981    74695.381   -17305.439    1267.1335   -18572.572    84.432953    239.35644 
   28750    95.336983   -688.85822    74740.313   -17323.933     1289.047    -18612.98    84.757372    243.49581 
   28800    93.359827   -769.05362    74764.026   -17317.013     1262.314   -18579.327    85.316164    238.44604 
   28850    91.673594   -1100.0728      74714.4   -17328.536    1239.5145   -18568.051    85.427486    234.13931 
   28900    94.081339   -950.91063    74738.279   -17302.299    1272.0695   -18574.368    85.803845    240.28883 
   28950    93.183871   -1021.7157     74759.68   -17280.618    1259.9349   -18540.553    85.753243    237.99664 
   29000    95.617422   -1083.5609    74756.587   -17290.204    1292.8388   -18583.043    85.929578    244.21206 
   29050    90.475325   -877.31169    74741.073   -17305.518    1223.3127    -18528.83    86.220488    231.07887 
   29100    93.692143   -1364.5617    74701.469   -17318.889    1266.8072   -18585.696    86.228717     239.2948 
   29150    90.211785   -1186.4086    74649.365   -17386.104    1219.7494   -18605.853    86.355564    230.40578 
   29200    92.453494   -1034.6245    74615.217   -17370.284    1250.0595   -18620.344    86.233663    236.13122 
   29250    91.951294   -1105.4266     74573.02   -17340.934    1243.2693   -18584.203    86.364187    234.84858 
   29300    96.379044   -849.20501    74648.073   -17326.481    1303.1367   -18629.618    86.315284    246.15729 
   29350    93.285145   -756.24614    74725.056   -17342.491    1261.3042   -18603.795    86.068238     238.2553 
   29400    91.447609    -877.3083    74725.553   -17336.695     1236.459   -18573.154     86.14023    233.56214 
   29450    95.701594   -853.80612    74736.595   -17279.372    1293.9769   -18573.349    86.147424    244.42704 
   29500    96.385243   -1060.9272    74737.731   -17289.813    1303.2205   -18593.033    85.960024    246.17312 
   29550    94.869569    -1254.896    74682.073   -17302.696    1282.7271   -18585.423     86.03349    242.30201 
   29600    93.517176    -951.6863    74630.949    -17317.09    1264.4415   -18581.531    86.422799    238.84792 
   29650     93.50319   -964.36952     74635.02    -17336.65    1264.2524   -18600.902    86.431626     238.8122 
   29700    93.901106   -833.45751    74645.139   -17318.095    1269.6326   -18587.728    86.444252     239.8285 
   29750    95.264742    -696.0494    74667.609   -17309.208    1288.0702   -18597.278    86.323898     243.3113 
   29800    92.028206   -867.72495    74694.827   -17310.185    1244.3092   -18554.494    86.571685    235.04501 
   29850    92.213041   -740.25473    74744.564   -17296.727    1246.8083   -18543.535    86.326844    235.51709 
   29900    92.864801   -700.80262    74791.487   -17305.091    1255.6207   -18560.711    86.207348    237.18172 
   29950     93.37184   -1215.2425    74704.285   -17306.717    1262.4764   -18569.193    86.238303    238.47673 
   30000    92.090959   -1053.1191    74674.259   -17321.983    1245.1577   -18567.141    85.905041    235.20529 
   30050    93.153232   -961.77984     74628.31   -17294.644    1259.5206   -18554.165    85.824404    237.91839 
   30100      94.2335   -970.43091    74638.032   -17306.572    1274.1269   -18580.698    86.052962    240.67745 
   30150    96.542387   -955.91887    74600.842   -17258.455    1305.3452     -18563.8    86.241938    246.57447 
   30200    93.884356   -935.92372    74602.102    -17252.39    1269.4061   -18521.796    86.277503    239.78572 
   30250    94.090217   -1015.2744    74505.325   -17302.522    1272.1895   -18574.711    86.335427     240.3115 
   30300    91.148855   -913.72934    74474.824   -17294.697    1232.4195   -18527.116    85.964775     232.7991 
   30350     93.94288   -1103.5634    74467.209   -17309.302    1270.1974     -18579.5    85.771117    239.93519 
   30400    92.145349   -947.59571    74415.024   -17318.681    1245.8931   -18564.574    85.890231     235.3442 
   30450     92.89907   -732.75867    74367.828   -17322.989    1256.0841   -18579.073    85.946145    237.26925 
   30500     92.24801   -929.98978    74354.079   -17317.142    1247.2811   -18564.423    86.151451     235.6064 
   30550    93.130935   -880.59424    74279.169   -17314.741    1259.2191    -18573.96    86.376086    237.86144 
   30600     92.50758   -1304.7139    74255.955   -17327.467    1250.7908   -18578.258    86.805283    236.26936 
   30650    93.404638   -835.08073    74263.679   -17339.249    1262.9198   -18602.169     86.85372    238.56049 
   30700    96.091815   -879.30468    74307.948   -17298.714     1299.253   -18597.968    87.029534    245.42369 
   30750    93.883025   -1326.5488    74348.661   -17281.147    1269.3881   -18550.535     87.21147    239.78232 
   30800    95.323713   -999.62985    74365.458    -17319.72    1288.8676   -18608.588    87.212279    243.46192 
   30850    91.739867   -1172.9572    74397.673   -17341.844    1240.4106   -18582.255    87.182745    234.30858 
   30900    94.061901    -1018.249    74387.353   -17319.632    1271.8067   -18591.438    87.427707    240.23918 
   30950    91.861966   -919.93851    74425.288   -17347.081    1242.0615   -18589.142    87.088703    234.62043 
   31000     94.00443     -1089.23     74431.68   -17300.884    1271.0296   -18571.913    87.224378     240.0924 
   31050    93.460855   -1115.7527    74370.204   -17304.122      1263.68   -18567.802    87.472535    238.70408 
   31100    91.605601   -1272.3033    74296.489   -17300.048    1238.5951   -18538.643    87.618371    233.96566 
   31150    95.900156   -939.38141    74260.352   -17251.481    1296.6616   -18548.143    87.709848    244.93418 
   31200    96.919663   -880.06405    74267.575   -17255.599    1310.4463   -18566.045    88.270085    247.53806 
   31250    97.679631   -1192.1018    74279.643   -17250.755    1320.7218   -18571.477    88.381838    249.47906 
   31300    95.657011   -1254.7562    74248.101   -17218.373    1293.3741   -18511.747    88.583816    244.31318 
   31350    96.524995   -1220.8449    74199.053   -17206.445    1305.1101   -18511.555    88.436727    246.53005 
   31400    94.502814   -812.13651     74178.64   -17236.446    1277.7682   -18514.214    88.422393    241.36529 
   31450    93.976329   -776.45754    74140.931   -17275.493    1270.6497   -18546.143    88.613249    240.02062 
   31500    90.903003   -857.62428    74174.098   -17329.192    1229.0954   -18558.288    89.026813    232.17118 
   31550    95.380901   -1000.2556     74162.77       -17308    1289.6408   -18597.641    89.369797    243.60798 
   31600    94.933157   -984.72972    74129.153   -17307.915    1283.5869   -18591.502    89.689905    242.46441 
   31650    97.267412   -1303.1009    73995.697   -17300.303    1315.1482   -18615.451    89.852921    248.42623 
   31700    93.825135   -860.34949    73907.731   -17285.579    1268.6054   -18554.184    89.854813    239.63447 
   31750    93.469217   -1103.5784    73896.972   -17285.463     1263.793   -18549.256    90.533568    238.72543 
   31800    92.336694   -764.18461    73952.008       -17298    1248.4802   -18546.481    90.427313    235.83291 
   31850    89.895584   -806.00513    73932.539   -17296.676    1215.4741    -18512.15    90.601328    229.59818 
   31900    94.724255   -761.03286    73973.152   -17303.514    1280.7623   -18584.276    90.885919    241.93087 
   31950    90.514267   -936.21674    74006.203   -17327.631    1223.8393    -18551.47    91.375704    231.17833 
   32000    91.609319   -923.26738    73988.125   -17274.374    1238.6454    -18513.02    91.645316    233.97515 
   32050    93.496866   -959.90892    74007.841   -17275.691    1264.1669   -18539.858    91.701301    238.79605 
   32100    94.489739    -731.5084    74006.238   -17307.411    1277.5915   -18585.003    91.660175     241.3319 
   32150    93.063563   -859.84876    74032.377   -17318.762    1258.3082    -18577.07    91.337586    237.68937 
   32200    91.934462   -1336.0254    74072.659   -17326.754    1243.0417   -18569.796    91.208117    234.80559 
   32250    94.320165   -1007.8109     74036.94    -17348.86    1275.2986   -18624.158    91.099006     240.8988 
   32300    90.631515   -837.14575    73993.297   -17344.097    1225.4246   -18569.522    91.455487    231.47779 
   32350    92.690411   -973.88078    73972.611   -17319.863    1253.2628   -18573.125    91.615485    236.73632 
   32400    91.422067   -929.95141    73886.082   -17307.932    1236.1136   -18544.046    91.685495     233.4969 
   32450    95.642337   -737.03491      73879.8   -17285.643    1293.1757   -18578.818    91.898959     244.2757 
   32500    94.139914    -425.6602    73912.982   -17298.803    1272.8615   -18571.665    91.819343    240.43843 
   32550    92.596095   -622.59457    73957.365   -17347.922    1251.9876    -18599.91    91.943211    236.49543 
   32600    91.523733   -549.08031    73996.257   -17357.726    1237.4882   -18595.215    92.559151    233.75656 
   32650    90.534623   -801.90938    74030.488   -17352.983    1224.1145   -18577.097    92.457707    231.23032 
   32700    94.388127   -869.11451    73987.944   -17288.013    1276.2176    -18564.23    92.345091    241.07238 
   32750    92.136363   -846.81634    73979.412   -17274.717    1245.7716   -18520.489    92.313756    235.32125 
   32800    92.361176   -951.97035     73986.18   -17298.659    1248.8112    -18547.47    92.326544    235.89544 
   32850    90.944502    -881.1719    73955.985   -17292.821    1229.6565   -18522.477    92.367089    232.27717 
   32900    91.729407   -1027.9225    73938.636   -17288.439    1240.2691   -18528.708    92.279645    234.28186 
   32950    93.593395   -923.49269    73888.891   -17297.336     1265.472   -18562.808    92.109253    239.04259 
   33000    91.625903    -663.6969    73909.221   -17333.585    1238.8697   -18572.454    92.358711    234.01751 
   33050    90.148537   -689.65935    74005.136   -17323.581    1218.8943   -18542.475    92.748438    230.24424 
   33100    91.220813   -835.34052    74012.754   -17306.989    1233.3925   -18540.382    93.051885    232.98289 
   33150    91.678417   -881.04766    74031.269    -17313.93    1239.5797   -18553.509    93.063976    234.15163 
   33200    95.257001   -947.28733    74055.476   -17285.983    1287.9656   -18573.948    93.302289    243.29153 
   33250    94.817711   -1144.3436    74126.816   -17315.228    1282.0259   -18597.254    93.753043    242.16956 
   33300     92.49801   -890.37836    74161.049   -17349.864    1250.6614   -18600.526    94.111177    236.24492 
   33350    91.998817   -890.24659    74164.946   -17339.322    1243.9118   -18583.233    94.492059    234.96995 
   33400    93.767679   -1047.9408    74127.634   -17343.567    1267.8285   -18611.396    94.582669    239.48772 
   33450    95.905001   -812.19335    74164.937   -17346.481    1296.7271   -18643.208    94.898934    244.94656 
   33500    91.312601    -1003.943    74136.592   -17340.316    1234.6335   -18574.949    94.966187    233.21732 
   33550    93.458698   -612.33907    74188.095   -17307.762    1263.6508   -18571.413    95.305051    238.69857 
   33600    92.044242   -670.39722    74219.031   -17326.298     1244.526   -18570.824    95.361125    235.08597 
   33650    93.899889   -638.57531    74259.747   -17344.078    1269.6161   -18613.694    95.073834    239.82539 
   33700    92.898087   -832.79251    74290.234   -17281.203    1256.0708   -18537.274    94.905871    237.26674 
   33750    94.882995   -907.87398     74295.13   -17290.255    1282.9087   -18573.164    94.830579     242.3363 
   33800    93.234494   -877.61766    74301.252   -17287.351    1260.6193   -18547.971    94.785374    238.12594 
   33850    92.974726   -827.85379    74309.602   -17280.443     1257.107    -18537.55     94.88196    237.46248 
   33900    90.538493   -952.79019    74340.226   -17252.156    1224.1668   -18476.323    94.924741    231.24021 
   33950    93.896503   -1048.7727    74371.697   -17214.194    1269.5703   -18483.764    95.313607    239.81675 
[...]
   92000    96.548884   -811.75009     74891.52   -17321.475    1305.4331   -18626.908    257.97122    246.59107 
   92050    93.038369   -1088.5931    74947.205   -17314.716    1257.9675   -18572.683    258.22571    237.62502 
   92100    95.657595    -1045.214    74964.565   -17337.946     1293.382   -18631.328    258.73976    244.31467 
   92150    94.876904   -903.25908    74918.478   -17336.585    1282.8263   -18619.412     258.3409    242.32074 
   92200    94.914907   -1169.3245    74914.258   -17325.974    1283.3401   -18609.314     258.6952     242.4178 
   92250    92.010119   -1293.8707    74863.706   -17340.747    1244.0646   -18584.812    259.18831    234.99882 
   92300    94.371286    -886.4888    74807.926   -17316.669    1275.9899   -18592.659    259.34743    241.02937 
   92350    92.946011   -867.96016     74827.29    -17328.42    1256.7188   -18585.138    258.93671    237.38914 
   92400    94.022819   -944.77942    74842.783   -17303.932    1271.2782   -18575.211     259.1407    240.13936 
   92450    94.446385   -993.17817    74806.776   -17267.053    1277.0053   -18544.058    258.63747    241.22117 
   92500    94.241816   -820.24381    74852.727   -17261.841    1274.2393    -18536.08    258.72831    240.69869 
   92550    94.916793   -1275.7722    74896.304   -17264.604    1283.3656    -18547.97     258.8102    242.42262 
   92600    94.494845   -1251.2534    74897.721   -17268.871    1277.6605   -18546.532    258.49873    241.34494 
   92650    95.969697   -740.40316    74969.775    -17288.28    1297.6019   -18585.882    258.47072    245.11179 
   92700    96.156582   -1029.6804    74979.741    -17284.13    1300.1288   -18584.258    258.45703    245.58911 
   92750    97.075065   -1273.2224    75005.253   -17244.336    1312.5475   -18556.884    258.91426    247.93496 
   92800    95.824288   -1036.0418    75026.613   -17279.352    1295.6358   -18574.988    259.50818    244.74041 
   92850    95.773552   -1090.8338    75054.794   -17281.355    1294.9498   -18576.305    259.43771    244.61083 
   92900    95.951615   -1134.7458    75073.859   -17289.465    1297.3574   -18586.822    259.81125    245.06561 
   92950    95.335765   -1223.7822    74993.457   -17289.239    1289.0305    -18578.27    259.66538     243.4927 
   93000    95.675124   -1040.9475    74978.046   -17286.375     1293.619   -18579.994    259.58266    244.35944 
   93050    94.418223   -836.16985    74954.271   -17274.145    1276.6245    -18550.77     259.7709    241.14925 
   93100    96.543162    -847.4151    74942.583   -17257.027    1305.3557   -18562.382    258.97551    246.57645 
   93150    96.559589   -830.26965    74970.836   -17305.629    1305.5778   -18611.207    259.12396    246.61841 
   93200    95.359758   -911.29815    74918.947   -17306.743    1289.3549   -18596.098    259.53946    243.55398 
   93250    90.111132    -998.4897    74910.213   -17346.228    1218.3885   -18564.616    259.29985     230.1487 
   93300    96.551601   -1014.7002    74926.263   -17351.461    1305.4698   -18656.931    259.19209    246.59801 
   93350    91.775162   -915.60555    74954.544   -17373.958    1240.8878   -18614.846    259.42628    234.39872 
   93400    92.298802   -986.82094    74947.467   -17398.599    1247.9679   -18646.567    260.28824    235.73613 
   93450    93.345688   -1337.9198    74908.119   -17399.335    1262.1228   -18661.458    260.64096    238.40993 
   93500    90.885572   -1187.2233    74838.322   -17423.237    1228.8597   -18652.097    261.17943    232.12666 
   93550    91.048207   -972.69352    74788.716    -17407.24    1231.0587   -18638.299    260.89022    232.54204 
   93600    92.127144   -1104.2437    74739.588   -17395.626    1245.6469   -18641.273    261.45288     235.2977 
   93650    95.877394   -1189.2737    74677.364   -17365.151    1296.3539   -18661.505    261.11576    244.87605 
   93700      92.0529   -1284.9069    74630.563   -17387.617    1244.6431    -18632.26     260.5421    235.10808 
   93750    92.742557   -713.11672    74615.845   -17366.243    1253.9679   -18620.211    260.39386     236.8695 
   93800    93.392457   -996.33855    74595.926   -17359.157    1262.7552   -18621.913    259.93363    238.52938 
   93850    92.532444   -1032.4854    74600.685   -17346.937     1251.127   -18598.064    260.12173    236.33286 
   93900    93.187168   -1134.8762    74591.684   -17331.097    1259.9794   -18591.077    260.31033    238.00506 
   93950    93.814391   -1141.3819    74590.707   -17335.498    1268.4601   -18603.958    260.28543    239.60702 
   94000    95.044084   -1212.0489    74618.125   -17314.106    1285.0867   -18599.193    260.93287    242.74773 
   94050    94.252464   -1073.2785    74662.008   -17315.403    1274.3833   -18589.786    260.93994    240.72589 
   94100    94.916248   -1327.2635    74625.877   -17318.047    1283.3583   -18601.405    260.74623    242.42123 
   94150    93.511284   -1299.8675    74626.474    -17323.88    1264.3618   -18588.241      260.576    238.83287 
   94200    97.835434   -1151.3938    74594.428   -17305.789    1322.8284   -18628.618    260.99453    249.87699 
   94250    94.513215   -1186.2282    74599.417    -17301.13    1277.9089   -18579.039      261.358    241.39186 
   94300    94.427492   -1142.7377    74612.345   -17284.704    1276.7498   -18561.454    261.29277    241.17292 
   94350    93.642438   -994.66834     74551.05   -17311.869    1266.1351   -18578.004    261.46264    239.16785 
   94400    93.489062   -875.47575    74537.747   -17295.874    1264.0613   -18559.935    261.56198    238.77612 
   94450    98.115716   -1396.2262    74560.142   -17301.127    1326.6181   -18627.745    260.74773    250.59284 
   94500    89.147565   -1118.3109    74491.784   -17310.884    1205.3602   -18516.245     260.6719     227.6877 
   94550    95.688328   -958.70941    74405.796   -17353.591    1293.7975   -18647.389    260.35429    244.39316 
   94600    91.766516   -788.67084    74437.729   -17398.559    1240.7709    -18639.33    260.25758    234.37664 
   94650    91.272694   -936.61531    74457.855   -17387.568    1234.0939   -18621.662    260.70354     233.1154 
   94700    96.481029   -1219.7467    74430.873   -17385.599    1304.5156   -18690.114    260.28835    246.41776 
   94750    90.168417   -1008.1151    74412.799   -17396.571    1219.1631   -18615.734    260.40749    230.29501 
   94800    93.054412    -842.8524    74424.792   -17408.976    1258.1845   -18667.161    260.47135      237.666 
   94850    95.313425   -999.95263    74445.472   -17363.856    1288.7285   -18652.584    260.44988    243.43564 
   94900    94.619211   -986.14592    74518.278   -17366.689     1279.342   -18646.031    260.42289    241.66258 
   94950    94.130165   -1202.1582    74538.729   -17360.686    1272.7297   -18633.415    260.42625    240.41353 
   95000    96.665421   -1256.2382    74548.547    -17348.36    1307.0087   -18655.369    260.34815    246.88871 
   95050    93.177697   -1086.6632    74550.563   -17347.049    1259.8514   -18606.901    260.60653    237.98087 
   95100    93.336719   -836.40344    74583.361   -17361.403    1262.0015   -18623.404    260.51391    238.38703 
   95150    89.660846    -559.8553    74653.788   -17375.677    1212.3002   -18587.977    260.52197    228.99865 
   95200    90.789067   -661.48697     74749.16   -17356.151    1227.5548   -18583.706    260.52463    231.88019 
   95250    95.063991   -679.41625    74864.788   -17329.919    1285.3559   -18615.275    260.66917    242.79857 
   95300    96.555257   -856.64899    74857.293   -17319.166    1305.5192   -18624.685     261.1524    246.60734 
   95350    92.771398   -835.30218    74896.574   -17346.189    1254.3578   -18600.547    261.13961    236.94316 
   95400    92.752125   -1103.5545    74938.724   -17371.089    1254.0973   -18625.186    260.97518    236.89394 
   95450    91.719597   -1369.2072    74876.166   -17411.614    1240.1365    -18651.75    261.32715    234.25681 
   95500    90.450338   -835.53545    74837.383   -17385.785    1222.9749    -18608.76    260.67374    231.01505 
   95550    93.233369   -1032.8945    74898.392   -17343.627    1260.6041   -18604.231    261.05462    238.12306 
   95600    95.253028   -683.31516    74912.173    -17367.88    1287.9118   -18655.792    260.03241    243.28138 
   95650    91.072303   -790.39382     74902.62   -17378.831    1231.3845   -18610.216    260.58704    232.60359 
   95700    95.848523   -966.25222    74919.006   -17378.669    1295.9635   -18674.633    260.94397    244.80231 
   95750    94.010353   -519.79586    74898.174   -17395.744    1271.1097   -18666.854    260.87315    240.10752 
   95800    91.256945   -1172.8982    74880.233   -17394.799     1233.881    -18628.68    261.55048    233.07517 
   95850    94.596503   -977.92345    74870.103   -17358.669     1279.035   -18637.704    261.81223    241.60458 
   95900    93.096377   -1257.1145    74851.373   -17366.128    1258.7519    -18624.88     262.0296    237.77318 
   95950    88.613355   -1033.2259    74826.117   -17404.284    1198.1371   -18602.421    262.26727     226.3233 
   96000    91.213032   -1029.0768    74818.119    -17416.58    1233.2873   -18649.867    262.54374    232.96302 
   96050    92.655062   -910.13021    74768.152   -17414.532    1252.7849   -18667.316    263.29432    236.64604 
   96100    91.152031   -1204.7057    74756.014   -17392.555    1232.4624   -18625.018    263.42665    232.80721 
   96150     92.58959   -1022.2094    74713.101    -17362.83    1251.8996    -18614.73    263.35376    236.47882 
   96200    93.771886   -771.21261    74711.673   -17344.035    1267.8854    -18611.92    263.52274    239.49847 
   96250     92.05597   -628.67379    74700.691   -17335.074    1244.6846   -18579.759      263.499    235.11592 
   96300    93.689987   -1307.1071    74766.338   -17373.666     1266.778   -18640.444    263.35841    239.28929 
   96350    89.951949   -1110.2298     74762.19   -17392.153    1216.2362   -18608.389    262.51791    229.74214 
   96400    91.723035   -939.99101    74716.961   -17402.529     1240.183   -18642.712    262.88604    234.26559 
   96450    91.912024   -1035.7188    74725.486   -17399.667    1242.7383   -18642.405    262.42013    234.74828 
   96500    91.284099   -739.79638    74694.828   -17372.693    1234.2481   -18606.941    262.19788    233.14452 
   96550    91.427629   -789.89005    74700.363   -17373.858    1236.1888   -18610.047    262.08877    233.51111 
   96600    92.720841   -708.50962    74742.459    -17393.37    1253.6743   -18647.045    262.40166    236.81404 
   96650    93.112821   -1012.6153    74798.049    -17397.34    1258.9742   -18656.314    262.48784    237.81518 
   96700    94.550491   -840.00315    74854.937   -17386.974    1278.4129   -18665.387    262.12822    241.48706 
   96750    92.906978   -1204.0496    74838.943   -17381.489     1256.191    -18637.68    261.83874    237.28944 
   96800    93.672233     -1117.76    74809.436   -17369.884     1266.538   -18636.422    262.08813    239.24395 
   96850    92.193165   -1039.0329    74794.228   -17396.728    1246.5396   -18643.267    262.05558    235.46633 
   96900    93.656997   -1265.4566     74758.26   -17362.293     1266.332   -18628.625     262.4855    239.20503 
   96950    94.479074   -904.22496    74684.814   -17355.173    1277.4472   -18632.621    262.64249    241.30466 
   97000    95.271091   -1109.3841    74669.786   -17346.133    1288.1561   -18634.289    263.37663    243.32752 
   97050    91.590727     -1079.19    74677.403   -17355.776     1238.394    -18594.17    263.18012    233.92767 
   97100    96.527206   -921.36683    74676.836   -17371.023    1305.1399   -18676.163    263.68647     246.5357 
   97150    93.904785    -644.9986     74724.62   -17357.428    1269.6823    -18627.11    263.42471     239.8379 
   97200    92.512237   -1050.6594    74763.925   -17386.649    1250.8537   -18637.503    263.37045    236.28125 
   97250    94.723264    -846.8426    74782.401   -17338.416    1280.7489   -18619.165     263.8428    241.92834 
   97300    93.175573   -984.93502    74799.151    -17340.65    1259.8227   -18600.472     263.9004    237.97545 
   97350    93.931744   -1322.1581    74761.139   -17348.132    1270.0468   -18618.179    263.69274    239.90675 
   97400    92.475715   -1336.6991    74711.453   -17322.597    1250.3599   -18572.957    263.84913    236.18798 
   97450    92.165786   -1000.4873    74673.013   -17307.138    1246.1694   -18553.307    263.97262     235.3964 
   97500    91.621507   -1392.7915    74658.703   -17342.314    1238.8102   -18581.125    264.56539    234.00628 
   97550    94.500683   -1005.8502    74591.415   -17315.519    1277.7394   -18593.258     264.9585    241.35985 
   97600     92.63764   -1176.6855    74498.404   -17305.779    1252.5493   -18558.328    264.74268    236.60154 
   97650    92.263659   -854.93017    74448.601   -17309.456    1247.4927   -18556.949    264.99322    235.64637 
   97700    93.445962   -998.40519    74469.919   -17284.038    1263.4786   -18547.517    264.67733    238.66604 
   97750    93.466429   -880.71206    74502.014   -17288.522    1263.7553   -18552.277    264.59581    238.71831 
   97800    97.978287   -949.69891    74465.608   -17277.783    1324.7599   -18602.543    264.67412    250.24184 
   97850    95.329434   -1325.3837    74441.055   -17275.197    1288.9449   -18564.142    265.12725    243.47653 
   97900    96.994673   -1221.4546    74359.145   -17277.646    1311.4605   -18589.106    265.03265    247.72964 
   97950    93.078936   -1132.8978    74299.016   -17335.804     1258.516   -18594.321    265.31828    237.72863 
   98000    95.375235   -885.19676    74270.144   -17307.229    1289.5642   -18596.793    265.10903    243.59351 
   98050     93.88845    -921.2289    74298.009   -17328.131    1269.4615   -18597.593      265.549    239.79618 
   98100     94.15462   -913.84282    74256.632   -17280.253    1273.0603   -18553.314    265.65305    240.47599 
   98150    93.018573   -1194.2415    74218.528   -17331.465    1257.6999   -18589.165    265.49519    237.57446 
   98200    93.408336    -1256.197     74174.18   -17338.492    1262.9699   -18601.462    265.59586    238.56994 
   98250    94.077852   -1047.2795    74144.213   -17343.239    1272.0223   -18615.261    265.51842    240.27992 
   98300    97.187058   -999.34358    74072.414   -17309.152    1314.0618   -18623.214    266.00822      248.221 
   98350    94.608472   -1039.4316    74034.106    -17304.81    1279.1968   -18584.006    266.21589    241.63515 
   98400    92.913136   -1057.9945    73970.672   -17306.234    1256.2743   -18562.508    266.58934    237.30517 
   98450    94.361743   -1163.3638    73927.455   -17337.224    1275.8608   -18613.085    266.89209    241.00499 
   98500    96.102843   -1050.0546    73993.227   -17324.338    1299.4022    -18623.74    267.31476    245.45186 
   98550    95.120856   -896.83319    74049.495    -17323.81    1286.1248   -18609.934    267.21078    242.94381 
   98600    95.240514   -1049.0918    74066.509   -17332.273    1287.7426   -18620.016    267.63366    243.24942 
   98650    91.495541   -729.34478    74090.432   -17370.342     1237.107   -18607.449    267.92469    233.68456 
   98700    94.183871   -803.39214    74170.432   -17353.498    1273.4558   -18626.954    267.83659     240.5507 
   98750    96.618126    -805.6936    74204.019   -17335.813    1306.3693   -18642.183     267.9195    246.76792 
   98800    93.346522   -956.01092     74196.66    -17366.25    1262.1341   -18628.384    267.22003    238.41206 
   98850    92.718793     -952.248    74161.945   -17363.806    1253.6466   -18617.453    267.36802    236.80881 
   98900    95.263939   -952.71942    74153.061   -17353.105    1288.0594   -18641.164    267.42176    243.30925 
   98950    91.922866   -974.67138    74186.774   -17327.483    1242.8849   -18570.368    267.01799    234.77597 
   99000    93.174409   -976.66824    74214.426   -17326.016    1259.8069   -18585.823    267.37659    237.97248 
   99050    93.080794   -1049.9979    74188.887   -17316.228    1258.5412    -18574.77    267.71504    237.73338 
   99100    94.214573   -828.49247    74188.648   -17312.434    1273.8709   -18586.305    267.59072    240.62911 
   99150    93.565767   -1277.0585     74175.68   -17324.048    1265.0985   -18589.147    267.18483    238.97203 
   99200    92.644495   -1069.3676    74101.276   -17307.005     1252.642   -18559.647     267.4328    236.61905 
   99250    95.630821   -737.49845    74139.979   -17299.102      1293.02   -18592.122    267.43948    244.24629 
   99300    93.693436   -1049.6208    74173.748   -17291.953    1266.8247   -18558.778    267.75868     239.2981 
   99350    95.204192   -900.12559    74199.745   -17269.648    1287.2515     -18556.9    267.99184    243.15665 
   99400    96.412648   -1141.3207    74162.405   -17275.641     1303.591   -18579.232    268.34539    246.24311 
   99450    94.428979   -887.85863    74170.585   -17287.654    1276.7699   -18564.424    268.25468    241.17672 
   99500    95.281037   -780.86602    74164.594   -17317.825    1288.2906   -18606.115    268.66567    243.35292 
   99550    91.678925   -955.62992     74176.38   -17337.232    1239.5866   -18576.819    269.05449    234.15293 
   99600    92.393664   -1027.3093    74220.035   -17355.606    1249.2505   -18604.857     269.2368    235.97841 
   99650    89.947841   -1204.3489    74240.536   -17347.207    1216.1807   -18563.388    269.18944    229.73165 
   99700    93.107509   -742.02372    74285.015   -17295.119    1258.9024   -18554.021    268.93924    237.80161 
   99750    93.765099   -1047.7918     74281.73   -17305.423    1267.7936   -18573.217    268.95327    239.48113 
   99800    91.584501   -893.86574    74243.692   -17323.627    1238.3099   -18561.937    269.74238    233.91177 
   99850    96.489009   -800.66347    74259.808   -17289.254    1304.6235   -18593.877    270.46877    246.43814 
   99900    95.430327   -912.36981    74244.643   -17267.425    1290.3091   -18557.734    270.47021    243.73421 
   99950    95.270691   -588.56974    74287.836   -17248.163    1288.1507   -18536.313    271.04485    243.32649 
  100000    98.452373   -975.78389    74362.552    -17201.58    1331.1701    -18532.75    270.92227    251.45268 
Loop time of 67.3241 on 64 procs for 100000 steps with 4537 atoms

Performance: 641.672 ns/day, 0.037 hours/ns, 1485.353 timesteps/s
100.0% CPU use with 64 MPI tasks x no OpenMP threads

MPI task timing breakdown:
Section |  min time  |  avg time  |  max time  |%varavg| %total
---------------------------------------------------------------
Pair    | 8.9352     | 30.006     | 44.275     | 247.7 | 44.57
Neigh   | 0.4931     | 1.4232     | 3.9423     | 113.2 |  2.11
Comm    | 14.986     | 27.944     | 48.914     | 254.1 | 41.51
Output  | 0.12322    | 0.12588    | 0.13865    |   0.5 |  0.19
Modify  | 4.7088     | 7.0189     | 9.4162     |  56.3 | 10.43
Other   |            | 0.8056     |            |       |  1.20

Nlocal:    70.8906 ave 183 max 30 min
Histogram: 47 1 0 0 0 0 0 0 4 12
Nghost:    766.5 ave 1012 max 404 min
Histogram: 16 0 0 0 0 0 16 16 0 16
Neighs:    0 ave 0 max 0 min
Histogram: 64 0 0 0 0 0 0 0 0 0
FullNghs:  7237.09 ave 24164 max 1215 min
Histogram: 48 0 0 0 0 0 0 0 2 14

Total # of neighbors = 463174
Ave neighs/atom = 102.088
Neighbor list builds = 5635
Dangerous builds = 0

write_data		${DIR}/data.eq-${NAME}-${TEMP}
write_data		run_2/data.eq-${NAME}-${TEMP}
write_data		run_2/data.eq-het_freeze_2-${TEMP}
write_data		run_2/data.eq-het_freeze_2-240
undump          1

reset_timestep  0

unfix           2
unfix           3
unfix           4


################################################
#######         Run Simulation         #########
################################################

log				${DIR}/log.run_${NAME}
log				run_2/log.run_${NAME}
log				run_2/log.run_het_freeze_2
