LAMMPS data file via write_data, version 16 Mar 2018, timestep = 100000

4990 atoms
2 atom types

0.0000000000000000e+00 4.9219999999999999e+01 xlo xhi
0.0000000000000000e+00 4.9019635930410494e+01 ylo yhi
2.1359743170887597e+00 3.7864025682913386e+01 zlo zhi

Masses

1 18.015
2 12.01

Atoms # atomic

3017 1 5.8535726879554293e+00 5.7159344708617421e-01 4.8141043973118318e+00 0 2 1
1006 1 8.8388840491978300e+00 1.3801600846371098e-01 5.0292280247102799e+00 1 1 1
3411 1 7.1828928916217647e+00 7.7844414220091140e+00 9.3488883016688433e+00 0 0 0
151 1 3.3543125954732407e+00 9.6210629021309995e+00 5.0540483307679711e+00 1 0 1
2054 1 1.0676525795409390e+01 9.7418500165419477e+00 9.6781522778146538e+00 1 1 2
34 1 1.1939988231869194e+01 7.3135981602268121e+00 8.3409368887058797e+00 0 0 1
1037 1 4.3249302800071945e+00 3.0722573586844084e+00 5.4372323494383830e+00 1 0 0
1793 1 5.9562655453578062e+00 5.6303213409335910e+00 4.7231721564465534e+00 -1 0 0
420 1 8.0212548511002915e+00 5.0287957987101022e+00 3.0280926770141057e+00 2 0 1
907 1 6.5298090593056184e+00 8.5689698347876178e+00 4.2458514327300492e+00 -1 -2 0
4590 1 1.4158629638383733e+00 3.2671171168421549e+00 4.6786902369008025e+00 1 1 0
518 1 1.0287711897501586e+01 5.7635401472935621e+00 4.4721906831627498e+00 1 0 1
4528 1 1.1525578099260485e+01 1.1996866132337682e+00 5.8551091310230259e+00 0 1 1
2580 1 4.4678486299127362e+00 8.7692433245723951e+00 9.8623923656006234e+00 0 0 0
3427 1 1.4605583092179539e+00 1.5080045211318680e+00 2.6543672992117364e+00 1 0 1
2199 1 8.3764640791987155e+00 2.4055546334018887e+00 3.2455303175093171e+00 0 1 1
480 1 9.4790698286766215e+00 1.1757990430689459e+01 6.0515131008018734e+00 0 0 0
2621 1 9.7505113123609743e-01 7.2159837230617088e+00 8.4998613520043271e+00 1 -1 0
2244 1 9.3300226767918097e+00 8.4097939880490902e+00 5.5762804475106158e+00 0 -1 1
56 1 8.3063378338019405e+00 1.0296636834696010e+01 8.3324585606719470e+00 -1 1 -1
4524 1 4.5461617705968305e-01 2.8911179596257433e+00 7.1315828479345562e+00 1 1 1
913 1 1.3034223012373487e+00 9.5398696617904317e+00 7.2004864430638227e+00 0 1 0
77 1 4.3294098124121181e+00 1.0806594383428459e+01 2.2556315043460970e+00 0 0 1
114 1 2.5313164377821762e+00 2.4212947883685576e+00 8.9627675458772806e+00 0 1 0
1810 1 6.1063605193491854e+00 9.0224045174064782e-01 7.7206001918437304e+00 -1 0 1
2939 1 4.6751314826040566e+00 3.7690798314925611e+00 8.1941347613068167e+00 0 1 0
539 1 6.4034016226319714e+00 3.5600284889592571e+00 1.0560044577645629e+01 0 0 1
4312 1 1.1236596908051945e+01 4.3409453496069492e+00 8.8209918248746444e+00 0 0 1
3707 1 3.3028123718878604e+00 5.6613625916528845e+00 3.3978588046141875e+00 2 0 1
4613 1 3.5396655046124166e+00 6.0903111493411997e+00 8.6292529880034579e+00 1 1 1
4622 1 7.4807155599271127e+00 6.3319772263648773e+00 6.9430094289586153e+00 -1 0 2
102 1 5.3648029935992341e+00 9.8702498678631976e+00 6.8398702425011786e+00 0 0 0
2050 1 3.0181051208863369e-01 5.5414052807295207e+00 3.0658340998005844e+00 1 0 0
1798 1 9.7313490156103999e+00 1.0620040851758795e+01 3.1902307291761351e+00 1 0 1
1366 1 9.4090828655797125e+00 4.2083426302669178e+00 6.7636243735105941e+00 1 0 1
1245 1 9.1066153058160868e+00 3.2462697390769071e+00 1.1064223100963499e+01 1 0 1
390 1 1.1933983180603466e+01 4.4778939668105329e+00 2.4222431634726731e+00 0 0 1
362 1 8.4207078752526671e-02 7.2745634505390848e+00 5.2672226481011304e+00 1 0 1
140 1 3.5690303444980160e+00 2.9511816180159274e+00 1.4435315339032019e+01 1 0 1
95 1 2.0384911330988804e+00 3.0913660887823191e+00 1.1802471637431369e+01 0 0 1
3456 1 1.3929343180039697e+00 5.6959562074844250e-01 1.3861558999468736e+01 1 0 1
3496 1 8.2588423435277463e+00 4.2006197714505609e+00 1.3785943159825653e+01 0 1 0
1801 1 6.4594343838580990e+00 1.9393337024072859e+00 1.4104330888321380e+01 -1 1 1
2994 1 2.9582828735868802e+00 5.5092700210985424e+00 1.1349393908375436e+01 0 1 1
930 1 2.4721548667487276e+00 1.0621030191087456e+01 1.1640334545037897e+01 2 1 0
2878 1 1.1069881490264271e+01 1.2080929253123043e+00 1.3958329786476311e+01 1 1 1
1017 1 1.0233990871016555e+01 7.9830431516079714e-01 1.1154683577229035e+01 1 1 1
2958 1 3.7821391506731148e+00 5.6374526456844034e+00 1.4221196798488968e+01 1 0 1
308 2 1.2304999999999998e+01 1.1366872099805333e+01 1.7006699439341169e+01 0 0 0
3536 1 6.4302781088265144e+00 6.2480614735603446e+00 1.3688902882719571e+01 1 1 1
2569 1 7.2990441942850675e+00 8.6801534902467292e+00 1.4646298723573041e+01 -1 0 0
359 1 5.1757793944790365e+00 1.1081888223425302e+01 1.1384964209800424e+01 0 1 1
285 2 9.8440000000000012e+00 8.5251540748539956e+00 1.7006699439341169e+01 0 0 0
1312 1 1.1019962589557661e+01 4.1282234423932467e+00 1.4443970228199884e+01 0 -1 1
163 1 1.1660911601213630e+01 7.2517487382068122e+00 1.4297228383279945e+01 1 0 0
283 2 8.6134999999999984e+00 1.0656442593567498e+01 1.7006699439341169e+01 0 0 0
1033 1 2.3283650948346439e+00 1.0668808584324383e+01 1.4324607581642278e+01 0 1 0
3 1 1.7491557147171721e+00 7.4672046800608971e+00 1.4287737956811423e+01 0 -1 0
2539 1 8.3876039216972380e+00 1.9237670286272618e-01 1.4167532846030346e+01 1 1 1
55 1 5.1158441315308787e+00 1.0657640216557327e+01 1.4441043035310226e+01 0 1 0
956 1 1.1281861604283016e+01 1.1782199203409187e+01 1.4377219614964703e+01 -1 0 0
65 1 9.9494903923438933e+00 9.2403190467856877e+00 1.4074114300319760e+01 0 0 1
26 1 4.6216193922785065e+00 1.7892413580764623e+00 1.1746905500907728e+01 -1 1 1
193 2 0.0000000000000000e+00 2.8417180249513345e+00 1.7006699439341169e+01 0 0 0
194 2 0.0000000000000000e+00 0.0000000000000000e+00 1.7006699439341169e+01 0 0 0
195 2 1.2305000000000001e+00 7.1042950623783474e-01 1.7006699439341169e+01 0 0 0
199 2 1.2305000000000001e+00 2.1312885187134998e+00 1.7006699439341169e+01 0 0 0
200 2 2.4610000000000003e+00 2.8417180249513345e+00 1.7006699439341169e+01 0 0 0
201 2 2.4610000000000003e+00 0.0000000000000000e+00 1.7006699439341169e+01 0 0 0
202 2 3.6915000000000004e+00 7.1042950623783474e-01 1.7006699439341169e+01 0 0 0
210 2 3.6914999999999996e+00 2.1312885187134998e+00 1.7006699439341169e+01 0 0 0
211 2 4.9220000000000006e+00 2.8417180249513332e+00 1.7006699439341169e+01 0 0 0
212 2 4.9220000000000006e+00 0.0000000000000000e+00 1.7006699439341169e+01 0 0 0
213 2 6.1524999999999999e+00 7.1042950623783407e-01 1.7006699439341169e+01 0 0 0
225 2 6.1524999999999999e+00 2.1312885187134989e+00 1.7006699439341169e+01 0 0 0
226 2 7.3829999999999991e+00 2.8417180249513345e+00 1.7006699439341169e+01 0 0 0
227 2 7.3829999999999991e+00 0.0000000000000000e+00 1.7006699439341169e+01 0 0 0
228 2 8.6134999999999984e+00 7.1042950623783407e-01 1.7006699439341169e+01 0 0 0
244 2 8.6134999999999984e+00 2.1312885187135002e+00 1.7006699439341169e+01 0 0 0
245 2 9.8440000000000012e+00 2.8417180249513332e+00 1.7006699439341169e+01 0 0 0
246 2 9.8440000000000012e+00 0.0000000000000000e+00 1.7006699439341169e+01 0 0 0
247 2 1.1074500000000002e+01 7.1042950623783330e-01 1.7006699439341169e+01 0 0 0
267 2 1.1074500000000002e+01 2.1312885187135002e+00 1.7006699439341169e+01 0 0 0
197 2 0.0000000000000000e+00 4.2625770374269996e+00 1.7006699439341169e+01 0 0 0
198 2 1.2305000000000001e+00 4.9730065436648339e+00 1.7006699439341169e+01 0 0 0
206 2 1.2305000000000001e+00 6.3938655561404980e+00 1.7006699439341169e+01 0 0 0
208 2 2.4610000000000003e+00 4.2625770374269996e+00 1.7006699439341169e+01 0 0 0
209 2 3.6914999999999996e+00 4.9730065436648339e+00 1.7006699439341169e+01 0 0 0
221 2 3.6914999999999996e+00 6.3938655561404980e+00 1.7006699439341169e+01 0 0 0
196 2 0.0000000000000000e+00 7.1042950623783341e+00 1.7006699439341169e+01 0 0 0
207 2 2.4610000000000003e+00 7.1042950623783341e+00 1.7006699439341169e+01 0 0 0
223 2 4.9220000000000006e+00 4.2625770374269978e+00 1.7006699439341169e+01 0 0 0
224 2 6.1524999999999999e+00 4.9730065436648339e+00 1.7006699439341169e+01 0 0 0
240 2 6.1524999999999999e+00 6.3938655561404980e+00 1.7006699439341169e+01 0 0 0
242 2 7.3829999999999991e+00 4.2625770374269996e+00 1.7006699439341169e+01 0 0 0
222 2 4.9220000000000006e+00 7.1042950623783341e+00 1.7006699439341169e+01 0 0 0
241 2 7.3830000000000009e+00 7.1042950623783341e+00 1.7006699439341169e+01 0 0 0
243 2 8.6135000000000002e+00 4.9730065436648339e+00 1.7006699439341169e+01 0 0 0
263 2 8.6135000000000002e+00 6.3938655561404980e+00 1.7006699439341169e+01 0 0 0
265 2 9.8440000000000012e+00 4.2625770374270004e+00 1.7006699439341169e+01 0 0 0
266 2 1.1074500000000002e+01 4.9730065436648339e+00 1.7006699439341169e+01 0 0 0
287 2 1.1074500000000002e+01 6.3938655561404980e+00 1.7006699439341169e+01 0 0 0
264 2 9.8440000000000012e+00 7.1042950623783341e+00 1.7006699439341169e+01 0 0 0
204 2 0.0000000000000000e+00 8.5251540748539991e+00 1.7006699439341169e+01 0 0 0
205 2 1.2305000000000001e+00 9.2355835810918343e+00 1.7006699439341169e+01 0 0 0
219 2 2.4610000000000003e+00 8.5251540748539991e+00 1.7006699439341169e+01 0 0 0
220 2 3.6915000000000004e+00 9.2355835810918343e+00 1.7006699439341169e+01 0 0 0
203 2 0.0000000000000000e+00 1.1366872099805333e+01 1.7006699439341169e+01 0 0 0
217 2 1.2305000000000001e+00 1.0656442593567498e+01 1.7006699439341169e+01 0 0 0
218 2 2.4610000000000003e+00 1.1366872099805333e+01 1.7006699439341169e+01 0 0 0
236 2 3.6914999999999996e+00 1.0656442593567499e+01 1.7006699439341169e+01 0 0 0
237 2 4.9220000000000006e+00 1.1366872099805333e+01 1.7006699439341169e+01 0 0 0
261 2 7.3830000000000009e+00 8.5251540748539991e+00 1.7006699439341169e+01 0 0 0
259 2 6.1524999999999999e+00 1.0656442593567499e+01 1.7006699439341169e+01 0 0 0
239 2 6.1524999999999999e+00 9.2355835810918343e+00 1.7006699439341169e+01 0 0 0
238 2 4.9220000000000006e+00 8.5251540748539991e+00 1.7006699439341169e+01 0 0 0
260 2 7.3829999999999991e+00 1.1366872099805333e+01 1.7006699439341169e+01 0 0 0
307 2 1.1074500000000002e+01 1.0656442593567498e+01 1.7006699439341169e+01 0 0 0
262 2 8.6134999999999984e+00 9.2355835810918343e+00 1.7006699439341169e+01 0 0 0
284 2 9.8440000000000012e+00 1.1366872099805333e+01 1.7006699439341169e+01 0 0 0
286 2 1.1074500000000002e+01 9.2355835810918343e+00 1.7006699439341169e+01 0 0 0
3738 1 1.3796492688400337e+00 8.0249949462574648e+00 1.1258648961358599e+01 2 1 0
3051 1 9.2354110986301272e+00 8.1512210378242926e+00 1.1541754751274969e+01 -1 0 1
4228 1 1.1036633029015453e+01 5.8521585122156710e+00 1.1677623999454651e+01 0 0 0
1729 1 5.8656073759795984e+00 6.0532533683352909e+00 1.1074079831122217e+01 0 1 1
549 2 0.0000000000000000e+00 1.4208590124756650e+00 2.0027924260421965e+01 0 0 0
550 2 0.0000000000000000e+00 0.0000000000000000e+00 2.0027924260421965e+01 0 0 0
554 2 1.2305000000000001e+00 2.1312885187134998e+00 2.0027924260421965e+01 0 0 0
555 2 2.4610000000000003e+00 1.4208590124756650e+00 2.0027924260421965e+01 0 0 0
556 2 2.4610000000000003e+00 0.0000000000000000e+00 2.0027924260421965e+01 0 0 0
564 2 3.6914999999999996e+00 2.1312885187134998e+00 2.0027924260421965e+01 0 0 0
710 2 0.0000000000000000e+00 2.8417180249513345e+00 2.3049149081504392e+01 0 0 0
711 2 0.0000000000000000e+00 0.0000000000000000e+00 2.3049149081504392e+01 0 0 0
712 2 1.2305000000000001e+00 7.1042950623783474e-01 2.3049149081504392e+01 0 0 0
716 2 1.2305000000000001e+00 2.1312885187134998e+00 2.3049149081504392e+01 0 0 0
717 2 2.4610000000000003e+00 2.8417180249513345e+00 2.3049149081504392e+01 0 0 0
718 2 2.4610000000000003e+00 0.0000000000000000e+00 2.3049149081504392e+01 0 0 0
719 2 3.6915000000000004e+00 7.1042950623783474e-01 2.3049149081504392e+01 0 0 0
727 2 3.6914999999999996e+00 2.1312885187134998e+00 2.3049149081504392e+01 0 0 0
553 2 1.2305000000000001e+00 3.5521475311891644e+00 2.0027924260421965e+01 0 0 0
563 2 3.6914999999999996e+00 3.5521475311891644e+00 2.0027924260421965e+01 0 0 0
565 2 4.9220000000000006e+00 1.4208590124756650e+00 2.0027924260421965e+01 0 0 0
566 2 4.9220000000000006e+00 0.0000000000000000e+00 2.0027924260421965e+01 0 0 0
578 2 6.1524999999999999e+00 2.1312885187134989e+00 2.0027924260421965e+01 0 0 0
579 2 7.3829999999999991e+00 1.4208590124756659e+00 2.0027924260421965e+01 0 0 0
580 2 7.3829999999999991e+00 0.0000000000000000e+00 2.0027924260421965e+01 0 0 0
728 2 4.9220000000000006e+00 2.8417180249513332e+00 2.3049149081504392e+01 0 0 0
729 2 4.9220000000000006e+00 0.0000000000000000e+00 2.3049149081504392e+01 0 0 0
730 2 6.1524999999999999e+00 7.1042950623783407e-01 2.3049149081504392e+01 0 0 0
742 2 6.1524999999999999e+00 2.1312885187134989e+00 2.3049149081504392e+01 0 0 0
743 2 7.3829999999999991e+00 2.8417180249513345e+00 2.3049149081504392e+01 0 0 0
744 2 7.3829999999999991e+00 0.0000000000000000e+00 2.3049149081504392e+01 0 0 0
577 2 6.1524999999999999e+00 3.5521475311891644e+00 2.0027924260421965e+01 0 0 0
596 2 8.6134999999999984e+00 2.1312885187135002e+00 2.0027924260421965e+01 0 0 0
597 2 9.8440000000000012e+00 1.4208590124756659e+00 2.0027924260421965e+01 0 0 0
598 2 9.8440000000000012e+00 0.0000000000000000e+00 2.0027924260421965e+01 0 0 0
618 2 1.1074500000000002e+01 2.1312885187135002e+00 2.0027924260421965e+01 0 0 0
745 2 8.6134999999999984e+00 7.1042950623783407e-01 2.3049149081504392e+01 0 0 0
761 2 8.6134999999999984e+00 2.1312885187135002e+00 2.3049149081504392e+01 0 0 0
762 2 9.8440000000000012e+00 2.8417180249513332e+00 2.3049149081504392e+01 0 0 0
763 2 9.8440000000000012e+00 0.0000000000000000e+00 2.3049149081504392e+01 0 0 0
764 2 1.1074500000000002e+01 7.1042950623783330e-01 2.3049149081504392e+01 0 0 0
784 2 1.1074500000000002e+01 2.1312885187135002e+00 2.3049149081504392e+01 0 0 0
595 2 8.6134999999999984e+00 3.5521475311891657e+00 2.0027924260421965e+01 0 0 0
617 2 1.1074500000000002e+01 3.5521475311891644e+00 2.0027924260421965e+01 0 0 0
551 2 0.0000000000000000e+00 5.6834360499026637e+00 2.0027924260421965e+01 0 0 0
552 2 0.0000000000000000e+00 4.2625770374269996e+00 2.0027924260421965e+01 0 0 0
560 2 1.2305000000000001e+00 6.3938655561404980e+00 2.0027924260421965e+01 0 0 0
561 2 2.4610000000000003e+00 5.6834360499026637e+00 2.0027924260421965e+01 0 0 0
562 2 2.4610000000000003e+00 4.2625770374269996e+00 2.0027924260421965e+01 0 0 0
574 2 3.6914999999999996e+00 6.3938655561404980e+00 2.0027924260421965e+01 0 0 0
714 2 0.0000000000000000e+00 4.2625770374269996e+00 2.3049149081504392e+01 0 0 0
715 2 1.2305000000000001e+00 4.9730065436648339e+00 2.3049149081504392e+01 0 0 0
723 2 1.2305000000000001e+00 6.3938655561404980e+00 2.3049149081504392e+01 0 0 0
725 2 2.4610000000000003e+00 4.2625770374269996e+00 2.3049149081504392e+01 0 0 0
726 2 3.6914999999999996e+00 4.9730065436648339e+00 2.3049149081504392e+01 0 0 0
738 2 3.6914999999999996e+00 6.3938655561404980e+00 2.3049149081504392e+01 0 0 0
559 2 1.2305000000000001e+00 7.8147245686161639e+00 2.0027924260421965e+01 0 0 0
573 2 3.6914999999999996e+00 7.8147245686161639e+00 2.0027924260421965e+01 0 0 0
713 2 0.0000000000000000e+00 7.1042950623783341e+00 2.3049149081504392e+01 0 0 0
724 2 2.4610000000000003e+00 7.1042950623783341e+00 2.3049149081504392e+01 0 0 0
575 2 4.9220000000000006e+00 5.6834360499026637e+00 2.0027924260421965e+01 0 0 0
576 2 4.9220000000000006e+00 4.2625770374269978e+00 2.0027924260421965e+01 0 0 0
592 2 6.1524999999999999e+00 6.3938655561404980e+00 2.0027924260421965e+01 0 0 0
593 2 7.3829999999999991e+00 5.6834360499026637e+00 2.0027924260421965e+01 0 0 0
594 2 7.3829999999999991e+00 4.2625770374269996e+00 2.0027924260421965e+01 0 0 0
740 2 4.9220000000000006e+00 4.2625770374269978e+00 2.3049149081504392e+01 0 0 0
741 2 6.1524999999999999e+00 4.9730065436648339e+00 2.3049149081504392e+01 0 0 0
757 2 6.1524999999999999e+00 6.3938655561404980e+00 2.3049149081504392e+01 0 0 0
759 2 7.3829999999999991e+00 4.2625770374269996e+00 2.3049149081504392e+01 0 0 0
591 2 6.1524999999999999e+00 7.8147245686161639e+00 2.0027924260421965e+01 0 0 0
739 2 4.9220000000000006e+00 7.1042950623783341e+00 2.3049149081504392e+01 0 0 0
758 2 7.3830000000000009e+00 7.1042950623783341e+00 2.3049149081504392e+01 0 0 0
614 2 8.6135000000000002e+00 6.3938655561404980e+00 2.0027924260421965e+01 0 0 0
615 2 9.8440000000000012e+00 5.6834360499026637e+00 2.0027924260421965e+01 0 0 0
616 2 9.8440000000000012e+00 4.2625770374270004e+00 2.0027924260421965e+01 0 0 0
637 2 1.1074500000000002e+01 6.3938655561404980e+00 2.0027924260421965e+01 0 0 0
760 2 8.6135000000000002e+00 4.9730065436648339e+00 2.3049149081504392e+01 0 0 0
780 2 8.6135000000000002e+00 6.3938655561404980e+00 2.3049149081504392e+01 0 0 0
782 2 9.8440000000000012e+00 4.2625770374270004e+00 2.3049149081504392e+01 0 0 0
783 2 1.1074500000000002e+01 4.9730065436648339e+00 2.3049149081504392e+01 0 0 0
804 2 1.1074500000000002e+01 6.3938655561404980e+00 2.3049149081504392e+01 0 0 0
613 2 8.6135000000000002e+00 7.8147245686161639e+00 2.0027924260421965e+01 0 0 0
636 2 1.1074500000000002e+01 7.8147245686161639e+00 2.0027924260421965e+01 0 0 0
781 2 9.8440000000000012e+00 7.1042950623783341e+00 2.3049149081504392e+01 0 0 0
557 2 0.0000000000000000e+00 9.9460130873296642e+00 2.0027924260421965e+01 0 0 0
558 2 0.0000000000000000e+00 8.5251540748539991e+00 2.0027924260421965e+01 0 0 0
571 2 2.4610000000000003e+00 9.9460130873296642e+00 2.0027924260421965e+01 0 0 0
572 2 2.4610000000000003e+00 8.5251540748539991e+00 2.0027924260421965e+01 0 0 0
721 2 0.0000000000000000e+00 8.5251540748539991e+00 2.3049149081504392e+01 0 0 0
722 2 1.2305000000000001e+00 9.2355835810918343e+00 2.3049149081504392e+01 0 0 0
736 2 2.4610000000000003e+00 8.5251540748539991e+00 2.3049149081504392e+01 0 0 0
737 2 3.6915000000000004e+00 9.2355835810918343e+00 2.3049149081504392e+01 0 0 0
569 2 1.2305000000000001e+00 1.2077301606043163e+01 2.0027924260421965e+01 0 0 0
570 2 1.2305000000000001e+00 1.0656442593567498e+01 2.0027924260421965e+01 0 0 0
587 2 3.6914999999999996e+00 1.2077301606043163e+01 2.0027924260421965e+01 0 0 0
588 2 3.6914999999999996e+00 1.0656442593567499e+01 2.0027924260421965e+01 0 0 0
720 2 0.0000000000000000e+00 1.1366872099805333e+01 2.3049149081504392e+01 0 0 0
734 2 1.2305000000000001e+00 1.0656442593567498e+01 2.3049149081504392e+01 0 0 0
735 2 2.4610000000000003e+00 1.1366872099805333e+01 2.3049149081504392e+01 0 0 0
753 2 3.6914999999999996e+00 1.0656442593567499e+01 2.3049149081504392e+01 0 0 0
589 2 4.9220000000000006e+00 9.9460130873296642e+00 2.0027924260421965e+01 0 0 0
590 2 4.9220000000000006e+00 8.5251540748539991e+00 2.0027924260421965e+01 0 0 0
611 2 7.3830000000000009e+00 9.9460130873296642e+00 2.0027924260421965e+01 0 0 0
612 2 7.3830000000000009e+00 8.5251540748539991e+00 2.0027924260421965e+01 0 0 0
755 2 4.9220000000000006e+00 8.5251540748539991e+00 2.3049149081504392e+01 0 0 0
756 2 6.1524999999999999e+00 9.2355835810918343e+00 2.3049149081504392e+01 0 0 0
778 2 7.3830000000000009e+00 8.5251540748539991e+00 2.3049149081504392e+01 0 0 0
609 2 6.1524999999999999e+00 1.2077301606043163e+01 2.0027924260421965e+01 0 0 0
610 2 6.1524999999999999e+00 1.0656442593567499e+01 2.0027924260421965e+01 0 0 0
754 2 4.9220000000000006e+00 1.1366872099805333e+01 2.3049149081504392e+01 0 0 0
776 2 6.1524999999999999e+00 1.0656442593567499e+01 2.3049149081504392e+01 0 0 0
777 2 7.3829999999999991e+00 1.1366872099805333e+01 2.3049149081504392e+01 0 0 0
634 2 9.8440000000000012e+00 9.9460130873296642e+00 2.0027924260421965e+01 0 0 0
635 2 9.8440000000000012e+00 8.5251540748539956e+00 2.0027924260421965e+01 0 0 0
779 2 8.6134999999999984e+00 9.2355835810918343e+00 2.3049149081504392e+01 0 0 0
802 2 9.8440000000000012e+00 8.5251540748539956e+00 2.3049149081504392e+01 0 0 0
803 2 1.1074500000000002e+01 9.2355835810918343e+00 2.3049149081504392e+01 0 0 0
632 2 8.6135000000000002e+00 1.2077301606043163e+01 2.0027924260421965e+01 0 0 0
633 2 8.6134999999999984e+00 1.0656442593567498e+01 2.0027924260421965e+01 0 0 0
655 2 1.1074500000000002e+01 1.2077301606043163e+01 2.0027924260421965e+01 0 0 0
656 2 1.1074500000000002e+01 1.0656442593567498e+01 2.0027924260421965e+01 0 0 0
800 2 8.6134999999999984e+00 1.0656442593567498e+01 2.3049149081504392e+01 0 0 0
801 2 9.8440000000000012e+00 1.1366872099805333e+01 2.3049149081504392e+01 0 0 0
824 2 1.1074500000000002e+01 1.0656442593567498e+01 2.3049149081504392e+01 0 0 0
825 2 1.2304999999999998e+01 1.1366872099805333e+01 2.3049149081504392e+01 0 0 0
4677 1 4.0240672391394627e-01 2.5066397109943173e-01 2.5294673470782755e+01 1 0 0
517 1 2.0710933465589250e+00 2.7091349610044371e+00 2.5792434657790196e+01 0 1 0
2674 1 7.0721496472538652e+00 4.5215098981360677e+00 2.8405101508344764e+01 1 1 -1
423 1 6.5184384502596728e+00 7.1799519523969089e+00 2.6090756737139049e+01 0 1 0
4226 1 5.4244578561968035e+00 1.7613769936519728e+00 2.8722834524276948e+01 0 0 -1
3021 1 7.5774397917181942e+00 4.2627868118699999e+00 2.5593443322608103e+01 1 1 0
928 1 1.5504432684536684e+00 7.8182583769649225e+00 2.8830023546449112e+01 0 -1 -1
4686 1 7.1853249741839065e+00 1.5329213397228907e+00 2.6114951368079492e+01 -1 0 0
1203 1 3.5731566350278774e+00 5.4679087991935811e+00 2.5927491920332891e+01 1 -1 0
4521 1 1.3902857261699022e+00 2.5138945241950581e+00 2.8417432960661653e+01 1 1 -1
1853 1 3.9186122869629192e+00 4.6009566861843023e+00 2.8496745384180681e+01 1 0 -1
4206 1 4.3004696641163207e+00 8.2248668597094809e-01 2.5869955487667482e+01 0 0 0
40 1 1.3509731364228037e+00 1.1217301901998475e+01 2.8771059635677489e+01 0 0 -1
941 1 8.8255707691747052e+00 8.3078925317764050e+00 2.5208245514621968e+01 -1 0 -1
4663 1 1.0575573722652182e+01 6.6119972470560207e+00 2.6071903231274785e+01 0 1 0
3709 1 1.4729007280716591e+00 1.1083306310246220e+01 2.5629323601108560e+01 1 0 -1
2179 1 2.8478219185739334e-01 5.0967145808491630e+00 2.5466286636063590e+01 0 0 0
1280 1 1.5474956178875718e+00 7.8304337188461428e+00 2.5757761236504642e+01 0 -1 -1
2164 1 4.5304461933106284e+00 1.2108031470462382e+01 2.5684956318923973e+01 0 0 0
4238 1 4.4162462829315530e+00 8.9084861271320701e+00 2.5652168381328895e+01 -1 0 -1
2125 1 4.3938925215795717e+00 8.9650728375162192e+00 2.8590933789410336e+01 0 0 0
2632 1 1.0342301148425344e+01 3.8193556431438114e+00 2.6111320999611166e+01 -1 0 -1
36 1 1.0022633308788526e+01 3.6268438484714034e+00 2.8813046344675666e+01 0 0 0
2193 1 9.5629532292791115e+00 1.0684622193591892e+01 2.6210661215198524e+01 0 0 0
527 1 9.8926517916159646e+00 8.0532420422333639e-01 2.5859996872817366e+01 1 -1 -1
2895 1 9.6338336978825261e+00 5.2137729079436013e-01 2.8846877712062359e+01 1 2 -1
4278 1 1.0492714401484925e+01 6.9182825491215914e+00 2.8912998653072787e+01 -1 -1 0
155 1 1.3330424357368751e+00 1.9884238968050165e+00 3.3528444090374961e+01 0 0 -1
4637 1 1.1708017249887678e+01 4.1755048110203186e+00 3.1577785066873528e+01 0 1 -1
2943 1 8.8585721630899137e+00 6.7601572304027640e+00 3.6692045864366627e+01 0 1 0
132 1 1.0941129075585552e+01 8.6673114890879450e+00 3.6813107307716379e+01 1 0 -1
2599 1 3.8394771631921043e+00 8.4362457607399000e-01 3.3765946108571136e+01 0 0 -1
1372 1 6.6179534893585492e+00 1.2279633598814566e+00 3.4617187547893899e+01 1 1 0
361 1 6.2889875557473909e+00 7.6744819862177156e+00 3.6523633824486943e+01 1 1 -1
350 1 8.2155704267605554e+00 2.1507763178028352e+00 3.2335941417344749e+01 0 0 0
4531 1 8.1340168567335969e+00 4.6214455222737225e+00 3.1209961286156759e+01 1 1 0
457 1 7.7833165366870452e+00 1.1906242086628284e+01 3.5146672746649152e+01 1 1 0
473 1 5.7564476993470377e+00 1.9279571858046924e+00 3.7706386783482309e+01 0 -1 0
2045 1 2.3635664140342296e+00 6.3520394044632660e+00 3.4491941644416357e+01 1 0 0
2900 1 2.0175519562853887e+00 7.5313353755820724e+00 3.1888182074343277e+01 1 0 -1
3839 1 5.6207965218242899e+00 5.5937737805792391e+00 3.2761768299401169e+01 0 1 0
2145 1 7.1773743337491256e+00 1.0212226215689835e+01 3.7664867706750783e+01 -1 0 0
2550 1 1.0352969716830055e+01 6.5864790007109102e+00 3.1725098878468337e+01 1 1 -1
3475 1 7.9510866914643402e-02 1.1316889159738563e+01 3.2089645304649352e+01 1 0 -1
2934 1 1.0149919522392228e+01 9.1489141817329784e+00 3.3002635701241658e+01 0 1 0
3373 1 6.0322830604697133e+00 7.8985295169669421e+00 3.3863199880119708e+01 0 0 0
2883 1 3.6682314877740807e+00 9.0869509786904121e+00 3.3973660297769996e+01 0 1 0
4608 1 5.2505680032626776e+00 1.1265483870800850e+01 3.0369996346742933e+01 0 0 0
370 1 1.1526261719925678e+01 1.1020040191507528e+01 3.1547320935251996e+01 1 0 0
4565 1 3.5436361978670514e+00 3.9743265458296739e-01 3.6546927167573834e+01 -1 1 0
3767 1 1.1888862436301135e+01 1.4122568035561052e+00 3.4895274478232508e+01 0 1 -1
411 1 7.5883795986747300e+00 9.9777949484248509e+00 3.3250445193000125e+01 1 0 -1
4523 1 4.6524433634010409e-01 5.0978231916115089e+00 3.6124025272870021e+01 1 0 -1
160 1 1.1022656591224552e+01 1.1961796908651852e+00 3.1898156323250074e+01 -1 1 0
2669 1 8.7947043020509046e+00 2.2586617587350895e+00 3.6158179868803039e+01 1 0 -1
1776 1 7.3239778094128938e-01 4.5798094101102969e+00 3.2408297658753469e+01 1 0 0
2873 1 3.5332268582563833e+00 7.9002723618520747e+00 3.7440511318966642e+01 0 -1 -1
4199 1 4.0749710064957423e+00 3.7936769666912600e+00 3.4455726372383552e+01 0 1 -1
3003 1 6.5692582448360648e+00 4.1946588054415601e+00 3.5883540896620552e+01 0 1 0
1895 1 8.7285700237332904e+00 5.9910420844974714e+00 3.4314723935671964e+01 0 0 -1
3789 1 1.0916235613065387e+01 3.9138777974470851e+00 3.5531721833162933e+01 1 0 0
502 1 2.0518629375457650e-01 2.3134801538978209e+00 3.6130735317088401e+01 0 0 0
1715 1 7.7872386629740422e+00 9.9518704216347249e+00 3.0242232058433121e+01 1 0 -1
2178 1 1.0627371319384809e+00 8.8041342369393867e+00 3.6020578337010384e+01 1 0 -1
366 1 2.7232672677188572e+00 1.0603146960279046e+01 3.1627756758713083e+01 0 0 0
2065 1 3.4671749487643266e+00 3.7157212588556976e+00 3.7177735797633694e+01 0 0 0
3833 1 3.1450892965623987e+00 6.2184442652091754e-01 2.9555668401143670e+01 1 0 -1
915 1 2.8040042274330439e+00 1.1417646693324601e+01 3.5640625979388417e+01 1 0 0
3788 1 4.3806941289247385e+00 6.5562101221793814e+00 3.0386153943754795e+01 2 0 0
4647 1 1.0219335070861815e+00 5.0686483445270412e+00 2.9649005204725817e+01 2 1 0
406 1 7.2302538147839126e+00 9.2041230079701286e-01 3.0229232544061968e+01 1 0 1
1723 1 6.8903517181472713e+00 7.5982181648906222e+00 2.9068647586839926e+01 0 0 0
2142 1 1.0264835847367557e+01 9.9664541882516779e+00 2.9022826160793738e+01 0 0 0
4576 1 7.8040092056321952e-01 1.7264222972042781e+01 6.1323885166688257e+00 -1 0 1
2706 1 3.2484045513604700e+00 1.4060101131775786e+01 9.4786211883018510e+00 1 1 0
2558 1 1.0187617816714324e+01 1.4270144121812795e+01 4.2772298554689847e+00 2 -1 0
358 1 7.4097127738837347e+00 1.3915217404843206e+01 6.0322869757602922e+00 1 1 0
479 1 3.2951044430358056e+00 2.1954910393039746e+01 3.3135782420370896e+00 1 0 1
4287 1 6.7518699521007139e+00 1.6956719268179121e+01 2.7644354511071469e+00 0 1 1
1702 1 1.0955617441515613e+00 1.2589652295529131e+01 1.0220771161907397e+01 0 1 0
3023 1 1.1690149058999175e+01 2.3289641879139921e+01 6.0934238179678442e+00 -1 0 1
3357 1 1.1381025055551017e+01 1.5738741127049096e+01 7.6379433265493910e+00 0 0 1
3712 1 1.1490543938998243e+01 1.2992030080236672e+01 7.9273058327512498e+00 0 -2 0
924 1 4.4698886072769994e+00 1.6508129743684414e+01 6.8608771192886397e+00 1 -1 0
2078 1 1.1399311508420706e+01 1.6711550630996953e+01 1.0465321358538342e+01 1 0 1
4374 1 5.3346923827637216e+00 1.8345930856289009e+01 4.9560784818168564e+00 0 -1 0
3487 1 6.6097904979369817e+00 1.9496719188738691e+01 7.3967238174067358e+00 1 0 -1
4550 1 8.6718384539803299e+00 1.6924993054569686e+01 7.4405518611220751e+00 0 0 1
4567 1 2.3380036074843700e+00 1.4636251661041793e+01 6.8523582978817847e+00 1 0 0
4322 1 9.7380258255450922e+00 1.7031651421925279e+01 4.6103826791859284e+00 0 -1 0
2223 1 5.0407996475303118e+00 1.2669158536635230e+01 7.3426757315256612e+00 1 0 0
468 1 2.2403069132534195e+00 1.9253547584797836e+01 4.9267762442573986e+00 0 1 2
4607 1 5.9138399917701872e+00 2.1048329744404022e+01 3.6169663122644939e+00 1 0 1
1846 1 4.8236288190949130e+00 2.3133652657101155e+01 7.9995899602604830e+00 0 0 1
2119 1 1.0424747379667043e+01 2.0877331145360589e+01 2.6992069844425917e+00 0 -1 1
9 1 1.0014142489577608e+01 2.0448809182994584e+01 8.4547822184137669e+00 0 0 1
378 1 7.2269943364825391e+00 2.1979441824168443e+01 6.0874898354712812e+00 2 1 0
4375 1 2.3718696680123195e+00 2.0600876484706490e+01 7.4745107584700028e+00 -1 0 0
1246 1 6.2630067027793066e+00 1.5416689769041936e+01 8.3991984820597310e+00 0 0 1
3535 1 6.9353857952798856e+00 1.2512186370627477e+01 9.7688429102084271e+00 0 0 0
3430 1 2.9726821442969897e+00 1.2562864420887315e+01 4.3982673432050579e+00 0 1 0
1200 1 8.1030917659957580e-01 1.7682479810824443e+01 2.4785473795045481e+00 0 -1 0
3852 1 7.1442983388391763e+00 1.4092583040472153e+01 3.2122846710378479e+00 0 -1 1
4593 1 9.8330851855512034e+00 2.1218956340551308e+01 5.8271018118495252e+00 0 0 0
1735 1 2.6647096525416569e+00 1.7807952057087853e+01 8.5777656119868801e+00 0 0 1
1236 1 2.3700962108049040e-01 1.2788441688142079e+01 4.9057522805867944e+00 1 1 1
1315 1 3.7987846492571628e-02 1.8354138770885413e+01 9.9840325470518714e+00 1 0 1
4219 1 1.2129084483872896e+01 1.8263466312760222e+01 3.6244558993715739e+00 1 -1 0
1745 1 4.5928336013685334e+00 2.0504402602856832e+01 9.1007811103383567e+00 0 0 1
3806 1 7.9393314126880492e+00 1.9015174490613109e+01 9.8363412803972228e+00 -1 0 0
3453 1 1.0359549341527520e+01 1.2385565867672762e+01 1.0375227860589147e+01 0 0 1
2183 1 8.8552498766862566e+00 2.2604755553787729e+01 1.0062472143983653e+01 0 -1 1
1382 1 8.0240962657169490e+00 2.2637160517083540e+01 2.8101018719242528e+00 -1 0 0
2630 1 2.5345660751948058e+00 2.4287556076828555e+01 6.9604278719170081e+00 0 0 0
3448 1 2.7611600304723538e-02 2.1052534578819518e+01 8.7837177546394933e+00 0 -1 0
538 1 4.4709378887616573e+00 1.3817159236710415e+01 2.1373940486896927e+00 1 0 0
4236 1 4.4659566532072112e+00 1.4828901947344232e+01 1.4137571303015104e+01 1 1 0
2153 1 1.8220532861393339e+00 1.3712836100163264e+01 1.4472488394806742e+01 1 -1 0