LAMMPS data file via write_data, version 16 Mar 2018, timestep = 8000000

4990 atoms
2 atom types

0.0000000000000000e+00 4.9219999999999999e+01 xlo xhi
0.0000000000000000e+00 4.9019635930410494e+01 ylo yhi
1.1200089099156898e+00 3.8879991090093029e+01 zlo zhi

Masses

1 18.015
2 12.01

Atoms # atomic

2550 1 2.4597708817715742e+00 2.0221305261811522e+00 3.2727784160504538e+00 2 -4 0
2680 1 6.4589100073372450e+00 1.1618830520470299e+01 7.0242072903872481e+00 -1 0 -1
2196 1 1.9497034849341779e-01 1.4795154867346882e+00 9.8964126272785933e+00 2 1 0
3398 1 8.3345882195392846e+00 3.2474442547269313e+00 2.1794043777389067e+00 4 -1 0
1877 1 1.0804787081157015e+01 3.6260158749652467e+00 3.4581354951085483e+00 0 1 1
4648 1 3.8743119869805369e+00 4.1978655426225062e+00 2.3349875783406180e+00 -1 -1 1
1725 1 1.9945618164720045e+00 5.9190300579464141e+00 3.4061439805070366e+00 3 1 0
4236 1 6.4505618064491808e+00 4.8472749627865506e+00 3.3043676036481777e+00 -1 3 0
17 1 7.1380024390074936e+00 7.5080971790261888e+00 2.4786266557145105e+00 -3 0 0
3515 1 9.6496240632727570e+00 7.7945047267425487e+00 3.2468553939250304e+00 1 -1 0
2948 1 1.1620508868622462e+01 5.9355848449489130e+00 2.6788374850706029e+00 3 3 1
3379 1 2.8304833974514567e+00 8.5544417694705768e+00 2.5010647985753307e+00 2 1 1
4305 1 1.0307957003789547e+00 1.0367885921639949e+01 3.4231846937747785e+00 1 3 1
449 1 5.3920194188317927e+00 9.3331863736802898e+00 3.3839548115587430e+00 1 -1 1
1790 1 6.2957005970809332e+00 1.1948965423559939e+01 2.8725391531528093e+00 3 1 0
1734 1 1.0914340674959474e+01 1.0217143115956098e+01 2.4867137688533640e+00 0 1 1
1278 1 6.2184244622442417e+00 1.1191520067351943e+01 9.6977991847979101e+00 -1 0 1
1802 1 5.7018607673216071e+00 9.0059385722223855e+00 6.2000963054776932e+00 3 2 1
21 1 2.8982548860251405e+00 1.8205144988073134e+00 6.0743450192639230e+00 4 -3 1
407 1 9.0926430094406907e+00 1.1892969266307393e+01 3.4863283498229825e+00 4 1 1
44 1 8.3909839074598480e+00 2.9075916492176992e+00 9.7627162739490583e+00 -2 -1 1
4691 1 8.7292351276063301e-02 9.7735257131933650e-01 7.0023652527446121e+00 2 3 1
973 1 8.5288392406622595e+00 2.8060917092227924e+00 7.1242566738148936e+00 -1 -2 1
3528 1 1.1207670563358503e+01 3.6854565821705498e+00 6.1379513968844392e+00 -1 -2 0
3471 1 1.1078635951634190e+01 1.0111045724143471e+01 7.0988638055003968e+00 -1 2 1
3835 1 4.0809776002217717e+00 4.2427125865134165e+00 6.9368896858941502e+00 1 -3 0
3775 1 4.1862627806045083e+00 4.2039521861107829e+00 9.6036387440977666e+00 -2 2 0
4214 1 2.0904519357137419e+00 5.8307349630989220e+00 6.1976625935347762e+00 4 1 1
3825 1 6.6803393509459266e+00 4.8913951600717160e+00 6.2420053727460800e+00 4 4 1
2883 1 7.6593619712698375e+00 7.1515806176609731e+00 9.5753560157656743e+00 1 3 1
969 1 7.3532223706926620e+00 7.1644492573450114e+00 6.9617123730774937e+00 1 -2 0
3049 1 1.1992938782703659e+01 5.9712734194468675e+00 7.1640354729777407e+00 1 -2 1
925 1 1.0050863262319627e+01 7.6188058026545509e+00 6.1586260321137916e+00 3 3 0
4552 1 1.1751629494381103e+01 5.8124053879422117e+00 1.0047866900395622e+01 -1 -4 1
922 1 1.1802088181372488e+00 1.0243787448269780e+01 6.3594576686571900e+00 1 -2 0
1378 1 3.1102456171919535e+00 8.2715767857885822e+00 6.9090162361644145e+00 1 -3 1
2601 1 2.9317054417194011e+00 8.4333083772369868e+00 9.5752689830372262e+00 2 0 0
915 1 1.0987516917884690e+01 1.0252825288857839e+01 9.7990653546614066e+00 1 4 1
4201 1 7.2537741368598505e+00 7.3197830499569083e-01 3.3477415436427802e+00 0 -4 1
4639 1 7.2602834062351267e+00 5.8280883064353939e-01 6.1714307234448365e+00 4 -2 1
4274 1 7.3469810701778133e+00 5.6827468513213975e-01 1.0246667352663973e+01 1 3 0
4367 1 9.2771239593249621e+00 1.2133614579994363e+01 6.1778318779531283e+00 -2 3 1
2087 1 4.5658359946224332e+00 2.4996561764625924e-01 9.8765900632629489e+00 5 -4 1
516 1 8.8235538917676681e+00 1.1818260815923514e+01 1.0293218500617243e+01 3 1 1
965 1 1.0140347733036764e+01 7.7421379138675110e+00 1.0490174239187992e+01 3 3 0
1768 1 2.9618066752548673e+00 1.7245189120640991e+00 1.3827438257905534e+01 -3 -2 1
285 2 9.8440000000000012e+00 8.5251540748539956e+00 1.6836464024498547e+01 0 0 0
2676 1 5.5544717706597169e+00 2.1876497486865891e+00 1.4546086919836711e+01 -5 -4 0
1328 1 1.1535892483160261e+01 1.2077492834645115e+01 1.4410997946204548e+01 -2 -1 1
105 1 7.0500623041634585e+00 2.9223615950004950e-01 1.2981338873147799e+01 3 5 1
2213 1 1.0931678672297028e+01 3.1926883325470898e+00 1.3577552473713448e+01 3 -1 0
3862 1 9.4638066424465794e+00 8.4985756055305717e-01 1.4367068028470504e+01 1 3 1
4573 1 4.3434445641106445e-01 7.9915505814873589e+00 1.4392663109422100e+01 -3 -2 0
4696 1 1.2433594741690925e+00 3.7096253745426684e+00 1.4243631707872622e+01 -2 0 0
1220 1 2.2835126378253339e+00 6.3097569908099755e+00 1.3370903700601469e+01 1 1 0
2627 1 1.0945004356535264e+01 3.3551215460894279e+00 1.0658962937466686e+01 -2 -5 1
283 2 8.6134999999999984e+00 1.0656442593567498e+01 1.6836464024498547e+01 0 0 0
1750 1 6.6999808292071785e+00 4.5316561292046167e+00 1.3850251551289276e+01 2 -4 -1
2193 1 4.8321111730151589e+00 6.7219558715074621e+00 1.4326742334425843e+01 -1 1 1
1878 1 9.3270031465467209e+00 5.1888220399587279e+00 1.4565405389877089e+01 -2 -2 1
4337 1 9.8132563550377192e+00 7.5735431254476646e+00 1.3187142849112481e+01 3 -3 0
1800 1 1.1428536562528298e+00 1.0099670979809682e+01 1.0737186318707659e+01 -3 3 -1
3717 1 1.1215531841093114e+00 1.0536070094719744e+01 1.3511084233415813e+01 0 4 0
3496 1 3.6910973506684366e+00 1.0941692400502308e+01 1.4466389080544847e+01 -4 4 0
391 1 2.2587008672030726e+00 5.9809542132608629e+00 1.0573592648634628e+01 0 4 1
307 2 1.1074500000000002e+01 1.0656442593567498e+01 1.6836464024498547e+01 0 0 0
115 1 5.4288817101479951e+00 9.0862669526884297e+00 1.3392621505700593e+01 -4 -2 1
286 2 1.1074500000000002e+01 9.2355835810918343e+00 1.6836464024498547e+01 0 0 0
60 1 9.2256248050140712e+00 1.1585038379862489e+01 1.3297044483225426e+01 1 2 0
90 1 7.9723601998505664e+00 9.2990923363656037e+00 1.4343204878221716e+01 -2 -2 0
193 2 0.0000000000000000e+00 2.8417180249513345e+00 1.6836464024498547e+01 0 0 0
194 2 0.0000000000000000e+00 0.0000000000000000e+00 1.6836464024498547e+01 0 0 0
195 2 1.2305000000000001e+00 7.1042950623783474e-01 1.6836464024498547e+01 0 0 0
199 2 1.2305000000000001e+00 2.1312885187134998e+00 1.6836464024498547e+01 0 0 0
200 2 2.4610000000000003e+00 2.8417180249513345e+00 1.6836464024498547e+01 0 0 0
201 2 2.4610000000000003e+00 0.0000000000000000e+00 1.6836464024498547e+01 0 0 0
202 2 3.6915000000000004e+00 7.1042950623783474e-01 1.6836464024498547e+01 0 0 0
210 2 3.6914999999999996e+00 2.1312885187134998e+00 1.6836464024498547e+01 0 0 0
211 2 4.9220000000000006e+00 2.8417180249513332e+00 1.6836464024498547e+01 0 0 0
212 2 4.9220000000000006e+00 0.0000000000000000e+00 1.6836464024498547e+01 0 0 0
213 2 6.1524999999999999e+00 7.1042950623783407e-01 1.6836464024498547e+01 0 0 0
225 2 6.1524999999999999e+00 2.1312885187134989e+00 1.6836464024498547e+01 0 0 0
226 2 7.3829999999999991e+00 2.8417180249513345e+00 1.6836464024498547e+01 0 0 0
227 2 7.3829999999999991e+00 0.0000000000000000e+00 1.6836464024498547e+01 0 0 0
228 2 8.6134999999999984e+00 7.1042950623783407e-01 1.6836464024498547e+01 0 0 0
244 2 8.6134999999999984e+00 2.1312885187135002e+00 1.6836464024498547e+01 0 0 0
245 2 9.8440000000000012e+00 2.8417180249513332e+00 1.6836464024498547e+01 0 0 0
246 2 9.8440000000000012e+00 0.0000000000000000e+00 1.6836464024498547e+01 0 0 0
247 2 1.1074500000000002e+01 7.1042950623783330e-01 1.6836464024498547e+01 0 0 0
267 2 1.1074500000000002e+01 2.1312885187135002e+00 1.6836464024498547e+01 0 0 0
197 2 0.0000000000000000e+00 4.2625770374269996e+00 1.6836464024498547e+01 0 0 0
198 2 1.2305000000000001e+00 4.9730065436648339e+00 1.6836464024498547e+01 0 0 0
206 2 1.2305000000000001e+00 6.3938655561404980e+00 1.6836464024498547e+01 0 0 0
208 2 2.4610000000000003e+00 4.2625770374269996e+00 1.6836464024498547e+01 0 0 0
209 2 3.6914999999999996e+00 4.9730065436648339e+00 1.6836464024498547e+01 0 0 0
221 2 3.6914999999999996e+00 6.3938655561404980e+00 1.6836464024498547e+01 0 0 0
196 2 0.0000000000000000e+00 7.1042950623783341e+00 1.6836464024498547e+01 0 0 0
207 2 2.4610000000000003e+00 7.1042950623783341e+00 1.6836464024498547e+01 0 0 0
223 2 4.9220000000000006e+00 4.2625770374269978e+00 1.6836464024498547e+01 0 0 0
224 2 6.1524999999999999e+00 4.9730065436648339e+00 1.6836464024498547e+01 0 0 0
240 2 6.1524999999999999e+00 6.3938655561404980e+00 1.6836464024498547e+01 0 0 0
242 2 7.3829999999999991e+00 4.2625770374269996e+00 1.6836464024498547e+01 0 0 0
222 2 4.9220000000000006e+00 7.1042950623783341e+00 1.6836464024498547e+01 0 0 0
241 2 7.3830000000000009e+00 7.1042950623783341e+00 1.6836464024498547e+01 0 0 0
243 2 8.6135000000000002e+00 4.9730065436648339e+00 1.6836464024498547e+01 0 0 0
263 2 8.6135000000000002e+00 6.3938655561404980e+00 1.6836464024498547e+01 0 0 0
265 2 9.8440000000000012e+00 4.2625770374270004e+00 1.6836464024498547e+01 0 0 0
266 2 1.1074500000000002e+01 4.9730065436648339e+00 1.6836464024498547e+01 0 0 0
287 2 1.1074500000000002e+01 6.3938655561404980e+00 1.6836464024498547e+01 0 0 0
264 2 9.8440000000000012e+00 7.1042950623783341e+00 1.6836464024498547e+01 0 0 0
236 2 3.6914999999999996e+00 1.0656442593567499e+01 1.6836464024498547e+01 0 0 0
204 2 0.0000000000000000e+00 8.5251540748539991e+00 1.6836464024498547e+01 0 0 0
205 2 1.2305000000000001e+00 9.2355835810918343e+00 1.6836464024498547e+01 0 0 0
219 2 2.4610000000000003e+00 8.5251540748539991e+00 1.6836464024498547e+01 0 0 0
220 2 3.6915000000000004e+00 9.2355835810918343e+00 1.6836464024498547e+01 0 0 0
203 2 0.0000000000000000e+00 1.1366872099805333e+01 1.6836464024498547e+01 0 0 0
217 2 1.2305000000000001e+00 1.0656442593567498e+01 1.6836464024498547e+01 0 0 0
218 2 2.4610000000000003e+00 1.1366872099805333e+01 1.6836464024498547e+01 0 0 0
261 2 7.3830000000000009e+00 8.5251540748539991e+00 1.6836464024498547e+01 0 0 0
237 2 4.9220000000000006e+00 1.1366872099805333e+01 1.6836464024498547e+01 0 0 0
239 2 6.1524999999999999e+00 9.2355835810918343e+00 1.6836464024498547e+01 0 0 0
259 2 6.1524999999999999e+00 1.0656442593567499e+01 1.6836464024498547e+01 0 0 0
238 2 4.9220000000000006e+00 8.5251540748539991e+00 1.6836464024498547e+01 0 0 0
260 2 7.3829999999999991e+00 1.1366872099805333e+01 1.6836464024498547e+01 0 0 0
308 2 1.2304999999999998e+01 1.1366872099805333e+01 1.6836464024498547e+01 0 0 0
262 2 8.6134999999999984e+00 9.2355835810918343e+00 1.6836464024498547e+01 0 0 0
284 2 9.8440000000000012e+00 1.1366872099805333e+01 1.6836464024498547e+01 0 0 0
4650 1 2.7150677425967396e+00 2.0832712210075450e+00 1.0863094028185095e+01 -1 -3 1
3457 1 6.7094434166071162e+00 4.7257316850491211e+00 1.0847940784896483e+01 -3 0 0
3485 1 5.4463711328966546e+00 8.7059966714362407e+00 1.0578085936023133e+01 2 -1 0
549 2 0.0000000000000000e+00 1.4208590124756650e+00 2.0029512372932064e+01 0 0 0
550 2 0.0000000000000000e+00 0.0000000000000000e+00 2.0029512372932064e+01 0 0 0
554 2 1.2305000000000001e+00 2.1312885187134998e+00 2.0029512372932064e+01 0 0 0
555 2 2.4610000000000003e+00 1.4208590124756650e+00 2.0029512372932064e+01 0 0 0
556 2 2.4610000000000003e+00 0.0000000000000000e+00 2.0029512372932064e+01 0 0 0
564 2 3.6914999999999996e+00 2.1312885187134998e+00 2.0029512372932064e+01 0 0 0
710 2 0.0000000000000000e+00 2.8417180249513345e+00 2.3222560721370382e+01 0 0 0
711 2 0.0000000000000000e+00 0.0000000000000000e+00 2.3222560721370382e+01 0 0 0
712 2 1.2305000000000001e+00 7.1042950623783474e-01 2.3222560721370382e+01 0 0 0
716 2 1.2305000000000001e+00 2.1312885187134998e+00 2.3222560721370382e+01 0 0 0
717 2 2.4610000000000003e+00 2.8417180249513345e+00 2.3222560721370382e+01 0 0 0
718 2 2.4610000000000003e+00 0.0000000000000000e+00 2.3222560721370382e+01 0 0 0
719 2 3.6915000000000004e+00 7.1042950623783474e-01 2.3222560721370382e+01 0 0 0
727 2 3.6914999999999996e+00 2.1312885187134998e+00 2.3222560721370382e+01 0 0 0
553 2 1.2305000000000001e+00 3.5521475311891644e+00 2.0029512372932064e+01 0 0 0
563 2 3.6914999999999996e+00 3.5521475311891644e+00 2.0029512372932064e+01 0 0 0
565 2 4.9220000000000006e+00 1.4208590124756650e+00 2.0029512372932064e+01 0 0 0
566 2 4.9220000000000006e+00 0.0000000000000000e+00 2.0029512372932064e+01 0 0 0
578 2 6.1524999999999999e+00 2.1312885187134989e+00 2.0029512372932064e+01 0 0 0
579 2 7.3829999999999991e+00 1.4208590124756659e+00 2.0029512372932064e+01 0 0 0
580 2 7.3829999999999991e+00 0.0000000000000000e+00 2.0029512372932064e+01 0 0 0
728 2 4.9220000000000006e+00 2.8417180249513332e+00 2.3222560721370382e+01 0 0 0
729 2 4.9220000000000006e+00 0.0000000000000000e+00 2.3222560721370382e+01 0 0 0
730 2 6.1524999999999999e+00 7.1042950623783407e-01 2.3222560721370382e+01 0 0 0
742 2 6.1524999999999999e+00 2.1312885187134989e+00 2.3222560721370382e+01 0 0 0
743 2 7.3829999999999991e+00 2.8417180249513345e+00 2.3222560721370382e+01 0 0 0
744 2 7.3829999999999991e+00 0.0000000000000000e+00 2.3222560721370382e+01 0 0 0
577 2 6.1524999999999999e+00 3.5521475311891644e+00 2.0029512372932064e+01 0 0 0
596 2 8.6134999999999984e+00 2.1312885187135002e+00 2.0029512372932064e+01 0 0 0
597 2 9.8440000000000012e+00 1.4208590124756659e+00 2.0029512372932064e+01 0 0 0
598 2 9.8440000000000012e+00 0.0000000000000000e+00 2.0029512372932064e+01 0 0 0
618 2 1.1074500000000002e+01 2.1312885187135002e+00 2.0029512372932064e+01 0 0 0
745 2 8.6134999999999984e+00 7.1042950623783407e-01 2.3222560721370382e+01 0 0 0
761 2 8.6134999999999984e+00 2.1312885187135002e+00 2.3222560721370382e+01 0 0 0
762 2 9.8440000000000012e+00 2.8417180249513332e+00 2.3222560721370382e+01 0 0 0
763 2 9.8440000000000012e+00 0.0000000000000000e+00 2.3222560721370382e+01 0 0 0
764 2 1.1074500000000002e+01 7.1042950623783330e-01 2.3222560721370382e+01 0 0 0
784 2 1.1074500000000002e+01 2.1312885187135002e+00 2.3222560721370382e+01 0 0 0
595 2 8.6134999999999984e+00 3.5521475311891657e+00 2.0029512372932064e+01 0 0 0
617 2 1.1074500000000002e+01 3.5521475311891644e+00 2.0029512372932064e+01 0 0 0
551 2 0.0000000000000000e+00 5.6834360499026637e+00 2.0029512372932064e+01 0 0 0
552 2 0.0000000000000000e+00 4.2625770374269996e+00 2.0029512372932064e+01 0 0 0
560 2 1.2305000000000001e+00 6.3938655561404980e+00 2.0029512372932064e+01 0 0 0
561 2 2.4610000000000003e+00 5.6834360499026637e+00 2.0029512372932064e+01 0 0 0
562 2 2.4610000000000003e+00 4.2625770374269996e+00 2.0029512372932064e+01 0 0 0
574 2 3.6914999999999996e+00 6.3938655561404980e+00 2.0029512372932064e+01 0 0 0
714 2 0.0000000000000000e+00 4.2625770374269996e+00 2.3222560721370382e+01 0 0 0
715 2 1.2305000000000001e+00 4.9730065436648339e+00 2.3222560721370382e+01 0 0 0
723 2 1.2305000000000001e+00 6.3938655561404980e+00 2.3222560721370382e+01 0 0 0
725 2 2.4610000000000003e+00 4.2625770374269996e+00 2.3222560721370382e+01 0 0 0
726 2 3.6914999999999996e+00 4.9730065436648339e+00 2.3222560721370382e+01 0 0 0
738 2 3.6914999999999996e+00 6.3938655561404980e+00 2.3222560721370382e+01 0 0 0
559 2 1.2305000000000001e+00 7.8147245686161639e+00 2.0029512372932064e+01 0 0 0
573 2 3.6914999999999996e+00 7.8147245686161639e+00 2.0029512372932064e+01 0 0 0
713 2 0.0000000000000000e+00 7.1042950623783341e+00 2.3222560721370382e+01 0 0 0
724 2 2.4610000000000003e+00 7.1042950623783341e+00 2.3222560721370382e+01 0 0 0
575 2 4.9220000000000006e+00 5.6834360499026637e+00 2.0029512372932064e+01 0 0 0
576 2 4.9220000000000006e+00 4.2625770374269978e+00 2.0029512372932064e+01 0 0 0
592 2 6.1524999999999999e+00 6.3938655561404980e+00 2.0029512372932064e+01 0 0 0
593 2 7.3829999999999991e+00 5.6834360499026637e+00 2.0029512372932064e+01 0 0 0
594 2 7.3829999999999991e+00 4.2625770374269996e+00 2.0029512372932064e+01 0 0 0
740 2 4.9220000000000006e+00 4.2625770374269978e+00 2.3222560721370382e+01 0 0 0
741 2 6.1524999999999999e+00 4.9730065436648339e+00 2.3222560721370382e+01 0 0 0
757 2 6.1524999999999999e+00 6.3938655561404980e+00 2.3222560721370382e+01 0 0 0
759 2 7.3829999999999991e+00 4.2625770374269996e+00 2.3222560721370382e+01 0 0 0
591 2 6.1524999999999999e+00 7.8147245686161639e+00 2.0029512372932064e+01 0 0 0
739 2 4.9220000000000006e+00 7.1042950623783341e+00 2.3222560721370382e+01 0 0 0
758 2 7.3830000000000009e+00 7.1042950623783341e+00 2.3222560721370382e+01 0 0 0
614 2 8.6135000000000002e+00 6.3938655561404980e+00 2.0029512372932064e+01 0 0 0
615 2 9.8440000000000012e+00 5.6834360499026637e+00 2.0029512372932064e+01 0 0 0
616 2 9.8440000000000012e+00 4.2625770374270004e+00 2.0029512372932064e+01 0 0 0
637 2 1.1074500000000002e+01 6.3938655561404980e+00 2.0029512372932064e+01 0 0 0
760 2 8.6135000000000002e+00 4.9730065436648339e+00 2.3222560721370382e+01 0 0 0
780 2 8.6135000000000002e+00 6.3938655561404980e+00 2.3222560721370382e+01 0 0 0
782 2 9.8440000000000012e+00 4.2625770374270004e+00 2.3222560721370382e+01 0 0 0
783 2 1.1074500000000002e+01 4.9730065436648339e+00 2.3222560721370382e+01 0 0 0
804 2 1.1074500000000002e+01 6.3938655561404980e+00 2.3222560721370382e+01 0 0 0
613 2 8.6135000000000002e+00 7.8147245686161639e+00 2.0029512372932064e+01 0 0 0
636 2 1.1074500000000002e+01 7.8147245686161639e+00 2.0029512372932064e+01 0 0 0
781 2 9.8440000000000012e+00 7.1042950623783341e+00 2.3222560721370382e+01 0 0 0
557 2 0.0000000000000000e+00 9.9460130873296642e+00 2.0029512372932064e+01 0 0 0
558 2 0.0000000000000000e+00 8.5251540748539991e+00 2.0029512372932064e+01 0 0 0
571 2 2.4610000000000003e+00 9.9460130873296642e+00 2.0029512372932064e+01 0 0 0
572 2 2.4610000000000003e+00 8.5251540748539991e+00 2.0029512372932064e+01 0 0 0
721 2 0.0000000000000000e+00 8.5251540748539991e+00 2.3222560721370382e+01 0 0 0
722 2 1.2305000000000001e+00 9.2355835810918343e+00 2.3222560721370382e+01 0 0 0
736 2 2.4610000000000003e+00 8.5251540748539991e+00 2.3222560721370382e+01 0 0 0
737 2 3.6915000000000004e+00 9.2355835810918343e+00 2.3222560721370382e+01 0 0 0
569 2 1.2305000000000001e+00 1.2077301606043163e+01 2.0029512372932064e+01 0 0 0
570 2 1.2305000000000001e+00 1.0656442593567498e+01 2.0029512372932064e+01 0 0 0
587 2 3.6914999999999996e+00 1.2077301606043163e+01 2.0029512372932064e+01 0 0 0
588 2 3.6914999999999996e+00 1.0656442593567499e+01 2.0029512372932064e+01 0 0 0
720 2 0.0000000000000000e+00 1.1366872099805333e+01 2.3222560721370382e+01 0 0 0
734 2 1.2305000000000001e+00 1.0656442593567498e+01 2.3222560721370382e+01 0 0 0
735 2 2.4610000000000003e+00 1.1366872099805333e+01 2.3222560721370382e+01 0 0 0
753 2 3.6914999999999996e+00 1.0656442593567499e+01 2.3222560721370382e+01 0 0 0
589 2 4.9220000000000006e+00 9.9460130873296642e+00 2.0029512372932064e+01 0 0 0
590 2 4.9220000000000006e+00 8.5251540748539991e+00 2.0029512372932064e+01 0 0 0
611 2 7.3830000000000009e+00 9.9460130873296642e+00 2.0029512372932064e+01 0 0 0
612 2 7.3830000000000009e+00 8.5251540748539991e+00 2.0029512372932064e+01 0 0 0
755 2 4.9220000000000006e+00 8.5251540748539991e+00 2.3222560721370382e+01 0 0 0
756 2 6.1524999999999999e+00 9.2355835810918343e+00 2.3222560721370382e+01 0 0 0
778 2 7.3830000000000009e+00 8.5251540748539991e+00 2.3222560721370382e+01 0 0 0
609 2 6.1524999999999999e+00 1.2077301606043163e+01 2.0029512372932064e+01 0 0 0
610 2 6.1524999999999999e+00 1.0656442593567499e+01 2.0029512372932064e+01 0 0 0
754 2 4.9220000000000006e+00 1.1366872099805333e+01 2.3222560721370382e+01 0 0 0
776 2 6.1524999999999999e+00 1.0656442593567499e+01 2.3222560721370382e+01 0 0 0
777 2 7.3829999999999991e+00 1.1366872099805333e+01 2.3222560721370382e+01 0 0 0
634 2 9.8440000000000012e+00 9.9460130873296642e+00 2.0029512372932064e+01 0 0 0
635 2 9.8440000000000012e+00 8.5251540748539956e+00 2.0029512372932064e+01 0 0 0
779 2 8.6134999999999984e+00 9.2355835810918343e+00 2.3222560721370382e+01 0 0 0
802 2 9.8440000000000012e+00 8.5251540748539956e+00 2.3222560721370382e+01 0 0 0
803 2 1.1074500000000002e+01 9.2355835810918343e+00 2.3222560721370382e+01 0 0 0
632 2 8.6135000000000002e+00 1.2077301606043163e+01 2.0029512372932064e+01 0 0 0
633 2 8.6134999999999984e+00 1.0656442593567498e+01 2.0029512372932064e+01 0 0 0
655 2 1.1074500000000002e+01 1.2077301606043163e+01 2.0029512372932064e+01 0 0 0
656 2 1.1074500000000002e+01 1.0656442593567498e+01 2.0029512372932064e+01 0 0 0
800 2 8.6134999999999984e+00 1.0656442593567498e+01 2.3222560721370382e+01 0 0 0
801 2 9.8440000000000012e+00 1.1366872099805333e+01 2.3222560721370382e+01 0 0 0
824 2 1.1074500000000002e+01 1.0656442593567498e+01 2.3222560721370382e+01 0 0 0
825 2 1.2304999999999998e+01 1.1366872099805333e+01 2.3222560721370382e+01 0 0 0
4316 1 2.8754689857311142e+00 1.4013447575784999e+00 2.5598611073766659e+01 2 1 -1
481 1 1.4559256859325609e+00 3.5758550960127002e+00 2.6434066349369239e+01 0 1 0
502 1 8.2685618272378392e+00 9.6819581781365880e+00 2.6817249009768414e+01 -4 2 0
4239 1 5.4838405448739547e+00 2.3747752548935730e+00 2.6442072252565815e+01 -3 1 -1
2880 1 6.0116123980420646e+00 9.1136728963379543e+00 2.5547260028102343e+01 2 0 -1
4666 1 5.5159671055081221e+00 2.2853319820737914e+00 2.9277054628355543e+01 4 2 0
1835 1 1.1851139628284004e+00 1.0411509296371761e+01 2.5523663522540499e+01 -3 -1 -1
47 1 1.0719793073270983e+01 3.3962382374380038e+00 2.5686406018700339e+01 -1 -4 -1
3721 1 1.0060474077123546e+01 7.8092893456740631e-01 2.6621789412371921e+01 0 2 -1
3495 1 2.3462563862722523e+00 6.2659807393609404e+00 2.5868585973347336e+01 1 1 -1
3836 1 8.8896008689926891e+00 1.2226344856469270e+01 2.5959870582148348e+01 -1 -1 0
1394 1 9.1113155839381790e+00 5.3615880985102464e+00 2.9118137019957082e+01 -2 0 -1
912 1 4.8604441985003692e+00 6.9896150453245847e+00 2.7005179200112536e+01 4 -3 -1
3824 1 6.1569307313440271e+00 4.9620920839925873e+00 2.5796052575120683e+01 0 0 -1
37 1 7.5606803567040544e+00 6.7709660660641802e-01 2.5860142054342489e+01 1 1 0
3507 1 9.9549374931647456e+00 7.7450112514775267e+00 2.5875604199764993e+01 2 1 0
1896 1 8.9303630571198678e+00 5.3303355405511876e+00 2.6488921096337695e+01 1 1 -2
152 1 3.8216051446348462e+00 1.0793195825551926e+01 2.8904945290838288e+01 2 1 0
2202 1 3.7772269244010483e+00 1.0717982885723146e+01 2.6125749955316564e+01 -1 1 -1
4540 1 1.6936419879386005e-01 7.9409573574639518e+00 2.6325290139615660e+01 -3 1 -1
61 1 1.5678486001052152e+00 3.6690861412174618e+00 2.9260048126492002e+01 3 1 -1
3400 1 1.8338564959415468e-01 7.8357612213661829e+00 2.9164404177562592e+01 0 0 -1
4597 1 2.8005636543881316e+00 1.6914171205834656e+00 3.3022021689867856e+01 1 2 0
4640 1 9.4762047753373935e-01 3.5020091293585196e+00 3.3902156537626531e+01 4 -1 -1
3462 1 3.1083572411684885e+00 1.6935522317153704e+00 3.0126750035570272e+01 0 -1 -1
3425 1 5.3455215107222172e+00 2.4043053537557517e+00 3.3820085901277096e+01 0 2 0
2055 1 9.2942874189960296e+00 1.1937294536316232e+01 3.3248037086403542e+01 1 0 0
3813 1 1.0979582137243442e+01 3.4303399047463183e+00 3.3010899354777038e+01 -4 4 -1
3395 1 9.9394839772593837e+00 1.0097553819664262e+00 3.3489835768119498e+01 2 0 1
4555 1 1.0835981528418490e+01 3.2346400002593549e+00 3.0009894342149263e+01 1 0 0
2136 1 1.9933686947974674e+00 5.8667049140175216e+00 3.2651014776293863e+01 -1 -3 -1
509 1 1.9955922286858296e+00 6.2350373709667979e+00 3.0035476575771632e+01 1 -2 1
4334 1 3.7020435859977596e-01 7.7281006958134331e+00 3.3819850713265978e+01 1 1 -1
4631 1 6.6143610550327443e+00 4.7522125763454408e+00 3.0292366577076187e+01 0 2 0
4519 1 6.4865762950693044e+00 4.8879993444888186e+00 3.2886672176430586e+01 4 -2 0
546 1 4.5911402918189612e+00 6.5141250507486612e+00 3.3600414181580099e+01 1 5 0
484 1 9.8279131313269783e+00 7.7084822962957391e+00 3.3165115117876610e+01 4 -1 0
2987 1 1.0146731129659749e+01 7.6187058287493086e+00 3.0302714836308777e+01 3 2 0
2662 1 8.9990208426433114e+00 5.2111791065101256e+00 3.3927846149005923e+01 1 1 -1
1810 1 1.1610657721250619e+00 1.0028148439493592e+01 3.2804555209844693e+01 -2 2 0
2139 1 3.7443058030396865e+00 1.0417114170216770e+01 3.3997586102277936e+01 3 -2 0
2235 1 1.2412052718554731e+00 1.0327142309848831e+01 2.9991442613401563e+01 -1 2 0
389 1 3.8734373676393745e+00 1.1086935907943925e+01 3.6731871581846285e+01 -1 -2 0
2630 1 5.8538408750272364e+00 9.0050483580703133e+00 3.2997499091070026e+01 -1 -6 -1
423 1 5.8011478349442038e+00 9.1775381281717738e+00 3.0322693445392389e+01 4 1 0
2047 1 7.3553273674477602e+00 5.0140249818807903e-01 3.2815723500894094e+01 0 -1 -1
1357 1 8.1873676107983133e+00 9.6726330421481475e+00 3.4368486917849168e+01 -3 0 0
1020 1 3.9727691998076425e-01 7.8607448605982473e+00 3.6466005950546325e+01 0 -2 -1
2143 1 1.3944944618513482e+00 3.7323323159249955e+00 3.6726411597575932e+01 -5 2 0
4664 1 2.6761148324986184e-01 1.1669179718880314e+00 3.7488586256921948e+01 3 -3 1
3784 1 5.5464925201290383e+00 1.8907820082110549e+00 3.6635650940089114e+01 -1 1 0
3805 1 3.8927017017602812e+00 4.0882290572003939e+00 3.7435129171109757e+01 1 -2 0
1030 1 8.2057820822505914e+00 2.6851668038567889e+00 3.7159748311170368e+01 -3 -1 0
1380 1 1.0028725078914748e+01 7.9904376645917186e-01 3.6320196028396460e+01 3 -3 0
1019 1 6.4146018060198653e+00 1.1614541177395015e+01 3.7834968809543611e+01 0 -3 -1
4330 1 7.2228541851213199e+00 7.2966046108393190e+00 3.7543869852642281e+01 2 3 0
1351 1 4.8353836480615033e+00 6.6784561490373218e+00 3.6546140729863232e+01 1 2 -1
540 1 9.0044583945395420e+00 5.3271604042376275e+00 3.6457198358192457e+01 -3 -2 0
3414 1 1.1627285878043709e+01 6.1644467525235225e+00 3.7594430802945809e+01 0 2 0
4328 1 2.9776580735537288e+00 8.7315883676799757e+00 3.7397137917448767e+01 -2 4 0
4545 1 1.1039839811892886e+01 1.0061316550218901e+01 3.7652145514565646e+01 0 4 1
4238 1 8.3144818043191400e+00 9.7788290362307961e+00 3.7042632292766200e+01 2 -3 -1
2993 1 9.1063300141692221e+00 1.1951615015426972e+01 3.0497999648650275e+01 2 4 0
978 1 7.3025716557771396e+00 3.0213197519323148e-01 2.9924505457468641e+01 2 3 -2
2645 1 8.3364202758880896e+00 9.6194831919303621e+00 2.9535526532706474e+01 1 -6 0
513 1 4.7354479364256159e+00 6.6874557429610251e+00 2.9628661772743214e+01 0 2 0
1731 1 1.0030700902050000e+01 6.2060328397430120e-01 2.9459413496856566e+01 -1 2 0
2939 1 1.1352552690358648e+01 2.2001652262352213e+01 2.4025181342165194e+00 0 2 0
2557 1 5.3625520262241011e-01 1.4776041367027316e+01 3.6569989259462519e+00 -2 2 0
174 1 4.4580994223769936e+00 1.3885954938127783e+01 3.7393271367966729e+00 -3 2 1
1718 1 5.7584716959719975e+00 1.5980453134606476e+01 2.6912458432871196e+00 -3 4 0
2118 1 8.1362285869103186e+00 1.6329957252848633e+01 3.6810089530053065e+00 5 3 1
2674 1 9.7520139149437224e+00 1.4356579910545550e+01 2.4961691290889378e+00 1 1 0
4557 1 1.3192848324499864e+00 1.7128032056789355e+01 2.4907696922006330e+00 7 0 1
3702 1 3.8085710799005050e+00 1.7834601279763476e+01 3.4524563600448546e+00 0 -1 0
3758 1 4.7229181968625840e+00 2.0235558954354058e+01 2.6995789805374475e+00 3 -3 1
3439 1 7.2055782145275868e+00 2.0659726708722765e+01 3.6737986708251906e+00 -1 -1 0
2643 1 8.8011950648040624e+00 1.8580588916699245e+01 2.4936729580713060e+00 -1 0 0
2977 1 1.1218186235872913e+01 1.9305308559190369e+01 3.2190692614176588e+00 1 -3 1
2968 1 2.8102319225005079e+00 2.2038958024624257e+01 3.7011315406442105e+00 -1 -1 1
4575 1 2.1106318654254244e+00 1.2858489980827278e+01 2.8681021184863091e+00 -1 -3 1
4237 1 1.2116248012759048e+01 2.2072275744504605e+01 7.2632920479989602e+00 0 1 0
1254 1 7.8300900672709375e+00 2.3357866152208786e+01 2.7759084665880200e+00 -2 0 1
990 1 1.2088650674932181e+01 2.2002702568552099e+01 9.9254290999404713e+00 0 -1 0
517 1 1.0287236802787552e+01 2.4273425655083269e+01 3.4884644318758014e+00 -2 4 1
3040 1 3.0185943000372417e-01 2.1563716467701489e+01 2.4901627642292241e+00 0 -2 0
2212 1 5.5457054247932875e+00 1.5713013800761081e+01 9.8374026477306291e+00 -1 -2 0
998 1 2.2827095425022774e+00 1.2427174905089934e+01 9.9384416887805234e+00 5 4 1
3787 1 8.0932014675893740e+00 1.6534787469373818e+01 6.2754103450207142e+00 6 1 1
448 1 1.8095637960114433e-01 2.1160919762077409e+01 1.0001924195699203e+01 -1 -1 1
1732 1 4.4920124707042817e+00 1.3411355302059780e+01 6.2501589742475616e+00 -1 -2 1
949 1 5.6095269925393083e+00 1.5905689392396893e+01 6.9937552174877755e+00 2 -1 0
59 1 9.8458574525773468e+00 1.4532195985259861e+01 1.0031996258935129e+01 -1 -2 0
1755 1 9.9252840615198945e+00 1.4664078696231480e+01 7.1401292271933663e+00 3 1 -1
2723 1 1.4875482946301293e+00 1.7134736358555852e+01 7.1344152763349058e+00 0 2 0
148 1 1.1771444401564035e+00 1.6752544757458494e+01 9.8785069486368862e+00 1 1 0
1819 1 3.9841535219386741e+00 1.7906415940237054e+01 6.2022625522398949e+00 4 6 0
4662 1 4.4452121231087762e+00 2.0468941416252122e+01 1.0175140947214109e+01 2 -2 1
1044 1 4.6052459287932752e+00 2.0378336026279676e+01 7.4220253623773704e+00 1 1 0
4278 1 1.1317891877722742e+01 1.9670496838023944e+01 6.0191728584150530e+00 -2 -4 1
3387 1 9.1796671717407836e+00 1.8861656626034478e+01 7.2755905953560065e+00 -1 1 0
3381 1 8.9281013884380638e+00 1.8791228666150115e+01 1.0184147704093466e+01 -4 2 0
4287 1 7.7679515965969292e+00 2.3476552056821969e+01 1.0208257293868545e+01 -1 1 1
3 1 1.9559011615128437e+00 1.2702657316121986e+01 7.2297339142336305e+00 -1 -2 0
1329 1 3.5371869752198033e+00 2.4449467870032770e+01 1.0190659402467686e+01 1 1 1
1736 1 1.0315207314207210e+01 2.3924799508690882e+01 6.1413800891763008e+00 0 -2 0
931 1 2.7635099956078197e+00 2.2121994574433881e+01 6.3455624401353550e+00 3 5 0
15 1 7.9326567042219098e+00 2.3247622286722159e+01 7.4373444235896340e+00 -3 2 0
2185 1 7.3286723044925308e+00 2.0740325682793813e+01 6.3251394324067416e+00 0 0 1
504 1 3.1403341202037305e-01 1.4595111770669373e+01 6.4202738838347342e+00 1 -1 1
927 1 3.4947463610725182e+00 2.4440408337066270e+01 7.2954696662685414e+00 -1 -3 0