LAMMPS data file via write_data, version 16 Mar 2018, timestep = 100000

6328 atoms
2 atom types

0.0000000000000000e+00 4.9219999999999999e+01 xlo xhi
0.0000000000000000e+00 4.9019635930410494e+01 ylo yhi
3.7290744047908646e+00 5.6332925595207399e+01 zlo zhi

Masses

1 18.015
2 12.01

Atoms # atomic

3085 1 4.0401967571051580e+00 3.8411284800525127e+00 9.3750642112991898e+00 0 0 1
3069 1 1.1184967938261167e+01 5.7219169972189174e+00 1.0449190694892042e+01 0 -1 1
190 1 1.1512485374434311e+01 8.9770833740632283e-01 8.4761921536107465e+00 0 0 0
6004 1 1.1508136059514717e+01 9.9638559917551617e-01 4.6659075739121105e+00 1 1 0
1533 1 8.6935502025154552e+00 1.6591614729866420e+00 7.2379133120436983e+00 1 0 1
3242 1 1.2221225589013216e+01 1.1568979150253494e+01 1.2001038407461937e+01 1 0 0
332 1 9.2559073898022088e+00 2.7998455874730226e+00 4.3973550914748802e+00 0 1 0
5223 1 1.4240198360006673e-02 1.8986217117087858e+00 1.6167805270150126e+01 1 0 1
6245 1 4.6528289526839900e-01 9.6249192917048472e+00 4.2958356456435940e+00 0 0 0
1745 1 1.1559259536955647e+01 3.3762032509964928e+00 6.9672317552056899e+00 0 1 0
3420 1 8.2233025278427654e+00 1.0297694439461544e+01 1.3619417544552379e+01 0 0 0
5138 1 1.1330077750609859e+00 2.8702070923244816e+00 9.6186022713411905e+00 0 0 0
1750 1 1.0958294705473088e+01 2.5965156569743604e+00 1.5411442640423823e+01 0 1 0
3368 1 1.6125920303100401e+00 3.5885819616948753e+00 1.4219450449757590e+01 0 0 0
197 1 7.4454727803599283e+00 5.6393460986154329e+00 4.5403390443949387e+00 1 0 0
5962 1 9.6579724110288456e+00 5.3254508301966874e+00 6.1187670644398917e+00 1 1 1
299 1 1.1144458328190662e+01 8.4070113819714472e+00 8.7991365835556721e+00 0 1 0
3349 1 8.8317794194918857e+00 6.5069354554305816e+00 8.5227023904226744e+00 0 0 0
3401 1 3.1279760107201451e+00 8.7666840025351469e+00 1.4618408297800029e+01 1 0 1
6176 1 5.4010395741053330e+00 1.0401711057047603e+01 1.3248217564501324e+01 1 -1 0
5082 1 2.5318157806912716e+00 7.9324711813447149e+00 5.6047533668403551e+00 0 0 0
4524 1 3.7610084398961403e+00 1.0612335876971763e+01 5.6636262957940851e+00 0 0 1
3610 1 5.5306142778240153e+00 2.0967274531559446e-01 1.0921955936110445e+01 -1 0 0
1310 1 2.8921860927015395e+00 5.6977506684941606e+00 3.8185167166759220e+00 0 0 1
1774 1 6.1634682040315258e+00 9.8116487122321381e+00 6.7341281313936960e+00 -1 0 0
370 1 1.0684270217932447e+01 1.0467641831775220e+01 1.4813008252235125e+01 0 0 0
1512 1 1.0019276546387383e+00 9.3086908933436430e+00 7.8179913234302303e+00 0 0 1
6190 1 4.4927218902458739e+00 1.1953103966292904e+01 1.5339082923904177e+01 1 1 0
4890 1 7.0791603910043301e+00 8.4027520700326086e+00 4.4357439474662330e+00 1 0 0
1674 1 1.0514172609609448e+01 2.3118493610392736e+00 1.1781634542445456e+01 0 1 0
1477 1 9.2933371519490624e+00 7.7180347782356291e+00 1.3098017278748211e+01 0 1 1
3139 1 1.3531341371414538e+00 5.8827960472471563e+00 9.0292452751196439e+00 0 1 1
2804 1 1.8947795266294269e+00 8.6466991384744016e+00 1.0288100788785659e+01 1 -1 1
5137 1 2.9212744671034288e+00 5.2073706631164933e+00 1.1741192579282268e+01 1 0 0
5093 1 4.8883196866035377e+00 4.6136284307528852e+00 5.2115073269929173e+00 1 0 1
359 1 6.0779412689198899e+00 1.6865774071935991e+00 8.5050947770587868e+00 0 -1 1
6007 1 9.1813291940837090e+00 3.3805761183316707e+00 9.5018922038484401e+00 0 1 0
123 1 1.1112287704217191e+01 9.0326426167758509e+00 1.1489725904395264e+01 1 1 1
6294 1 6.9929646051887886e+00 6.9361328352208602e+00 1.1465312698145475e+01 0 1 1
3241 1 3.9869085739616668e+00 2.2832506751004051e+00 1.5321672131511372e+01 0 1 0
1805 1 1.0725844592047926e+00 6.3648906861969934e+00 1.4471617119908343e+01 -1 0 0
5973 1 1.8374500358230033e+00 1.2131745269710906e+01 6.9520643257294443e+00 1 0 0
4420 1 4.1964751532344637e+00 6.5046450966190408e+00 7.4437943315720618e+00 0 0 1
3630 1 6.2506907560752722e+00 7.9532826768443474e+00 9.0750504761384310e+00 2 0 0
128 1 4.6524302987474151e+00 1.0244097939165728e+01 1.0038194180393070e+01 0 1 0
5162 1 9.9786170951144673e+00 1.1104438274282842e+01 8.7426395991631729e+00 0 0 0
4901 1 3.3713456815756109e+00 2.1254626537299264e+00 5.6584868575578273e+00 -1 0 0
3208 1 9.3781855340764531e-01 2.1242347307513687e+00 7.0803475296419087e+00 1 1 1
499 1 8.4853710168048768e-01 1.0345990795685864e+01 1.3574723639186693e+01 0 0 0
4701 1 9.2619229181503226e-02 5.8519103843319744e+00 6.5100521591177074e+00 1 1 1
5077 1 6.0489187273553267e+00 1.4129233016587657e+00 1.3673582866620338e+01 0 0 1
1319 1 7.4447726614351364e+00 3.5412297264558288e+00 1.3011701791251145e+01 0 -1 0
3328 1 4.9795635314568241e+00 4.9417051388607476e+00 1.3996110383387867e+01 1 1 1
5234 1 4.4311253075761163e+00 6.5293106603079476e+00 1.6302476087020750e+01 1 2 1
5157 1 8.6150915548143754e+00 1.1284313835039931e+01 6.3312734824738897e+00 0 0 0
2798 1 4.6212373142019727e+00 7.4158285689856740e+00 1.2206607639434745e+01 1 0 1
4840 1 6.9970782784100036e+00 4.3745953761723753e+00 1.0500993093769257e+01 1 0 1
1524 1 1.1582205102554819e+00 1.1306145311819138e+01 1.0736019295177062e+01 0 0 1
1705 1 9.2134698026240578e+00 6.5787113454619197e+00 1.5672475069487259e+01 0 0 0
3722 1 9.8123360065437986e+00 4.4810927529370694e+00 1.4106510507790622e+01 1 0 0
6281 1 2.9355653561700903e+00 2.0697135129309889e+00 1.1902342062456162e+01 -1 1 1
1380 1 1.4976760553391369e-01 7.0039157985605716e+00 1.1852646571346435e+01 0 1 0
3319 1 9.6909242736879548e+00 9.5030090840486512e+00 3.9634916896651289e+00 1 0 0
6037 1 1.1389661752689555e+01 7.0984014206320163e+00 4.4268130672185597e+00 1 0 1
5031 1 8.9973597639106302e+00 1.1784710371362699e+01 1.1469539822102163e+01 1 1 0
323 1 8.6674599505895724e+00 2.0262542895390140e-01 1.3915176562886590e+01 1 1 1
5200 1 1.0894407549941092e+00 3.9682829605176138e+00 4.2355574975739527e+00 0 -1 0
1923 1 6.2196765291412728e+00 1.1873066019242712e+01 3.8753425653189688e+00 0 0 0
4774 1 1.1167075851842891e+00 5.0881634063245729e+00 1.9104143600676188e+01 2 1 1
169 1 4.8204883846966746e+00 1.0384798000437998e+01 2.4258790943702355e+01 2 0 1
728 2 9.8440000000000012e+00 1.1366872099805333e+01 2.6891857087066072e+01 0 0 0
4912 1 4.5580192660535532e+00 3.7335519752285600e+00 1.9223652087943066e+01 0 0 1
4417 1 5.2620401363545382e+00 1.2604246189070296e+00 1.8098479074383551e+01 1 1 1
6234 1 6.6354226784104657e+00 9.0461152247714054e+00 1.7618736826110556e+01 1 -1 1
204 1 1.0456784295489328e+01 9.4197218208833078e-01 1.7790967191459153e+01 0 1 1
775 2 1.2304999999999998e+01 1.1366872099805333e+01 2.6891857087066072e+01 0 0 0
1837 1 1.8942790972637593e+00 9.6710679115297697e+00 1.8678379017301758e+01 1 1 0
2108 1 2.0572006281005022e+00 7.2261498231186989e+00 2.1114660613938241e+01 0 0 1
1416 1 1.0076973435348121e+01 3.9010636333562632e+00 1.9279051248199423e+01 2 0 1
3079 1 7.5008977149090335e+00 4.2438300425106377e+00 1.9622571430778635e+01 1 1 0
1801 1 1.1847460391913566e+01 2.7093033600549350e+00 2.1434762787262816e+01 1 0 0
413 1 9.6647256273301796e+00 1.1395293293129434e+01 2.1039235368493976e+01 1 0 0
395 1 1.0617335503453342e+01 1.1182148160454835e+01 1.8629684544821323e+01 1 0 0
306 1 9.2342962844926308e+00 8.9624709984824182e+00 2.4193231419801386e+01 1 1 0
250 1 2.3112828669855978e+00 1.0473633961439319e+01 2.1184459131605770e+01 1 0 0
496 1 1.1607270486895365e+01 3.6331911951270959e+00 2.4031384160746232e+01 1 0 0
773 2 1.1074500000000002e+01 1.0656442593567498e+01 2.6891857087066072e+01 0 0 0
2839 1 9.5531867988442141e+00 1.1604753567046981e+01 2.4295630187393080e+01 0 0 1
726 2 8.6134999999999984e+00 1.0656442593567498e+01 2.6891857087066072e+01 0 0 0
3032 1 1.0647241470791737e+01 6.5564709010414202e+00 2.0506281345823712e+01 1 0 1
1545 1 2.7264102250641420e+00 2.8723315125110438e+00 2.1597533249401984e+01 0 0 1
446 1 3.7245201374453347e+00 2.6482071964723883e+00 2.4387199190425630e+01 -1 1 1
3093 1 7.5736486783563794e+00 2.0544568684010680e+00 2.1452407548219988e+01 0 0 1
4647 1 7.0001353545006380e+00 6.3776873971358965e+00 1.7571546570401125e+01 0 0 1
3559 1 4.6573409043607894e+00 8.5264845321178473e-01 2.1231175608160065e+01 1 1 0
3670 1 8.6387210612698944e+00 2.4143994633983259e+00 2.4174281807289979e+01 1 1 0
312 1 9.7961075064603182e+00 6.6350031420646471e-01 2.0479842255230622e+01 1 0 0
3260 1 2.0834216320682630e+00 6.9281695337641276e+00 2.4080403892597008e+01 1 2 1
6261 1 4.0273013130012183e+00 5.4407507903555468e+00 2.1413603578502009e+01 1 0 1
2951 1 4.5276105158832651e+00 5.4043991154150994e+00 2.4485684311469182e+01 0 0 1
1894 1 7.4820258565739124e+00 5.0237972474232331e+00 2.4494011260132044e+01 0 1 0
3382 1 6.0397263542962873e+00 1.1308561727708661e+00 2.4178884659070111e+01 1 1 0
432 1 6.9648927935429761e+00 6.0057386095294492e+00 2.1569685332246404e+01 0 1 0
4931 1 1.0156957188725164e+01 5.7410668419001203e+00 2.3320473755374742e+01 0 0 1
5286 1 5.0155738833609895e+00 8.5778188535423183e+00 2.1874582845562628e+01 1 1 1
158 1 2.3468329662855729e+00 9.8648612748434665e+00 2.3899727838278618e+01 1 1 0
4938 1 1.7307730661701053e+00 8.2044309238353508e-01 2.4631890081949408e+01 1 2 0
1884 1 6.6688798959658593e+00 7.9458550338988063e+00 2.4533453468534560e+01 0 -1 0
268 1 6.5508083867224283e+00 9.9664963002274369e+00 2.0270104701570574e+01 0 -1 0
730 2 9.8440000000000012e+00 8.5251540748539956e+00 2.6891857087066072e+01 0 0 0
1639 1 8.7585647830982349e+00 8.7618439718939563e+00 2.1540540341528096e+01 -1 -1 0
685 2 8.6134999999999984e+00 9.2355835810918343e+00 2.6891857087066072e+01 0 0 0
5185 1 3.8740933320132234e+00 9.8125781432754735e+00 1.7099340617370228e+01 1 -1 1
732 2 1.1074500000000002e+01 9.2355835810918343e+00 2.6891857087066072e+01 0 0 0
552 2 0.0000000000000000e+00 2.8417180249513345e+00 2.6891857087066072e+01 0 0 0
554 2 0.0000000000000000e+00 0.0000000000000000e+00 2.6891857087066072e+01 0 0 0
556 2 1.2305000000000001e+00 7.1042950623783474e-01 2.6891857087066072e+01 0 0 0
563 2 1.2305000000000001e+00 2.1312885187134998e+00 2.6891857087066072e+01 0 0 0
565 2 2.4610000000000003e+00 2.8417180249513345e+00 2.6891857087066072e+01 0 0 0
567 2 2.4610000000000003e+00 0.0000000000000000e+00 2.6891857087066072e+01 0 0 0
569 2 3.6915000000000004e+00 7.1042950623783474e-01 2.6891857087066072e+01 0 0 0
584 2 3.6914999999999996e+00 2.1312885187134998e+00 2.6891857087066072e+01 0 0 0
586 2 4.9220000000000006e+00 2.8417180249513332e+00 2.6891857087066072e+01 0 0 0
588 2 4.9220000000000006e+00 0.0000000000000000e+00 2.6891857087066072e+01 0 0 0
590 2 6.1524999999999999e+00 7.1042950623783407e-01 2.6891857087066072e+01 0 0 0
613 2 6.1524999999999999e+00 2.1312885187134989e+00 2.6891857087066072e+01 0 0 0
615 2 7.3829999999999991e+00 2.8417180249513345e+00 2.6891857087066072e+01 0 0 0
617 2 7.3829999999999991e+00 0.0000000000000000e+00 2.6891857087066072e+01 0 0 0
619 2 8.6134999999999984e+00 7.1042950623783407e-01 2.6891857087066072e+01 0 0 0
650 2 8.6134999999999984e+00 2.1312885187135002e+00 2.6891857087066072e+01 0 0 0
652 2 9.8440000000000012e+00 2.8417180249513332e+00 2.6891857087066072e+01 0 0 0
654 2 9.8440000000000012e+00 0.0000000000000000e+00 2.6891857087066072e+01 0 0 0
656 2 1.1074500000000002e+01 7.1042950623783330e-01 2.6891857087066072e+01 0 0 0
695 2 1.1074500000000002e+01 2.1312885187135002e+00 2.6891857087066072e+01 0 0 0
559 2 0.0000000000000000e+00 4.2625770374269996e+00 2.6891857087066072e+01 0 0 0
561 2 1.2305000000000001e+00 4.9730065436648339e+00 2.6891857087066072e+01 0 0 0
576 2 1.2305000000000001e+00 6.3938655561404980e+00 2.6891857087066072e+01 0 0 0
580 2 2.4610000000000003e+00 4.2625770374269996e+00 2.6891857087066072e+01 0 0 0
582 2 3.6914999999999996e+00 4.9730065436648339e+00 2.6891857087066072e+01 0 0 0
605 2 3.6914999999999996e+00 6.3938655561404980e+00 2.6891857087066072e+01 0 0 0
557 2 0.0000000000000000e+00 7.1042950623783341e+00 2.6891857087066072e+01 0 0 0
578 2 2.4610000000000003e+00 7.1042950623783341e+00 2.6891857087066072e+01 0 0 0
609 2 4.9220000000000006e+00 4.2625770374269978e+00 2.6891857087066072e+01 0 0 0
611 2 6.1524999999999999e+00 4.9730065436648339e+00 2.6891857087066072e+01 0 0 0
642 2 6.1524999999999999e+00 6.3938655561404980e+00 2.6891857087066072e+01 0 0 0
646 2 7.3829999999999991e+00 4.2625770374269996e+00 2.6891857087066072e+01 0 0 0
607 2 4.9220000000000006e+00 7.1042950623783341e+00 2.6891857087066072e+01 0 0 0
644 2 7.3830000000000009e+00 7.1042950623783341e+00 2.6891857087066072e+01 0 0 0
648 2 8.6135000000000002e+00 4.9730065436648339e+00 2.6891857087066072e+01 0 0 0
687 2 8.6135000000000002e+00 6.3938655561404980e+00 2.6891857087066072e+01 0 0 0
691 2 9.8440000000000012e+00 4.2625770374270004e+00 2.6891857087066072e+01 0 0 0
693 2 1.1074500000000002e+01 4.9730065436648339e+00 2.6891857087066072e+01 0 0 0
734 2 1.1074500000000002e+01 6.3938655561404980e+00 2.6891857087066072e+01 0 0 0
689 2 9.8440000000000012e+00 7.1042950623783341e+00 2.6891857087066072e+01 0 0 0
572 2 0.0000000000000000e+00 8.5251540748539991e+00 2.6891857087066072e+01 0 0 0
574 2 1.2305000000000001e+00 9.2355835810918343e+00 2.6891857087066072e+01 0 0 0
601 2 2.4610000000000003e+00 8.5251540748539991e+00 2.6891857087066072e+01 0 0 0
603 2 3.6915000000000004e+00 9.2355835810918343e+00 2.6891857087066072e+01 0 0 0
570 2 0.0000000000000000e+00 1.1366872099805333e+01 2.6891857087066072e+01 0 0 0
597 2 1.2305000000000001e+00 1.0656442593567498e+01 2.6891857087066072e+01 0 0 0
599 2 2.4610000000000003e+00 1.1366872099805333e+01 2.6891857087066072e+01 0 0 0
634 2 3.6914999999999996e+00 1.0656442593567499e+01 2.6891857087066072e+01 0 0 0
683 2 7.3830000000000009e+00 8.5251540748539991e+00 2.6891857087066072e+01 0 0 0
681 2 7.3829999999999991e+00 1.1366872099805333e+01 2.6891857087066072e+01 0 0 0
636 2 4.9220000000000006e+00 1.1366872099805333e+01 2.6891857087066072e+01 0 0 0
640 2 6.1524999999999999e+00 9.2355835810918343e+00 2.6891857087066072e+01 0 0 0
679 2 6.1524999999999999e+00 1.0656442593567499e+01 2.6891857087066072e+01 0 0 0
638 2 4.9220000000000006e+00 8.5251540748539991e+00 2.6891857087066072e+01 0 0 0
80 1 2.9350465878954815e+00 4.3779228970921444e+00 1.7200424106459877e+01 1 0 0
1800 1 1.1353213448034341e+01 6.8653807514524967e+00 1.7646295665890200e+01 1 0 0
2098 1 1.2045885504794153e+01 7.5684858100084282e+00 2.4244918137958891e+01 0 1 0
3373 1 6.6400921272370392e-02 2.5356025716847608e+00 2.1527776661365468e+01 0 1 0
3657 1 5.9902191611846324e-02 7.4508112565851077e+00 1.8552475032716742e+01 0 0 0
1847 1 8.4258720468690456e+00 1.0886503455388828e+01 1.7107207772660644e+01 1 1 0
553 2 0.0000000000000000e+00 1.4208590124756650e+00 3.0030999999999185e+01 0 0 0
555 2 0.0000000000000000e+00 0.0000000000000000e+00 3.0030999999999185e+01 0 0 0
564 2 1.2305000000000001e+00 2.1312885187134998e+00 3.0030999999999185e+01 0 0 0
566 2 2.4610000000000003e+00 1.4208590124756650e+00 3.0030999999999185e+01 0 0 0
568 2 2.4610000000000003e+00 0.0000000000000000e+00 3.0030999999999185e+01 0 0 0
585 2 3.6914999999999996e+00 2.1312885187134998e+00 3.0030999999999185e+01 0 0 0
562 2 1.2305000000000001e+00 3.5521475311891644e+00 3.0030999999999185e+01 0 0 0
583 2 3.6914999999999996e+00 3.5521475311891644e+00 3.0030999999999185e+01 0 0 0
881 2 0.0000000000000000e+00 2.8417180249513345e+00 3.3170142912929350e+01 0 0 0
882 2 0.0000000000000000e+00 0.0000000000000000e+00 3.3170142912929350e+01 0 0 0
883 2 1.2305000000000001e+00 7.1042950623783474e-01 3.3170142912929350e+01 0 0 0
887 2 1.2305000000000001e+00 2.1312885187134998e+00 3.3170142912929350e+01 0 0 0
888 2 2.4610000000000003e+00 2.8417180249513345e+00 3.3170142912929350e+01 0 0 0
889 2 2.4610000000000003e+00 0.0000000000000000e+00 3.3170142912929350e+01 0 0 0
890 2 3.6915000000000004e+00 7.1042950623783474e-01 3.3170142912929350e+01 0 0 0
898 2 3.6914999999999996e+00 2.1312885187134998e+00 3.3170142912929350e+01 0 0 0
587 2 4.9220000000000006e+00 1.4208590124756650e+00 3.0030999999999185e+01 0 0 0
589 2 4.9220000000000006e+00 0.0000000000000000e+00 3.0030999999999185e+01 0 0 0
614 2 6.1524999999999999e+00 2.1312885187134989e+00 3.0030999999999185e+01 0 0 0
616 2 7.3829999999999991e+00 1.4208590124756659e+00 3.0030999999999185e+01 0 0 0
618 2 7.3829999999999991e+00 0.0000000000000000e+00 3.0030999999999185e+01 0 0 0
612 2 6.1524999999999999e+00 3.5521475311891644e+00 3.0030999999999185e+01 0 0 0
899 2 4.9220000000000006e+00 2.8417180249513332e+00 3.3170142912929350e+01 0 0 0
900 2 4.9220000000000006e+00 0.0000000000000000e+00 3.3170142912929350e+01 0 0 0
901 2 6.1524999999999999e+00 7.1042950623783407e-01 3.3170142912929350e+01 0 0 0
913 2 6.1524999999999999e+00 2.1312885187134989e+00 3.3170142912929350e+01 0 0 0
914 2 7.3829999999999991e+00 2.8417180249513345e+00 3.3170142912929350e+01 0 0 0
915 2 7.3829999999999991e+00 0.0000000000000000e+00 3.3170142912929350e+01 0 0 0
651 2 8.6134999999999984e+00 2.1312885187135002e+00 3.0030999999999185e+01 0 0 0
653 2 9.8440000000000012e+00 1.4208590124756659e+00 3.0030999999999185e+01 0 0 0
655 2 9.8440000000000012e+00 0.0000000000000000e+00 3.0030999999999185e+01 0 0 0
696 2 1.1074500000000002e+01 2.1312885187135002e+00 3.0030999999999185e+01 0 0 0
649 2 8.6134999999999984e+00 3.5521475311891657e+00 3.0030999999999185e+01 0 0 0
694 2 1.1074500000000002e+01 3.5521475311891644e+00 3.0030999999999185e+01 0 0 0
916 2 8.6134999999999984e+00 7.1042950623783407e-01 3.3170142912929350e+01 0 0 0
932 2 8.6134999999999984e+00 2.1312885187135002e+00 3.3170142912929350e+01 0 0 0
933 2 9.8440000000000012e+00 2.8417180249513332e+00 3.3170142912929350e+01 0 0 0
934 2 9.8440000000000012e+00 0.0000000000000000e+00 3.3170142912929350e+01 0 0 0
935 2 1.1074500000000002e+01 7.1042950623783330e-01 3.3170142912929350e+01 0 0 0
955 2 1.1074500000000002e+01 2.1312885187135002e+00 3.3170142912929350e+01 0 0 0
558 2 0.0000000000000000e+00 5.6834360499026637e+00 3.0030999999999185e+01 0 0 0
560 2 0.0000000000000000e+00 4.2625770374269996e+00 3.0030999999999185e+01 0 0 0
577 2 1.2305000000000001e+00 6.3938655561404980e+00 3.0030999999999185e+01 0 0 0
579 2 2.4610000000000003e+00 5.6834360499026637e+00 3.0030999999999185e+01 0 0 0
581 2 2.4610000000000003e+00 4.2625770374269996e+00 3.0030999999999185e+01 0 0 0
606 2 3.6914999999999996e+00 6.3938655561404980e+00 3.0030999999999185e+01 0 0 0
575 2 1.2305000000000001e+00 7.8147245686161639e+00 3.0030999999999185e+01 0 0 0
604 2 3.6914999999999996e+00 7.8147245686161639e+00 3.0030999999999185e+01 0 0 0
885 2 0.0000000000000000e+00 4.2625770374269996e+00 3.3170142912929350e+01 0 0 0
886 2 1.2305000000000001e+00 4.9730065436648339e+00 3.3170142912929350e+01 0 0 0
894 2 1.2305000000000001e+00 6.3938655561404980e+00 3.3170142912929350e+01 0 0 0
896 2 2.4610000000000003e+00 4.2625770374269996e+00 3.3170142912929350e+01 0 0 0
897 2 3.6914999999999996e+00 4.9730065436648339e+00 3.3170142912929350e+01 0 0 0
909 2 3.6914999999999996e+00 6.3938655561404980e+00 3.3170142912929350e+01 0 0 0
884 2 0.0000000000000000e+00 7.1042950623783341e+00 3.3170142912929350e+01 0 0 0
895 2 2.4610000000000003e+00 7.1042950623783341e+00 3.3170142912929350e+01 0 0 0
608 2 4.9220000000000006e+00 5.6834360499026637e+00 3.0030999999999185e+01 0 0 0
610 2 4.9220000000000006e+00 4.2625770374269978e+00 3.0030999999999185e+01 0 0 0
643 2 6.1524999999999999e+00 6.3938655561404980e+00 3.0030999999999185e+01 0 0 0
645 2 7.3829999999999991e+00 5.6834360499026637e+00 3.0030999999999185e+01 0 0 0
647 2 7.3829999999999991e+00 4.2625770374269996e+00 3.0030999999999185e+01 0 0 0
641 2 6.1524999999999999e+00 7.8147245686161639e+00 3.0030999999999185e+01 0 0 0
911 2 4.9220000000000006e+00 4.2625770374269978e+00 3.3170142912929350e+01 0 0 0
912 2 6.1524999999999999e+00 4.9730065436648339e+00 3.3170142912929350e+01 0 0 0
928 2 6.1524999999999999e+00 6.3938655561404980e+00 3.3170142912929350e+01 0 0 0
930 2 7.3829999999999991e+00 4.2625770374269996e+00 3.3170142912929350e+01 0 0 0
910 2 4.9220000000000006e+00 7.1042950623783341e+00 3.3170142912929350e+01 0 0 0
929 2 7.3830000000000009e+00 7.1042950623783341e+00 3.3170142912929350e+01 0 0 0
688 2 8.6135000000000002e+00 6.3938655561404980e+00 3.0030999999999185e+01 0 0 0
690 2 9.8440000000000012e+00 5.6834360499026637e+00 3.0030999999999185e+01 0 0 0
692 2 9.8440000000000012e+00 4.2625770374270004e+00 3.0030999999999185e+01 0 0 0
735 2 1.1074500000000002e+01 6.3938655561404980e+00 3.0030999999999185e+01 0 0 0
686 2 8.6135000000000002e+00 7.8147245686161639e+00 3.0030999999999185e+01 0 0 0
733 2 1.1074500000000002e+01 7.8147245686161639e+00 3.0030999999999185e+01 0 0 0
931 2 8.6135000000000002e+00 4.9730065436648339e+00 3.3170142912929350e+01 0 0 0
951 2 8.6135000000000002e+00 6.3938655561404980e+00 3.3170142912929350e+01 0 0 0
953 2 9.8440000000000012e+00 4.2625770374270004e+00 3.3170142912929350e+01 0 0 0
954 2 1.1074500000000002e+01 4.9730065436648339e+00 3.3170142912929350e+01 0 0 0
975 2 1.1074500000000002e+01 6.3938655561404980e+00 3.3170142912929350e+01 0 0 0
952 2 9.8440000000000012e+00 7.1042950623783341e+00 3.3170142912929350e+01 0 0 0
571 2 0.0000000000000000e+00 9.9460130873296642e+00 3.0030999999999185e+01 0 0 0
573 2 0.0000000000000000e+00 8.5251540748539991e+00 3.0030999999999185e+01 0 0 0
600 2 2.4610000000000003e+00 9.9460130873296642e+00 3.0030999999999185e+01 0 0 0
602 2 2.4610000000000003e+00 8.5251540748539991e+00 3.0030999999999185e+01 0 0 0
596 2 1.2305000000000001e+00 1.2077301606043163e+01 3.0030999999999185e+01 0 0 0
598 2 1.2305000000000001e+00 1.0656442593567498e+01 3.0030999999999185e+01 0 0 0
633 2 3.6914999999999996e+00 1.2077301606043163e+01 3.0030999999999185e+01 0 0 0
635 2 3.6914999999999996e+00 1.0656442593567499e+01 3.0030999999999185e+01 0 0 0
892 2 0.0000000000000000e+00 8.5251540748539991e+00 3.3170142912929350e+01 0 0 0
893 2 1.2305000000000001e+00 9.2355835810918343e+00 3.3170142912929350e+01 0 0 0
907 2 2.4610000000000003e+00 8.5251540748539991e+00 3.3170142912929350e+01 0 0 0
908 2 3.6915000000000004e+00 9.2355835810918343e+00 3.3170142912929350e+01 0 0 0
891 2 0.0000000000000000e+00 1.1366872099805333e+01 3.3170142912929350e+01 0 0 0
905 2 1.2305000000000001e+00 1.0656442593567498e+01 3.3170142912929350e+01 0 0 0
906 2 2.4610000000000003e+00 1.1366872099805333e+01 3.3170142912929350e+01 0 0 0
924 2 3.6914999999999996e+00 1.0656442593567499e+01 3.3170142912929350e+01 0 0 0
637 2 4.9220000000000006e+00 9.9460130873296642e+00 3.0030999999999185e+01 0 0 0
639 2 4.9220000000000006e+00 8.5251540748539991e+00 3.0030999999999185e+01 0 0 0
682 2 7.3830000000000009e+00 9.9460130873296642e+00 3.0030999999999185e+01 0 0 0
684 2 7.3830000000000009e+00 8.5251540748539991e+00 3.0030999999999185e+01 0 0 0
678 2 6.1524999999999999e+00 1.2077301606043163e+01 3.0030999999999185e+01 0 0 0
680 2 6.1524999999999999e+00 1.0656442593567499e+01 3.0030999999999185e+01 0 0 0
926 2 4.9220000000000006e+00 8.5251540748539991e+00 3.3170142912929350e+01 0 0 0
927 2 6.1524999999999999e+00 9.2355835810918343e+00 3.3170142912929350e+01 0 0 0
949 2 7.3830000000000009e+00 8.5251540748539991e+00 3.3170142912929350e+01 0 0 0
925 2 4.9220000000000006e+00 1.1366872099805333e+01 3.3170142912929350e+01 0 0 0
947 2 6.1524999999999999e+00 1.0656442593567499e+01 3.3170142912929350e+01 0 0 0
948 2 7.3829999999999991e+00 1.1366872099805333e+01 3.3170142912929350e+01 0 0 0
729 2 9.8440000000000012e+00 9.9460130873296642e+00 3.0030999999999185e+01 0 0 0
731 2 9.8440000000000012e+00 8.5251540748539956e+00 3.0030999999999185e+01 0 0 0
725 2 8.6135000000000002e+00 1.2077301606043163e+01 3.0030999999999185e+01 0 0 0
727 2 8.6134999999999984e+00 1.0656442593567498e+01 3.0030999999999185e+01 0 0 0
772 2 1.1074500000000002e+01 1.2077301606043163e+01 3.0030999999999185e+01 0 0 0
774 2 1.1074500000000002e+01 1.0656442593567498e+01 3.0030999999999185e+01 0 0 0
950 2 8.6134999999999984e+00 9.2355835810918343e+00 3.3170142912929350e+01 0 0 0
973 2 9.8440000000000012e+00 8.5251540748539956e+00 3.3170142912929350e+01 0 0 0
974 2 1.1074500000000002e+01 9.2355835810918343e+00 3.3170142912929350e+01 0 0 0
971 2 8.6134999999999984e+00 1.0656442593567498e+01 3.3170142912929350e+01 0 0 0
972 2 9.8440000000000012e+00 1.1366872099805333e+01 3.3170142912929350e+01 0 0 0
995 2 1.1074500000000002e+01 1.0656442593567498e+01 3.3170142912929350e+01 0 0 0
996 2 1.2304999999999998e+01 1.1366872099805333e+01 3.3170142912929350e+01 0 0 0
2809 1 5.5764607333558756e+00 3.2307980198522541e+00 3.5590997210984852e+01 0 1 0
3310 1 8.1324959380721218e-01 2.2362590822199624e+00 3.8792346772354129e+01 0 1 -1
4608 1 3.8610921712066175e+00 1.1462723386402938e+00 3.5853848675340991e+01 -2 0 0
2837 1 5.4848643230971774e+00 2.0371568564646245e+00 3.9668278287029757e+01 0 0 0
5318 1 7.8912684468267074e+00 1.9393093457748465e+00 3.6613521269629487e+01 0 1 -1
3580 1 8.2722328519378632e+00 1.5401821981696320e+00 3.9457741175393650e+01 0 0 0
2060 1 9.3597146743191324e+00 4.3095753745716738e+00 3.8483344269985452e+01 0 0 0
1972 1 9.4192723303807462e+00 3.7771746257498737e+00 3.5717183492367752e+01 0 1 -1
5062 1 9.7731747043938846e+00 7.9248836798152613e+00 3.5870591466710813e+01 -1 0 -1
3531 1 1.6958589815363945e+00 3.1699674769029151e+00 4.1624255716752423e+01 1 0 -1
3304 1 4.2378016270409775e+00 4.7177258405241425e+00 3.8483870421431156e+01 1 0 0
1912 1 7.4384617992553159e-01 5.3705534887965012e+00 3.5488328200612187e+01 0 0 -1
4423 1 3.5242083660168904e+00 5.6897781052700180e+00 3.5759266673693055e+01 0 0 0
2802 1 6.3281649312653814e+00 7.7188411686470060e+00 4.0731844132976562e+01 1 0 0
3256 1 7.5126048650519293e+00 6.1801599809248184e+00 3.5721412801555324e+01 0 1 0
3249 1 6.8838896994403624e+00 5.7475832141103469e+00 3.8418443848559534e+01 0 0 -1
2828 1 3.6749830155656835e+00 8.3519079370435581e+00 3.6243229026802389e+01 1 -1 0
1432 1 1.2280837837902041e+01 6.6545265363079222e+00 3.5577412789554415e+01 0 0 -1
1418 1 5.0049749502638452e+00 1.1435966327676240e+01 3.5808373463784207e+01 0 1 -1
3653 1 6.2357786993477013e+00 8.6996395491939289e+00 3.5615387065310017e+01 1 1 0
6023 1 6.3940678235705768e+00 9.4745405912642315e+00 3.8380430444705929e+01 0 0 0
476 1 4.2658310190409381e+00 1.1842157381320163e+01 3.8452759037949100e+01 0 1 0
6292 1 1.0000215620016910e+01 1.0747955709647410e+01 3.5549483070428082e+01 0 1 -1
1822 1 1.0008247020181575e+01 1.0487652579135004e+01 3.9165516080931127e+01 1 0 -1
133 1 3.5400857307556188e-01 6.7632877363251636e+00 3.8310120352595348e+01 -1 0 0
6057 1 1.1685073401357306e+01 6.5307986959048803e+00 3.9115941232630085e+01 -1 1 0
4633 1 2.9601894789321204e+00 6.0130235721866185e+00 4.0257858552754570e+01 0 1 -1
5997 1 1.9105667069519026e+00 1.0559286482646129e+01 3.5464400671581728e+01 1 0 0
5988 1 1.1588430676553227e+00 1.0683699938118174e+01 3.8287006912722795e+01 0 1 0
6130 1 7.7778419222373021e+00 1.1876864510986399e+01 3.9006435398933057e+01 0 1 0
5274 1 1.2021240406492271e+00 2.4449315319202376e+00 3.5831356984454118e+01 1 1 0
2004 1 8.3424265843354970e+00 8.0865337632659227e+00 4.2636463610180286e+01 0 1 0
6013 1 9.5334600346778426e+00 3.5199633032582378e+00 4.1394345359924273e+01 0 0 0
4458 1 3.4415324578007458e+00 8.5627279858293921e+00 3.8866063813170463e+01 1 -1 0
4864 1 4.8536161209959685e+00 6.0432616533848202e+00 4.2522283526455006e+01 0 0 -1
1314 1 4.4756620307687935e+00 9.9358581155716603e+00 4.1487322965742294e+01 0 0 0
3100 1 4.7669217186020649e+00 2.9253098975307728e+00 4.2195073052244702e+01 1 0 -1
3020 1 1.0604579033279597e+01 6.3683241531626660e+00 4.1824680634815564e+01 1 1 0
3252 1 1.5100453070470086e+00 7.2797884486419706e+00 4.3159225308946120e+01 0 0 0
6273 1 1.6127839929974546e+00 9.7024708908658823e+00 4.1285047504073546e+01 0 1 0
2908 1 9.2251513227713833e+00 7.7098474100286758e+00 3.8550609114875925e+01 0 1 0
1434 1 1.0079764982775519e+01 1.0225365208208302e+01 4.2019736103936218e+01 1 0 0
1474 1 3.4230542481269364e+00 5.5661457797052005e-01 3.8501805302803476e+01 0 1 -1
295 1 1.0476555430315242e+01 1.1912021585282098e+00 4.2882907854224108e+01 0 0 -1
3541 1 2.2971728984317169e-01 4.9034489707129820e+00 4.3170246438253031e+01 1 1 0
4874 1 2.6348366117806488e-02 5.8598748318989174e-02 4.8083149231252442e+01 1 0 -1
4728 1 1.6207007999689134e+00 3.8194929258197639e+00 4.5555598589675952e+01 1 1 0
4711 1 2.6250817051258801e+00 1.5544979683841442e+00 4.3951799431365913e+01 -1 1 -1
5008 1 8.9241404541829183e+00 2.2037235157357102e+00 4.7105562661283663e+01 0 1 -1
16 1 6.5745861988021499e+00 2.2658576722870096e+00 4.5603499948487709e+01 0 0 -1
1592 1 3.4523845585624717e+00 5.5314136427700902e+00 4.6400057169072632e+01 0 0 0
2815 1 1.1243561332271037e+01 2.1232277852168209e+00 5.4498310786045735e+01 1 1 -1
3632 1 8.9620230080475931e+00 3.8989061529648433e-01 5.1212668799071359e+01 0 2 0
1282 1 2.8430028628573796e+00 1.0083851978328642e+01 4.5432413119253447e+01 0 0 0
3170 1 1.1199097523848112e+01 4.0783264281638543e+00 4.3953815826955740e+01 1 -1 0
1716 1 6.0207100863989744e+00 4.7116508208739827e+00 4.6811803757585359e+01 0 1 0
1849 1 9.1143295030037752e+00 4.8515601964979984e+00 4.8101368776975825e+01 1 0 0
1965 1 1.0420924160081764e+01 6.0715024576773740e+00 4.5770628129471682e+01 0 0 0
4767 1 1.1035594054222932e+01 8.9316335889084737e+00 4.5705439963616065e+01 1 1 0
1946 1 6.5683823022467944e+00 9.9446195579209640e+00 5.4268992748065742e+01 2 0 0
387 1 1.9641450361211217e+00 1.0934712742621507e+01 5.5029581057897751e+01 0 0 -1
2007 1 7.3826255676522567e+00 1.1625783078909642e+00 5.5470614545363581e+01 0 1 -1
4839 1 1.7721248692566660e+00 1.0134383443165836e+01 4.8096372283763472e+01 0 0 0
3413 1 7.1107525888334315e+00 6.9890422612480219e+00 4.8597711023953238e+01 1 0 -1
3103 1 7.7984679023466770e+00 6.0602514995946528e+00 4.4608466438768332e+01 1 1 0
4594 1 5.1248313840749748e+00 1.1090724477230074e+01 4.7932466149223231e+01 0 1 -1
538 1 6.7656930497933176e+00 9.1194841168970076e+00 4.6663622209422748e+01 1 0 0
376 1 3.8433947622844524e+00 9.8598463745401368e+00 5.0103202907850260e+01 1 0 -1
5142 1 6.1237538248937928e-01 2.8684086710554833e+00 4.8070742129070112e+01 2 1 0