LAMMPS data file via write_data, version 16 Mar 2018, timestep = 8000000

6328 atoms
2 atom types

0.0000000000000000e+00 4.9219999999999999e+01 xlo xhi
0.0000000000000000e+00 4.9019635930410494e+01 ylo yhi
2.0467828526108640e+00 5.8015217147372795e+01 zlo zhi

Masses

1 18.015
2 12.01

Atoms # atomic

3262 1 2.5965631956607926e+00 1.6984924727832782e+00 4.8646987504736305e+00 0 -1 0
538 1 9.0820764914659531e+00 1.1235038324214120e+01 2.2658663070387823e+00 -1 -1 1
1334 1 6.8821907960806286e+00 2.9857326164153730e+00 5.0156259081412564e+00 -4 -4 0
6204 1 6.9614454693641177e+00 2.6819390560668892e+00 2.3646575794892564e+00 4 3 1
4657 1 1.1753680673159222e+01 1.0547662418149198e+01 1.3078903286088119e+01 1 -1 1
5072 1 1.0688075019901106e+01 6.4167606408690423e+00 1.3312394060276304e+01 -1 2 1
6203 1 3.7025927571444606e+00 6.2031059653688425e+00 5.0664034219191141e+00 -4 -4 1
4936 1 3.9571073309279431e-01 1.6502092424115133e-01 8.7449332866875160e+00 2 -1 1
3486 1 8.1000134296337976e+00 6.8822752921335919e+00 4.9029027082281518e+00 1 -1 0
1951 1 4.7277680537815381e-01 9.5043286753727596e+00 2.2947508304102819e+00 -2 5 0
5228 1 1.1282651532102587e+01 4.0113172986926262e+00 4.9258308090168121e+00 0 -1 1
298 1 1.1373431064051296e+01 4.1033236575600558e+00 2.2957823538846958e+00 -3 5 0
4935 1 4.0110727598731305e-01 9.3549068702498825e+00 5.2529030236774492e+00 4 1 0
3267 1 4.8172149333977989e+00 1.0469978549855272e+01 5.1900897458673070e+00 3 -1 1
1943 1 4.9610423667292629e+00 1.0344750892784377e+01 2.4119862637389557e+00 -1 2 0
5129 1 9.1306338983623530e+00 1.1003796683195455e+01 4.8257772635582334e+00 4 4 1
1428 1 6.0593273620973784e+00 5.3729593929539261e+00 1.3226188124513337e+01 -2 -2 1
4864 1 2.8564594823646763e+00 8.2744986576379755e+00 1.3495444893978528e+01 2 -5 0
1906 1 4.9457354560983804e+00 1.1527698553447141e+00 6.0346307229923006e+00 -1 1 0
5140 1 5.0769156361392511e+00 8.1923803500289660e-01 8.6505022366095865e+00 -2 -1 1
6238 1 9.2987026693245411e+00 2.4791445721724052e+00 6.1603017838585581e+00 -2 -1 1
5168 1 9.5057025986172086e+00 1.9310757691555498e+00 8.6972400047798235e+00 4 3 1
51 1 1.6335054508488667e+00 4.1918649372081207e+00 8.7503864821094108e+00 4 -3 1
1998 1 2.0415060436558714e+00 4.1435127809071863e+00 5.9830135205419088e+00 6 6 0
5015 1 6.2149300903925848e+00 5.5807645681983464e+00 6.0488027051435322e+00 0 -1 0
2151 1 6.0627570554840151e+00 5.3838014039076985e+00 8.8940045629709097e+00 6 0 0
3334 1 1.0607354211445138e+01 6.6598116840371846e+00 5.9351869307850533e+00 -3 2 1
4691 1 1.0500815654454602e+01 6.4581442231034210e+00 8.7657236320297613e+00 -2 2 1
262 1 2.9147024170046767e+00 8.5505923904803662e+00 6.0042207599727764e+00 -4 -1 0
4762 1 3.0739756606952904e+00 8.5988352115917834e+00 8.4796956862502579e+00 1 -1 0
6003 1 7.2465377827570396e+00 9.3004897154155124e+00 5.9281947118200655e+00 1 1 0
326 1 7.1726425215197356e+00 9.5470045793499665e+00 8.7819264899239506e+00 -1 -2 1
3629 1 1.1831381217696530e+01 1.0676945878812584e+01 5.9602211168009926e+00 0 -4 1
5236 1 1.1729811233853235e+01 1.0604097080041871e+01 8.6429353346234699e+00 1 -4 0
3178 1 2.3993682482572729e+00 1.6405704758510460e+00 9.7213315954385600e+00 7 1 0
2944 1 2.7570718178698508e+00 1.8106021817223017e+00 1.2580886824114764e+01 1 1 0
76 1 6.8295485262559286e+00 2.5243741407476219e+00 9.6860359386918979e+00 1 1 0
2802 1 7.1066468012233468e+00 2.7707830411987513e+00 1.2387420286573738e+01 1 -4 1
1757 1 1.1074733004281933e+01 3.9221345262227265e+00 9.6206504140261231e+00 -2 4 0
456 1 3.5847171559411075e+00 6.1754786031352928e+00 9.5381245598833608e+00 -2 3 0
6242 1 3.4024881688633464e+00 5.8092429462602508e+00 1.2255853246468904e+01 4 4 1
1436 1 8.2243691245461026e+00 6.8101297775920626e+00 1.2486813120688844e+01 -3 0 1
130 1 8.1087677394912099e+00 7.1015071613160679e+00 9.8324830845418330e+00 0 -2 1
3139 1 1.1211617794011500e+01 3.7509596014876987e+00 1.2481705567930659e+01 1 1 1
2899 1 6.4729255322687895e-01 9.5841024233701315e+00 9.5837157262470480e+00 -7 1 0
1692 1 5.2368149766709060e-01 9.0262247639056614e+00 1.2397582250646037e+01 2 3 0
4791 1 4.6730755850414623e+00 1.0102849244469081e+01 1.2268534377911731e+01 0 -4 0
334 1 4.8167776920547283e+00 1.0082321479370934e+01 9.7461252447325464e+00 3 0 1
3144 1 9.3565892442948524e+00 1.1420330869646161e+01 1.2210278037356263e+01 0 3 1
3300 1 9.2381305748051883e+00 1.1368231513252859e+01 9.4005812359663761e+00 0 0 0
3684 1 7.3917858732211696e+00 9.4694630884874513e+00 1.3188075403445106e+01 -1 0 1
4671 1 1.3154965023186842e+00 4.3775826904853021e+00 1.3157570284160673e+01 -1 -2 1
4840 1 5.1887568157398052e+00 1.0518039447118377e+00 1.3465604307823465e+01 -2 2 1
4711 1 9.6662830828163475e+00 1.9086005591118040e+00 1.3350924185582160e+01 -1 1 0
3557 1 2.7164210471416927e+00 1.5932250520868221e+00 2.1486895840594418e+00 4 -1 0
1331 1 7.2177545121813136e+00 9.7452710594827163e+00 1.5868241695835319e+01 4 3 0
1438 1 8.3900295321699740e+00 7.0523013267491201e+00 2.2154261845139849e+00 1 -2 1
248 1 5.2427569417094977e-01 5.3955253341756004e-01 1.3500332269539904e+01 -1 2 1
4663 1 1.1746245193930314e+01 1.0641039377571238e+01 1.5900636090416322e+01 -1 0 1
42 1 3.8278238727094238e+00 5.9916941257253455e+00 2.3394226186964606e+00 1 0 0
3622 1 6.2787730542137976e-01 2.1715848484020872e-01 6.0507475286096666e+00 5 2 0
233 1 1.4101380370570351e+00 4.4935790590759792e+00 1.5825832812278147e+01 -1 3 0
2903 1 1.0748995484665439e+01 6.5354685695611705e+00 1.5988491575216576e+01 3 -4 1
5258 1 2.4713350619190488e+00 1.8867348420313297e+00 1.7174260742861186e+01 2 -3 1
730 2 9.8440000000000012e+00 8.5251540748539956e+00 2.6691075072675396e+01 0 0 0
3056 1 6.9606888888256488e+00 2.8071091181971974e+00 1.6921253238577052e+01 0 0 1
6172 1 7.2047593787912501e+00 1.3598130751230503e-01 2.0953657641069128e+01 -1 -2 1
6316 1 1.1353660263054980e+01 4.2390378972153240e+00 1.7135266257364535e+01 -3 -1 1
726 2 8.6134999999999984e+00 1.0656442593567498e+01 2.6691075072675396e+01 0 0 0
114 1 3.5160600224339582e+00 5.8128201169325653e+00 1.6978676374979862e+01 1 0 0
4736 1 8.2231232922233559e+00 7.2385006985158329e+00 1.6938451390851110e+01 1 1 1
1662 1 1.1773343108113298e+01 1.3986631359712405e+00 2.0209985727078493e+01 -4 4 0
4579 1 2.5929327319320822e-01 9.1717994203241169e+00 1.7455952349890520e+01 4 -1 0
6222 1 4.7861097260419294e+00 1.0606882964710252e+01 1.7014939309647662e+01 -4 -1 1
6277 1 9.2173343434228876e+00 1.1287059635768479e+01 1.6924560350586233e+01 -2 -4 0
6235 1 2.1722930292648770e+00 2.0354643598103612e+00 1.9795218221235125e+01 3 3 0
728 2 9.8440000000000012e+00 1.1366872099805333e+01 2.6691075072675396e+01 0 0 0
3036 1 4.4295026986507908e+00 3.4242614453456719e+00 2.0685982618088325e+01 0 2 1
3670 1 6.9151824424597850e+00 2.5792804569099079e+00 1.9843059466172782e+01 6 -2 0
3147 1 4.9975101029231848e+00 9.5431398659857036e-01 1.6208389670447414e+01 2 -1 0
1292 1 1.1190962263262518e+01 4.0024483409128235e+00 1.9895644446807221e+01 -2 -2 1
775 2 1.2304999999999998e+01 1.1366872099805333e+01 2.6691075072675396e+01 0 0 0
3052 1 3.4736818504010465e+00 5.9777575466304107e+00 1.9905061560419636e+01 4 -1 1
177 1 9.7243060315015684e-01 6.8999126625044687e+00 2.0921662124479472e+01 0 1 1
5077 1 8.0544905795282329e+00 6.8360870313617683e+00 1.9659771732454249e+01 -2 2 1
3249 1 5.5229524346552168e+00 7.6397631325476549e+00 2.0438861673705222e+01 0 -1 0
153 1 8.7937195546876552e+00 4.4249892662961186e+00 2.0711904405467440e+01 5 2 1
1875 1 2.6683856143166405e+00 1.1084187625472202e+01 2.0936925137421472e+01 2 2 0
4801 1 7.0831389705880010e+00 1.2164538853022423e+01 2.3553203393706696e+01 0 0 0
234 1 4.8717948645795692e+00 1.0202401052720271e+01 1.9735138297049286e+01 4 2 0
3288 1 6.9105419065495202e+00 1.1919542046622309e+01 2.0789868375669737e+01 0 -1 0
1877 1 9.4241527576572821e+00 1.1170660287969634e+01 1.9672314947543384e+01 0 -1 0
6226 1 9.8766449727552121e+00 8.6291100568522516e+00 2.0809555759841476e+01 2 2 1
732 2 1.1074500000000002e+01 9.2355835810918343e+00 2.6691075072675396e+01 0 0 0
4687 1 2.2579632950160957e+00 2.1839454148626816e+00 2.4185919307711966e+01 -1 4 1
773 2 1.1074500000000002e+01 1.0656442593567498e+01 2.6691075072675396e+01 0 0 0
1750 1 4.4252918181894190e+00 3.7164086480538594e+00 2.3313802764120197e+01 -5 2 0
1395 1 6.9965858626764321e+00 2.9773229654134448e+00 2.4244812384950539e+01 2 -1 1
4520 1 1.1314445789642038e+01 3.6425096689661038e+00 2.4386494969318534e+01 -1 3 1
2917 1 5.6961069919266027e-01 9.5608127393929738e+00 2.0216437343269110e+01 0 1 1
97 1 1.3201346504790230e+00 6.9174987182117302e+00 2.3695052700890592e+01 -2 2 1
1251 1 3.7865491851308963e+00 6.0440722976426908e+00 2.4515569688501767e+01 3 -1 0
3140 1 5.7488492479135305e+00 7.8373580270525292e+00 2.3279553215289596e+01 0 1 1
62 1 8.0797542541451133e+00 7.0884095066909607e+00 2.4314646000559200e+01 2 3 0
4725 1 8.9787735034304355e+00 4.5928542324713337e+00 2.3404059807838852e+01 1 5 0
1445 1 2.6366039513236967e+00 1.0908330724364879e+01 2.3713249508147207e+01 3 -1 1
4870 1 6.9123815645103670e-01 9.0950173162406820e+00 2.4497267306040229e+01 0 2 0
336 1 5.2367554083918861e+00 1.0408665511098972e+01 2.4406037426478449e+01 -5 2 0
47 1 9.5435746742875018e+00 2.1862283078017777e+00 1.6080334082253735e+01 2 5 1
335 1 1.0031313614032218e+01 8.9811418459920773e+00 2.3670549170335377e+01 0 6 0
6263 1 9.4102583458441149e+00 1.1448206113423835e+01 2.4428066459316675e+01 3 -1 1
552 2 0.0000000000000000e+00 2.8417180249513345e+00 2.6691075072675396e+01 0 0 0
554 2 0.0000000000000000e+00 0.0000000000000000e+00 2.6691075072675396e+01 0 0 0
556 2 1.2305000000000001e+00 7.1042950623783474e-01 2.6691075072675396e+01 0 0 0
563 2 1.2305000000000001e+00 2.1312885187134998e+00 2.6691075072675396e+01 0 0 0
565 2 2.4610000000000003e+00 2.8417180249513345e+00 2.6691075072675396e+01 0 0 0
567 2 2.4610000000000003e+00 0.0000000000000000e+00 2.6691075072675396e+01 0 0 0
569 2 3.6915000000000004e+00 7.1042950623783474e-01 2.6691075072675396e+01 0 0 0
584 2 3.6914999999999996e+00 2.1312885187134998e+00 2.6691075072675396e+01 0 0 0
586 2 4.9220000000000006e+00 2.8417180249513332e+00 2.6691075072675396e+01 0 0 0
588 2 4.9220000000000006e+00 0.0000000000000000e+00 2.6691075072675396e+01 0 0 0
590 2 6.1524999999999999e+00 7.1042950623783407e-01 2.6691075072675396e+01 0 0 0
613 2 6.1524999999999999e+00 2.1312885187134989e+00 2.6691075072675396e+01 0 0 0
615 2 7.3829999999999991e+00 2.8417180249513345e+00 2.6691075072675396e+01 0 0 0
617 2 7.3829999999999991e+00 0.0000000000000000e+00 2.6691075072675396e+01 0 0 0
619 2 8.6134999999999984e+00 7.1042950623783407e-01 2.6691075072675396e+01 0 0 0
650 2 8.6134999999999984e+00 2.1312885187135002e+00 2.6691075072675396e+01 0 0 0
652 2 9.8440000000000012e+00 2.8417180249513332e+00 2.6691075072675396e+01 0 0 0
654 2 9.8440000000000012e+00 0.0000000000000000e+00 2.6691075072675396e+01 0 0 0
656 2 1.1074500000000002e+01 7.1042950623783330e-01 2.6691075072675396e+01 0 0 0
695 2 1.1074500000000002e+01 2.1312885187135002e+00 2.6691075072675396e+01 0 0 0
559 2 0.0000000000000000e+00 4.2625770374269996e+00 2.6691075072675396e+01 0 0 0
561 2 1.2305000000000001e+00 4.9730065436648339e+00 2.6691075072675396e+01 0 0 0
576 2 1.2305000000000001e+00 6.3938655561404980e+00 2.6691075072675396e+01 0 0 0
580 2 2.4610000000000003e+00 4.2625770374269996e+00 2.6691075072675396e+01 0 0 0
582 2 3.6914999999999996e+00 4.9730065436648339e+00 2.6691075072675396e+01 0 0 0
605 2 3.6914999999999996e+00 6.3938655561404980e+00 2.6691075072675396e+01 0 0 0
557 2 0.0000000000000000e+00 7.1042950623783341e+00 2.6691075072675396e+01 0 0 0
578 2 2.4610000000000003e+00 7.1042950623783341e+00 2.6691075072675396e+01 0 0 0
609 2 4.9220000000000006e+00 4.2625770374269978e+00 2.6691075072675396e+01 0 0 0
611 2 6.1524999999999999e+00 4.9730065436648339e+00 2.6691075072675396e+01 0 0 0
642 2 6.1524999999999999e+00 6.3938655561404980e+00 2.6691075072675396e+01 0 0 0
646 2 7.3829999999999991e+00 4.2625770374269996e+00 2.6691075072675396e+01 0 0 0
607 2 4.9220000000000006e+00 7.1042950623783341e+00 2.6691075072675396e+01 0 0 0
644 2 7.3830000000000009e+00 7.1042950623783341e+00 2.6691075072675396e+01 0 0 0
648 2 8.6135000000000002e+00 4.9730065436648339e+00 2.6691075072675396e+01 0 0 0
687 2 8.6135000000000002e+00 6.3938655561404980e+00 2.6691075072675396e+01 0 0 0
691 2 9.8440000000000012e+00 4.2625770374270004e+00 2.6691075072675396e+01 0 0 0
693 2 1.1074500000000002e+01 4.9730065436648339e+00 2.6691075072675396e+01 0 0 0
734 2 1.1074500000000002e+01 6.3938655561404980e+00 2.6691075072675396e+01 0 0 0
689 2 9.8440000000000012e+00 7.1042950623783341e+00 2.6691075072675396e+01 0 0 0
603 2 3.6915000000000004e+00 9.2355835810918343e+00 2.6691075072675396e+01 0 0 0
597 2 1.2305000000000001e+00 1.0656442593567498e+01 2.6691075072675396e+01 0 0 0
599 2 2.4610000000000003e+00 1.1366872099805333e+01 2.6691075072675396e+01 0 0 0
572 2 0.0000000000000000e+00 8.5251540748539991e+00 2.6691075072675396e+01 0 0 0
634 2 3.6914999999999996e+00 1.0656442593567499e+01 2.6691075072675396e+01 0 0 0
601 2 2.4610000000000003e+00 8.5251540748539991e+00 2.6691075072675396e+01 0 0 0
574 2 1.2305000000000001e+00 9.2355835810918343e+00 2.6691075072675396e+01 0 0 0
570 2 0.0000000000000000e+00 1.1366872099805333e+01 2.6691075072675396e+01 0 0 0
681 2 7.3829999999999991e+00 1.1366872099805333e+01 2.6691075072675396e+01 0 0 0
683 2 7.3830000000000009e+00 8.5251540748539991e+00 2.6691075072675396e+01 0 0 0
640 2 6.1524999999999999e+00 9.2355835810918343e+00 2.6691075072675396e+01 0 0 0
679 2 6.1524999999999999e+00 1.0656442593567499e+01 2.6691075072675396e+01 0 0 0
636 2 4.9220000000000006e+00 1.1366872099805333e+01 2.6691075072675396e+01 0 0 0
638 2 4.9220000000000006e+00 8.5251540748539991e+00 2.6691075072675396e+01 0 0 0
685 2 8.6134999999999984e+00 9.2355835810918343e+00 2.6691075072675396e+01 0 0 0
2882 1 1.1828779620669300e+01 1.3251609745671533e+00 2.2891499728547281e+01 1 1 1
478 1 2.7775748412902619e+00 8.5856818509069885e+00 1.6400916540763625e+01 0 5 1
3029 1 7.3528937422242659e+00 3.3740221896539685e-01 2.3770334142463362e+01 -2 2 0
3639 1 2.5230684732201869e-01 5.7208354479281498e-01 1.6220694397024488e+01 7 2 1
2798 1 6.2266694878786568e+00 5.4081041926247426e+00 1.6040610339351204e+01 2 1 1
553 2 0.0000000000000000e+00 1.4208590124756650e+00 3.0030999999991892e+01 0 0 0
555 2 0.0000000000000000e+00 0.0000000000000000e+00 3.0030999999991892e+01 0 0 0
564 2 1.2305000000000001e+00 2.1312885187134998e+00 3.0030999999991892e+01 0 0 0
566 2 2.4610000000000003e+00 1.4208590124756650e+00 3.0030999999991892e+01 0 0 0
568 2 2.4610000000000003e+00 0.0000000000000000e+00 3.0030999999991892e+01 0 0 0
585 2 3.6914999999999996e+00 2.1312885187134998e+00 3.0030999999991892e+01 0 0 0
562 2 1.2305000000000001e+00 3.5521475311891644e+00 3.0030999999991892e+01 0 0 0
583 2 3.6914999999999996e+00 3.5521475311891644e+00 3.0030999999991892e+01 0 0 0
881 2 0.0000000000000000e+00 2.8417180249513345e+00 3.3370924927346593e+01 0 0 0
882 2 0.0000000000000000e+00 0.0000000000000000e+00 3.3370924927346593e+01 0 0 0
883 2 1.2305000000000001e+00 7.1042950623783474e-01 3.3370924927346593e+01 0 0 0
887 2 1.2305000000000001e+00 2.1312885187134998e+00 3.3370924927346593e+01 0 0 0
888 2 2.4610000000000003e+00 2.8417180249513345e+00 3.3370924927346593e+01 0 0 0
889 2 2.4610000000000003e+00 0.0000000000000000e+00 3.3370924927346593e+01 0 0 0
890 2 3.6915000000000004e+00 7.1042950623783474e-01 3.3370924927346593e+01 0 0 0
898 2 3.6914999999999996e+00 2.1312885187134998e+00 3.3370924927346593e+01 0 0 0
587 2 4.9220000000000006e+00 1.4208590124756650e+00 3.0030999999991892e+01 0 0 0
589 2 4.9220000000000006e+00 0.0000000000000000e+00 3.0030999999991892e+01 0 0 0
614 2 6.1524999999999999e+00 2.1312885187134989e+00 3.0030999999991892e+01 0 0 0
616 2 7.3829999999999991e+00 1.4208590124756659e+00 3.0030999999991892e+01 0 0 0
618 2 7.3829999999999991e+00 0.0000000000000000e+00 3.0030999999991892e+01 0 0 0
612 2 6.1524999999999999e+00 3.5521475311891644e+00 3.0030999999991892e+01 0 0 0
899 2 4.9220000000000006e+00 2.8417180249513332e+00 3.3370924927346593e+01 0 0 0
900 2 4.9220000000000006e+00 0.0000000000000000e+00 3.3370924927346593e+01 0 0 0
901 2 6.1524999999999999e+00 7.1042950623783407e-01 3.3370924927346593e+01 0 0 0
913 2 6.1524999999999999e+00 2.1312885187134989e+00 3.3370924927346593e+01 0 0 0
914 2 7.3829999999999991e+00 2.8417180249513345e+00 3.3370924927346593e+01 0 0 0
915 2 7.3829999999999991e+00 0.0000000000000000e+00 3.3370924927346593e+01 0 0 0
651 2 8.6134999999999984e+00 2.1312885187135002e+00 3.0030999999991892e+01 0 0 0
653 2 9.8440000000000012e+00 1.4208590124756659e+00 3.0030999999991892e+01 0 0 0
655 2 9.8440000000000012e+00 0.0000000000000000e+00 3.0030999999991892e+01 0 0 0
696 2 1.1074500000000002e+01 2.1312885187135002e+00 3.0030999999991892e+01 0 0 0
649 2 8.6134999999999984e+00 3.5521475311891657e+00 3.0030999999991892e+01 0 0 0
694 2 1.1074500000000002e+01 3.5521475311891644e+00 3.0030999999991892e+01 0 0 0
916 2 8.6134999999999984e+00 7.1042950623783407e-01 3.3370924927346593e+01 0 0 0
932 2 8.6134999999999984e+00 2.1312885187135002e+00 3.3370924927346593e+01 0 0 0
933 2 9.8440000000000012e+00 2.8417180249513332e+00 3.3370924927346593e+01 0 0 0
934 2 9.8440000000000012e+00 0.0000000000000000e+00 3.3370924927346593e+01 0 0 0
935 2 1.1074500000000002e+01 7.1042950623783330e-01 3.3370924927346593e+01 0 0 0
955 2 1.1074500000000002e+01 2.1312885187135002e+00 3.3370924927346593e+01 0 0 0
558 2 0.0000000000000000e+00 5.6834360499026637e+00 3.0030999999991892e+01 0 0 0
560 2 0.0000000000000000e+00 4.2625770374269996e+00 3.0030999999991892e+01 0 0 0
577 2 1.2305000000000001e+00 6.3938655561404980e+00 3.0030999999991892e+01 0 0 0
579 2 2.4610000000000003e+00 5.6834360499026637e+00 3.0030999999991892e+01 0 0 0
581 2 2.4610000000000003e+00 4.2625770374269996e+00 3.0030999999991892e+01 0 0 0
606 2 3.6914999999999996e+00 6.3938655561404980e+00 3.0030999999991892e+01 0 0 0
575 2 1.2305000000000001e+00 7.8147245686161639e+00 3.0030999999991892e+01 0 0 0
604 2 3.6914999999999996e+00 7.8147245686161639e+00 3.0030999999991892e+01 0 0 0
885 2 0.0000000000000000e+00 4.2625770374269996e+00 3.3370924927346593e+01 0 0 0
886 2 1.2305000000000001e+00 4.9730065436648339e+00 3.3370924927346593e+01 0 0 0
894 2 1.2305000000000001e+00 6.3938655561404980e+00 3.3370924927346593e+01 0 0 0
896 2 2.4610000000000003e+00 4.2625770374269996e+00 3.3370924927346593e+01 0 0 0
897 2 3.6914999999999996e+00 4.9730065436648339e+00 3.3370924927346593e+01 0 0 0
909 2 3.6914999999999996e+00 6.3938655561404980e+00 3.3370924927346593e+01 0 0 0
884 2 0.0000000000000000e+00 7.1042950623783341e+00 3.3370924927346593e+01 0 0 0
895 2 2.4610000000000003e+00 7.1042950623783341e+00 3.3370924927346593e+01 0 0 0
608 2 4.9220000000000006e+00 5.6834360499026637e+00 3.0030999999991892e+01 0 0 0
610 2 4.9220000000000006e+00 4.2625770374269978e+00 3.0030999999991892e+01 0 0 0
643 2 6.1524999999999999e+00 6.3938655561404980e+00 3.0030999999991892e+01 0 0 0
645 2 7.3829999999999991e+00 5.6834360499026637e+00 3.0030999999991892e+01 0 0 0
647 2 7.3829999999999991e+00 4.2625770374269996e+00 3.0030999999991892e+01 0 0 0
641 2 6.1524999999999999e+00 7.8147245686161639e+00 3.0030999999991892e+01 0 0 0
911 2 4.9220000000000006e+00 4.2625770374269978e+00 3.3370924927346593e+01 0 0 0
912 2 6.1524999999999999e+00 4.9730065436648339e+00 3.3370924927346593e+01 0 0 0
928 2 6.1524999999999999e+00 6.3938655561404980e+00 3.3370924927346593e+01 0 0 0
930 2 7.3829999999999991e+00 4.2625770374269996e+00 3.3370924927346593e+01 0 0 0
910 2 4.9220000000000006e+00 7.1042950623783341e+00 3.3370924927346593e+01 0 0 0
929 2 7.3830000000000009e+00 7.1042950623783341e+00 3.3370924927346593e+01 0 0 0
688 2 8.6135000000000002e+00 6.3938655561404980e+00 3.0030999999991892e+01 0 0 0
690 2 9.8440000000000012e+00 5.6834360499026637e+00 3.0030999999991892e+01 0 0 0
692 2 9.8440000000000012e+00 4.2625770374270004e+00 3.0030999999991892e+01 0 0 0
735 2 1.1074500000000002e+01 6.3938655561404980e+00 3.0030999999991892e+01 0 0 0
686 2 8.6135000000000002e+00 7.8147245686161639e+00 3.0030999999991892e+01 0 0 0
733 2 1.1074500000000002e+01 7.8147245686161639e+00 3.0030999999991892e+01 0 0 0
931 2 8.6135000000000002e+00 4.9730065436648339e+00 3.3370924927346593e+01 0 0 0
951 2 8.6135000000000002e+00 6.3938655561404980e+00 3.3370924927346593e+01 0 0 0
953 2 9.8440000000000012e+00 4.2625770374270004e+00 3.3370924927346593e+01 0 0 0
954 2 1.1074500000000002e+01 4.9730065436648339e+00 3.3370924927346593e+01 0 0 0
975 2 1.1074500000000002e+01 6.3938655561404980e+00 3.3370924927346593e+01 0 0 0
952 2 9.8440000000000012e+00 7.1042950623783341e+00 3.3370924927346593e+01 0 0 0
571 2 0.0000000000000000e+00 9.9460130873296642e+00 3.0030999999991892e+01 0 0 0
573 2 0.0000000000000000e+00 8.5251540748539991e+00 3.0030999999991892e+01 0 0 0
600 2 2.4610000000000003e+00 9.9460130873296642e+00 3.0030999999991892e+01 0 0 0
602 2 2.4610000000000003e+00 8.5251540748539991e+00 3.0030999999991892e+01 0 0 0
596 2 1.2305000000000001e+00 1.2077301606043163e+01 3.0030999999991892e+01 0 0 0
598 2 1.2305000000000001e+00 1.0656442593567498e+01 3.0030999999991892e+01 0 0 0
633 2 3.6914999999999996e+00 1.2077301606043163e+01 3.0030999999991892e+01 0 0 0
635 2 3.6914999999999996e+00 1.0656442593567499e+01 3.0030999999991892e+01 0 0 0
892 2 0.0000000000000000e+00 8.5251540748539991e+00 3.3370924927346593e+01 0 0 0
893 2 1.2305000000000001e+00 9.2355835810918343e+00 3.3370924927346593e+01 0 0 0
907 2 2.4610000000000003e+00 8.5251540748539991e+00 3.3370924927346593e+01 0 0 0
908 2 3.6915000000000004e+00 9.2355835810918343e+00 3.3370924927346593e+01 0 0 0
891 2 0.0000000000000000e+00 1.1366872099805333e+01 3.3370924927346593e+01 0 0 0
905 2 1.2305000000000001e+00 1.0656442593567498e+01 3.3370924927346593e+01 0 0 0
906 2 2.4610000000000003e+00 1.1366872099805333e+01 3.3370924927346593e+01 0 0 0
924 2 3.6914999999999996e+00 1.0656442593567499e+01 3.3370924927346593e+01 0 0 0
637 2 4.9220000000000006e+00 9.9460130873296642e+00 3.0030999999991892e+01 0 0 0
639 2 4.9220000000000006e+00 8.5251540748539991e+00 3.0030999999991892e+01 0 0 0
682 2 7.3830000000000009e+00 9.9460130873296642e+00 3.0030999999991892e+01 0 0 0
684 2 7.3830000000000009e+00 8.5251540748539991e+00 3.0030999999991892e+01 0 0 0
678 2 6.1524999999999999e+00 1.2077301606043163e+01 3.0030999999991892e+01 0 0 0
680 2 6.1524999999999999e+00 1.0656442593567499e+01 3.0030999999991892e+01 0 0 0
926 2 4.9220000000000006e+00 8.5251540748539991e+00 3.3370924927346593e+01 0 0 0
927 2 6.1524999999999999e+00 9.2355835810918343e+00 3.3370924927346593e+01 0 0 0
949 2 7.3830000000000009e+00 8.5251540748539991e+00 3.3370924927346593e+01 0 0 0
925 2 4.9220000000000006e+00 1.1366872099805333e+01 3.3370924927346593e+01 0 0 0
947 2 6.1524999999999999e+00 1.0656442593567499e+01 3.3370924927346593e+01 0 0 0
948 2 7.3829999999999991e+00 1.1366872099805333e+01 3.3370924927346593e+01 0 0 0
729 2 9.8440000000000012e+00 9.9460130873296642e+00 3.0030999999991892e+01 0 0 0
731 2 9.8440000000000012e+00 8.5251540748539956e+00 3.0030999999991892e+01 0 0 0
725 2 8.6135000000000002e+00 1.2077301606043163e+01 3.0030999999991892e+01 0 0 0
727 2 8.6134999999999984e+00 1.0656442593567498e+01 3.0030999999991892e+01 0 0 0
772 2 1.1074500000000002e+01 1.2077301606043163e+01 3.0030999999991892e+01 0 0 0
774 2 1.1074500000000002e+01 1.0656442593567498e+01 3.0030999999991892e+01 0 0 0
950 2 8.6134999999999984e+00 9.2355835810918343e+00 3.3370924927346593e+01 0 0 0
973 2 9.8440000000000012e+00 8.5251540748539956e+00 3.3370924927346593e+01 0 0 0
974 2 1.1074500000000002e+01 9.2355835810918343e+00 3.3370924927346593e+01 0 0 0
971 2 8.6134999999999984e+00 1.0656442593567498e+01 3.3370924927346593e+01 0 0 0
972 2 9.8440000000000012e+00 1.1366872099805333e+01 3.3370924927346593e+01 0 0 0
995 2 1.1074500000000002e+01 1.0656442593567498e+01 3.3370924927346593e+01 0 0 0
996 2 1.2304999999999998e+01 1.1366872099805333e+01 3.3370924927346593e+01 0 0 0
5070 1 2.6784160476170453e+00 1.7326473622228862e+00 3.6755572140007160e+01 2 1 0
6230 1 9.1361380869753059e+00 1.2120728299552358e+01 3.6579757157412487e+01 0 -3 0
126 1 4.6351068831829672e+00 3.5634361524501363e+00 3.5693152314123296e+01 -3 4 -1
3313 1 6.9501214083854208e+00 2.6715031423492168e+00 3.6796920826798925e+01 -3 -3 -1
4437 1 1.2053496722258181e+01 8.0681452604072597e+00 3.6605554844200256e+01 -1 -4 0
1920 1 1.1281610799569709e+01 3.8449631015507397e+00 3.6249797366963591e+01 1 1 0
115 1 3.7184138969622582e-01 9.0309476382772669e+00 3.9207454960479325e+01 -2 -1 -1
4708 1 1.1354481139487900e+00 6.5825662976623596e+00 3.6124455925378513e+01 0 1 -1
5136 1 3.7970479487166986e+00 6.0148610915990179e+00 3.6459078531236244e+01 1 -3 0
5980 1 5.5748916638065822e+00 8.1778518903482329e+00 3.6239503553841800e+01 1 1 -1
323 1 8.0455206698202719e+00 7.0869576394686034e+00 3.6488534504440480e+01 1 2 0
2931 1 8.7933365076269414e+00 4.5980758430892692e+00 3.6270400669051540e+01 0 0 0
4815 1 1.0072685932166079e+01 9.1323168614237389e+00 4.2403624329319939e+01 -2 2 -1
1784 1 2.3016173504856137e+00 1.1351425261888933e+01 3.6125352967801419e+01 1 -1 -1
4508 1 1.1980385782218590e+01 1.2449737249556057e+00 3.5714309558060592e+01 -5 0 -1
6206 1 5.1814105239213264e+00 1.0705077016717714e+01 3.6382306814864222e+01 3 -2 0
406 1 9.7976392011647722e+00 9.1829336516793241e+00 3.5981199893385494e+01 3 1 -1
4852 1 6.3119185462868321e+00 5.4205452074525926e+00 4.3847510126581327e+01 -1 1 0
3361 1 2.9192459108345545e+00 1.5934901101923709e+00 3.9445788446336252e+01 -1 1 -1
1855 1 7.7426167500704883e+00 4.7438267220038272e-01 4.2872029288679869e+01 -3 -2 -1
3257 1 4.5597008818590874e+00 3.9070594104510716e+00 4.0229420521988516e+01 0 0 0
2000 1 6.9159254775046985e+00 2.6104619295048641e+00 3.9552873138621493e+01 0 3 -1
32 1 1.1911653351523512e+01 1.1103288103143944e+01 4.3701301752773190e+01 0 1 -1
3362 1 5.1162791545591242e+00 1.0248064453769437e+00 4.3563410809067591e+01 -1 4 -1
2954 1 1.1249300669503539e+01 3.8578648296579372e+00 3.9017883227203143e+01 -2 3 0
4440 1 3.6789708590936150e+00 6.1805106223962198e+00 3.9152411210884935e+01 3 -1 0
306 1 1.1404626190154281e+00 6.6335579865225682e+00 3.9912490604193025e+01 1 2 -1
3376 1 5.5353652917196028e+00 8.0804228282332211e+00 4.0069393269858139e+01 2 2 0
4594 1 7.9430055544702229e+00 7.0876822094904544e+00 3.9257718561129991e+01 3 1 -1
6292 1 8.8027292886450237e+00 4.7229022624015728e+00 4.0152280400580011e+01 -3 2 -1
6212 1 2.1731481834564188e+00 1.1040372684895260e+01 3.9620461786704197e+01 3 3 0
394 1 7.5827729718348973e+00 4.4464265096696715e-01 3.5719641687596607e+01 3 -3 -1
5013 1 4.6730352764229988e+00 1.0395540250095431e+01 3.9044456281755842e+01 1 -2 -1
4892 1 1.0214648382319956e+01 8.9963187580403492e+00 3.9884611484290318e+01 3 3 -1
1589 1 9.1764321862506222e+00 1.1620466056195816e+01 3.9175583212168263e+01 -8 -4 0
5271 1 2.3451759061009958e+00 1.1277952898811920e+01 4.2359265380433641e+01 -1 -2 0
1968 1 2.9236979682937982e+00 8.6620708384284644e+00 4.3211644197745997e+01 0 1 -1
3264 1 1.2175791635239106e+01 1.5407512236921939e+00 4.2724516975297803e+01 -2 -4 0
3689 1 4.4219020663202055e+00 3.7312607741826409e+00 4.3123645245788765e+01 -4 4 -1
5296 1 7.5780710006247149e+00 9.8990530291874812e+00 4.3431743989032341e+01 3 -2 0
1476 1 9.5608208200705924e+00 2.3344669136725718e+00 4.3555794381029628e+01 -1 1 0
3142 1 1.1971107851555541e+01 1.5110532909553058e+00 4.0086398175365147e+01 -1 4 -1
4842 1 1.1982986484886569e+00 6.7712656438578831e+00 4.2716717378214440e+01 -1 -3 -1
1696 1 4.1917444876045207e-01 9.1636310878333180e+00 3.6387471260683554e+01 2 -3 -1
84 1 5.5310164430025877e+00 8.0943997614109939e+00 4.2839126182503080e+01 -1 -1 -1
350 1 8.8868311754021878e+00 4.8687653462684946e+00 4.2889332443494283e+01 3 1 -1
4796 1 1.7065618558031805e+00 4.2754768942673902e+00 4.3703211808463394e+01 -1 0 0
3212 1 8.8820448603410124e-02 2.3109027214242008e+00 3.5648816263114682e+01 2 2 -1
3143 1 1.2627672909017221e-01 2.5535292128576397e+00 4.0059326105526566e+01 2 -2 -1
1330 1 1.0698020040075725e+01 6.8295398962663150e+00 4.3467205121017784e+01 1 1 0
2829 1 2.5532682280037500e-01 2.1007022159762188e+00 4.2749843193312316e+01 -1 -1 0
1996 1 6.5710894405815772e+00 1.2226259586089274e+01 3.9829031637637897e+01 -1 -4 -1
2018 1 7.6317504164176704e+00 7.2768231824085206e-03 4.0110363758223301e+01 1 1 -1
3231 1 2.6809009429178552e+00 1.8416525917936870e+00 4.7136198252758390e+01 -4 -2 0
2884 1 5.1655672372643346e+00 1.2903209559776323e+00 4.6216526791666027e+01 -3 4 0
4635 1 7.0718723333116644e+00 3.3250364606222576e+00 4.7093815600417415e+01 1 3 -1
229 1 9.6078500549932926e+00 2.3429751013602935e+00 4.6312850566752402e+01 -3 0 -1
3539 1 1.1286423205398199e+01 4.2794031831805492e+00 4.7317367272985280e+01 3 2 -1
213 1 1.9507108412608396e+00 4.5561586030198145e+00 4.6386908335890510e+01 2 0 -1
4780 1 3.7350095197606747e+00 6.3871202388137132e+00 4.7134301412454704e+01 -1 0 0
3722 1 6.2112301814758553e+00 5.7370934705064807e+00 4.6439123941552069e+01 0 2 -1
1267 1 8.2475707638122078e+00 7.4563892329654236e+00 4.7228903319814222e+01 -2 -3 0
146 1 1.0809574332382617e+01 6.6545232030785550e+00 4.6223696650560228e+01 0 0 -1
1572 1 2.9639608948298815e+00 9.0187491101237338e+00 4.6235157252594860e+01 1 5 0
3473 1 7.3637209942652371e+00 9.9259134142053984e+00 4.6311857921771278e+01 4 -2 -1
1463 1 4.7164524667292183e+00 1.0956835273718308e+01 4.7207559718597082e+01 0 0 0
4985 1 1.1859830092002758e+01 1.0899719602276686e+01 4.6314872587323293e+01 1 -2 -1
1853 1 9.2709635574390408e+00 1.1829420223616733e+01 4.7041410344211172e+01 3 -4 0
4888 1 2.8389465895063299e+00 1.6970832742495070e+00 4.9922433365674138e+01 2 -2 0
4529 1 7.0336873171102150e+00 3.0283510101874334e+00 4.9816747268314955e+01 -2 4 0