LAMMPS data file via write_data, version 29 Oct 2020, timestep = 100000

6736 atoms
2 atom types

0.2974926022088198 48.922507397789005 xlo xhi
0.2962815735931059 48.723354356817566 ylo yhi
0.32363835778183514 59.73836164221861 zlo zhi

Masses

1 18.015
2 12.01

Atoms # atomic

893 1 2.525400434751124 1.353473902431488 2.0604938305231273 0 1 1
5495 1 0.9929042265797968 20.42081562925618 5.316930646316958 -1 2 0
2767 1 7.343334138563616 1.9543563929111847 1.176179984513197 0 1 1
1724 1 5.102004715613335 2.4822223510505554 2.808231424065661 1 0 0
1247 1 21.122394351593677 24.115143563237883 13.17981650678368 1 -1 1
2067 1 11.239449715470423 3.426540761567582 3.635354443049503 1 0 0
2736 1 5.775122284225713 0.4928709760618693 9.659260930162093 -1 0 1
5955 1 10.82039258552502 5.64093279418441 2.056750944032313 0 1 1
2152 1 24.56547410986011 1.5710704249431302 9.121885238263864 0 1 0
3465 1 20.59453433667633 23.67988170605685 8.351488669570486 1 1 0
280 1 16.52267656241911 1.2501893550103642 2.6238370636535677 0 1 0
3612 1 1.0510146423026427 13.355192372974178 20.330295377455634 1 1 0
6137 1 19.46373940567292 1.3869483601571175 2.204396537915402 0 0 1
4358 1 20.298580344275596 3.247814051600349 3.5706168288372346 -2 1 1
434 1 24.349591785726396 17.95974166299226 12.254046458528437 -1 0 0
4536 1 0.7790179388640042 17.43078824306599 21.0397554372078 0 -2 1
4389 1 4.1389314476691315 6.150683176171739 2.456714396466201 0 1 1
283 1 8.535376263049482 4.454897268590828 0.5450805661284386 0 0 0
3669 1 12.472971426964119 7.963417703380439 2.8137210139399094 2 0 0
26 1 11.158467332892952 1.82601746753839 21.35202866053426 1 0 0
1871 1 18.546358611266143 6.002565022505451 4.945886994995414 0 0 1
3437 1 19.483071400753417 7.983118514543371 2.905782567912252 0 0 0
61 1 22.76582019809772 4.000279410005117 13.850998684945692 0 0 0
6288 1 7.122874497274733 4.68999856136324 2.9962858977134927 0 1 0
5157 1 23.663292669277446 6.148637631962274 2.2289362686533085 1 1 0
1037 1 2.350730943982716 12.397889660462498 3.113904445514308 1 0 1
5347 1 19.985850286467812 12.893082885485315 1.2217408150491573 0 0 0
6141 1 7.333546878392215 13.72210791122654 1.6435764951585692 0 0 1
5471 1 8.600570057993846 7.377291960416704 2.5160646865266734 0 0 0
2479 1 7.763519405225672 11.093954228645241 3.1084932119934336 -1 1 0
2502 1 19.126760133302867 0.68069465928569 20.85675924394561 0 -1 0
5816 1 13.584646734304313 13.087204118943728 2.394947455191288 0 0 1
5983 1 13.930875806280481 10.14692473559591 1.1059254085999692 1 1 1
2819 1 16.55103331305561 8.135180675700447 3.210109672969967 1 1 1
1082 1 17.099457551639958 10.853003495146302 3.225937122214103 -1 0 0
5981 1 7.494787212288329 1.8534314343152234 16.960762042948627 0 -1 1
383 1 20.43108636614793 9.891259845104647 4.510505082894295 0 -1 0
19 1 22.02678157240299 9.98694348210211 2.0287409264681395 -1 -1 0
195 1 3.635856720797218 15.753970054610406 2.6737856418590162 0 0 1
4510 1 8.006082011959407 17.464259539565504 2.3631174231588 1 -1 1
3600 1 5.947965043750584 16.730279957989 3.85688185648116 0 1 0
6230 1 14.276247931428133 16.877790960166585 4.825356526107119 0 -1 1
898 1 9.694545400757237 15.320066934343313 2.3295932361853895 -1 1 1
433 1 5.900597453990947 10.940013965382683 0.9405407754565976 1 1 1
5144 1 14.629025658074791 15.391256338415792 1.450561398009667 0 0 0
6256 1 22.656068226354808 13.170498690471604 1.2268998231899828 1 -1 1
2756 1 21.59386270878692 14.411929490195012 5.731769567985373 0 0 1
4445 1 2.056710200508077 17.840317474934338 2.4056298462208296 1 1 1
1019 1 3.5639804376787536 19.56352565937809 3.989574611786669 1 0 1
4548 1 3.5989415265792717 6.794219655574126 7.793779280589092 1 -1 1
2712 1 4.438061752384285 14.09460472151749 0.9384442861556737 0 0 1
5573 1 8.562460443461443 19.91947393544033 3.36802388435237 0 1 0
5149 1 12.195939654523693 19.250131634227323 2.1757681110148637 0 -1 0
6091 1 9.770495417375919 20.377553856828108 1.1635961198789393 -1 1 1
3512 1 10.158654075167567 19.409174166915857 5.621677685865525 2 0 1
6248 1 14.632949269179798 20.873570296442114 4.542095105439853 1 0 1
4393 1 0.7422156796827206 24.157026436321505 19.00741055855586 0 -1 1
4241 1 16.35124525168917 19.487262248113307 2.959739585522767 0 -1 1
946 1 16.419337699891145 16.824708266804578 2.944027029526195 1 0 1
5233 1 20.493363350301593 18.53436448967744 2.2734408985816397 0 0 0
5867 1 23.92189474523251 16.043970984194715 2.6851746451138196 0 0 1
1839 1 24.448698833718044 7.22405978159624 21.196575504021016 0 1 1
2882 1 22.96471210663908 2.773692245511256 2.7515241030150768 -1 -1 1
1801 1 3.5708112057412604 22.457819928568316 3.5148599012644026 1 1 0
5405 1 15.070348119438338 5.13132825280143 0.6505944816246765 1 0 0
3421 1 6.009404470740629 20.97828220329931 2.352787741876069 1 0 0
5210 1 4.611313778794709 1.2474780937221763 17.414468077895673 -1 0 0
2041 1 7.985227311637537 22.999934019408144 4.467189297561943 1 -1 0
3502 1 1.708257414180743 3.2771079644951 20.600963819288328 2 -1 0
2583 1 17.177602997893025 23.843142662222924 6.1383325564135784 0 0 1
4120 1 11.178903729731763 22.80637734083876 2.094643122672948 1 -1 0
203 1 23.800324732232504 22.727448514655862 21.22328330641467 -1 1 0
1905 1 13.170211572052875 22.848079368530847 3.8324097548171263 0 1 0
5195 1 18.766574966665484 20.618017801817047 3.4728753833676667 0 -1 0
4367 1 17.664704522227545 23.461625689565384 3.6677672527238134 1 1 1
6136 1 23.56073267627938 20.9583959049948 2.5242420265217147 0 0 0
1755 1 1.891351052713675 1.7346637802064495 9.274173878285653 0 -1 0
384 1 23.409100316600245 4.923685319351231 24.14050642267462 -1 0 0
760 1 1.9699467562187192 6.580245663980754 10.231505135480775 0 -1 1
775 1 4.0642293639680105 4.768355801476279 4.85474317954018 0 0 1
1981 1 7.781353703148425 1.5585111723156209 6.176073335107136 0 2 0
329 1 22.025550240148974 24.17647831840136 15.94425989360794 0 1 0
2759 1 14.512812326776695 3.7534420611220654 5.287663601243388 0 0 1
4487 1 13.33262747670185 0.51856921965226 2.472738748089021 2 0 1
5540 1 0.4800167226037815 2.513073709483345 16.8317127871668 2 2 0
6296 1 17.506290228273595 2.7558537882075096 4.827262018084833 0 1 1
3806 1 23.52281400027428 9.786907589956911 21.431637206179843 -1 0 0
2456 1 14.977179342941069 1.3007733480234331 8.62985453723005 0 -1 0
840 1 20.98382176257036 5.267893816292486 7.166927963954815 0 1 0
2442 1 3.4536936624773156 2.297959247610136 6.752754221765116 1 0 1
3661 1 4.722117524623175 8.851287527192667 2.7070697517904074 0 1 0
4447 1 5.842179670753265 5.4341344149358894 6.798096937111487 1 -2 1
1194 1 8.548432715895485 5.721240075762205 6.943232198207427 1 -1 1
2083 1 9.074038737808706 3.79815790091919 5.30831841636828 1 0 0
5420 1 10.512422964856805 7.335055253002647 6.940006226399143 0 2 0
2616 1 10.893204820231292 3.198175351388654 7.526434423522698 0 0 1
125 1 12.246805540186445 5.560074363827054 7.352310656375158 0 0 1
4484 1 14.205746872347532 3.448023754623505 2.558661966106726 0 2 1
1053 1 16.373200729172996 5.474994700074142 6.667067938148286 -1 1 1
2793 1 18.8813979805508 7.177713587447689 12.524589852905477 2 -1 1
5877 1 16.7887454980191 4.67818799838354 9.173429551480298 0 0 1
5814 1 19.132225697686845 3.1636721408791435 9.120708833487834 -1 1 1
5312 1 18.823166616370145 7.818435611625077 7.070139539617343 -1 0 1
2466 1 21.492085217754354 9.011725482747481 6.806078539878482 1 2 0
208 1 23.662194234680328 7.540812946237641 7.494985381299856 0 0 0
2725 1 4.557809878046231 13.125457478340008 5.94695060117977 2 1 1
4117 1 6.377380034336208 7.318737395861482 4.4514236566020555 1 0 0
7 1 7.162955003951162 8.983831809759744 6.819248903844622 1 2 1
3596 1 10.227134585865283 8.787259540200234 4.546087472173364 1 0 0
3497 1 11.10038304863874 11.080565432892573 5.542367174393884 1 0 0
509 1 10.570341501776612 12.018635707048997 8.294081484028546 1 0 0
1148 1 13.758243306746628 9.858415222655587 6.051007748132418 0 -1 1
5893 1 14.154536008498079 7.285403627677389 4.702727553362859 1 -1 1
6211 1 14.222691411870786 11.835172959429777 10.463320081023328 1 1 1
360 1 17.087973633562203 10.407080343705964 6.8974681204208546 0 -1 0
2508 1 19.458581161008524 12.266595644025609 3.7060586423995616 -1 1 1
3459 1 15.295215905645895 8.11799172210794 8.026889686819452 0 1 1
4248 1 20.243147114158656 13.080622989058947 7.9850579675607625 1 0 1
3663 1 16.08279693855866 1.1277838251602588 23.962359160426885 -1 1 1
3682 1 1.0583751344068264 5.927750455562018 5.2181732983438165 1 0 0
5400 1 2.3674574184793387 14.678623711595865 4.906719183475555 1 1 0
1806 1 22.95648787603305 1.2936022557436317 6.551613180435007 -1 0 0
1095 1 7.0645336810282044 11.532741834675234 5.703604632502413 0 0 1
2460 1 6.8741545631279575 16.02690135061455 6.633470286822791 -1 2 1
178 1 6.073143229971939 14.877394869827683 8.658805446276219 -1 0 1
3852 1 8.803700865958918 13.575336500035736 6.841762125265539 0 0 1
172 1 10.53697855607121 14.797510578081937 5.214820242746284 1 1 1
4298 1 15.31812021388911 12.124755369081093 4.94648354742039 1 0 1
2034 1 14.044698446526633 15.184615873623546 10.836402315568588 0 -2 1
5079 1 18.2163644890572 13.58258101423868 5.966099437834498 0 1 0
5588 1 0.5059883794572597 21.67068758367153 15.986850652520122 1 0 0
6298 1 2.6433963293441587 17.703382995068097 7.156483667252494 -1 1 0
1845 1 4.893752005903754 18.385247519502336 5.9694472339923275 0 1 1
2811 1 6.054144927300532 20.534358844129567 7.417336052344436 0 -1 0
2648 1 9.744231501748338 17.278415218193697 7.483792839533695 0 0 1
791 1 12.753509566801412 19.197417335330318 5.11637130650407 1 0 1
1175 1 13.147414655667486 14.383828783230339 5.388501934919772 0 -1 1
754 1 15.325709809076512 16.028599631582814 7.327000991971834 0 0 1
1920 1 17.96724478069022 16.379433776940925 5.237953823615436 -2 1 0
5291 1 20.911252878348435 16.84069279078058 4.613685643230253 1 0 0
1080 1 20.030293099379158 20.929493021753814 5.682270560094726 0 1 0
1979 1 21.726438240133078 18.924930806132373 5.725776129765206 1 -1 0
508 1 22.749844891709778 18.033927152419388 8.120606076081565 0 2 1
6107 1 3.7735853434835778 22.35339831124904 7.819896543050692 0 1 0
828 1 4.183780493274872 23.9188594648418 5.627228829369785 0 1 1
6093 1 8.578688885817822 21.618965762991493 6.451871636220681 0 0 0
183 1 12.18090024401332 23.70815306909334 8.45277139722562 1 0 0
3486 1 9.387524217822497 23.259553740462206 8.624896200268555 0 1 0
770 1 15.859549396127434 21.67603311415659 6.80301598153954 1 0 1
1729 1 13.794452015322062 21.378235484847206 8.681127734901102 0 -1 0
2126 1 21.735265836928512 23.274553930292644 5.891418325336761 0 0 0
480 1 1.1895820256360385 12.340343659355142 13.670766049608972 1 0 0
6149 1 5.348628170329142 24.234232870323027 22.658925573984728 1 1 0
3480 1 23.994792985446413 20.00013595120924 5.018980204031484 0 0 0
3636 1 24.318238370991725 22.50939582827692 5.939880251759426 -1 -1 0
2709 1 22.757495955758607 1.8901289929911425 24.055426945901985 1 0 1
291 2 22.178749260220243 24.15889714793545 26.756582827718432 0 0 0
1110 1 3.791483166374712 10.681005068767869 4.7508994699529215 1 0 1
4292 1 21.549898618302656 15.952213674409412 0.5638260550834634 0 0 1
831 1 18.663787477825554 17.168509072593004 1.287552805304479 0 0 0
751 1 7.950402718809287 1.2612328499790624 10.892592257133588 -1 -1 0
759 1 12.406727235171923 4.214916209098009 12.110585464652496 0 0 1
5181 1 13.167660321095923 2.0004997959097652 6.597299505777868 0 0 0
5290 1 15.041412096376446 3.435812843409913 10.817170113925089 1 -1 0
158 1 0.30194532011314124 15.288737222541812 23.77978791453356 0 0 0
5186 1 21.482622692751576 5.173424413423561 10.078889544848447 1 1 0
4410 1 24.534679022476347 9.718369112801538 3.3576617952034855 0 0 0
904 1 19.892111605436973 0.4553070416000935 8.921994229324635 0 0 0
2091 1 23.876365709083665 6.891759772598216 9.804736363058035 1 1 0
6004 1 18.568788114271655 23.78331553291302 12.567012629654696 1 0 1
214 2 22.178749260220243 21.35153060977813 26.756582827718432 0 0 0
1934 1 5.459638266426066 7.734303415034921 9.960106085378396 0 0 0
126 1 4.043930571722412 1.9554794690445847 11.193698337889062 0 0 0
784 1 4.052468382830047 6.209633357333149 11.89820637720729 0 0 0
2540 1 6.040480517682316 4.129543282363686 11.362091368208832 1 2 1
1134 1 6.041095032708461 2.9698839315530647 7.961970543119272 1 1 1
4512 1 8.40533238084602 7.28644923654994 10.60800904372565 2 1 0
768 1 8.023933501281206 4.566582576625921 9.582192030534213 0 0 1
3586 1 8.122285885096506 8.829446148350558 12.970116452516848 -1 -1 0
978 1 10.542940962389023 2.8407596122109675 10.344284529482305 -1 1 1
4253 1 13.226153955647904 6.042569279180516 9.833533104468644 0 0 1
3671 1 16.309637986792378 6.525204043089071 11.808333038724621 0 0 0
4492 1 19.812449105394546 8.089431869674899 17.25202446132306 0 0 1
1787 1 16.174155092355843 4.796613558664387 14.11136178554272 1 -1 1
5132 1 24.061375153559176 9.28661498428124 11.703459363321429 0 0 0
5519 1 9.851073040802692 23.86122995370926 20.174767039373485 1 0 0
1174 1 4.887795970626077 12.440620103287687 8.658141040887879 0 0 0
385 1 0.510268748083393 10.85002931534742 23.12507186137023 0 0 0
2627 1 6.6491938330000355 10.228010038992196 9.237739794709258 1 0 1
2039 1 9.633515156596957 9.346492137216956 8.665018202618766 0 1 0
4251 1 7.940468590265617 11.408986931297711 11.325913562633481 0 1 1
8 1 13.152494899473478 9.771786998425442 9.080806165109312 1 0 0
226 1 19.573301283853105 7.909081400576061 9.890851482687795 0 -1 1
5451 1 11.49641977867233 7.974599007213589 10.57692195144656 0 0 0
2904 1 21.29827692647316 9.846834424865461 10.463782855706938 0 0 1
3804 1 18.951889599333608 11.047132703498134 9.045236349073908 0 0 0
1224 1 22.468231735607375 11.33727509142748 8.313253618453615 0 0 1
5377 1 20.826412018738935 10.468925613193482 12.873262251135603 0 0 0
4384 1 2.7632324608547743 11.160924290979658 10.056982475203494 1 0 1
3925 2 24.609999999998905 21.35153060977813 26.756582827718432 0 0 0
3443 1 3.5470304764790908 16.10217623764825 9.581543866683363 0 1 0
3618 1 7.682412265790342 16.205713367849206 10.530753096335864 1 1 0
5453 1 10.085288310274619 12.832297841891533 10.713278557263525 0 0 0
6072 1 10.404391633719081 15.324247333299448 11.347983871141377 -1 1 1
2742 1 16.070985015997604 13.499868991349627 8.382282312673725 0 0 1
5096 1 15.914290902197815 11.682225568306885 12.83860350109465 0 1 0
1027 1 12.108645534020416 9.550511974105957 12.948471402537523 1 -1 1
419 1 17.008552242214897 14.991406587673453 10.63854911291891 2 0 0
3751 1 17.96927525523001 12.663931196625024 11.538307789733825 1 -1 0
4198 1 19.80597731079094 15.022284212511849 9.736365187068738 0 1 1
2050 1 20.129485347422573 17.88862301942064 9.312274033726084 1 -1 0
2637 1 15.959144266693805 8.01208946929065 0.4884229173330551 0 -1 1
2020 1 4.229733757215815 18.227566649119048 11.33491971058267 1 2 0
1028 1 1.867741843182259 19.914621484809476 12.029463949361615 0 0 1
6002 1 8.594280174986821 18.407448631319735 9.762889062804318 1 -1 1
2192 1 6.121268896440187 16.991068021201272 12.628527584424514 1 -1 0
2839 1 6.080588310115122 19.305612576229507 14.220479744793755 1 1 1
4255 1 10.00891384353426 19.446054639658083 11.861063859322655 0 0 1
4485 1 12.017218092587086 17.055774689983703 9.32529915176952 0 0 1
5131 1 17.69185865004845 17.895220044320848 8.170410517538478 0 -1 1
1033 1 12.890752360328488 13.526184113831734 8.379981393586519 0 1 1
167 1 15.638516037631158 17.890420121969736 10.216146044137512 1 0 0
4148 1 17.105990797624273 19.176348983449845 12.618526116013927 0 -1 1
3491 1 0.6685886854091205 3.642503435210422 0.5964439505506134 1 0 0
2707 1 19.81079393215565 18.882636885122498 12.052739109425245 -1 1 1
1209 1 6.005037627005085 0.4137361108701885 4.392382447913195 -1 1 1
68 1 3.5203459337818663 22.30853961773597 12.122662178730907 1 -1 0
800 1 6.2681775969655025 19.91315654806855 9.90520778404586 0 0 1
4573 1 6.034812664668988 21.373571818781485 12.139646143242281 1 -1 1
5548 1 8.208234080518805 23.0215420931625 12.751295687410352 0 -1 0
144 1 19.609708938117045 22.159236174165635 1.07765600935333 0 0 0
6228 1 10.192141702957109 22.180364690394743 11.198468845827357 -1 0 1
476 1 13.668167190488862 18.665349221246927 7.973863657005442 1 -1 0
2930 1 14.028856835260424 22.130379173962314 13.405334376494967 -1 0 1
1721 1 12.106141683453403 23.875246647925483 12.242086203508421 -1 0 0
6267 1 15.171445454517455 21.259523944538145 10.888727196857841 0 1 1
3380 1 19.125264517441067 21.92169132148549 9.16087885816005 0 1 1
5995 1 17.815400622988516 20.42592819859785 7.34114572809969 0 0 1
5387 1 21.59957137052707 20.918830313419452 10.762917889068689 0 0 0
2808 1 18.36340176607759 21.500475444359623 14.256975949048009 0 2 0
1833 1 18.009141020472597 23.506371971054755 21.216202517593675 0 2 1
4264 1 1.7460782951692393 0.6241491121043825 15.13045123762914 1 1 1
5875 1 23.924756907778832 7.957273244837213 16.066820938580065 1 2 1
6284 1 3.947894114459665 2.727849262206255 14.437556013624022 -1 1 1
3687 1 3.541364775125108 23.980008493257202 1.0897884231885262 1 -1 0
6218 1 13.225828474336417 2.079713528122304 13.882288696978646 0 0 1
6266 1 11.661333075361892 2.1229145282885584 16.075916352303196 -1 0 1
1720 1 15.697637955582962 1.1804011190447936 15.820113013286859 1 1 0
2154 1 23.1888045731878 19.159883946913446 0.6431543755228298 -1 1 0
4531 1 15.643034909363784 3.0275046462097412 17.818962247275607 1 1 1
5399 1 18.83355201998186 4.193086050462075 14.490669655587695 0 -1 0
6065 1 16.23953603194338 1.7849461686727306 12.670888580338433 1 1 1
1823 1 21.845244590707864 1.9494304538088618 15.430685714614608 0 0 0
179 1 0.41310201738499114 17.851837655203582 17.54341275324507 0 0 0
374 1 20.834483324842967 5.409932496587281 12.749497917474052 0 1 0
2065 1 2.4323398493440016 4.235908466686672 12.724197429749214 1 0 0
4386 1 7.145463759176547 2.6797657680861557 13.659698662609692 1 1 1
192 1 6.712326332519095 6.476847931143417 14.180363268188485 0 1 0
1142 1 9.331844004072927 3.3437772783039525 14.962444411265329 -1 0 1
2667 1 11.184784041123176 5.416352610254979 14.221069473536845 -1 0 1
387 1 10.292756450197583 8.080542034785815 14.240028689738056 0 0 0
5931 1 16.11871093604585 5.39712303315437 16.718820049228686 0 1 1
4422 1 19.310087169628144 4.478304956242263 17.408369776130414 1 0 1
6005 1 2.048374232758136 15.798128368076 16.92477142946821 0 0 1
997 1 20.496358356192687 10.727446191359768 17.370948842147623 1 -1 1
2639 1 1.1367270640971414 10.243112429231438 17.105677095668167 0 0 1
2858 1 3.6901564787134955 8.132102248785365 14.083157770891718 1 0 1
1986 1 1.4211441097022797 8.011060732731835 15.401986517334535 0 0 0
2056 1 3.6401775041970192 10.707313430716258 12.740534125473214 -1 0 1
4282 1 5.71186395397901 8.750377737675901 16.433243599426554 1 2 1
3827 1 7.040861353646014 12.515179508407428 17.188222334949632 -1 0 0
4151 1 11.379305467763123 10.647768220358916 16.589679078805656 1 0 1
5320 1 13.632477320242968 8.972036611816206 16.156803019849477 2 1 0
996 1 14.601882690248003 8.710186048621374 13.345091339750807 0 1 1
5502 1 19.077308537435453 8.623407376065382 14.44445694442151 2 0 0
4519 1 17.096887659405766 7.726152032816704 18.505321076938984 0 1 1
1873 1 18.168131152361713 12.01685940063268 17.888590933541764 1 1 0
5278 1 16.906152233332993 10.039594483274024 14.70204972868794 -2 0 0
6234 1 4.09416942583559 23.654315257706106 9.922023519243659 1 0 1
2653 1 19.891737784873218 12.808501417354549 13.508808291654411 0 0 1
891 1 3.369615994914028 11.40629937587055 15.766396941091319 -1 0 1
2478 1 2.473269681877489 15.14472937381279 12.355356455253855 0 0 1
3701 1 4.892692727824888 14.656807840644815 13.540176254849086 1 0 0
3691 1 5.853022699324566 12.117987258892088 13.044264396797981 1 0 0
1103 1 7.170318556991352 10.953267723692084 15.014825973662793 0 0 1
3619 1 4.588040754287253 13.204364730140126 17.289427639787277 0 -1 0
4280 1 12.032287163618568 12.319005178389597 12.44646346562773 1 -1 1
3537 1 9.869756770540645 15.889152958104885 14.026206852134315 0 0 1
1146 1 12.48385463073119 16.48747429795677 15.000482293600509 1 1 1
2786 1 13.194150449902795 14.668889398918527 13.200853339642054 1 0 1
1780 1 15.517102395275812 13.937519627616117 14.397191357526067 0 -1 0
1790 1 13.913066247765475 17.801747376009203 17.212321320482634 0 0 0
3451 1 16.816692462353938 16.39406545703234 13.341922042777778 1 1 0
193 1 19.465989027998848 16.51020128182044 14.727065800233012 1 -1 0
5388 1 21.50173694320935 14.267623266689696 11.89457027611665 1 0 0
403 1 17.359885225229483 23.169185979849583 10.39103687054462 0 0 0
4535 1 21.766771824195 14.108704684792361 17.42539686537609 0 1 1
6209 1 3.751392437810897 18.450402553580055 15.50032544052074 0 1 1
5437 1 1.5832112692092761 17.585862260540814 13.627417156297092 0 0 0
1771 1 9.051233108117154 18.444845686688897 14.131815426149798 -1 -1 0
863 1 5.228166015879102 15.601407114261715 16.213517072432175 1 0 1
284 1 7.348053526739431 19.24107983391153 16.794595677416574 1 -1 0
5480 1 12.696904532733624 19.426179054176124 14.244549369263867 1 1 0
2889 1 15.700032537280856 18.56464528173589 15.478736243202768 1 0 1
5294 1 12.631622441446327 20.945074257720552 17.560134707055948 -2 0 0
3510 1 10.772017169784078 17.254338001637162 17.857432445776684 0 0 0
2107 1 14.552985578796385 19.38852649402425 19.573758677169714 0 0 0
2059 1 17.609126400925295 0.8412253469025484 7.021137393636919 -1 0 0
21 1 2.238297317494027 20.087707565904452 17.137387331203563 1 -1 0
5483 1 21.005297360488555 20.20277180071696 14.365445329122966 0 0 1
154 1 21.657680984729062 16.813655435672615 12.64971318767483 0 -1 0
4118 1 1.8820827359346919 23.76807942213826 16.098870941109382 0 -1 1
782 1 2.2600345812876803 8.767049401506672 6.20984469820957 1 0 1
342 1 5.6145419301958235 21.421687950123456 17.202564844652297 0 1 0
3787 1 4.212562551028739 23.492380758488274 14.43617046702341 1 1 0
5897 1 1.9092105984575136 20.339327914977066 7.823683925018597 0 0 1
297 1 9.698066865219278 22.994978611195926 16.073690120390072 0 1 0
2007 1 12.673371530090696 19.24121923679211 11.401854519404385 0 1 0
1816 1 10.254767674129466 20.179828430489106 15.870737482471162 0 0 0
6139 1 20.807516343237694 2.947385482709398 6.048898163211384 0 1 1
1002 1 15.173472437639267 24.15237082321706 2.686098010308573 0 0 1
2451 1 13.263292083958278 23.578748715081403 17.52490677684298 0 0 1
3713 1 16.06272919410101 21.25987834866351 15.514485196739816 1 -1 0
6131 1 16.004928343582957 22.766107211501378 17.853510161966767 0 1 1
776 1 20.122285413263718 22.37923674131253 16.79842375335782 -1 0 1
160 1 22.96320996595485 21.85441678077909 12.997080799409696 -1 1 1
390 1 2.4177270548603813 3.423725102881711 18.096075086987685 0 0 0
5216 1 4.151325589151604 2.413541697146943 21.478976340534583 0 0 0
4429 1 1.6044880893747897 13.688603493456128 9.439685089214493 0 0 0
2825 1 6.188370180236269 4.07684226264021 20.142660324335612 1 -1 0
4619 1 10.708247430217693 12.49442210471517 3.0117896120223424 1 0 1
153 1 6.394790038906525 4.696791529368517 17.23422062092696 0 0 0
2837 1 20.84689916358974 5.5175402826035 2.307930809151374 0 1 0
4152 1 9.635853133038319 1.3389642516879328 18.916193992483976 0 0 1
75 2 23.39437463010926 22.053372244317554 26.756582827718432 0 0 0
5454 1 13.337889083395872 3.3534756053795625 20.527671875856647 -1 0 0
988 1 16.258992891222668 2.255998189183181 20.33787792158028 1 0 1
1994 1 22.77785789756617 16.12723975436787 15.528525422662632 0 1 0
398 1 18.67469084357405 1.6265461672339563 18.107559886473172 -1 0 0
2859 1 21.848558431284044 2.6818561401296965 17.830782575356043 1 2 1
3774 1 17.331421670818468 4.250098380633649 21.35241349238402 -1 2 0
3800 1 21.88463951589408 6.40033759284166 17.15711406456757 0 0 1
5357 1 22.534050624292888 3.460361576692205 21.320592825804482 -1 1 0
1062 1 24.22629552141343 13.607389506275249 11.753344507086581 -1 1 1
352 2 20.963123890330316 23.457055513397425 26.756582827718432 0 0 0
406 1 2.0193290650375424 6.141952191387738 17.539204611083736 0 0 0
970 1 0.39743841783559747 5.942909113879949 21.296191829065755 -1 0 1
2139 1 2.655881637637084 7.337578644861395 20.07916119353893 2 1 0
359 1 10.550138220586541 5.1564273853662 18.968859040226757 0 -1 0
6167 1 8.917555267888805 5.625261648346534 16.999576349833823 2 0 1
2738 1 4.361471588240818 5.409282920246297 15.718535319788767 1 0 0
4494 1 11.090525250213089 7.445200815681335 20.358401105568806 -1 0 1
954 1 12.740005782950307 4.126826119444223 17.46776696318633 -1 0 1
4578 1 14.268169803125229 8.00853410785733 19.2866452044901 1 1 1
6114 1 13.320970261216306 6.2487755007438395 15.74351340752839 0 1 1
2515 1 16.147006516387943 10.591840531301774 17.105097905988522 1 -1 1
897 1 14.495812878367802 9.702893592840216 21.421204281154726 -1 -1 1
3396 1 18.36163824595064 5.705857201325467 19.490882956150326 0 1 1
2875 1 20.353449796758955 6.90684088420466 21.192397231398747 -1 1 1
2809 1 20.42828460011975 9.324613221225484 20.354807749662267 0 -1 1
1076 1 7.069887591903552 23.500986399933645 1.3222132636637314 0 0 1
3427 1 22.780741774744712 5.563777128067177 19.578341068554426 0 0 0
1965 1 1.6469139265606476 11.106997583908068 19.471946628926784 1 1 0
1967 1 2.2307878353866535 0.6218921957276223 4.790563153145304 1 0 0
5378 1 4.159067056053489 9.99441428444513 20.407084085618372 -1 0 0
210 1 6.396323832888178 8.738897130530827 19.191782088092012 1 0 0
2036 1 5.269591996255067 6.541346564282503 20.84994700843239 1 -1 1
2788 1 9.809743265509683 9.679703399635844 18.967132575735 0 -1 1
5503 1 8.929862852138944 8.401393068043387 16.699347909343214 2 1 0
2764 1 13.728043003680162 12.090552887177013 18.08715696332611 0 1 1
6040 1 12.955865125437358 11.771648333113319 21.72148171933429 0 -1 1
1890 1 17.24633533256771 10.009033547573855 20.622626515695874 0 -1 0
6033 1 17.470271500004404 12.803139827755874 20.94876528262317 0 1 1
2711 1 1.1839392270305114 8.899356403109246 2.9511088614896184 0 0 1
1902 1 22.201969003437796 10.222150908017896 15.081977857801409 -1 2 1
176 1 20.402228913664384 13.104059123857628 20.857396061909547 -1 1 0
2927 1 16.78124430514794 11.069044802692417 0.4689935874168377 1 2 1
2493 1 4.940076304441197 13.420357334695105 20.14256771811749 1 0 1
107 1 6.752235160242475 15.99671156727234 20.224403745462006 -1 0 1
4214 1 10.037960423550446 12.246727944498096 14.744599819062858 0 1 1
2544 1 9.280416034028539 17.232966339074462 21.388619421529743 1 1 1
262 1 11.243996419095899 11.930299552383586 19.59034107081953 0 1 1
194 1 9.94867750054406 14.327881428847366 19.663476623650133 1 0 1
432 1 11.90725080336897 16.642575506331067 21.93924418030094 0 0 0
3372 1 14.54787542148066 14.394354006633426 16.997405183415587 0 0 1
5487 1 14.746231082354553 13.912743448204491 21.123251568449717 1 0 0
6171 1 16.88784959757108 14.72283936778374 18.209776965162717 1 -1 1
2426 1 19.531512148427044 14.084851813642965 15.897211253517618 0 -1 0
1099 1 20.148244975875166 15.847725551288722 20.89300652167034 0 -1 1
3484 1 17.895480588592484 17.464891738998432 17.079752560443588 0 0 0
55 2 23.39437463010926 23.457055513397425 26.756582827718432 0 0 0
1990 1 22.305492509862358 11.686417960635259 19.263501449848935 1 1 0
5306 1 2.4563135841212804 15.51212365958571 19.562262263797958 -1 0 0
3531 1 4.46342597048832 17.20187360632108 20.83718280529852 0 0 0
4119 1 7.1689189158603055 16.440229831464844 17.656126391839145 -1 0 1
6155 1 7.095675574346703 20.356158788346878 20.194390545522218 0 0 1
926 1 4.26911449034148 19.972780188756094 20.53614812687917 -1 1 1
4546 1 9.267423611993419 14.569014181788972 16.85425205849073 -1 0 0
6271 1 9.365365173621493 19.07847985832927 19.37198242610295 -1 0 1
5174 1 12.435450146637308 19.360303048662324 21.925751169264295 -1 0 1
5262 1 15.690129799113755 16.837621347076432 20.702460024849444 0 -1 1
3660 1 18.14701520762671 17.589216506303146 19.891826564685914 1 0 0
5553 1 20.492758313718266 18.666333648157867 16.81673568490911 0 -1 0
504 1 12.624676281141165 15.567306241090877 19.653050285918148 0 1 0
200 1 22.71953679791672 16.28730263349019 20.004560699706687 0 0 0
5541 1 23.3339341675743 20.30203488968412 19.08777668071925 0 0 0
1151 1 23.734395163961228 17.771350443914432 17.830859525045252 0 0 1
501 2 18.531873150551636 23.457055513397425 26.756582827718432 0 0 0
3835 1 5.147194378144119 0.7131435184637789 23.523489644917912 0 1 0
5964 1 1.3879139893966983 6.258838413599132 2.3889831756215876 0 0 1
2468 1 3.4262507504193733 22.62235560220905 18.249844558886565 0 0 0
405 1 4.929189531639922 24.469456293032614 19.520207739345036 1 0 0
1927 1 23.794579536655846 5.550742540414413 6.033007986331234 0 1 0
2101 1 7.413161755256545 23.039509340323956 19.7447591073577 0 1 0
1149 1 11.127853612310252 21.204603763560133 19.73169615904703 0 1 1
5182 1 10.871587854723407 1.4525935001506116 1.5704602990429315 1 0 1
2122 1 13.917728492693888 22.59604992951441 21.664970840901063 1 1 0
3498 1 18.507852182655167 20.063112092544692 20.853680632502815 1 1 0
479 1 23.353601517815758 13.259331787383024 3.983165671286607 0 -1 0
5852 1 20.606012459244724 20.71739283364341 18.76509019140356 1 0 0
1886 1 20.576624208636428 22.89650202064692 20.855922775256833 -1 -1 1
5151 1 9.238182470730635 4.059500275221723 23.499659935283567 1 0 0
725 2 17.316247780661786 21.35153060977813 26.756582827718432 0 0 0
2134 1 1.0413389245868196 1.1945273113116741 24.357947930432477 0 0 0
3591 1 2.0505554999465723 3.7236674483881744 24.012366206584822 1 0 0
2023 1 7.378092346453826 2.2198434323677216 24.259721433342314 1 0 0
1072 1 4.825174394013233 4.294858053805449 24.12505805193463 1 1 1
2112 1 8.881524751962138 3.9021610702313456 20.7692495734461 1 -1 0
4431 1 12.25357061358239 16.4872729337791 1.4969051853236226 1 0 1
4466 1 11.781261365114746 4.019908091548448 24.20946695622001 1 0 0
1044 1 11.472973075337306 0.9823007324448899 24.22321978349237 0 0 1
3639 1 17.105536822537253 24.280282004392166 23.65244507122448 1 -1 0
54 1 14.434513421460396 3.1675153094025967 23.35310617680751 -1 0 1