LAMMPS data file via write_data, version 16 Mar 2018, timestep = 6000000

6489 atoms
2 atom types

0.0000000000000000e+00 4.9219999999999999e+01 xlo xhi
0.0000000000000000e+00 4.9019635930410494e+01 ylo yhi
7.2050319778616156e-01 5.9341496802209818e+01 zlo zhi

Masses

1 18.015
2 12.01

Atoms # atomic

6261 1 1.8993727267725078e+00 2.3051780722469459e+00 4.0190161823136012e+00 1 2 1
3083 1 4.5273733245791172e+00 2.4673901937518181e+00 3.6973206468054731e+00 3 2 1
1454 1 6.2588620535899109e+00 4.4350010737904055e+00 4.5517561461678309e+00 3 1 1
4851 1 6.1670357796578246e-01 4.5154051303498646e+00 2.9596030468077856e+00 -1 3 0
3433 1 2.1773520132405437e+00 6.2585020901220156e+00 4.3550452421296688e+00 0 1 0
5041 1 4.8091458630608610e+00 6.3759560884864683e+00 3.6061729033688010e+00 1 -1 1
6394 1 8.6333481819308879e+00 4.1433606223726089e+00 1.1356929423365680e+00 1 2 1
381 1 3.0748728388889166e+00 8.5727938782279871e+00 1.0441703763398857e+01 1 0 0
4650 1 8.8702571181327770e+00 4.1823220600125612e+00 3.7880474898677385e+00 0 1 1
424 1 9.7765004906645601e+00 2.5331786038236159e+00 7.7604010787708351e+00 2 0 0
141 1 7.3703792971000470e-01 8.6187803958008100e+00 3.2342920370070347e+00 2 1 0
4823 1 1.9370225708973114e+00 1.0756594406903007e+01 3.9699820579309604e+00 -1 -1 0
5090 1 4.5188987838436789e+00 1.0767740135996444e+01 3.2632251878192946e+00 1 0 1
3548 1 4.8477081168936182e+00 6.3041984763488328e+00 7.4998912981405896e-01 -1 -1 0
1566 1 8.7919621146503424e+00 8.2867441497434857e+00 4.2871733843991713e+00 -1 2 0
4570 1 6.1139241074872217e+00 8.5974193031869639e+00 4.2385578329518427e+00 -1 -3 0
2057 1 8.3891686228077211e-01 1.3346023578529058e+01 3.1139298528322383e+00 -1 2 1
265 1 2.3032628790007998e+00 1.5351338080507587e+01 4.2082292067511258e+00 0 3 0
6190 1 4.8432190334739191e+00 1.5311235482562569e+01 3.4970953350877760e+00 0 2 1
3099 1 5.9325868993411044e+00 1.3069934017111452e+01 4.3723816296891851e+00 1 1 1
1508 1 8.7352578886794880e+00 1.2737690924888874e+01 3.8739507966942788e+00 1 -2 1
4802 1 8.7559765232556490e+00 8.5783306229712935e+00 1.3946027968187455e+00 1 -1 0
1971 1 1.7906448627160256e+00 2.2400054728452363e+00 6.8021654666229434e+00 -1 2 0
443 1 9.5461266237563844e+00 1.1372869599393189e+01 7.5239958111719387e+00 -1 -1 0
2894 1 5.6092903156345875e+00 1.3140010909676686e+01 6.9403624688819239e+00 1 -1 1
6385 1 7.2808498861703788e+00 2.0303907825170153e+00 8.5498718544915100e+00 1 3 0
4705 1 3.2605867897196799e+00 4.4288208146427062e+00 7.8634805102024492e+00 1 2 1
5001 1 1.8193536910709529e+00 6.5654666340388337e+00 6.8875608159466140e+00 3 3 0
6113 1 6.0425237587638003e+00 4.2315743535076455e+00 7.3289270472239370e+00 0 1 1
4942 1 7.2078356151737406e+00 6.5058594406986874e+00 8.3469550611199814e+00 0 0 0
6316 1 6.8006940112251408e+00 1.5280198264402719e+01 8.2299896530768990e+00 1 0 1
5430 1 3.2800325979512683e+00 8.7826769936561782e+00 7.6506966803137617e+00 3 2 1
2962 1 2.1901351888422478e+00 1.1032012383906965e+01 6.7963603533132613e+00 2 4 1
1272 1 6.9395603402658379e+00 1.1180144116623328e+01 8.4000262993841517e+00 0 0 0
6221 1 6.0260737093540691e+00 8.7623356955981322e+00 7.2303796098225392e+00 4 0 1
4559 1 4.6813337384850042e+00 2.0887456754820066e+00 9.6881246882456462e-01 4 0 0
6434 1 2.0322976260189747e+00 1.5398406444574416e+01 7.1039702170218577e+00 0 -1 1
2055 1 3.2035997895627721e+00 1.3081974722912189e+01 8.0691978101558561e+00 3 -1 0
4569 1 8.8037626244637206e+00 1.2625857352249581e+01 1.1568693895560571e+00 0 2 1
2180 1 5.8599282885271737e+00 9.2274349676406603e-02 4.2106863281792544e+00 3 2 0
207 1 9.7992751379787126e+00 5.2933168831277451e+00 7.6480640740493184e+00 0 2 0
3120 1 9.5120880839371686e+00 1.4314095398774761e+01 7.6686633821615695e+00 -1 0 1
1329 1 3.0613935592239931e+00 2.2185752237941614e-01 7.8939080627241802e+00 -1 0 1
2124 1 5.0353663080721294e+00 1.5104718258327363e+01 8.3636983555985012e-01 -2 4 1
1657 1 3.9838374149406484e+00 2.3393578842326033e+00 1.4388862125941788e+01 -1 1 0
5175 1 4.1971335747189729e+00 1.8717727225369400e+00 1.1496866034263626e+01 0 -1 0
5225 1 6.7595396915895529e+00 1.0036233604168876e+01 1.0896442283242504e+01 1 1 0
304 1 8.7721289042560180e+00 2.5745729003354172e+00 1.2964248853230078e+01 0 1 1
3325 1 7.0394032646707343e+00 1.3929732966880632e+00 1.1204519210659470e+01 2 3 0
4537 1 2.3958347273824758e+00 4.1944388563567019e+00 1.5480310086284900e+01 2 1 1
1698 1 3.9964463404532973e+00 6.3276910389778545e+00 1.4327962298963634e+01 0 -1 0
2863 1 4.2400590991595370e+00 6.6139687887493004e+00 1.1669065595819838e+01 1 -1 0
6243 1 8.5386383953572356e+00 8.6529124695968047e+00 1.8489668812221886e+01 1 -1 1
6242 1 6.5808280665819330e-01 1.3225820163435170e+01 1.1152626138325507e+01 0 -1 1
5426 1 8.9376105584446019e+00 5.1277111397084649e+00 1.2437662823368726e+01 0 1 1
6321 1 8.5613177458265408e+00 6.3392212059416924e+00 1.5049022669219230e+01 3 6 1
372 1 7.1283814686708071e+00 7.0771869956183275e+00 1.1116127311835085e+01 -1 1 1
343 1 7.0962350960414806e+00 1.5312557358650837e+01 1.8633941849986911e+01 2 2 1
46 1 9.6108647228392297e+00 1.3433533953507922e+01 1.5937950521583129e+01 1 0 1
3561 1 4.2392641508707367e+00 1.0923937609916363e+01 1.4356150257641056e+01 1 0 0
5388 1 4.3377919577919419e+00 1.0643846494966018e+01 1.1624131638320454e+01 -1 -2 1
1610 1 2.5861753198485671e+00 8.6289368393376300e+00 1.5145047367369949e+01 0 1 0
1384 1 8.5914042733249776e+00 1.0863335613978609e+01 1.5186712493116699e+01 1 3 1
5046 1 8.9534770794811394e+00 1.1371653909640454e+01 1.2551889449383994e+01 0 2 1
4760 1 6.0107922702954397e-03 8.8656320739946697e+00 1.4178167788111327e+01 2 1 1
4952 1 8.2013480037203799e+00 1.3098685112396593e+01 1.8123932561481798e+01 -2 1 1
2039 1 4.2667011043590612e+00 1.5429624148499734e+01 1.1549858512083778e+01 2 0 0
4682 1 4.1094845591424853e+00 1.5122183912758585e+01 1.4258917663981702e+01 2 0 1
1648 1 2.5333228357252771e+00 1.3050140415189341e+01 1.5141646760419341e+01 -2 1 0
4931 1 4.3891151557991631e-01 4.3466899718819745e+00 1.1412627591496079e+01 -2 0 0
3037 1 8.9234474128634744e+00 1.4416918715485332e+01 1.2219783023027265e+01 3 1 1
1301 1 8.4633878571826546e+00 1.5804844341206426e+01 1.4522357346186645e+01 0 0 1
1342 1 4.3676121641238446e+00 2.2001228360816238e+00 1.8690114480067365e+01 0 0 1
1967 1 2.3342275230641714e+00 4.1400073931542787e+00 1.8273529547552521e+01 -2 2 0
3035 1 8.7234118396435463e+00 2.1048376715897845e+00 1.5699773420642499e+01 2 -3 1
3333 1 5.8792968774968246e+00 1.4803447098865745e+00 1.6481437259732282e+01 -2 2 0
3735 1 2.7950446797352639e+00 1.3442401677719461e+01 1.7908197098991057e+01 0 -1 0
3419 1 3.9431750837168815e+00 6.8077417123085606e+00 1.8467315812220143e+01 -1 -1 0
3543 1 6.0896038238275754e+00 6.9069858170618010e+00 1.6085962528265227e+01 2 -2 0
2980 1 9.5913766609218634e+00 4.7922793664151646e+00 1.9346713336396139e+01 -1 -1 1
3648 1 7.1036753566170843e+00 6.2075915802056665e+00 1.8897178096689952e+01 1 0 0
6163 1 6.1950982900895388e+00 1.6113379934139051e+01 1.6081123017940694e+01 0 0 1
6106 1 2.3818032727175367e+00 8.8771542338464791e+00 1.7818307919688699e+01 -1 2 1
4538 1 3.5914780044680885e+00 1.1046035384386137e+01 1.8781350700015121e+01 0 2 1
4643 1 6.8180817722472105e+00 1.5984864051620946e+01 1.0850918109236106e+01 -2 1 0
1812 1 6.8340977308822168e+00 1.0768384589837050e+01 1.8634536811953751e+01 1 1 0
68 1 6.1650109831694060e+00 9.7430896171549701e+00 1.6050504493208145e+01 1 2 1
2017 1 3.9434465197610535e+00 1.5936416780200307e+01 1.8533874939236856e+01 -1 -3 1
4613 1 3.1345586352640202e+00 4.2668832145174891e+00 1.0699748939483067e+01 0 0 1
5045 1 1.3151373741531161e-01 1.3738791454316317e+01 1.3805241619163347e+01 0 -1 0
5394 1 3.9329675904700667e-01 8.5803571133158503e+00 1.1410953108235505e+01 0 0 1
1500 1 8.1953411337082116e-02 3.9619734986703126e+00 1.4181510438880705e+01 0 4 0
438 1 9.7936463106800478e+00 8.6721801134224812e+00 1.6120591558304916e+01 0 0 0
2159 1 3.1229427446192619e+00 1.3085064046218511e+01 1.0684303463998653e+01 1 0 1
1936 1 2.4820636739655204e+00 2.5444420043600502e-01 1.4906327418649965e+01 2 1 0
6150 1 1.8264120129271471e+00 1.5337657478209463e+00 2.4035510621790841e+01 0 1 1
3080 1 4.6270241781857777e+00 9.1597811937435869e-01 2.3797409798666511e+01 2 2 1
4930 1 1.7382175426318367e+00 1.5690267187450171e+00 2.1084758456856459e+01 1 1 0
6291 1 3.2229013274495644e-01 4.1267254516822645e+00 2.0839011394600004e+01 0 0 1
785 2 8.6135000000000002e+00 1.4919019630994494e+01 2.6729697208330986e+01 0 0 0
1435 1 3.4277310631867797e-01 8.8222855318746785e+00 2.4055227743040223e+01 1 2 1
5408 1 8.7846402713471061e+00 3.4458086163905537e+00 2.3320202601492689e+01 0 1 1
4582 1 5.9987165972193992e+00 3.4653354452654863e+00 2.3905140158672168e+01 -1 3 1
3366 1 5.9127669764110795e+00 3.6819423297233569e+00 2.1176581158279561e+01 -1 -1 1
3119 1 9.2374013205570016e+00 8.6832614854556631e+00 2.1337846556298732e+01 0 0 1
4889 1 2.0357220635735027e+00 6.2957422675527770e+00 2.1130953449533276e+01 3 2 0
3495 1 1.9814622631643952e+00 6.4084156470416795e+00 2.3859540539539211e+01 0 1 0
5387 1 5.0071186173073770e+00 6.2801913693312290e+00 2.1089155703877594e+01 -3 3 0
130 1 4.9282566169198487e+00 6.1873742017318873e+00 2.4249737320336575e+01 -2 -1 0
1682 1 1.9005244851337695e+00 1.1204716960325479e+01 2.0964313761581224e+01 0 -1 0
1495 1 2.1033511318613414e+00 1.0925289344451343e+01 2.3977469797050496e+01 0 1 1
3623 1 5.0490251267135102e+00 1.1133316996107462e+01 2.4041324871383388e+01 0 0 0
697 2 6.1524999999999990e+00 1.3498160618518829e+01 2.6729697208330986e+01 0 0 0
5148 1 9.5213073923177820e+00 1.3253846576836350e+01 2.0832742747652691e+01 1 0 0
384 1 8.4025315950205250e+00 2.8062716765262952e+00 2.0703886260873816e+01 2 2 0
2129 1 6.2850913006246731e+00 8.6164100186097254e+00 2.1545896623082609e+01 0 1 1
6104 1 6.3417500162631857e+00 8.5845779287996660e+00 2.4192125852337242e+01 0 2 1
1932 1 5.2582515323449242e+00 1.1343034550168547e+01 2.1226575371434301e+01 0 -2 0
4925 1 9.0738262503847995e+00 8.6994429061018650e+00 2.4168547515912390e+01 2 -2 0
1286 1 7.0835776230354142e-01 1.3300130633065137e+01 2.4080660025241727e+01 0 -2 1
6132 1 4.2766405990710837e-01 1.3370627864723934e+01 2.1414445137488745e+01 1 -1 1
2108 1 4.6028569445814673e+00 9.2987213041266215e-01 2.0997682175963821e+01 1 2 1
4873 1 4.4345642101897598e+00 1.6013212830378933e+01 2.1315082065538810e+01 -1 2 1
5161 1 1.7755763097812522e+00 1.5824681303818556e+01 2.1614209215237768e+01 2 2 1
5370 1 6.0837882227936169e-01 8.7415173754244613e+00 2.1300196467171187e+01 1 2 0
4534 1 4.0102458329737467e-01 3.9859265730497899e+00 2.3914932572209135e+01 2 -2 1
5265 1 9.1882076877972310e+00 1.3718752811620771e+01 2.3590634160576776e+01 0 1 0
455 1 6.5800023990754086e+00 1.3904722270013961e+01 2.1323071919175224e+01 2 1 0
6252 1 6.2944159043929186e+00 1.3520435593901050e+01 2.4182758803925932e+01 -2 2 1
572 2 0.0000000000000000e+00 2.8417180249513345e+00 2.6729697208330986e+01 0 0 0
574 2 0.0000000000000000e+00 0.0000000000000000e+00 2.6729697208330986e+01 0 0 0
576 2 1.2305000000000001e+00 7.1042950623783474e-01 2.6729697208330986e+01 0 0 0
583 2 1.2305000000000001e+00 2.1312885187134998e+00 2.6729697208330986e+01 0 0 0
585 2 2.4610000000000003e+00 2.8417180249513345e+00 2.6729697208330986e+01 0 0 0
587 2 2.4610000000000003e+00 0.0000000000000000e+00 2.6729697208330986e+01 0 0 0
589 2 3.6915000000000004e+00 7.1042950623783474e-01 2.6729697208330986e+01 0 0 0
604 2 3.6914999999999996e+00 2.1312885187134998e+00 2.6729697208330986e+01 0 0 0
606 2 4.9220000000000006e+00 2.8417180249513332e+00 2.6729697208330986e+01 0 0 0
608 2 4.9220000000000006e+00 0.0000000000000000e+00 2.6729697208330986e+01 0 0 0
610 2 6.1524999999999999e+00 7.1042950623783407e-01 2.6729697208330986e+01 0 0 0
633 2 6.1524999999999999e+00 2.1312885187134989e+00 2.6729697208330986e+01 0 0 0
635 2 7.3829999999999991e+00 2.8417180249513345e+00 2.6729697208330986e+01 0 0 0
637 2 7.3829999999999991e+00 0.0000000000000000e+00 2.6729697208330986e+01 0 0 0
639 2 8.6134999999999984e+00 7.1042950623783407e-01 2.6729697208330986e+01 0 0 0
670 2 8.6134999999999984e+00 2.1312885187135002e+00 2.6729697208330986e+01 0 0 0
579 2 0.0000000000000000e+00 4.2625770374269996e+00 2.6729697208330986e+01 0 0 0
581 2 1.2305000000000001e+00 4.9730065436648339e+00 2.6729697208330986e+01 0 0 0
596 2 1.2305000000000001e+00 6.3938655561404980e+00 2.6729697208330986e+01 0 0 0
600 2 2.4610000000000003e+00 4.2625770374269996e+00 2.6729697208330986e+01 0 0 0
602 2 3.6914999999999996e+00 4.9730065436648339e+00 2.6729697208330986e+01 0 0 0
625 2 3.6914999999999996e+00 6.3938655561404980e+00 2.6729697208330986e+01 0 0 0
577 2 0.0000000000000000e+00 7.1042950623783341e+00 2.6729697208330986e+01 0 0 0
598 2 2.4610000000000003e+00 7.1042950623783341e+00 2.6729697208330986e+01 0 0 0
629 2 4.9220000000000006e+00 4.2625770374269978e+00 2.6729697208330986e+01 0 0 0
631 2 6.1524999999999999e+00 4.9730065436648339e+00 2.6729697208330986e+01 0 0 0
662 2 6.1524999999999999e+00 6.3938655561404980e+00 2.6729697208330986e+01 0 0 0
666 2 7.3829999999999991e+00 4.2625770374269996e+00 2.6729697208330986e+01 0 0 0
668 2 8.6135000000000002e+00 4.9730065436648339e+00 2.6729697208330986e+01 0 0 0
707 2 8.6135000000000002e+00 6.3938655561404980e+00 2.6729697208330986e+01 0 0 0
627 2 4.9220000000000006e+00 7.1042950623783341e+00 2.6729697208330986e+01 0 0 0
664 2 7.3830000000000009e+00 7.1042950623783341e+00 2.6729697208330986e+01 0 0 0
592 2 0.0000000000000000e+00 8.5251540748539991e+00 2.6729697208330986e+01 0 0 0
594 2 1.2305000000000001e+00 9.2355835810918343e+00 2.6729697208330986e+01 0 0 0
621 2 2.4610000000000003e+00 8.5251540748539991e+00 2.6729697208330986e+01 0 0 0
623 2 3.6915000000000004e+00 9.2355835810918343e+00 2.6729697208330986e+01 0 0 0
590 2 0.0000000000000000e+00 1.1366872099805333e+01 2.6729697208330986e+01 0 0 0
617 2 1.2305000000000001e+00 1.0656442593567498e+01 2.6729697208330986e+01 0 0 0
619 2 2.4610000000000003e+00 1.1366872099805333e+01 2.6729697208330986e+01 0 0 0
654 2 3.6914999999999996e+00 1.0656442593567499e+01 2.6729697208330986e+01 0 0 0
658 2 4.9220000000000006e+00 8.5251540748539991e+00 2.6729697208330986e+01 0 0 0
660 2 6.1524999999999999e+00 9.2355835810918343e+00 2.6729697208330986e+01 0 0 0
703 2 7.3830000000000009e+00 8.5251540748539991e+00 2.6729697208330986e+01 0 0 0
705 2 8.6134999999999984e+00 9.2355835810918343e+00 2.6729697208330986e+01 0 0 0
656 2 4.9220000000000006e+00 1.1366872099805333e+01 2.6729697208330986e+01 0 0 0
699 2 6.1524999999999999e+00 1.0656442593567499e+01 2.6729697208330986e+01 0 0 0
701 2 7.3829999999999991e+00 1.1366872099805333e+01 2.6729697208330986e+01 0 0 0
746 2 8.6134999999999984e+00 1.0656442593567498e+01 2.6729697208330986e+01 0 0 0
613 2 0.0000000000000000e+00 1.2787731112280996e+01 2.6729697208330986e+01 0 0 0
652 2 3.6915000000000004e+00 1.3498160618518829e+01 2.6729697208330986e+01 0 0 0
650 2 2.4610000000000003e+00 1.2787731112280996e+01 2.6729697208330986e+01 0 0 0
611 2 0.0000000000000000e+00 1.5629449137232333e+01 2.6729697208330986e+01 0 0 0
615 2 1.2305000000000001e+00 1.3498160618518829e+01 2.6729697208330986e+01 0 0 0
646 2 1.2305000000000001e+00 1.4919019630994494e+01 2.6729697208330986e+01 0 0 0
691 2 3.6915000000000004e+00 1.4919019630994494e+01 2.6729697208330986e+01 0 0 0
648 2 2.4610000000000003e+00 1.5629449137232328e+01 2.6729697208330986e+01 0 0 0
738 2 6.1524999999999990e+00 1.4919019630994494e+01 2.6729697208330986e+01 0 0 0
744 2 8.6135000000000002e+00 1.3498160618518835e+01 2.6729697208330986e+01 0 0 0
693 2 4.9220000000000006e+00 1.5629449137232333e+01 2.6729697208330986e+01 0 0 0
740 2 7.3829999999999991e+00 1.5629449137232333e+01 2.6729697208330986e+01 0 0 0
695 2 4.9220000000000006e+00 1.2787731112280996e+01 2.6729697208330986e+01 0 0 0
742 2 7.3829999999999991e+00 1.2787731112280996e+01 2.6729697208330986e+01 0 0 0
4554 1 4.8962868565808320e+00 1.5791987694211823e+01 2.4339459770354523e+01 0 0 0
1678 1 2.2616287724597428e+00 1.5545662376807291e+01 2.4365998757731475e+01 0 -2 0
573 2 0.0000000000000000e+00 1.4208590124756650e+00 3.0030999999998478e+01 0 0 0
575 2 0.0000000000000000e+00 0.0000000000000000e+00 3.0030999999998478e+01 0 0 0
584 2 1.2305000000000001e+00 2.1312885187134998e+00 3.0030999999998478e+01 0 0 0
586 2 2.4610000000000003e+00 1.4208590124756650e+00 3.0030999999998478e+01 0 0 0
588 2 2.4610000000000003e+00 0.0000000000000000e+00 3.0030999999998478e+01 0 0 0
605 2 3.6914999999999996e+00 2.1312885187134998e+00 3.0030999999998478e+01 0 0 0
582 2 1.2305000000000001e+00 3.5521475311891644e+00 3.0030999999998478e+01 0 0 0
603 2 3.6914999999999996e+00 3.5521475311891644e+00 3.0030999999998478e+01 0 0 0
901 2 0.0000000000000000e+00 2.8417180249513345e+00 3.3332302791635541e+01 0 0 0
902 2 0.0000000000000000e+00 0.0000000000000000e+00 3.3332302791635541e+01 0 0 0
903 2 1.2305000000000001e+00 7.1042950623783474e-01 3.3332302791635541e+01 0 0 0
907 2 1.2305000000000001e+00 2.1312885187134998e+00 3.3332302791635541e+01 0 0 0
908 2 2.4610000000000003e+00 2.8417180249513345e+00 3.3332302791635541e+01 0 0 0
909 2 2.4610000000000003e+00 0.0000000000000000e+00 3.3332302791635541e+01 0 0 0
910 2 3.6915000000000004e+00 7.1042950623783474e-01 3.3332302791635541e+01 0 0 0
918 2 3.6914999999999996e+00 2.1312885187134998e+00 3.3332302791635541e+01 0 0 0
607 2 4.9220000000000006e+00 1.4208590124756650e+00 3.0030999999998478e+01 0 0 0
609 2 4.9220000000000006e+00 0.0000000000000000e+00 3.0030999999998478e+01 0 0 0
634 2 6.1524999999999999e+00 2.1312885187134989e+00 3.0030999999998478e+01 0 0 0
636 2 7.3829999999999991e+00 1.4208590124756659e+00 3.0030999999998478e+01 0 0 0
638 2 7.3829999999999991e+00 0.0000000000000000e+00 3.0030999999998478e+01 0 0 0
671 2 8.6134999999999984e+00 2.1312885187135002e+00 3.0030999999998478e+01 0 0 0
632 2 6.1524999999999999e+00 3.5521475311891644e+00 3.0030999999998478e+01 0 0 0
669 2 8.6134999999999984e+00 3.5521475311891657e+00 3.0030999999998478e+01 0 0 0
919 2 4.9220000000000006e+00 2.8417180249513332e+00 3.3332302791635541e+01 0 0 0
920 2 4.9220000000000006e+00 0.0000000000000000e+00 3.3332302791635541e+01 0 0 0
921 2 6.1524999999999999e+00 7.1042950623783407e-01 3.3332302791635541e+01 0 0 0
933 2 6.1524999999999999e+00 2.1312885187134989e+00 3.3332302791635541e+01 0 0 0
934 2 7.3829999999999991e+00 2.8417180249513345e+00 3.3332302791635541e+01 0 0 0
935 2 7.3829999999999991e+00 0.0000000000000000e+00 3.3332302791635541e+01 0 0 0
936 2 8.6134999999999984e+00 7.1042950623783407e-01 3.3332302791635541e+01 0 0 0
952 2 8.6134999999999984e+00 2.1312885187135002e+00 3.3332302791635541e+01 0 0 0
578 2 0.0000000000000000e+00 5.6834360499026637e+00 3.0030999999998478e+01 0 0 0
580 2 0.0000000000000000e+00 4.2625770374269996e+00 3.0030999999998478e+01 0 0 0
597 2 1.2305000000000001e+00 6.3938655561404980e+00 3.0030999999998478e+01 0 0 0
599 2 2.4610000000000003e+00 5.6834360499026637e+00 3.0030999999998478e+01 0 0 0
601 2 2.4610000000000003e+00 4.2625770374269996e+00 3.0030999999998478e+01 0 0 0
626 2 3.6914999999999996e+00 6.3938655561404980e+00 3.0030999999998478e+01 0 0 0
595 2 1.2305000000000001e+00 7.8147245686161639e+00 3.0030999999998478e+01 0 0 0
624 2 3.6914999999999996e+00 7.8147245686161639e+00 3.0030999999998478e+01 0 0 0
905 2 0.0000000000000000e+00 4.2625770374269996e+00 3.3332302791635541e+01 0 0 0
906 2 1.2305000000000001e+00 4.9730065436648339e+00 3.3332302791635541e+01 0 0 0
914 2 1.2305000000000001e+00 6.3938655561404980e+00 3.3332302791635541e+01 0 0 0
916 2 2.4610000000000003e+00 4.2625770374269996e+00 3.3332302791635541e+01 0 0 0
917 2 3.6914999999999996e+00 4.9730065436648339e+00 3.3332302791635541e+01 0 0 0
929 2 3.6914999999999996e+00 6.3938655561404980e+00 3.3332302791635541e+01 0 0 0
904 2 0.0000000000000000e+00 7.1042950623783341e+00 3.3332302791635541e+01 0 0 0
915 2 2.4610000000000003e+00 7.1042950623783341e+00 3.3332302791635541e+01 0 0 0
628 2 4.9220000000000006e+00 5.6834360499026637e+00 3.0030999999998478e+01 0 0 0
630 2 4.9220000000000006e+00 4.2625770374269978e+00 3.0030999999998478e+01 0 0 0
663 2 6.1524999999999999e+00 6.3938655561404980e+00 3.0030999999998478e+01 0 0 0
665 2 7.3829999999999991e+00 5.6834360499026637e+00 3.0030999999998478e+01 0 0 0
667 2 7.3829999999999991e+00 4.2625770374269996e+00 3.0030999999998478e+01 0 0 0
708 2 8.6135000000000002e+00 6.3938655561404980e+00 3.0030999999998478e+01 0 0 0
661 2 6.1524999999999999e+00 7.8147245686161639e+00 3.0030999999998478e+01 0 0 0
706 2 8.6135000000000002e+00 7.8147245686161639e+00 3.0030999999998478e+01 0 0 0
931 2 4.9220000000000006e+00 4.2625770374269978e+00 3.3332302791635541e+01 0 0 0
932 2 6.1524999999999999e+00 4.9730065436648339e+00 3.3332302791635541e+01 0 0 0
948 2 6.1524999999999999e+00 6.3938655561404980e+00 3.3332302791635541e+01 0 0 0
950 2 7.3829999999999991e+00 4.2625770374269996e+00 3.3332302791635541e+01 0 0 0
951 2 8.6135000000000002e+00 4.9730065436648339e+00 3.3332302791635541e+01 0 0 0
971 2 8.6135000000000002e+00 6.3938655561404980e+00 3.3332302791635541e+01 0 0 0
930 2 4.9220000000000006e+00 7.1042950623783341e+00 3.3332302791635541e+01 0 0 0
949 2 7.3830000000000009e+00 7.1042950623783341e+00 3.3332302791635541e+01 0 0 0
591 2 0.0000000000000000e+00 9.9460130873296642e+00 3.0030999999998478e+01 0 0 0
593 2 0.0000000000000000e+00 8.5251540748539991e+00 3.0030999999998478e+01 0 0 0
620 2 2.4610000000000003e+00 9.9460130873296642e+00 3.0030999999998478e+01 0 0 0
622 2 2.4610000000000003e+00 8.5251540748539991e+00 3.0030999999998478e+01 0 0 0
616 2 1.2305000000000001e+00 1.2077301606043163e+01 3.0030999999998478e+01 0 0 0
618 2 1.2305000000000001e+00 1.0656442593567498e+01 3.0030999999998478e+01 0 0 0
653 2 3.6914999999999996e+00 1.2077301606043163e+01 3.0030999999998478e+01 0 0 0
655 2 3.6914999999999996e+00 1.0656442593567499e+01 3.0030999999998478e+01 0 0 0
912 2 0.0000000000000000e+00 8.5251540748539991e+00 3.3332302791635541e+01 0 0 0
913 2 1.2305000000000001e+00 9.2355835810918343e+00 3.3332302791635541e+01 0 0 0
927 2 2.4610000000000003e+00 8.5251540748539991e+00 3.3332302791635541e+01 0 0 0
928 2 3.6915000000000004e+00 9.2355835810918343e+00 3.3332302791635541e+01 0 0 0
911 2 0.0000000000000000e+00 1.1366872099805333e+01 3.3332302791635541e+01 0 0 0
925 2 1.2305000000000001e+00 1.0656442593567498e+01 3.3332302791635541e+01 0 0 0
926 2 2.4610000000000003e+00 1.1366872099805333e+01 3.3332302791635541e+01 0 0 0
944 2 3.6914999999999996e+00 1.0656442593567499e+01 3.3332302791635541e+01 0 0 0
657 2 4.9220000000000006e+00 9.9460130873296642e+00 3.0030999999998478e+01 0 0 0
659 2 4.9220000000000006e+00 8.5251540748539991e+00 3.0030999999998478e+01 0 0 0
702 2 7.3830000000000009e+00 9.9460130873296642e+00 3.0030999999998478e+01 0 0 0
704 2 7.3830000000000009e+00 8.5251540748539991e+00 3.0030999999998478e+01 0 0 0
698 2 6.1524999999999999e+00 1.2077301606043163e+01 3.0030999999998478e+01 0 0 0
700 2 6.1524999999999999e+00 1.0656442593567499e+01 3.0030999999998478e+01 0 0 0
745 2 8.6135000000000002e+00 1.2077301606043163e+01 3.0030999999998478e+01 0 0 0
747 2 8.6134999999999984e+00 1.0656442593567498e+01 3.0030999999998478e+01 0 0 0
946 2 4.9220000000000006e+00 8.5251540748539991e+00 3.3332302791635541e+01 0 0 0
947 2 6.1524999999999999e+00 9.2355835810918343e+00 3.3332302791635541e+01 0 0 0
969 2 7.3830000000000009e+00 8.5251540748539991e+00 3.3332302791635541e+01 0 0 0
970 2 8.6134999999999984e+00 9.2355835810918343e+00 3.3332302791635541e+01 0 0 0
945 2 4.9220000000000006e+00 1.1366872099805333e+01 3.3332302791635541e+01 0 0 0
967 2 6.1524999999999999e+00 1.0656442593567499e+01 3.3332302791635541e+01 0 0 0
968 2 7.3829999999999991e+00 1.1366872099805333e+01 3.3332302791635541e+01 0 0 0
991 2 8.6134999999999984e+00 1.0656442593567498e+01 3.3332302791635541e+01 0 0 0
614 2 0.0000000000000000e+00 1.2787731112280996e+01 3.0030999999998478e+01 0 0 0
651 2 2.4610000000000003e+00 1.2787731112280996e+01 3.0030999999998478e+01 0 0 0
612 2 0.0000000000000000e+00 1.4208590124756663e+01 3.0030999999998478e+01 0 0 0
647 2 1.2305000000000001e+00 1.4919019630994494e+01 3.0030999999998478e+01 0 0 0
649 2 2.4610000000000003e+00 1.4208590124756663e+01 3.0030999999998478e+01 0 0 0
692 2 3.6915000000000004e+00 1.4919019630994494e+01 3.0030999999998478e+01 0 0 0
923 2 0.0000000000000000e+00 1.2787731112280996e+01 3.3332302791635541e+01 0 0 0
924 2 1.2305000000000001e+00 1.3498160618518829e+01 3.3332302791635541e+01 0 0 0
942 2 2.4610000000000003e+00 1.2787731112280996e+01 3.3332302791635541e+01 0 0 0
943 2 3.6915000000000004e+00 1.3498160618518829e+01 3.3332302791635541e+01 0 0 0
922 2 0.0000000000000000e+00 1.5629449137232333e+01 3.3332302791635541e+01 0 0 0
940 2 1.2305000000000001e+00 1.4919019630994494e+01 3.3332302791635541e+01 0 0 0
941 2 2.4610000000000003e+00 1.5629449137232328e+01 3.3332302791635541e+01 0 0 0
963 2 3.6915000000000004e+00 1.4919019630994494e+01 3.3332302791635541e+01 0 0 0
696 2 4.9220000000000006e+00 1.2787731112280996e+01 3.0030999999998478e+01 0 0 0
743 2 7.3829999999999991e+00 1.2787731112280996e+01 3.0030999999998478e+01 0 0 0
694 2 4.9220000000000006e+00 1.4208590124756663e+01 3.0030999999998478e+01 0 0 0
739 2 6.1524999999999990e+00 1.4919019630994494e+01 3.0030999999998478e+01 0 0 0
741 2 7.3830000000000009e+00 1.4208590124756663e+01 3.0030999999998478e+01 0 0 0
786 2 8.6135000000000002e+00 1.4919019630994494e+01 3.0030999999998478e+01 0 0 0
965 2 4.9220000000000006e+00 1.2787731112280996e+01 3.3332302791635541e+01 0 0 0
966 2 6.1524999999999990e+00 1.3498160618518829e+01 3.3332302791635541e+01 0 0 0
989 2 7.3829999999999991e+00 1.2787731112280996e+01 3.3332302791635541e+01 0 0 0
990 2 8.6135000000000002e+00 1.3498160618518835e+01 3.3332302791635541e+01 0 0 0
964 2 4.9220000000000006e+00 1.5629449137232333e+01 3.3332302791635541e+01 0 0 0
987 2 6.1524999999999990e+00 1.4919019630994494e+01 3.3332302791635541e+01 0 0 0
988 2 7.3829999999999991e+00 1.5629449137232333e+01 3.3332302791635541e+01 0 0 0
1011 2 8.6135000000000002e+00 1.4919019630994494e+01 3.3332302791635541e+01 0 0 0
4734 1 8.4288232615278325e-01 1.7305491853895214e+00 3.6706082611525503e+01 -1 1 -1
3214 1 2.1709893222548575e+00 4.0401355409762791e+00 3.6109388043839203e+01 1 1 0
2999 1 4.5918887507527009e+00 1.3145344225714441e+01 3.9243044519111606e+01 0 0 0
4564 1 4.8018028442486580e+00 4.1185439719470613e+00 3.6865211482682611e+01 0 -1 0
4548 1 6.0837320404051685e+00 2.0134340448445407e+00 3.5825551388281795e+01 0 1 0
319 1 8.9014855970970643e+00 2.0654225598333871e+00 3.6148161288010087e+01 -1 1 0
3021 1 7.3313004789868563e-01 1.8680707172632907e+00 3.9584765353755898e+01 -1 2 -1
1313 1 7.3737485353383914e-01 6.4864048650774171e+00 3.6583375394346234e+01 1 0 0
255 1 8.6999308949750862e+00 1.1031667573481068e+01 3.9297811393993655e+01 -2 -1 -1
3768 1 6.2608120195928958e+00 6.3923168643479187e+00 3.5775338437839025e+01 -4 0 0
5182 1 8.9373126401620198e+00 6.6352967638641953e+00 3.6768720075161966e+01 1 -2 -1
3122 1 1.0420902359611652e+00 1.0878149116911162e+01 3.9498091004739692e+01 0 -1 -1
1291 1 8.6886922336901922e+00 1.5632685986266601e+01 3.9281387933574493e+01 1 -2 0
6381 1 4.8809644801625698e+00 8.8913206596051939e+00 3.9377158020259557e+01 3 -2 0
4489 1 2.6241035784464097e+00 8.7578340307515266e+00 3.6198325329581976e+01 2 2 -1
1711 1 1.2563820779535777e+00 1.0969643060051652e+01 3.6863666271539955e+01 2 1 -1
487 1 4.9738690949740159e+00 1.3486220779527414e+01 3.6543760467411772e+01 0 0 0
3358 1 5.2585949619782824e+00 8.8055241237177597e+00 3.6672548792020748e+01 0 0 -1
6344 1 6.1681257923721935e+00 1.1165091279265207e+01 3.5873453265311156e+01 -3 -1 -1
5397 1 8.8538365761897406e+00 1.1108838287899324e+01 3.6682324512193247e+01 -2 1 0
1646 1 8.6802310295328677e+00 1.7843850709205864e+00 3.9422290346200938e+01 -1 3 -1
1875 1 2.3820712325657949e+00 1.3331866311146156e+01 3.5783791059833021e+01 -1 0 -1
3104 1 9.3820895389611625e-01 1.5593639816559545e+01 3.6281149051632212e+01 1 1 0
152 1 9.8691178422936598e-01 1.5359468720147152e+01 3.9382878003576963e+01 0 1 -1
4640 1 4.7157854093927840e+00 4.3129186634703371e+00 3.9602827531752894e+01 3 2 0
3078 1 6.7126576688765063e+00 1.5409951920664309e+01 3.5636876332075985e+01 -2 -3 0
1570 1 9.0738683921243073e+00 1.5371812659152409e+01 3.6599136913099969e+01 0 1 0
3289 1 8.3787633802087544e+00 6.2403244475114263e+00 3.9606651051078401e+01 -1 1 -1
5205 1 8.9587972380801584e-01 6.5609452266956279e+00 3.9716324934557733e+01 2 -2 -1
3332 1 3.3953342112045148e+00 1.6256144671978439e+00 4.4000547196327744e+01 3 1 -1
5007 1 6.2443064866941365e+00 1.9957447735596614e+00 4.3305412218716370e+01 0 1 -1
6111 1 6.2607726942811608e+00 2.0268301128067550e+00 4.0652701966045200e+01 2 1 -1
4529 1 7.5477573148619612e+00 4.3880059980984054e+00 4.4547390185645654e+01 1 0 0
1471 1 2.1987747836223255e+00 3.9990526753526363e+00 4.3047556866626081e+01 1 2 0
1377 1 2.2555925504560475e+00 4.2188372032867623e+00 4.0440296326902839e+01 2 3 0
3211 1 3.4717614179517771e+00 6.5401475426374915e+00 4.4080629053673988e+01 -1 1 -1
4557 1 5.9351424388770795e+00 6.5222003297050666e+00 4.0824227775028291e+01 -1 -1 0
6399 1 6.1644255820381639e+00 6.4000732850017430e+00 4.3575091436944035e+01 -2 2 0
7 1 2.2931313922048941e+00 8.6169608379114226e+00 4.0414615722767721e+01 0 1 0
6462 1 2.0906670103692666e+00 8.5656288539709013e+00 4.3098146121179767e+01 0 0 -1
2032 1 3.5859516153846243e+00 1.0739688914998306e+01 4.4027619014507565e+01 1 1 -1
6476 1 6.1686663704566840e+00 1.1141229086106703e+01 4.0458633794561322e+01 1 0 0
3690 1 6.1211095940548121e+00 1.1163654789577054e+01 4.3144484316625693e+01 2 0 0
2044 1 7.5795729557839708e+00 9.0396345770684707e+00 4.4305610730552274e+01 3 -1 -1
5093 1 2.1826211844514933e+00 1.2997106926362463e+01 4.3338424143883614e+01 -2 0 0
4509 1 3.7650441049691041e+00 1.5127321223859239e+01 4.3769690060892955e+01 -1 0 0