LAMMPS data file via write_data, version 16 Mar 2018, timestep = 100000

6489 atoms
2 atom types

0.0000000000000000e+00 4.9219999999999999e+01 xlo xhi
0.0000000000000000e+00 4.9019635930410494e+01 ylo yhi
2.0314077904874530e+00 5.8030592209512548e+01 zlo zhi

Masses

1 18.015
2 12.01

Atoms # atomic

3554 1 6.0954705298256124e+00 3.7779894922585071e+00 1.1072009489828041e+01 2 0 0
6255 1 5.7570543848122258e+00 1.8547133205733939e+00 6.6469374571687689e+00 0 0 1
151 1 3.5813468531140971e+00 3.5284326152157637e+00 6.4434283559142616e+00 1 1 0
3510 1 8.3444284076661681e+00 4.9199555239087092e+00 6.4386910029501170e+00 1 0 0
5041 1 6.3323635177469129e+00 1.9627965393211311e+00 3.8596262332799753e+00 0 1 1
3302 1 1.1371182947300169e+00 2.9359249637737013e+00 5.2668449940870357e+00 1 0 0
1977 1 8.0501049363819621e-01 5.0214307489462913e+00 3.3576484504059563e+00 0 0 0
55 1 4.5473846775836497e+00 5.6192516477785377e+00 5.0514755374056719e+00 0 1 0
1479 1 1.1386346715087883e+00 9.4245845416503684e+00 3.2664088773684616e+00 0 0 1
1443 1 9.3739342579692142e+00 1.5736876231545821e+01 4.9256587313239670e+00 0 0 1
4987 1 6.8756994440216790e+00 4.6959613505933735e+00 4.2465565215073022e+00 0 0 1
3791 1 4.9267430169626349e+00 8.1979333049327838e+00 6.3778491207252843e+00 0 0 1
3174 1 3.6449281255441908e+00 1.0417898045616935e+01 4.4366759481958429e+00 0 -1 1
3635 1 3.8630063528741148e+00 1.2825944012003806e+01 6.1039844597217092e+00 0 0 0
1302 1 2.5248246325444472e+00 1.1738136749638972e+01 1.1029970659813666e+01 2 1 1
1592 1 7.0938174294814145e+00 9.4729975401853590e+00 5.2073047172867239e+00 0 1 0
5139 1 1.3284634227882303e-01 9.5213883180278760e+00 1.1072022381406507e+01 1 1 0
3661 1 2.9689567491573978e+00 5.2266092653746743e-01 9.5655319082520087e+00 1 -1 0
4787 1 5.9226588583527890e+00 1.0057011930811960e+01 2.7601143609867100e+00 0 0 1
5028 1 1.2925478298571236e+00 1.4083870196848816e+01 6.4685181807797383e+00 0 -1 1
1835 1 4.6365223031281690e+00 1.5921141504974578e+01 9.3898845537901821e+00 1 0 0
3009 1 8.5242639220888705e+00 6.2073852717380564e+00 2.5383836843036760e+00 0 1 1
4494 1 4.6083455581143973e+00 1.4474076919823766e+01 3.8641047192977203e+00 0 1 1
432 1 3.5646705005831656e+00 5.4075454191027132e+00 2.5052990743630570e+00 1 0 0
3775 1 6.4049142483463344e+00 1.6061897950362653e+01 5.5201491463642087e+00 1 1 1
37 1 1.0324182515328835e+00 2.4199652885913285e+00 9.9682440526008129e+00 1 0 1
5024 1 4.1849146830362214e+00 2.6573323833932538e-01 2.3874490302088494e+00 1 1 0
98 1 7.6853734835512799e-01 1.2852359529918909e+01 8.7848717568282417e+00 1 1 0
4915 1 7.8106352589966184e+00 1.3427473391579923e+01 1.0013214493542385e+01 1 0 0
5027 1 8.9837130255309390e+00 2.2366274579772827e-01 8.4470975303810860e+00 0 0 0
5162 1 7.2439883754218481e+00 2.6480472577516037e+00 8.6688290255062022e+00 1 1 0
3571 1 4.6802880762702701e+00 5.9470198908634355e+00 1.0156719293597883e+01 1 0 0
3395 1 4.7808797004681458e-01 6.4441216081805601e+00 7.9206185908272237e+00 2 0 0
5166 1 2.5170224535691741e+00 4.7683231121212977e+00 8.6278768064687394e+00 0 0 0
3352 1 5.7677553638871295e+00 8.4894344431908486e+00 9.0119991933106860e+00 1 0 1
1895 1 9.0155446030160249e+00 7.6034007687444412e+00 5.4158455911723689e+00 0 0 0
4711 1 1.9066649133687392e+00 8.8235328904006280e+00 6.6187748264792425e+00 1 0 1
3076 1 3.5296188391590011e+00 1.0716378562845943e+01 8.4809162126393360e+00 0 0 1
3227 1 7.7118214738407769e+00 1.1964289820776347e+01 6.8615281141008815e+00 0 1 1
1298 1 8.7346234017227964e+00 8.0554621556522203e+00 8.4357863193697291e+00 1 0 1
5350 1 5.8566067614444961e+00 1.1409001988205620e+01 1.0261748258047920e+01 0 1 1
530 1 6.0141005973853501e+00 1.3974851487579169e+01 7.3827195887176655e+00 1 0 1
3030 1 9.0142831709632283e+00 1.1936990934589125e+00 3.0174115733858935e+00 0 1 1
372 1 6.2825402943617350e+00 1.2852695118631571e+01 2.1693716137897590e+00 0 0 1
1387 1 1.8861921907078980e-01 1.1905461996221684e+01 2.0801212762177625e+00 0 -1 1
3158 1 9.0958421251572954e+00 1.2057266604468447e+01 2.4000379069678375e+00 -1 1 1
1329 1 9.5906913004204188e+00 1.0995352649606321e+01 8.9024261522117420e+00 0 0 1
1257 1 1.5802112819374023e+00 4.0156179265938441e-01 3.9426477798307769e+00 0 1 0
318 1 9.8282402285891344e+00 1.3024922573416889e+01 4.9726122788244655e+00 1 0 0
368 1 7.9784233325133584e+00 1.6045419611482661e+01 8.6417094534319894e+00 0 0 0
3464 1 7.8518080212989467e+00 9.6921306965699205e+00 1.1328385566356568e+01 0 0 0
1878 1 2.3257193174431641e+00 1.1380321596022705e+01 1.9956517773762663e+01 0 0 0
5161 1 2.7840784502837339e+00 3.7827701988138887e+00 1.1779177470326776e+01 2 1 1
1776 1 4.5837380504201057e+00 1.3294452312009046e+00 1.1727059660567106e+01 0 1 0
2156 1 1.4085731644008852e+00 1.2298112490551864e+01 1.4465914595585890e+01 1 0 0
5104 1 8.6728656581687424e+00 3.6440803645410180e+00 1.1734779866119974e+01 0 0 0
3502 1 7.2192217869031925e+00 1.9276618781590067e+00 1.5235696749676675e+01 1 1 0
437 1 1.6303908822012010e+00 6.0412087267440633e+00 1.2736371180922214e+01 1 1 0
68 1 5.2086756486648778e+00 7.3136370347840840e+00 1.6745607346588841e+01 0 1 1
1917 1 3.7847324524789148e+00 7.5629848989694954e+00 1.2183411408688093e+01 1 1 0
2072 1 5.5720057323102301e+00 4.1028162908794732e+00 1.4776236338551357e+01 1 1 0
2873 1 5.8586814405878824e+00 6.7464690469284649e+00 1.3976773775095795e+01 0 -1 1
2055 1 3.8376010626204495e+00 9.8880960849420170e+00 1.6213310819614758e+01 2 0 0
3148 1 9.3292902189554727e+00 1.7148103595303958e+00 1.3547452595478472e+01 1 1 0
5202 1 8.0091109718950069e+00 1.6223282470533231e+01 1.6327167792884769e+01 1 1 1
1 1 2.2952928901343070e+00 9.7434773019935950e+00 1.3349527675687849e+01 0 0 0
1627 1 7.0624854672579351e+00 7.6735341769334822e+00 1.8921888835547829e+01 0 0 1
65 1 5.1586431273667461e+00 1.1503615345467541e+01 1.2998751097848094e+01 1 0 0
6193 1 9.0812598795496982e+00 1.0219303495008223e+01 1.5989988529754466e+01 0 0 1
6456 1 3.9422108028952354e+00 1.2787481700280185e+01 1.5915810824738410e+01 -1 0 0
4936 1 6.1099504756692413e+00 1.6219322326924523e+01 1.2503403198177672e+01 1 1 0
1611 1 3.7078943311545718e+00 1.4105594001992872e+01 1.2500630582638212e+01 0 1 1
3444 1 6.3697438061892253e+00 1.1837411791112759e+01 1.6961280617131166e+01 1 1 0
4871 1 6.4237179050869289e+00 1.4548852951721141e+01 1.8364568169766507e+01 0 -1 0
361 1 8.8867448789561667e+00 1.4368710696967025e+01 1.9629267079032680e+01 0 0 0
2053 1 2.8862660323557732e+00 3.2440952418055620e+00 1.4433618912556677e+01 1 0 0
3707 1 3.3681966613082195e+00 1.3564861222054827e+01 1.8341218255406659e+01 1 0 0
4733 1 7.6700976065644495e+00 1.1721502146451103e+01 1.4034214959270299e+01 0 1 0
5220 1 2.7592069155900254e+00 2.6668904199166268e+00 1.7876122665015767e+01 1 1 0
92 1 8.5158814269566410e+00 7.9445672190709846e+00 1.4071383830941000e+01 1 1 0
1768 1 5.9306139492429077e-01 3.6693353396510213e+00 1.5667210057709937e+01 1 0 0
5039 1 4.9383798905700544e+00 4.5818122189888575e+00 1.7646595010063237e+01 1 1 1
3052 1 1.9345214127715784e+00 6.8880507903871457e+00 1.8130083415387983e+01 1 -1 1
3607 1 8.3949078253409013e+00 1.4132119744858226e+01 1.2773924736377815e+01 1 0 1
6239 1 2.1339989448566974e+00 1.5892843235891849e+01 1.1492254052297683e+01 0 0 1
286 1 8.2001343066122701e+00 1.8690164687910613e+00 1.7741384288849268e+01 0 0 0
2002 1 4.2096063822179346e+00 6.4433770453792487e+00 1.9990359527897514e+01 1 0 0
3091 1 1.8746664951059515e+00 9.6915862859925443e+00 1.7861999600448680e+01 0 1 1
453 1 5.3342785665290311e+00 7.3447973805072231e-01 1.9058882827127889e+01 0 0 0
3040 1 7.7606498293173509e-01 1.4321848767604980e+01 1.6984225766223165e+01 0 0 1
1802 1 6.9810206082046546e+00 1.0562630321525544e+01 1.9382700979649016e+01 0 1 1
5119 1 9.1778819954978772e+00 1.1878978008796304e+01 2.0515088602170763e+01 0 1 0
2887 1 3.1057838731520127e-01 1.5707013490371953e+01 1.4446347174854489e+01 0 0 1
153 1 6.8712253508091070e+00 3.8515079039585087e+00 1.9567867552848753e+01 1 0 1
4529 1 3.1756485676303066e+00 1.5428720311974182e+01 1.5053002904924844e+01 1 0 1
5241 1 1.5168414711087568e+00 1.9796903683470417e+00 2.0471984893369921e+01 2 1 0
3585 1 2.9471365584398419e+00 6.8731790021985195e-01 1.4426599743970238e+01 1 0 0
52 1 9.6689367076733550e+00 8.7012948362838021e+00 1.8304590998218153e+01 1 0 1
1286 1 8.3017943385982562e-02 6.4329774072313821e+00 2.0245421603433233e+01 0 0 1
5183 1 2.8642269524195600e+00 8.8752036543827959e+00 2.0968310023672519e+01 1 0 1
1836 1 4.8200475411351684e+00 2.3196460513764459e+00 2.1393460086542955e+01 0 0 0
1886 1 2.6679774301376530e-01 1.6262147632337363e+01 2.4239501934368484e+01 2 0 0
5047 1 3.2705411188667783e+00 2.0532962340607850e+00 2.3993362738701620e+01 1 0 0
742 2 7.3829999999999991e+00 1.2787731112280996e+01 2.6877347144822533e+01 0 0 0
1494 1 6.3178852703424235e+00 2.1802805993947718e+00 2.3770372827493510e+01 0 0 1
5052 1 3.9497804254895006e+00 6.9316064781239968e+00 2.4038421099342905e+01 0 1 0
1642 1 3.2685365700160891e+00 4.8054260609162940e+00 2.2174291248973727e+01 0 1 0
3285 1 8.7148111536481974e+00 6.7796805078352074e-01 2.4025003869791409e+01 1 1 0
744 2 8.6135000000000002e+00 1.3498160618518835e+01 2.6877347144822533e+01 0 0 0
4875 1 7.7854940640303667e+00 6.1911435859988702e+00 2.0917105931672808e+01 1 -1 0
1595 1 6.7225873131480300e+00 6.9830177253937231e+00 2.3895927176863040e+01 0 0 0
300 1 7.8714593701297746e+00 4.5526298569676928e+00 2.4413323860503745e+01 2 0 0
697 2 6.1524999999999990e+00 1.3498160618518829e+01 2.6877347144822533e+01 0 0 0
695 2 4.9220000000000006e+00 1.2787731112280996e+01 2.6877347144822533e+01 0 0 0
3604 1 3.2868615700935360e+00 1.3392437110663124e+01 2.4160001268344324e+01 1 0 0
3615 1 2.5226637549804884e+00 9.3366211771387633e+00 2.3809729033709235e+01 1 1 0
785 2 8.6135000000000002e+00 1.4919019630994494e+01 2.6877347144822533e+01 0 0 0
3354 1 4.8467715623256460e+00 1.1348541636786566e+01 2.1118371662780000e+01 0 1 0
1833 1 4.7331457911452919e+00 1.1170765229634323e+01 2.3964531913236137e+01 0 0 0
1986 1 7.3716972196261317e+00 9.7884745390226104e+00 2.4384593607270478e+01 1 1 0
3621 1 8.9898058955215170e+00 8.8072432794312796e+00 2.1989292776300335e+01 0 0 0
5106 1 8.4987110239413628e+00 1.2163941568716149e+01 2.3218797206115955e+01 0 -1 0
5014 1 8.8176581874245059e+00 1.5355424941904896e+00 2.1061957123436720e+01 0 0 0
3411 1 7.9707486204057454e-01 1.1896454439912787e+01 2.4432340515068709e+01 0 0 0
400 1 1.6838816743621090e+00 1.4998539729587572e+01 2.1929774138997839e+01 1 1 0
3104 1 7.2812037538853032e+00 1.4649628196005787e+01 2.4619084747517679e+01 0 0 1
5375 1 4.4968066428541036e+00 1.4378266155385619e+01 2.1263631571256095e+01 0 -1 0
481 1 4.8904042801641161e+00 1.5596213862366465e+01 2.3887159049493484e+01 0 0 0
572 2 0.0000000000000000e+00 2.8417180249513345e+00 2.6877347144822533e+01 0 0 0
574 2 0.0000000000000000e+00 0.0000000000000000e+00 2.6877347144822533e+01 0 0 0
576 2 1.2305000000000001e+00 7.1042950623783474e-01 2.6877347144822533e+01 0 0 0
583 2 1.2305000000000001e+00 2.1312885187134998e+00 2.6877347144822533e+01 0 0 0
585 2 2.4610000000000003e+00 2.8417180249513345e+00 2.6877347144822533e+01 0 0 0
587 2 2.4610000000000003e+00 0.0000000000000000e+00 2.6877347144822533e+01 0 0 0
589 2 3.6915000000000004e+00 7.1042950623783474e-01 2.6877347144822533e+01 0 0 0
604 2 3.6914999999999996e+00 2.1312885187134998e+00 2.6877347144822533e+01 0 0 0
606 2 4.9220000000000006e+00 2.8417180249513332e+00 2.6877347144822533e+01 0 0 0
608 2 4.9220000000000006e+00 0.0000000000000000e+00 2.6877347144822533e+01 0 0 0
610 2 6.1524999999999999e+00 7.1042950623783407e-01 2.6877347144822533e+01 0 0 0
633 2 6.1524999999999999e+00 2.1312885187134989e+00 2.6877347144822533e+01 0 0 0
635 2 7.3829999999999991e+00 2.8417180249513345e+00 2.6877347144822533e+01 0 0 0
637 2 7.3829999999999991e+00 0.0000000000000000e+00 2.6877347144822533e+01 0 0 0
639 2 8.6134999999999984e+00 7.1042950623783407e-01 2.6877347144822533e+01 0 0 0
670 2 8.6134999999999984e+00 2.1312885187135002e+00 2.6877347144822533e+01 0 0 0
579 2 0.0000000000000000e+00 4.2625770374269996e+00 2.6877347144822533e+01 0 0 0
581 2 1.2305000000000001e+00 4.9730065436648339e+00 2.6877347144822533e+01 0 0 0
596 2 1.2305000000000001e+00 6.3938655561404980e+00 2.6877347144822533e+01 0 0 0
600 2 2.4610000000000003e+00 4.2625770374269996e+00 2.6877347144822533e+01 0 0 0
602 2 3.6914999999999996e+00 4.9730065436648339e+00 2.6877347144822533e+01 0 0 0
625 2 3.6914999999999996e+00 6.3938655561404980e+00 2.6877347144822533e+01 0 0 0
577 2 0.0000000000000000e+00 7.1042950623783341e+00 2.6877347144822533e+01 0 0 0
598 2 2.4610000000000003e+00 7.1042950623783341e+00 2.6877347144822533e+01 0 0 0
629 2 4.9220000000000006e+00 4.2625770374269978e+00 2.6877347144822533e+01 0 0 0
631 2 6.1524999999999999e+00 4.9730065436648339e+00 2.6877347144822533e+01 0 0 0
662 2 6.1524999999999999e+00 6.3938655561404980e+00 2.6877347144822533e+01 0 0 0
666 2 7.3829999999999991e+00 4.2625770374269996e+00 2.6877347144822533e+01 0 0 0
668 2 8.6135000000000002e+00 4.9730065436648339e+00 2.6877347144822533e+01 0 0 0
707 2 8.6135000000000002e+00 6.3938655561404980e+00 2.6877347144822533e+01 0 0 0
627 2 4.9220000000000006e+00 7.1042950623783341e+00 2.6877347144822533e+01 0 0 0
664 2 7.3830000000000009e+00 7.1042950623783341e+00 2.6877347144822533e+01 0 0 0
592 2 0.0000000000000000e+00 8.5251540748539991e+00 2.6877347144822533e+01 0 0 0
594 2 1.2305000000000001e+00 9.2355835810918343e+00 2.6877347144822533e+01 0 0 0
621 2 2.4610000000000003e+00 8.5251540748539991e+00 2.6877347144822533e+01 0 0 0
623 2 3.6915000000000004e+00 9.2355835810918343e+00 2.6877347144822533e+01 0 0 0
590 2 0.0000000000000000e+00 1.1366872099805333e+01 2.6877347144822533e+01 0 0 0
617 2 1.2305000000000001e+00 1.0656442593567498e+01 2.6877347144822533e+01 0 0 0
619 2 2.4610000000000003e+00 1.1366872099805333e+01 2.6877347144822533e+01 0 0 0
654 2 3.6914999999999996e+00 1.0656442593567499e+01 2.6877347144822533e+01 0 0 0
658 2 4.9220000000000006e+00 8.5251540748539991e+00 2.6877347144822533e+01 0 0 0
660 2 6.1524999999999999e+00 9.2355835810918343e+00 2.6877347144822533e+01 0 0 0
703 2 7.3830000000000009e+00 8.5251540748539991e+00 2.6877347144822533e+01 0 0 0
705 2 8.6134999999999984e+00 9.2355835810918343e+00 2.6877347144822533e+01 0 0 0
656 2 4.9220000000000006e+00 1.1366872099805333e+01 2.6877347144822533e+01 0 0 0
699 2 6.1524999999999999e+00 1.0656442593567499e+01 2.6877347144822533e+01 0 0 0
701 2 7.3829999999999991e+00 1.1366872099805333e+01 2.6877347144822533e+01 0 0 0
746 2 8.6134999999999984e+00 1.0656442593567498e+01 2.6877347144822533e+01 0 0 0
648 2 2.4610000000000003e+00 1.5629449137232328e+01 2.6877347144822533e+01 0 0 0
691 2 3.6915000000000004e+00 1.4919019630994494e+01 2.6877347144822533e+01 0 0 0
613 2 0.0000000000000000e+00 1.2787731112280996e+01 2.6877347144822533e+01 0 0 0
615 2 1.2305000000000001e+00 1.3498160618518829e+01 2.6877347144822533e+01 0 0 0
650 2 2.4610000000000003e+00 1.2787731112280996e+01 2.6877347144822533e+01 0 0 0
652 2 3.6915000000000004e+00 1.3498160618518829e+01 2.6877347144822533e+01 0 0 0
611 2 0.0000000000000000e+00 1.5629449137232333e+01 2.6877347144822533e+01 0 0 0
646 2 1.2305000000000001e+00 1.4919019630994494e+01 2.6877347144822533e+01 0 0 0
693 2 4.9220000000000006e+00 1.5629449137232333e+01 2.6877347144822533e+01 0 0 0
738 2 6.1524999999999990e+00 1.4919019630994494e+01 2.6877347144822533e+01 0 0 0
740 2 7.3829999999999991e+00 1.5629449137232333e+01 2.6877347144822533e+01 0 0 0
6400 1 4.8452895158185749e-01 1.2449123212729239e+01 2.1470550637742903e+01 1 0 0
5170 1 7.2913709958850548e-01 4.6000513673334673e+00 2.1917057128535436e+01 1 1 0
573 2 0.0000000000000000e+00 1.4208590124756650e+00 3.0031000000000311e+01 0 0 0
575 2 0.0000000000000000e+00 0.0000000000000000e+00 3.0031000000000311e+01 0 0 0
584 2 1.2305000000000001e+00 2.1312885187134998e+00 3.0031000000000311e+01 0 0 0
586 2 2.4610000000000003e+00 1.4208590124756650e+00 3.0031000000000311e+01 0 0 0
588 2 2.4610000000000003e+00 0.0000000000000000e+00 3.0031000000000311e+01 0 0 0
605 2 3.6914999999999996e+00 2.1312885187134998e+00 3.0031000000000311e+01 0 0 0
582 2 1.2305000000000001e+00 3.5521475311891644e+00 3.0031000000000311e+01 0 0 0
603 2 3.6914999999999996e+00 3.5521475311891644e+00 3.0031000000000311e+01 0 0 0
901 2 0.0000000000000000e+00 2.8417180249513345e+00 3.3184652855174015e+01 0 0 0
902 2 0.0000000000000000e+00 0.0000000000000000e+00 3.3184652855174015e+01 0 0 0
903 2 1.2305000000000001e+00 7.1042950623783474e-01 3.3184652855174015e+01 0 0 0
907 2 1.2305000000000001e+00 2.1312885187134998e+00 3.3184652855174015e+01 0 0 0
908 2 2.4610000000000003e+00 2.8417180249513345e+00 3.3184652855174015e+01 0 0 0
909 2 2.4610000000000003e+00 0.0000000000000000e+00 3.3184652855174015e+01 0 0 0
910 2 3.6915000000000004e+00 7.1042950623783474e-01 3.3184652855174015e+01 0 0 0
918 2 3.6914999999999996e+00 2.1312885187134998e+00 3.3184652855174015e+01 0 0 0
607 2 4.9220000000000006e+00 1.4208590124756650e+00 3.0031000000000311e+01 0 0 0
609 2 4.9220000000000006e+00 0.0000000000000000e+00 3.0031000000000311e+01 0 0 0
634 2 6.1524999999999999e+00 2.1312885187134989e+00 3.0031000000000311e+01 0 0 0
636 2 7.3829999999999991e+00 1.4208590124756659e+00 3.0031000000000311e+01 0 0 0
638 2 7.3829999999999991e+00 0.0000000000000000e+00 3.0031000000000311e+01 0 0 0
671 2 8.6134999999999984e+00 2.1312885187135002e+00 3.0031000000000311e+01 0 0 0
632 2 6.1524999999999999e+00 3.5521475311891644e+00 3.0031000000000311e+01 0 0 0
669 2 8.6134999999999984e+00 3.5521475311891657e+00 3.0031000000000311e+01 0 0 0
919 2 4.9220000000000006e+00 2.8417180249513332e+00 3.3184652855174015e+01 0 0 0
920 2 4.9220000000000006e+00 0.0000000000000000e+00 3.3184652855174015e+01 0 0 0
921 2 6.1524999999999999e+00 7.1042950623783407e-01 3.3184652855174015e+01 0 0 0
933 2 6.1524999999999999e+00 2.1312885187134989e+00 3.3184652855174015e+01 0 0 0
934 2 7.3829999999999991e+00 2.8417180249513345e+00 3.3184652855174015e+01 0 0 0
935 2 7.3829999999999991e+00 0.0000000000000000e+00 3.3184652855174015e+01 0 0 0
936 2 8.6134999999999984e+00 7.1042950623783407e-01 3.3184652855174015e+01 0 0 0
952 2 8.6134999999999984e+00 2.1312885187135002e+00 3.3184652855174015e+01 0 0 0
578 2 0.0000000000000000e+00 5.6834360499026637e+00 3.0031000000000311e+01 0 0 0
580 2 0.0000000000000000e+00 4.2625770374269996e+00 3.0031000000000311e+01 0 0 0
597 2 1.2305000000000001e+00 6.3938655561404980e+00 3.0031000000000311e+01 0 0 0
599 2 2.4610000000000003e+00 5.6834360499026637e+00 3.0031000000000311e+01 0 0 0
601 2 2.4610000000000003e+00 4.2625770374269996e+00 3.0031000000000311e+01 0 0 0
626 2 3.6914999999999996e+00 6.3938655561404980e+00 3.0031000000000311e+01 0 0 0
595 2 1.2305000000000001e+00 7.8147245686161639e+00 3.0031000000000311e+01 0 0 0
624 2 3.6914999999999996e+00 7.8147245686161639e+00 3.0031000000000311e+01 0 0 0
905 2 0.0000000000000000e+00 4.2625770374269996e+00 3.3184652855174015e+01 0 0 0
906 2 1.2305000000000001e+00 4.9730065436648339e+00 3.3184652855174015e+01 0 0 0
914 2 1.2305000000000001e+00 6.3938655561404980e+00 3.3184652855174015e+01 0 0 0
916 2 2.4610000000000003e+00 4.2625770374269996e+00 3.3184652855174015e+01 0 0 0
917 2 3.6914999999999996e+00 4.9730065436648339e+00 3.3184652855174015e+01 0 0 0
929 2 3.6914999999999996e+00 6.3938655561404980e+00 3.3184652855174015e+01 0 0 0
904 2 0.0000000000000000e+00 7.1042950623783341e+00 3.3184652855174015e+01 0 0 0
915 2 2.4610000000000003e+00 7.1042950623783341e+00 3.3184652855174015e+01 0 0 0
628 2 4.9220000000000006e+00 5.6834360499026637e+00 3.0031000000000311e+01 0 0 0
630 2 4.9220000000000006e+00 4.2625770374269978e+00 3.0031000000000311e+01 0 0 0
663 2 6.1524999999999999e+00 6.3938655561404980e+00 3.0031000000000311e+01 0 0 0
665 2 7.3829999999999991e+00 5.6834360499026637e+00 3.0031000000000311e+01 0 0 0
667 2 7.3829999999999991e+00 4.2625770374269996e+00 3.0031000000000311e+01 0 0 0
708 2 8.6135000000000002e+00 6.3938655561404980e+00 3.0031000000000311e+01 0 0 0
661 2 6.1524999999999999e+00 7.8147245686161639e+00 3.0031000000000311e+01 0 0 0
706 2 8.6135000000000002e+00 7.8147245686161639e+00 3.0031000000000311e+01 0 0 0
931 2 4.9220000000000006e+00 4.2625770374269978e+00 3.3184652855174015e+01 0 0 0
932 2 6.1524999999999999e+00 4.9730065436648339e+00 3.3184652855174015e+01 0 0 0
948 2 6.1524999999999999e+00 6.3938655561404980e+00 3.3184652855174015e+01 0 0 0
950 2 7.3829999999999991e+00 4.2625770374269996e+00 3.3184652855174015e+01 0 0 0
951 2 8.6135000000000002e+00 4.9730065436648339e+00 3.3184652855174015e+01 0 0 0
971 2 8.6135000000000002e+00 6.3938655561404980e+00 3.3184652855174015e+01 0 0 0
930 2 4.9220000000000006e+00 7.1042950623783341e+00 3.3184652855174015e+01 0 0 0
949 2 7.3830000000000009e+00 7.1042950623783341e+00 3.3184652855174015e+01 0 0 0
591 2 0.0000000000000000e+00 9.9460130873296642e+00 3.0031000000000311e+01 0 0 0
593 2 0.0000000000000000e+00 8.5251540748539991e+00 3.0031000000000311e+01 0 0 0
620 2 2.4610000000000003e+00 9.9460130873296642e+00 3.0031000000000311e+01 0 0 0
622 2 2.4610000000000003e+00 8.5251540748539991e+00 3.0031000000000311e+01 0 0 0
616 2 1.2305000000000001e+00 1.2077301606043163e+01 3.0031000000000311e+01 0 0 0
618 2 1.2305000000000001e+00 1.0656442593567498e+01 3.0031000000000311e+01 0 0 0
653 2 3.6914999999999996e+00 1.2077301606043163e+01 3.0031000000000311e+01 0 0 0
655 2 3.6914999999999996e+00 1.0656442593567499e+01 3.0031000000000311e+01 0 0 0
912 2 0.0000000000000000e+00 8.5251540748539991e+00 3.3184652855174015e+01 0 0 0
913 2 1.2305000000000001e+00 9.2355835810918343e+00 3.3184652855174015e+01 0 0 0
927 2 2.4610000000000003e+00 8.5251540748539991e+00 3.3184652855174015e+01 0 0 0
928 2 3.6915000000000004e+00 9.2355835810918343e+00 3.3184652855174015e+01 0 0 0
911 2 0.0000000000000000e+00 1.1366872099805333e+01 3.3184652855174015e+01 0 0 0
925 2 1.2305000000000001e+00 1.0656442593567498e+01 3.3184652855174015e+01 0 0 0
926 2 2.4610000000000003e+00 1.1366872099805333e+01 3.3184652855174015e+01 0 0 0
944 2 3.6914999999999996e+00 1.0656442593567499e+01 3.3184652855174015e+01 0 0 0
657 2 4.9220000000000006e+00 9.9460130873296642e+00 3.0031000000000311e+01 0 0 0
659 2 4.9220000000000006e+00 8.5251540748539991e+00 3.0031000000000311e+01 0 0 0
702 2 7.3830000000000009e+00 9.9460130873296642e+00 3.0031000000000311e+01 0 0 0
704 2 7.3830000000000009e+00 8.5251540748539991e+00 3.0031000000000311e+01 0 0 0
698 2 6.1524999999999999e+00 1.2077301606043163e+01 3.0031000000000311e+01 0 0 0
700 2 6.1524999999999999e+00 1.0656442593567499e+01 3.0031000000000311e+01 0 0 0
745 2 8.6135000000000002e+00 1.2077301606043163e+01 3.0031000000000311e+01 0 0 0
747 2 8.6134999999999984e+00 1.0656442593567498e+01 3.0031000000000311e+01 0 0 0
946 2 4.9220000000000006e+00 8.5251540748539991e+00 3.3184652855174015e+01 0 0 0
947 2 6.1524999999999999e+00 9.2355835810918343e+00 3.3184652855174015e+01 0 0 0
969 2 7.3830000000000009e+00 8.5251540748539991e+00 3.3184652855174015e+01 0 0 0
970 2 8.6134999999999984e+00 9.2355835810918343e+00 3.3184652855174015e+01 0 0 0
945 2 4.9220000000000006e+00 1.1366872099805333e+01 3.3184652855174015e+01 0 0 0
967 2 6.1524999999999999e+00 1.0656442593567499e+01 3.3184652855174015e+01 0 0 0
968 2 7.3829999999999991e+00 1.1366872099805333e+01 3.3184652855174015e+01 0 0 0
991 2 8.6134999999999984e+00 1.0656442593567498e+01 3.3184652855174015e+01 0 0 0
614 2 0.0000000000000000e+00 1.2787731112280996e+01 3.0031000000000311e+01 0 0 0
651 2 2.4610000000000003e+00 1.2787731112280996e+01 3.0031000000000311e+01 0 0 0
612 2 0.0000000000000000e+00 1.4208590124756663e+01 3.0031000000000311e+01 0 0 0
647 2 1.2305000000000001e+00 1.4919019630994494e+01 3.0031000000000311e+01 0 0 0
649 2 2.4610000000000003e+00 1.4208590124756663e+01 3.0031000000000311e+01 0 0 0
692 2 3.6915000000000004e+00 1.4919019630994494e+01 3.0031000000000311e+01 0 0 0
923 2 0.0000000000000000e+00 1.2787731112280996e+01 3.3184652855174015e+01 0 0 0
924 2 1.2305000000000001e+00 1.3498160618518829e+01 3.3184652855174015e+01 0 0 0
942 2 2.4610000000000003e+00 1.2787731112280996e+01 3.3184652855174015e+01 0 0 0
943 2 3.6915000000000004e+00 1.3498160618518829e+01 3.3184652855174015e+01 0 0 0
922 2 0.0000000000000000e+00 1.5629449137232333e+01 3.3184652855174015e+01 0 0 0
940 2 1.2305000000000001e+00 1.4919019630994494e+01 3.3184652855174015e+01 0 0 0
941 2 2.4610000000000003e+00 1.5629449137232328e+01 3.3184652855174015e+01 0 0 0
963 2 3.6915000000000004e+00 1.4919019630994494e+01 3.3184652855174015e+01 0 0 0
696 2 4.9220000000000006e+00 1.2787731112280996e+01 3.0031000000000311e+01 0 0 0
743 2 7.3829999999999991e+00 1.2787731112280996e+01 3.0031000000000311e+01 0 0 0
694 2 4.9220000000000006e+00 1.4208590124756663e+01 3.0031000000000311e+01 0 0 0
739 2 6.1524999999999990e+00 1.4919019630994494e+01 3.0031000000000311e+01 0 0 0
741 2 7.3830000000000009e+00 1.4208590124756663e+01 3.0031000000000311e+01 0 0 0
786 2 8.6135000000000002e+00 1.4919019630994494e+01 3.0031000000000311e+01 0 0 0
965 2 4.9220000000000006e+00 1.2787731112280996e+01 3.3184652855174015e+01 0 0 0
966 2 6.1524999999999990e+00 1.3498160618518829e+01 3.3184652855174015e+01 0 0 0
989 2 7.3829999999999991e+00 1.2787731112280996e+01 3.3184652855174015e+01 0 0 0
990 2 8.6135000000000002e+00 1.3498160618518835e+01 3.3184652855174015e+01 0 0 0
964 2 4.9220000000000006e+00 1.5629449137232333e+01 3.3184652855174015e+01 0 0 0
987 2 6.1524999999999990e+00 1.4919019630994494e+01 3.3184652855174015e+01 0 0 0
988 2 7.3829999999999991e+00 1.5629449137232333e+01 3.3184652855174015e+01 0 0 0
1011 2 8.6135000000000002e+00 1.4919019630994494e+01 3.3184652855174015e+01 0 0 0
1281 1 2.4011416367977749e+00 3.8594017867181751e+00 3.5525157678470862e+01 1 0 0
2995 1 5.3142885423718882e+00 3.4812287779174973e+00 3.8278778682292256e+01 1 1 -1
279 1 2.3539993433451212e+00 1.1283589094534501e+00 3.6382575072692561e+01 0 1 -1
1600 1 1.9762300272470497e+00 1.6004440663025221e+01 3.6817766920456222e+01 0 0 -1
1522 1 6.9516109491449054e+00 1.9075425252708154e+00 3.5707849834437141e+01 0 1 0
6141 1 5.3903540650050275e+00 4.2961213608891544e+00 3.5419413133129297e+01 0 0 0
152 1 9.0146470650174919e+00 3.1464105375018852e+00 3.8314948243492580e+01 1 1 -1
4612 1 7.2567906836110883e+00 5.2790655869250438e+00 3.9137676045373595e+01 -1 0 -1
3138 1 7.2968693259640656e+00 1.3231901969339677e+00 3.8501155338913009e+01 -1 1 0
1759 1 5.1644017455912348e+00 1.3457872480281338e+01 3.9345218138936005e+01 0 1 0
5359 1 3.0747529133540543e+00 6.7429134604090235e+00 3.6477189869988223e+01 0 2 0
1327 1 8.4338202776926554e+00 5.4375954120013921e+00 3.5925957673478152e+01 -1 1 -1
2956 1 5.6427682253746516e+00 1.0828749942944224e+01 3.8774471269532611e+01 0 1 0
4757 1 9.0000993728067016e+00 7.3544578746960383e+00 3.8914430016238526e+01 1 1 -1
6414 1 2.0160843939777182e+00 9.0670882201696195e+00 3.5540711856774152e+01 1 0 0
4736 1 8.6782461219733084e-02 8.3431323195788742e+00 3.7220564451521881e+01 1 1 0
4856 1 9.3159307339167139e+00 1.0800946895519616e+01 3.8191154118131251e+01 1 0 0
1466 1 5.7854509991975664e+00 6.8334144671393808e+00 3.7090932838415085e+01 0 1 0
2137 1 6.1489542677908737e+00 9.8845678260265739e+00 3.6279692502498918e+01 0 1 -1
4645 1 8.6586818844465476e+00 1.0672922568624017e+01 3.5316177191786863e+01 0 -1 0
4694 1 8.8931868333750135e+00 1.3783593226472334e+01 3.5953110910463607e+01 -1 0 0
5182 1 4.3059323989473119e+00 1.4313246151330901e+01 3.6558078756234622e+01 1 -1 -1
5270 1 3.9049643096766200e+00 1.1291754072016424e+01 3.5726627994496297e+01 1 1 0
4854 1 2.8417312897750984e+00 4.8276282695884385e+00 3.8813107166195948e+01 1 0 0
1591 1 9.5427981231907246e+00 1.3725638434842693e+01 3.8836308010402007e+01 0 0 0
34 1 2.0481656296205268e+00 2.0712430333762155e+00 3.9030493978598869e+01 0 0 0
3360 1 6.6718326309991172e+00 1.5683889502284833e+01 3.5551372916077327e+01 -1 1 0
2930 1 2.9872235640656958e-01 1.1908794069754970e+01 3.6278034467992711e+01 2 0 0
4549 1 2.3187794569054759e-01 1.2150528338384772e+01 3.8935791324415533e+01 0 0 0
3096 1 1.6422121750720478e-01 5.7227402139478265e+00 3.8376634006847240e+01 0 -1 0
6310 1 7.0412239231008744e+00 1.5470981138483641e+01 3.9096078090908037e+01 0 0 0
3289 1 3.4982712582343090e-02 2.2986088094215060e+00 4.3307602971318730e+01 1 1 -1
5055 1 3.5145406998201492e+00 6.0710028436689862e+00 4.1346853990001392e+01 1 0 -1
5414 1 6.4449030478502527e+00 4.0317710273345009e+00 4.4006203540199238e+01 -1 1 0
5387 1 9.5143049998801854e-01 9.6638417659053157e+00 3.9485906829727725e+01 -2 1 -1
4536 1 4.1205107445772082e+00 2.4598108554258156e+00 4.3228320875908793e+01 0 1 0
3132 1 1.5946167159790801e+00 6.1719562167360920e+00 4.3883879085241702e+01 0 1 0
3496 1 5.9474192916588162e+00 7.6158388921008866e+00 4.1309311915187862e+01 1 1 -1
1552 1 1.3438289248065531e+00 9.4251442751009975e+00 4.5473626541464469e+01 0 0 0
3747 1 5.5570775426160974e+00 8.8430915204316740e+00 4.3980505982129770e+01 0 0 0
1731 1 7.4682236972982698e+00 5.4257967261809394e+00 4.1897083219294458e+01 0 1 0
3049 1 9.6776705195260142e+00 6.9128003859363005e+00 4.2901605026445168e+01 2 1 0
4749 1 7.6514770071827893e+00 9.5685986587693357e+00 4.0181877232565483e+01 1 1 -1
6376 1 1.3946628879279410e+00 8.2556923090623382e+00 4.2194924668209552e+01 1 1 0
3462 1 2.4969543115649317e+00 1.2875931191792951e+01 4.2579272048556547e+01 0 -1 -1
419 1 3.4825809806790922e+00 1.4627174541692536e+01 4.4841972329738240e+01 1 0 -1
3268 1 8.8496063954185509e+00 1.0837529851654072e+01 4.2540587493115908e+01 0 0 0
5402 1 6.3731202395036046e+00 1.1481376672777621e+01 4.3909380759942152e+01 0 1 0
5445 1 3.2046081372039112e+00 1.2603897673770700e+01 4.7619906675879889e+01 1 0 -1
2033 1 8.7371846604026491e+00 1.1720996675324713e+01 4.5743905083948377e+01 0 0 0
3402 1 1.5577545936888454e-01 3.7850455488042516e+00 4.0490656941254855e+01 1 1 -1