
# Create simulation box and atoms

read_data data.ML_graphite_m500atm_240K
  orthogonal box = (0 0 2.16312) to (49.22 49.0196 57.8989)
  5 by 3 by 6 MPI processor grid
  reading atoms ...
  6489 atoms
  reading velocities ...
  6489 velocities
group water type 1
3729 atoms in group water
group graphite type 2
2760 atoms in group graphite

# Define potential

pair_style sw
pair_coeff * * MLC_e.sw mW C


# Fix graphite atoms in place

fix 5 graphite setforce 0.0 0.0 0.0
velocity graphite set 0.0 0.0 0.0


# Equilibration of molecular water

# Add velocity/set timestep

velocity	    water create ${TEMP} ${SEED} rot yes dist gaussian
velocity	    water create 240 ${SEED} rot yes dist gaussian
velocity	    water create 240 8744 rot yes dist gaussian
timestep	    5.0

# Define output

compute			1 water msd
compute			3 water temp
thermo	    	50
thermo_style	custom step temp press vol etotal ke pe c_1[4] c_3

# Neighbor lists

neigh_modify    delay 0 every 1 check yes

# Set fixes

fix             1 water momentum 10 linear 1 1 1 rescale
fix             2 water nve
fix             3 water temp/csvr ${TEMP} ${TEMP} 500.0 ${SEED}
fix             3 water temp/csvr 240 ${TEMP} 500.0 ${SEED}
fix             3 water temp/csvr 240 240 500.0 ${SEED}
fix             3 water temp/csvr 240 240 500.0 8744
fix             4 water press/berendsen z ${PRES} ${PRES} 1000.0 modulus 20000
fix             4 water press/berendsen z -500 ${PRES} 1000.0 modulus 20000
fix             4 water press/berendsen z -500 -500 1000.0 modulus 20000

# Run 0.5 ns equilibration

dump		    1 all atom 2000 ${DIR}/eq.${NAME}-${TEMP}.dump
dump		    1 all atom 2000 run_10/eq.${NAME}-${TEMP}.dump
dump		    1 all atom 2000 run_10/eq.het_freeze_10-${TEMP}.dump
dump		    1 all atom 2000 run_10/eq.het_freeze_10-240.dump

reset_timestep  0

run	            100000
Neighbor list info ...
  update every 1 steps, delay 0 steps, check yes
  max neighbors/atom: 2000, page size: 100000
  master list distance cutoff = 6.67472
  ghost atom cutoff = 6.67472
  binsize = 3.33736, bins = 15 15 17
  1 neighbor lists, perpetual/occasional/extra = 1 0 0
  (1) pair sw, perpetual
      attributes: full, newton on
      pair build: full/bin/atomonly
      stencil: full/bin/3d
      bin: standard
Per MPI rank memory allocation (min/avg/max) = 4.071 | 4.223 | 4.502 Mbytes
Step Temp Press Volume TotEng KinEng PotEng c_1[4] c_3 
       0    137.90382   -585.46729    134476.24   -35583.071    2666.9904   -38250.061            0          240 
      50    138.89685   -385.65764     134536.2   -35614.512    2686.1949   -38300.707   0.50474726     241.7282 
     100    140.49031   -663.36769    134550.07   -35624.028    2717.0118    -38341.04    0.8315624    244.50138 
     150    138.56999   -644.08814    134677.61   -35582.625    2679.8737   -38262.499    1.0167958    241.15936 
     200    137.59282   -608.73667    134819.27   -35620.168    2660.9758   -38281.144    1.2197184    239.45876 
     250    144.29145   -539.83272    134875.33   -35573.751    2790.5238   -38364.275    1.4166812    251.11666 
     300    140.03634   -612.39771    134917.57   -35570.922    2708.2322   -38279.154    1.6107644    243.71131 
     350    139.95553   -518.98481    134977.99   -35568.188    2706.6694   -38274.858    1.7676727    243.57068 
     400    141.67509   -458.23543    135006.97   -35551.108    2739.9248   -38291.032    1.9861893     246.5633 
     450    142.18096   -408.31431    135072.81   -35547.045     2749.708   -38296.753    2.1656125    247.44368 
     500    143.13388   -659.48244    135074.07   -35605.027     2768.137   -38373.164    2.3431336    249.10209 
     550    141.30791   -619.90642    135066.44   -35626.103    2732.8238   -38358.927    2.4297977    245.92429 
     600    139.36599   -887.60095    134974.29   -35664.945    2695.2679   -38360.213    2.5771647    242.54467 
     650    139.30138   -883.33938     134907.6   -35652.172    2694.0184    -38346.19    2.6611808    242.43223 
     700     138.4429    -607.9525     134814.4   -35635.222    2677.4158   -38312.638    2.8415644    240.93817 
     750    136.65966   -574.88047    134790.37   -35693.184    2642.9288   -38336.112    2.9901024    237.83473 
     800    137.84571   -659.48275    134730.31   -35691.832    2665.8665   -38357.699    3.0744037    239.89886 
     850    140.09976   -735.18434    134800.98   -35638.615    2709.4586   -38348.073    3.2368837    243.82168 
     900    140.12904   -549.45619    134880.52   -35638.781    2710.0249   -38348.806     3.430909    243.87264 
     950    138.21072   -280.79786    135013.39   -35611.279    2672.9256   -38284.205    3.6557883     240.5341 
    1000    138.98454   -323.41465    135228.64   -35640.815    2687.8909   -38328.706    3.7783551    241.88082 
    1050    142.25959   -663.00396     135345.9   -35623.507    2751.2288   -38374.736    3.9299723    247.58053 
    1100    139.92163   -738.66532    135305.01    -35619.57    2706.0137   -38325.584    4.0631091    243.51167 
    1150    139.79596   -677.48304    135399.89   -35641.625    2703.5834   -38345.208    4.2974028    243.29298 
    1200    137.59684   -762.06716    135395.76   -35672.403    2661.0534   -38333.457    4.4768718    239.46574 
    1250    138.25573   -658.17451     135423.6   -35680.744     2673.796    -38354.54    4.6108198    240.61243 
    1300    136.92791   -662.02882    135480.33   -35635.832    2648.1167   -38283.949    4.7334223    238.30157 
    1350    140.95613   -577.56171    135497.52   -35651.025    2726.0204   -38377.045    4.9575995    245.31206 
    1400    137.32636   -639.34047    135596.74   -35660.553    2655.8225   -38316.376     5.201302    238.99501 
    1450    134.83701    -899.3176    135538.65   -35716.915    2607.6799   -38324.595    5.4105815     234.6627 
    1500    137.23168   -729.65605    135498.04   -35675.862    2653.9915   -38329.854    5.5235139    238.83024 
    1550    140.93714   -752.75991    135571.61   -35615.614    2725.6532   -38341.267    5.6731666    245.27902 
    1600    140.61449   -914.98168    135618.76   -35626.633    2719.4133   -38346.046    5.8896023    244.71749 
    1650    139.99341   -643.56502    135588.58   -35629.063     2707.402   -38336.465    5.9828422    243.63661 
    1700    140.00352   -713.74415     135590.1   -35620.491    2707.5975   -38328.088    6.1366181    243.65419 
    1750    140.73881   -882.65925    135573.88   -35639.216    2721.8176   -38361.034    6.2839677    244.93386 
    1800    139.39202   -586.65524    135590.25    -35638.11    2695.7713   -38333.882    6.3169049    242.58997 
    1850    140.46712   -860.21684    135569.26   -35676.866    2716.5633   -38393.429    6.3893785    244.46102 
    1900     139.5036   -765.32533    135532.58   -35622.555    2697.9293   -38320.484    6.5139579    242.78417 
    1950    138.57876   -817.44779    135500.66   -35647.261    2680.0433   -38327.305    6.6776626    241.17462 
    2000    141.12814   -897.95134    135405.57   -35718.369    2729.3471   -38447.716    6.8661382    245.61142 
    2050    138.83909   -516.27425    135333.85    -35699.71    2685.0779   -38384.788    7.0874666    241.62768 
    2100     138.0083   -552.96445    135289.91   -35660.024    2669.0109   -38329.034    7.2494033    240.18183 
    2150    138.16754   -702.72901    135302.34   -35662.356    2672.0906   -38334.446    7.3491245    240.45896 
    2200    143.18543   -599.85913    135355.22   -35656.357     2769.134   -38425.491    7.4739395    249.19181 
    2250      139.678   -631.63523     135303.1   -35648.313     2701.302   -38349.615    7.5365132    243.08767 
    2300    140.36712   -647.74391    135314.27   -35681.692    2714.6292   -38396.321     7.622801    244.28698 
    2350    142.43975   -733.05761    135345.91   -35625.421    2754.7129   -38380.134     7.786785    247.89407 
    2400    141.38894     -674.988     135369.1   -35629.967    2734.3908   -38364.358    7.9334814     246.0653 
    2450    139.29652   -654.42974    135491.48   -35640.402    2693.9245   -38334.326    8.0764149    242.42377 
    2500    136.80369   -641.57094    135509.92   -35643.419    2645.7143   -38289.134    8.2231491    238.08538 
    2550    139.16543   -832.02324    135564.26   -35659.894    2691.3892   -38351.284    8.3822373    242.19563 
    2600    141.40421   -762.20583    135463.04   -35649.102    2734.6861   -38383.788    8.4942954    246.09188 
    2650    138.43691   -648.94922    135500.57   -35637.325       2677.3   -38314.625    8.6114246    240.92775 
    2700    139.99598   -719.52283    135482.55   -35694.269    2707.4517    -38401.72    8.7679698    243.64108 
    2750    139.83666   -727.17587    135476.93   -35707.736    2704.3705   -38412.106     8.910643     243.3638 
    2800    137.88431   -733.80701    135398.96   -35721.887    2666.6129     -38388.5    9.0345085    239.96604 
    2850    135.78259   -773.89366    135401.09   -35734.211    2625.9668   -38360.177    9.3118031    236.30832 
    2900    139.08541   -868.02064    135419.88   -35740.758    2689.8416   -38430.599    9.5191081    242.05637 
    2950    137.59273   -623.66405    135415.86    -35717.45    2660.9741   -38378.424    9.7452286     239.4586 
    3000    139.13405   -611.53348    135541.65   -35704.347    2690.7823    -38395.13     9.867483    242.14102 
    3050    138.62647   -585.51382    135634.06   -35705.057     2680.966   -38386.023    9.9220919    241.25765 
    3100     137.8267   -530.91791    135720.47   -35747.206    2665.4989   -38412.705     10.00879    239.86579 
    3150    138.23079   -767.75981    135739.94   -35738.974    2673.3138   -38412.288    10.179079    240.56904 
    3200    136.93128   -694.08113    135692.73   -35791.065    2648.1819   -38439.247    10.284045    238.30744 
    3250    138.13427   -665.36984    135699.65   -35750.796    2671.4472   -38422.243    10.405534    240.40106 
    3300    137.21758   -950.52996    135709.06   -35723.689    2653.7188   -38377.408    10.463827     238.8057 
    3350    139.44217   -773.70996    135730.19   -35696.611    2696.7411   -38393.352    10.613162    242.67724 
    3400     136.3594   -1118.4466    135647.99   -35699.688     2637.122    -38336.81    10.810168    237.31217 
    3450    141.01095   -1023.2757    135635.07   -35661.753    2727.0807   -38388.833     11.01798    245.40747 
    3500    134.59401   -1088.5136    135589.46   -35683.819    2602.9802   -38286.799      11.2674    234.23979 
    3550    138.80427   -747.81131    135619.16   -35680.004    2684.4046   -38364.409    11.412271    241.56709 
    3600       138.92   -777.15449    135506.82   -35720.565    2686.6427   -38407.207    11.642513    241.76849 
    3650    136.87887   -904.47674     135374.8   -35689.037    2647.1683   -38336.205    11.783681    238.21623 
    3700    140.59526   -655.86232    135353.64   -35685.835    2719.0415   -38404.876     11.85824    244.68403 
    3750    136.02603   -774.52072    135257.26   -35745.726    2630.6749   -38376.401     11.89653      236.732 
    3800    135.51787   -711.14928    135219.49   -35752.545    2620.8473   -38373.392    12.076912    235.84763 
    3850    135.18985   -808.46477    135262.45   -35721.013    2614.5034   -38335.517    12.309416    235.27675 
    3900    138.70499   -705.68107       135258   -35727.382    2682.4845   -38409.867    12.519646     241.3943 
    3950    136.65611   -550.66964    135286.87    -35674.64    2642.8602     -38317.5    12.599055    237.82855 
    4000    136.57603   -703.30216    135325.67   -35694.233    2641.3115   -38335.544    12.825482    237.68918 
    4050    136.20285   -921.79899    135179.03   -35723.274    2634.0944   -38357.369    12.989115    237.03972 
    4100    135.66675   -651.10656    135177.06   -35710.499    2623.7264   -38334.226    13.148491    236.10672 
    4150    138.92161   -634.86378    135267.91   -35710.229    2686.6739   -38396.903     13.31399    241.77131 
    4200    138.50306   -828.88864    135177.08   -35718.852    2678.5794   -38397.432    13.484247    241.04289 
    4250    138.47234   -520.69561     135206.1   -35706.841    2677.9851   -38384.826    13.614029    240.98941 
    4300    136.54886   -931.72112    135203.97   -35695.257    2640.7861   -38336.043    13.713556     237.6419 
    4350    138.16028   -818.08481    135166.22   -35626.166    2671.9501   -38298.116    13.795179    240.44632 
    4400    143.31212   -628.44152    135209.79   -35641.493    2771.5842   -38413.077    13.992969     249.4123 
    4450    142.29612   -808.80131    135267.31   -35635.872    2751.9351   -38387.807    14.188148     247.6441 
    4500    137.18905   -1066.0953    135190.18   -35673.062    2653.1671   -38326.229    14.283327    238.75606 
    4550    137.32958   -785.98442    135145.67    -35662.07    2655.8847   -38317.955    14.352243    239.00061 
    4600    138.11623   -810.27247    135106.38   -35678.324    2671.0983   -38349.423    14.461792    240.36967 
    4650    139.71104   -772.17919    135070.76   -35679.947     2701.941   -38381.888    14.737915    243.14518 
    4700    138.36822   -551.23489    135080.25   -35669.417    2675.9716   -38345.388    15.065999    240.80821 
    4750    136.72091   -777.66233     135074.9   -35706.208    2644.1134   -38350.322    15.259537    237.94133 
    4800    136.08926   -744.25241     135020.3   -35701.939    2631.8977   -38333.837    15.466441    236.84205 
    4850    136.37367   -668.05235    135075.87   -35741.335     2637.398   -38378.733    15.551523    237.33701 
    4900    139.10858   -701.71194    135038.18   -35674.215    2690.2897   -38364.505    15.877133    242.09669 
    4950    137.57882   -548.71127    135040.56   -35724.996    2660.7049     -38385.7    16.166365    239.43438 
    5000    135.75569   -726.78232    135053.25   -35715.535    2625.4465   -38340.981    16.322181    236.26151 
    5050    138.87441   -744.84505    135058.66   -35675.416    2685.7611   -38361.177    16.383328    241.68916 
    5100    138.96666   -766.83607    135042.77   -35732.089     2687.545   -38419.634    16.592318    241.84969 
    5150    138.61094    -526.4063    135088.66   -35702.192    2680.6657   -38382.857    16.753623    241.23063 
    5200    137.73277   -915.03444    135139.67   -35687.985    2663.6823   -38351.667    16.993956    239.70231 
    5250    139.60146   -1009.4859     135078.3   -35695.935    2699.8219   -38395.757    17.154965    242.95448 
    5300    135.71122   -649.18055    135048.34   -35710.683    2624.5866   -38335.269    17.294862    236.18413 
    5350      138.236   -1039.8878    135103.34   -35658.341    2673.4146   -38331.756    17.520323    240.57811 
    5400    135.62568   -1129.1526    135024.14   -35673.368    2622.9322   -38296.301    17.645504    236.03525 
    5450    139.50123   -969.98778    135066.63   -35704.538    2697.8834   -38402.421    17.778616    242.78003 
    5500    139.41598   -858.81723    135003.89   -35704.349    2696.2347   -38400.584    17.877948    242.63167 
    5550    134.31542   -758.45992    135029.23   -35771.734    2597.5924   -38369.326     18.12169    233.75494 
    5600    133.15406   -924.10794    134951.82   -35776.478    2575.1325   -38351.611    18.435772    231.73379 
    5650    136.93852   -812.91515    134858.54   -35738.628    2648.3219    -38386.95    18.671256    238.32004 
    5700    137.65505   -806.71553    134888.37   -35648.462    2662.1793   -38310.641    18.822445    239.56706 
    5750    137.34866   -761.67789    134967.94    -35648.02    2656.2537   -38304.273    19.076693    239.03382 
    5800    136.77373   -780.52172    134938.81   -35683.506     2645.135   -38328.641     19.28082    238.03326 
    5850    137.79937   -901.40311    134922.35   -35728.407    2664.9703   -38393.377    19.434794    239.81821 
    5900    135.75705   -474.70289    134920.23   -35742.297    2625.4729    -38367.77    19.586951    236.26388 
    5950    136.16231   -832.05667    134921.65   -35751.501    2633.3103   -38384.811     19.70586    236.96916 
    6000    139.15067   -616.19317    135025.26   -35731.321    2691.1037   -38422.425    19.927657    242.16994 
    6050    141.15539   -810.90007    135121.21   -35689.752     2729.874   -38419.626    20.179277    245.65884 
    6100    139.26776   -501.50926    135176.77   -35736.926    2693.3682   -38430.294    20.449462    242.37372 
    6150    144.04554    -619.3364    135261.82   -35643.372     2785.768    -38429.14    20.585535    250.68869 
    6200    140.01646   -626.77978    135340.33   -35652.097    2707.8477   -38359.945    20.658597    243.67671 
    6250    139.22468   -842.58998    135367.18   -35695.363    2692.5351   -38387.898    20.821126    242.29875 
    6300     138.5614    -890.6994    135423.14   -35619.704    2679.7076   -38299.411     21.01674    241.14441 
    6350    137.49724   -931.52549    135401.51   -35669.066    2659.1272   -38328.193    21.089146     239.2924 
    6400    138.90011   -672.28056    135319.18   -35629.992    2686.2581    -38316.25    21.278653    241.73388 
    6450    141.24628   -594.10051    135324.59   -35608.628    2731.6317    -38340.26    21.470257    245.81702 
    6500     141.5168   -549.39777    135377.43   -35632.163    2736.8635   -38369.027    21.493508    246.28782 
    6550     142.4129   -879.66703    135408.75   -35656.657    2754.1937   -38410.851    21.614493    247.84735 
    6600    138.62935   -871.57208    135312.36   -35663.577    2681.0216   -38344.598    21.765609    241.26266 
    6650    141.28044   -468.52255    135269.81   -35646.496    2732.2924   -38378.788    21.946804    245.87647 
    6700    137.96672   -805.90156    135249.72   -35647.644    2668.2067   -38315.851     22.15862    240.10946 
    6750    141.73507   -700.74754    135278.62   -35561.828    2741.0847   -38302.913    22.393765    246.66768 
    6800    139.98735   -633.40023     135264.4   -35567.768    2707.2847   -38275.053    22.602483    243.62605 
    6850    139.85822   -800.58087    135234.26    -35570.62    2704.7873   -38275.407    22.734264    243.40131 
    6900    140.90733   -613.94475    135173.72   -35533.269    2725.0767   -38258.345     22.95595    245.22714 
    6950    139.65415   -735.80866    135104.99   -35580.371    2700.8408   -38281.212    23.216248    243.04617 
    7000    140.39013    -532.5342    135117.27   -35559.341    2715.0743   -38274.416    23.362762    244.32703 
    7050    139.93335   -754.51124    135113.42   -35610.789    2706.2404    -38317.03    23.491739    243.53208 
    7100    137.58158   -737.53826    135066.54   -35627.638    2660.7583   -38288.396    23.547373    239.43919 
    7150     137.5708   -694.45025    135018.94   -35597.755      2660.55   -38258.305    23.773115    239.42043 
    7200    140.26862   -720.55272    134976.04   -35537.373    2712.7244   -38250.097    23.844028    244.11556 
    7250    141.61268    -508.3298       135035   -35554.054    2738.7177   -38292.771    23.767601    246.45468 
    7300    140.45813   -907.12089    135024.84   -35577.315    2716.3894   -38293.704     23.87774    244.44537 
    7350    136.92067   -647.69025    135053.87    -35586.42    2647.9768   -38234.396    24.076474    238.28898 
    7400    139.86632   -637.87266    135132.77   -35624.019    2704.9441   -38328.963    24.268119    243.41542 
    7450    139.41892   -787.52826    135225.28   -35592.556    2696.2916   -38288.847     24.45721    242.63679 
    7500     137.9335   -950.07479    135090.86   -35592.347    2667.5644   -38259.911    24.440851    240.05166 
    7550    137.01197   -742.30002    135001.38   -35641.192    2649.7425   -38290.934    24.724475    238.44788 
    7600    136.11442   -734.44452    134966.09   -35657.434    2632.3843   -38289.818    24.979339    236.88583 
    7650     138.3001   -696.11198     134858.1   -35684.876    2674.6542    -38359.53    25.043144    240.68966 
    7700    138.51236   -769.99207    134823.02   -35697.209    2678.7591   -38375.968    25.072542    241.05906 
    7750    136.59251   -834.97986    134750.48   -35713.284    2641.6303   -38354.914    25.127163    237.71787 
    7800    136.61457   -721.70585    134678.29   -35710.649    2642.0568   -38352.706    25.190662    237.75625 
    7850     136.0969    -692.9452    134673.68   -35690.687    2632.0454   -38322.733    25.314965    236.85533 
    7900    139.03158   -839.30154    134773.73   -35692.686    2688.8005   -38381.486    25.345957    241.96268 
    7950    136.59298   -859.06768    134735.71   -35708.265    2641.6394   -38349.904    25.557801    237.71869 
    8000    140.66215   -760.69062    134707.72   -35708.634    2720.3351    -38428.97    25.758508    244.80044 
    8050    134.65347   -673.57819    134699.61   -35807.268    2604.1302   -38411.398    25.821646    234.34327 
    8100    137.24791    -709.9241    134725.94    -35754.66    2654.3054   -38408.965     25.99582     238.8585 
    8150    137.46319   -587.02958    134817.12   -35724.201    2658.4688    -38382.67     26.13792    239.23315 
    8200    138.14532   -779.97389     134767.1   -35706.362    2671.6608   -38378.022    26.322242    240.42029 
    8250    142.37225   -654.43783    134658.29   -35699.249    2753.4076   -38452.657    26.601759     247.7766 
    8300    137.68222   -628.47219    134679.83   -35702.338    2662.7047   -38365.043    26.667304    239.61434 
    8350    138.21174   -544.48666    134715.53    -35687.72    2672.9454   -38360.665    26.798004    240.53589 
    8400    135.75461   -703.82286    134760.29   -35737.939    2625.4257   -38363.364    26.873034    236.25963 
    8450    136.83443   -544.23043    134756.51   -35722.199    2646.3088   -38368.508    27.130176    238.13888 
    8500     137.4176   -468.03439    134740.58   -35755.046    2657.5872   -38412.633    27.384399    239.15381 
    8550    136.43154   -654.24866    134670.22   -35728.266    2638.5172   -38366.783     27.32814    237.43772 
    8600     138.8955   -229.02449    134771.13   -35713.264    2686.1689   -38399.433    27.463513    241.72585 
    8650     137.9693   -563.94126    134775.31   -35712.706    2668.2566   -38380.963    27.629695    240.11395 
    8700    138.52717   -698.92927    134795.14   -35675.433    2679.0455   -38354.478    27.847369    241.08483 
    8750    139.17304   -510.80276    134735.45   -35671.431    2691.5365   -38362.968     28.02594    242.20888 
    8800    136.49405   -546.66631    134879.03   -35708.783    2639.7262   -38348.509    28.305286    237.54652 
    8850    137.51924   -478.58895    134874.29   -35685.734    2659.5528   -38345.287    28.488794     239.3307 
    8900    137.51464   -708.06392    135010.61   -35700.687    2659.4637   -38360.151    28.641736    239.32268 
    8950    138.05822    -897.4147    135020.62   -35685.276    2669.9763   -38355.253    28.752477     240.2687 
    9000    136.39058   -447.05259    135085.04   -35665.088    2637.7251   -38302.813    28.895182    237.36645 
    9050    137.24818   -828.24032    135111.17   -35674.747    2654.3106   -38329.058    28.905842    238.85896 
    9100    137.19069   -796.69295    135049.63   -35659.979    2653.1987   -38313.177    28.985076     238.7589 
    9150     134.0744   -873.35794    134966.06   -35672.764    2592.9313   -38265.696    29.225729    233.33549 
    9200    139.68293   -785.75299    134869.01   -35643.579    2701.3975   -38344.976    29.446074    243.09627 
    9250    139.17667   -708.05355    134852.08   -35626.989    2691.6065   -38318.596    29.630772    242.21519 
    9300    137.79623   -653.27136    134795.59   -35602.701    2664.9095   -38267.611    29.408107    239.81274 
    9350    138.61693   -537.03432    134810.31   -35653.538    2680.7815   -38334.319    29.504481    241.24105 
    9400    138.11936   -697.46552    134871.88   -35737.831    2671.1587    -38408.99    29.761915     240.3751 
    9450    138.55552   -554.56995    134892.79   -35651.627    2679.5938    -38331.22    30.060692    241.13417 
    9500    139.36233   -661.27207    135026.97    -35681.97    2695.1972   -38377.167    30.207843    242.53831 
    9550    136.93303   -765.93045    135010.71   -35699.703    2648.2157   -38347.919     30.29955    238.31048 
    9600    139.58952   -629.30104    134979.25   -35652.239    2699.5909   -38351.829    30.549918    242.93369 
    9650    140.89582   -527.77911    134982.31   -35682.015    2724.8541    -38406.87    30.706908     245.2071 
    9700    138.59085   -403.90507    134929.31   -35653.324    2680.2772   -38333.602    30.789641    241.19567 
    9750    138.49857   -584.82099    134925.15   -35686.929    2678.4925   -38365.422    30.922264    241.03507 
    9800    137.85016   -419.47455    134935.45   -35654.161    2665.9525   -38320.114    31.033681     239.9066 
    9850    140.45098   -666.79694    134893.09   -35680.021    2716.2511   -38396.272    31.092468    244.43293 
    9900    141.22212   -736.07152    134804.53   -35709.036    2731.1646   -38440.201    31.312771    245.77498 
    9950    135.18437   -564.30873    134765.59   -35741.492    2614.3976   -38355.889    31.507209    235.26722 
   10000    138.23315   -998.50916    134744.39    -35786.56    2673.3595   -38459.919     31.65838    240.57315 
   10050    136.54088   -562.59664    134721.73   -35744.393    2640.6318   -38385.025    31.690212    237.62802 
   10100    138.17112   -723.38773    134717.91   -35675.831    2672.1599   -38347.991    31.570514     240.4652 
   10150    138.62427   -490.90644    134729.94   -35646.066    2680.9235    -38326.99    31.659677    241.25383 
   10200    139.89666   -850.52549    134758.06   -35633.416    2705.5309   -38338.947    31.866085    243.46823 
   10250    141.64567   -638.93615    134678.11   -35638.238    2739.3558   -38377.594    32.031531     246.5121 
   10300    136.19495   -979.05597    134630.43   -35672.162    2633.9416   -38306.104    32.146257    237.02597 
   10350    138.41674   -526.94007    134638.79    -35673.76    2676.9099    -38350.67    32.366439    240.89265 
   10400    140.98396   -513.44746    134703.02   -35631.091    2726.5587    -38357.65    32.551017     245.3605 
   10450    136.97334   -781.81564    134822.65   -35583.346    2648.9952   -38232.342    32.769179    238.38063 
   10500    137.45695   -557.83853    134839.91   -35661.193     2658.348   -38319.541    32.985832    239.22228 
   10550    138.16921   -757.97295    134829.13   -35644.486    2672.1228   -38316.609    33.253021    240.46186 
   10600    136.99132   -804.74572    134872.23   -35684.386     2649.343   -38333.729    33.305148    238.41193 
   10650      139.972   -578.15692    134921.38   -35631.364    2706.9879   -38338.352    33.613706    243.59934 
   10700    139.98179   -463.78489    134977.71   -35655.566    2707.1771   -38362.743    33.805816    243.61637 
   10750    138.65464   -955.31581    134971.45     -35605.7    2681.5109   -38287.211    33.880685    241.30669 
   10800    139.57668   -683.93983    134878.65   -35648.169    2699.3425   -38347.512    33.942262    242.91134 
   10850    138.69296   -726.46142     134967.1   -35691.247    2682.2518   -38373.499    33.996449    241.37336 
   10900    137.24081   -804.87326    134973.34   -35736.434     2654.168   -38390.602     34.06895    238.84612 
   10950    136.79252   -783.12255    134945.96   -35734.919    2645.4984   -38380.417    34.109215    238.06595 
   11000    134.12089   -523.48552     135009.3   -35738.252    2593.8304   -38332.082    34.378016     233.4164 
   11050    136.85252   -650.88311    135010.66   -35729.072    2646.6587   -38375.731    34.594462    238.17037 
   11100    137.13181   -664.70471    135118.03   -35707.281      2652.06   -38359.341    34.770758    238.65643 
   11150    138.71207   -940.36848    135098.11   -35714.068    2682.6214    -38396.69    35.062846    241.40662 
   11200    139.85078   -687.17441    135062.27   -35642.997    2704.6436   -38347.641    35.124851    243.38838 
   11250    137.28772   -858.52251    135028.16   -35671.859    2655.0753   -38326.934      35.2672    238.92777 
   11300    137.57607   -795.65857    135039.05   -35645.868    2660.6517   -38306.519    35.504657    239.42959 
   11350    138.37288   -506.48244    135053.36   -35640.666    2676.0618   -38316.727     35.68618    240.81633 
   11400    137.02643   -796.17799    135054.91   -35665.108    2650.0221   -38315.131    35.903384    238.47304 
   11450    136.49775   -742.02111    134984.31   -35657.318    2639.7976   -38297.116    35.975189    237.55295 
   11500    139.42621   -538.84859    134900.52   -35564.895    2696.4325   -38261.327    36.075126    242.64947 
   11550    137.26245    -664.1951    134917.94   -35557.983    2654.5866   -38212.569      36.2097     238.8838 
   11600    138.87359   -547.09998    134932.88   -35534.997    2685.7452   -38220.743    36.308603    241.68773 
   11650    138.15216   -483.32379     135096.4   -35512.908    2671.7932   -38184.701    36.420153     240.4322 
   11700    140.48585   -431.05354    135138.25   -35496.511    2716.9256   -38213.436    36.694977    244.49362 
   11750    140.49962   -524.10819    135263.83   -35455.715    2717.1917   -38172.907    37.003147    244.51757 
   11800    140.94273   -707.06506    135286.54   -35502.763    2725.7614   -38228.524    37.272836    245.28875 
   11850    141.16008   -680.79623    135345.81   -35542.844    2729.9648   -38272.809    37.414256    245.66701 
   11900    138.48914   -613.87771    135417.74   -35603.516    2678.3101   -38281.826    37.674387    241.01865 
   11950    140.34919   -615.82622    135405.42   -35596.885    2714.2825   -38311.167    37.897494    244.25578 
   12000    140.56995   -876.95521    135402.71   -35582.528    2718.5518   -38301.079    38.106452    244.63997 
   12050    138.01305   -979.76556    135338.22   -35555.268    2669.1028   -38224.371    38.190354     240.1901 
   12100    139.65712   -809.82725    135357.79   -35590.128    2700.8982   -38291.026    38.236448    243.05133 
   12150    134.38985   -879.16386    135331.28   -35607.177    2599.0319   -38206.209    38.470343    233.88448 
   12200    139.56907   -690.74511    135313.19   -35597.296    2699.1954   -38296.491    38.474514     242.8981 
   12250    140.51552   -649.95904    135309.26   -35614.754    2717.4993   -38332.253    38.482529    244.54526 
   12300    140.45104   -769.48751    135315.42   -35577.175    2716.2523   -38293.427    38.557747    244.43303 
   12350    137.14963       -913.5    135194.31   -35648.861    2652.4047   -38301.266    38.807343    238.68745 
   12400    133.81632   -794.22699     135146.4   -35691.269    2587.9401    -38279.21    38.787434    232.88634 
   12450    137.29795   -908.36499    135080.99   -35658.673    2655.2731   -38313.947    38.884738    238.94558 
   12500    139.38995   -735.32575     135039.5    -35667.52    2695.7314   -38363.251    39.109087    242.58638 
   12550    138.44317   -689.99246       135119   -35600.818    2677.4211   -38278.239    39.595001    240.93865 
   12600    140.03438   -533.59869    135164.84   -35565.264    2708.1942   -38273.458    39.939281    243.70789 
   12650    142.36532   -869.80169     135154.1   -35489.708    2753.2734   -38242.981    40.107911    247.76453 
   12700    138.74581    -705.1936    135141.53   -35513.359     2683.274   -38196.633    40.175978    241.46535 
   12750    139.77893   -683.45961    135095.43   -35541.896    2703.2541   -38245.151    40.271676    243.26334 
   12800    138.28911   -767.88824    135114.83   -35504.861    2674.4417   -38179.303     40.30507    240.67054 
   12850    139.23148   -733.89083    135078.13   -35568.191    2692.6667   -38260.857    40.604212    242.31059 
   12900    138.81519   -744.54685    135021.78    -35572.94    2684.6157   -38257.555    40.756077    241.58609 
   12950    136.12013   -635.42349    134898.34   -35597.297    2632.4947   -38229.792    40.920252    236.89577 
   13000    139.93463   -730.42247    134883.67   -35601.463    2706.2651   -38307.729    41.133058     243.5343 
   13050    139.32468   -698.65734    134796.36   -35631.256    2694.4691   -38325.725    41.301279    242.47279 
   13100    138.80399   -870.22687    134721.92   -35624.789    2684.3992   -38309.189    41.492302     241.5666 
   13150    140.40611   -797.79938    134646.38   -35610.243    2715.3834   -38325.626    41.583988    244.35485 
   13200    140.38902   -728.28764    134651.94   -35606.776    2715.0529   -38321.829    41.788662     244.3251 
   13250    139.82742   -718.52376    134658.64   -35616.811    2704.1917   -38321.002    42.016893    243.34772 
   13300    141.80991   -750.03401    134488.78   -35613.463    2742.5321   -38355.995    42.020334    246.79793 
   13350    139.18532   -381.91623    134486.97   -35588.738     2691.774   -38280.512    42.278404    242.23025 
   13400    142.64728    -599.8867    134524.72   -35627.724    2758.7265    -38386.45    42.394282    248.25525 
   13450    137.59994   -728.28459    134511.16   -35650.496    2661.1133   -38311.609    42.494907    239.47113 
   13500    139.56161   -993.67213    134502.07   -35646.339    2699.0511    -38345.39    42.760697    242.88512 
   13550    134.38265   -875.97836    134470.58   -35722.763    2598.8927   -38321.655    42.815631    233.87195 
   13600     137.4975   -542.89977    134482.97   -35736.952    2659.1322   -38396.084    42.948392    239.29285 
   13650     136.9368   -660.53589    134547.54   -35680.896    2648.2886   -38329.185     43.18472    238.31704 
   13700    134.04762   -534.88444    134522.86   -35745.031    2592.4133   -38337.444    43.284208    233.28888 
   13750    138.14104   -466.95449    134568.24   -35712.674    2671.5779   -38384.252    43.502073    240.41283 
   13800    139.74386   -813.84584    134597.64     -35679.7    2702.5757   -38382.276    43.639319    243.20229 
   13850    136.51359   -928.18421    134584.36   -35668.987     2640.104   -38309.091    43.832175    237.58052 
   13900     138.7489   -633.56431    134591.47   -35694.102    2683.3338   -38377.436    44.012416    241.47073 
   13950    137.60073   -852.35862    134601.36   -35667.924    2661.1288   -38329.053    44.115691    239.47252 
   14000    137.90831    -836.1124    134555.14   -35643.448    2667.0771   -38310.525    44.352475     240.0078 
   14050    138.51947   -730.84167    134608.76   -35675.813    2678.8968    -38354.71    44.463894    241.07144 
   14100    137.45766   -715.05858    134671.69    -35687.55    2658.3619   -38345.912    44.301298    239.22353 
   14150    136.05326   -820.22249    134744.24   -35699.275    2631.2014   -38330.477    44.433142    236.77938 
   14200    140.65721   -786.56908    134650.02   -35653.931    2720.2394    -38374.17     44.77405    244.79183 
   14250    141.46799   -841.96398    134622.66   -35641.331    2735.9196   -38377.251    44.910582    246.20288 
   14300    142.52737   -770.56193    134647.06   -35622.513    2756.4075    -38378.92    44.986957    248.04656 
   14350    137.44328   -543.85477    134778.43   -35607.575    2658.0837   -38265.659    45.032837     239.1985 
   14400    138.93619   -602.56373    134800.72   -35625.357    2686.9559   -38312.313     45.23042    241.79668 
   14450    139.11643   -958.18768    134785.33   -35629.464    2690.4416   -38319.905    45.489742    242.11036 
   14500    134.52529   -875.86707    134721.82   -35601.212    2601.6512   -38202.863    45.545607    234.12019 
   14550     136.5733   -931.15729    134712.56   -35594.032    2641.2587   -38235.291    45.818346    237.68443 
   14600    137.15277    -887.9141    134670.81   -35598.805    2652.4654    -38251.27    45.896671    238.69292 
   14650    139.92255   -646.34434    134564.32    -35561.24    2706.0315   -38267.271    46.226053    243.51328 
   14700    140.10755   -813.23432    134571.87    -35556.32    2709.6093   -38265.929    46.550488    243.83524 
   14750    140.05955    -693.6135    134657.31   -35574.954    2708.6811   -38283.635    46.573918    243.75171 
   14800    136.94952   -720.93105    134744.13   -35564.053    2648.5346   -38212.587    46.901074    238.33918 
   14850     137.6801    -698.8813    134772.51   -35576.226    2662.6637   -38238.889    47.012676    239.61064 
   14900    139.20601   -1041.4974    134779.48   -35568.737     2692.174   -38260.911    47.267206    242.26625 
   14950      140.774   -807.02466    134744.45   -35598.443    2722.4982   -38320.942    47.456797     244.9951 
   15000    135.57562   -689.85551    134728.13   -35629.822    2621.9641   -38251.786    47.633213    235.94813 
   15050    139.13203    -803.3268    134750.49    -35584.59    2690.7432   -38275.333    47.868079     242.1375 
   15100    139.08159   -827.06128       134795   -35565.338    2689.7678   -38255.105    48.226296    242.04972 
   15150    140.91552   -681.52082    134846.11   -35560.009    2725.2351   -38285.244    48.497252    245.24139 
   15200     140.8092   -966.55824    134778.85   -35561.524    2723.1789   -38284.703    48.617977    245.05635 
   15250    137.79826   -789.24742    134670.03   -35536.265    2664.9489   -38201.213    48.800935    239.81629 
   15300    141.57002    -855.1134     134616.1   -35555.709    2737.8928   -38293.601    48.992377    246.38044 
   15350    140.65825   -504.18283    134645.66   -35575.165    2720.2596   -38295.424    49.197228    244.79365 
   15400    142.15789   -946.44102    134709.77   -35549.076     2749.262   -38298.338    49.532625    247.40354 
   15450    138.06324   -477.34188    134668.84   -35589.559    2670.0734   -38259.632    49.642727    240.27744 
   15500    136.54212   -610.56282    134699.66   -35597.064    2640.6558    -38237.72    49.622202    237.63018 
   15550    138.74769    -680.8125    134717.68   -35603.753    2683.3102   -38287.063    49.622111    241.46861 
   15600    137.19103   -777.94164    134720.53   -35672.755    2653.2054   -38325.961    49.804095     238.7595 
   15650    139.15337   -708.65068    134676.71   -35677.456     2691.156   -38368.612    49.969097    242.17464 
   15700    140.11663   -767.84339    134685.91   -35661.362     2709.785   -38371.147    50.236519    243.85105 
   15750    136.42827   -786.94956    134700.17   -35635.559    2638.4539   -38274.013    50.363943    237.43203 
   15800    138.82608   -673.78623    134736.03   -35632.113    2684.8264    -38316.94    50.731319    241.60504 
   15850    140.17305   -357.84938    134802.38   -35607.024     2710.876     -38317.9    50.949134    243.94923 
   15900    138.07742   -913.80683    134794.27   -35634.528    2670.3478   -38304.876    51.124302    240.30213 
   15950    134.90109   -889.03884    134776.81   -35669.878     2608.919   -38278.797    51.246349    234.77421 
   16000    136.00935   -1018.0126    134776.39   -35703.897    2630.3523    -38334.25    51.647706    236.70298 
   16050    136.66088   -544.09075    134781.63   -35690.299    2642.9526   -38333.252    52.015296    237.83686 
   16100    138.05195   -743.42774    134790.63   -35700.627    2669.8551   -38370.482    52.176758    240.25779 
   16150    136.34201   -608.96271    134720.69   -35712.803    2636.7857   -38349.589    52.199322    237.28191 
   16200      137.476   -729.24143    134664.61   -35716.982    2658.7164   -38375.698     52.37034    239.25543 
   16250    138.63703   -698.17152    134760.45   -35741.423    2681.1703   -38422.593    52.553112    241.27604 
   16300    136.36847   -599.93635     134794.9   -35766.238    2637.2975   -38403.536    52.617333    237.32796 
   16350    138.71659   -692.59613    134871.23   -35734.208    2682.7089   -38416.917    52.838386     241.4145 
   16400    135.94125   -675.67929    134959.71   -35771.864    2629.0353     -38400.9    52.822743    236.58446 
   16450    136.19927   -678.23041    135029.33   -35693.994    2634.0252   -38328.019    52.987681    237.03349 
   16500    137.31216   -724.35179    134999.28   -35798.076     2655.548   -38453.624    53.030462    238.97031 
   16550    132.79661   -671.80019    134993.96   -35779.354    2568.2195   -38347.573    53.405855     231.1117 
   16600    136.70267   -808.67841    135015.17   -35711.313    2643.7607   -38355.074    53.689359    237.90959 
   16650    138.05559   -877.47053    135026.11   -35723.973    2669.9256   -38393.899     53.66914    240.26414 
   16700    138.90357   -654.23939    135041.01   -35759.333    2686.3249   -38445.658    53.665256     241.7399 
   16750     138.2198   -864.27398    135000.34    -35768.73    2673.1012   -38441.831    53.906797     240.5499 
   16800     139.3067   -982.10893    134947.33   -35742.065    2694.1214   -38436.187    54.039205    242.44149 
   16850    138.88179    -645.5817    134996.28   -35785.697    2685.9039   -38471.601      54.2652    241.70201 
   16900    136.35227   -661.98888       134951   -35792.459    2636.9841   -38429.443    54.248024    237.29977 
   16950    137.77048     -664.881    134972.68   -35772.013    2664.4116   -38436.425    54.366522    239.76794 
   17000    135.59088   -676.77084    134979.12   -35765.715    2622.2593   -38387.975    54.489878    235.97469 
   17050    138.12983   -672.61813     134957.7   -35728.877    2671.3613   -38400.238    54.533129    240.39334 
   17100    136.92575   -695.77702    134939.01    -35719.47    2648.0749   -38367.544    54.705624    238.29781 
   17150     139.3204   -655.20712    134930.46   -35700.264    2694.3864    -38394.65    54.807739    242.46534 
   17200    138.51281   -542.36521    134949.43    -35686.98    2678.7679   -38365.748    54.965666    241.05985 
   17250    138.69071   -501.81708    135029.63   -35692.533    2682.2084   -38374.741    54.964613    241.36946 
   17300    136.04204   -759.04147    135065.77   -35741.312    2630.9845   -38372.296    55.192063    236.75986 
   17350    136.91145   -713.69557    135040.03   -35771.001    2647.7984   -38418.799    55.268563    238.27293 
   17400    137.69349   -678.22572    135036.21   -35757.109    2662.9227   -38420.032    55.216347    239.63396 
   17450    140.20631   -701.81608    135070.06   -35750.064    2711.5193   -38461.583    55.410172    244.00712 
   17500    136.35046   -445.81991    135181.38   -35765.818    2636.9491   -38402.767    55.613024    237.29662 
   17550    137.11085   -593.32641    135251.16   -35821.825    2651.6548    -38473.48    55.725583    238.61996 
   17600     137.0052   -521.21425    135252.82     -35830.4    2649.6116   -38480.011    55.861669     238.4361 
   17650    136.20988   -388.39301    135321.94   -35738.606    2634.2304   -38372.837    56.070171    237.05196 
   17700    135.85781    -749.6898    135377.06   -35712.867    2627.4216   -38340.289    56.228754    236.43924 
   17750    137.75817   -663.52605       135347    -35733.14    2664.1736   -38397.314    56.435735    239.74652 
   17800     134.4406   -656.52217     135304.7   -35735.722    2600.0134   -38335.736     56.72612     233.9728 
   17850    139.32479    -887.9037    135264.16   -35723.087    2694.4713   -38417.558    56.868869    242.47298 
   17900    139.39049   -758.68968     135233.2   -35692.066    2695.7419   -38387.808    56.918539    242.58732 
   17950    136.41099   -846.00612    135209.72   -35736.775    2638.1198   -38374.895    57.158776    237.40196 
   18000    138.49625   -672.05072    135253.93   -35720.815    2678.4476   -38399.263    57.374719    241.03102 
   18050    134.92942   -674.95716    135280.34   -35742.573    2609.4668    -38352.04    57.563421    234.82351 
   18100    136.88292    -732.6152    135207.48   -35699.533    2647.2466    -38346.78    57.467157    238.22327 
   18150    136.67952   -560.55577    135289.13   -35690.888     2643.313   -38334.201    57.696786     237.8693 
   18200    139.87334   -623.47051    135372.57   -35713.482    2705.0798   -38418.561    57.913732    243.42763 
   18250    136.45815   -986.85049    135288.57   -35692.487    2639.0318   -38331.519    58.148342    237.48404 
   18300    140.94792   -766.62694    135141.29   -35664.085    2725.8616   -38389.947    58.269381    245.29777 
   18350    137.62235   -535.18363    135088.19   -35691.801    2661.5469   -38353.348    58.298428    239.51015 
   18400    138.99536   -936.17999     135050.3   -35698.188    2688.1002   -38386.288    58.532107    241.89966 
   18450    141.83875   -925.33784    135024.69   -35656.682      2743.09   -38399.772    58.553449    246.84813 
   18500     140.0217   -688.40273    135076.51   -35664.905    2707.9491   -38372.854    58.531928    243.68584 
   18550    140.16596    -759.8915    135056.44   -35669.833     2710.739   -38380.572    58.727486     243.9369 
   18600    136.72637   -861.65918    135023.05   -35725.697     2644.219   -38369.916    58.875608    237.95083 
   18650     137.9492   -710.73446    135021.72   -35728.364     2667.868   -38396.232     59.07204    240.07897 
   18700    138.46644   -710.50201     135067.4   -35737.861    2677.8711   -38415.732    59.223844    240.97915 
   18750    136.00026   -767.83158    135193.45   -35776.026    2630.1764   -38406.202    59.208463    236.68714 
   18800    138.30506   -821.92729    135203.91   -35746.561    2674.7501   -38421.311    59.140328    240.69829 
   18850    140.83937   -618.67017    135254.15   -35764.569    2723.7624   -38488.331     59.52399    245.10886 
   18900    136.05789   -733.75157     135346.1   -35752.984    2631.2909   -38384.275    59.889152    236.78744 
   18950    138.91195   -770.26445     135441.9    -35757.51    2686.4871   -38443.998    59.983477    241.75449 
   19000    139.16367   -1012.0116    135462.72   -35758.146    2691.3553   -38449.501    60.193324    242.19257 
   19050    139.40031   -850.90009    135455.76   -35762.713    2695.9317   -38458.645    60.335917    242.60441 
   19100    139.50288   -762.40866    135459.36   -35710.204    2697.9153   -38408.119    60.402554    242.78291 
   19150     136.8725    -734.5991    135456.76   -35737.212    2647.0451   -38384.257    60.516188    238.20514 
   19200    138.96391   -913.00061    135504.75   -35749.231     2687.492   -38436.723    60.619826    241.84492 
   19250    137.39098   -807.36758    135436.65   -35821.114    2657.0723   -38478.186    60.720037    239.10748 
   19300    135.80921   -622.77065    135366.19   -35837.584    2626.4816   -38464.065    60.789186    236.35465 
   19350    137.26313   -783.06869    135183.61    -35770.16    2654.5998    -38424.76    60.708605    238.88498 
   19400    139.08875    -757.2842    135199.58   -35734.204    2689.9063    -38424.11    60.864929    242.06218 
   19450    140.04826   -889.85692    135167.98    -35773.03    2708.4626   -38481.493    60.841316    243.73205 
   19500    139.91189    -602.4664    135188.57   -35748.304    2705.8255    -38454.13    60.969528    243.49473 
   19550     140.0713   -431.50687    135251.71   -35738.295    2708.9084   -38447.203    61.147553    243.77216 
   19600    135.88722   -799.13671    135300.81   -35759.044    2627.9902   -38387.034      61.3718    236.49041 
   19650    135.83202   -591.67919    135342.64   -35770.485    2626.9227   -38397.408    61.774264    236.39435 
   19700    135.45211   -826.93693     135369.4   -35772.536    2619.5756   -38392.111    62.070196    235.73319 
   19750    135.72224   -704.62632    135327.75   -35797.321    2624.7996   -38422.121     62.26575    236.20329 
   19800    136.75365   -440.32233    135413.99   -35731.512    2644.7466   -38376.258    62.297194     237.9983 
   19850    138.92767   -915.51777    135475.07   -35677.162     2686.791   -38363.953    62.370879    241.78184 
   19900    139.26938   -847.73413    135421.18   -35692.985    2693.3996   -38386.385    62.474878    242.37654 
   19950    139.66806   -787.24747    135343.69   -35705.982    2701.1099   -38407.092    62.666505    243.07039 
   20000    139.60086   -659.34978    135363.59   -35733.381    2699.8102   -38433.191     62.77054    242.95342 
   20050    137.10278   -722.12485    135400.76   -35771.099    2651.4987   -38422.598      62.8654    238.60592 
   20100    136.97525   -615.62712    135371.51   -35743.099    2649.0323   -38392.131    62.966401    238.38397 
   20150    140.13452   -664.37374    135460.17   -35703.807     2710.131   -38413.938    63.143382    243.88218 
   20200    137.02907    -756.8583    135472.74   -35677.957    2650.0731    -38328.03    63.476678    238.47763 
   20250    137.54466   -259.81843    135455.62   -35709.825    2660.0443   -38369.869    63.666168    239.37493 
   20300    142.34449   -491.23861    135434.51   -35653.123    2752.8707   -38405.994    64.114124    247.72829 
   20350    140.70237   -737.13906    135460.07   -35613.173    2721.1128   -38334.286    64.188657    244.87043 
   20400    141.27814   -776.50814    135472.96   -35570.138     2732.248   -38302.385    64.394392    245.87247 
   20450    141.02303   -794.95562    135441.91   -35634.009    2727.3142   -38361.323    64.676198    245.42849 
   20500    138.27593   -513.69999    135391.15   -35695.954    2674.1867   -38370.141    64.934259    240.64759 
   20550    137.24594   -575.97117    135409.87   -35722.652    2654.2673   -38376.919    65.061123    238.85506 
   20600    135.21977   -770.98629    135421.06    -35788.77    2615.0821   -38403.852    65.089642    235.32883 
   20650    137.42907   -722.03959    135465.92   -35784.835    2657.8089   -38442.644    65.096985    239.17377 
   20700    136.32314    -949.2761    135404.07     -35822.5    2636.4208    -38458.92    65.102932    237.24907 
   20750    136.38578   -556.42017    135474.58   -35762.167    2637.6322   -38399.799    65.479442    237.35809 
   20800    137.19393   -550.75549    135544.53   -35783.533    2653.2614   -38436.794     65.58819    238.76454 
   20850    136.37174   -550.19016     135581.9   -35755.678    2637.3608   -38393.038    65.717882    237.33366 
   20900     138.2264   -535.94631    135634.08   -35709.985    2673.2289   -38383.214    65.903523     240.5614 
   20950    136.81331   -560.35967    135767.79   -35696.684    2645.9004   -38342.585      66.0943    238.10213 
   21000    138.66302   -1041.7851    135769.38   -35694.896    2681.6728   -38376.568    66.157844    241.32126 
   21050    139.20134   -919.93657    135665.41   -35658.704    2692.0838   -38350.787    66.383936    242.25813 
   21100    141.94327   -736.18543    135655.29    -35669.28    2745.1113   -38414.392    66.531191    247.03003 
   21150    138.73236   -840.49045    135620.64   -35639.386    2683.0139     -38322.4    66.597293    241.44194 
   21200     140.1499   -853.07174    135552.54   -35640.212    2710.4284   -38350.641    66.841198    243.90895 
   21250     139.6878   -759.94999    135509.64   -35647.845    2701.4916   -38349.337    67.007124    243.10473 
   21300    142.00965   -678.73752    135556.94   -35608.861    2746.3951   -38355.256    67.180604    247.14556 
   21350    137.47384    -482.2856    135628.84   -35644.556    2658.6747   -38303.231    67.318776    239.25168 
   21400    139.55873   -493.77875    135766.51   -35671.819    2698.9954   -38370.814    67.471887     242.8801 
   21450    138.87757   -950.47145    135808.91   -35712.508    2685.8221    -38398.33    67.551544    241.69465 
   21500     140.1323    -876.7654    135762.38   -35763.465     2710.088   -38473.553    67.727401    243.87832 
   21550    139.56887   -706.86965    135773.78   -35815.988    2699.1915   -38515.179    67.744653    242.89775 
   21600    139.79078   -531.57333    135837.01   -35810.395    2703.4831   -38513.878    67.861587    243.28395 
   21650    136.11855   -434.29384    135859.14   -35781.111    2632.4641   -38413.575    67.953788    236.89301 
   21700    138.19505   -894.10827    135834.02   -35812.893    2672.6225   -38485.516    68.171365    240.50683 
   21750    138.17643   -593.31525    135817.84   -35816.478    2672.2626   -38488.741    68.215948    240.47444 
   21800    137.51544   -688.68345    135788.39   -35794.698    2659.4793   -38454.177    68.440495    239.32409 
   21850    137.69232   -770.85918    135708.59   -35807.112    2662.8999   -38470.012    68.522309    239.63191 
   21900    137.48588   -441.75459    135735.57   -35847.823    2658.9076    -38506.73    68.564332    239.27264 
   21950    135.11426    -855.0796    135761.63   -35887.677    2613.0416   -38500.719    68.680305     235.1452 
   22000    138.75864   -680.49063    135861.35     -35848.8    2683.5221   -38532.322    69.219054    241.48768 
   22050    135.93205   -817.71279    135857.24   -35790.616    2628.8574   -38419.473    69.317951    236.56845 
   22100    135.11654   -844.13493    135845.39   -35801.164    2613.0856   -38414.249    69.315916    235.14916 
   22150    136.10245   -862.37477    135782.66   -35820.638    2632.1527    -38452.79    69.725709    236.86499 
   22200    138.48784   -1000.8745    135801.66   -35775.126    2678.2849   -38453.411     69.88257    241.01639 
   22250    136.37504   -701.79154    135744.34   -35777.598    2637.4245   -38415.022    70.145959     237.3394 
   22300    137.16329   -652.21122    135724.34   -35801.227    2652.6688   -38453.895    70.158752    238.71121 
   22350    138.04367   -811.97095    135725.52   -35783.815     2669.695    -38453.51    70.308144    240.24339 
   22400     137.8933   -621.47262     135788.5   -35803.997    2666.7869   -38470.784    70.637693    239.98169 
   22450     136.9918   -802.37928     135736.3   -35860.781    2649.3524   -38510.133      70.8544    238.41278 
   22500     136.8211   -838.70516    135672.62     -35834.3    2646.0511   -38480.352     71.03332    238.11569 
   22550    136.33019   -521.76993    135676.71    -35862.95     2636.557   -38499.507    70.974356    237.26133 
   22600     137.2779   -679.16685    135809.21    -35856.57    2654.8854   -38511.456    71.183115    238.91068 
   22650    137.40126   -877.85911    135721.05   -35834.358    2657.2711    -38491.63    71.286318    239.12537 
   22700    135.82305   -772.62963    135698.98   -35785.396    2626.7492   -38412.146    71.579596    236.37874 
   22750    138.04243   -560.63775    135696.66   -35774.396    2669.6709   -38444.067    71.523765    240.24122 
   22800    135.88184   -627.01583    135673.97   -35813.579    2627.8863   -38441.465    71.671168    236.48106 
   22850    136.13986   -528.30305    135661.52   -35765.438    2632.8762   -38398.315    71.782049     236.9301 
   22900    136.10426   -632.52314    135584.94   -35781.792    2632.1877    -38413.98    71.917324    236.86814 
   22950    138.59102   -648.46004    135589.17   -35787.492    2680.2803   -38467.773    72.100148    241.19595 
   23000    137.65243    -731.6644    135564.06    -35725.92    2662.1286   -38388.049    72.360844    239.56249 
   23050    138.19583   -744.94053    135511.12   -35737.665    2672.6376   -38410.302    72.404898    240.50819 
   23100      136.436   -688.74431    135498.11   -35727.464    2638.6034   -38366.067    72.479697    237.44548 
   23150    137.80975   -617.88285    135514.27   -35777.903     2665.171   -38443.074    72.769607    239.83627 
   23200    138.48618   -486.39972    135605.46   -35811.454    2678.2529   -38489.707    72.886784    241.01351 
   23250    138.17103   -809.50458    135647.24   -35781.127    2672.1581   -38453.285    72.879854    240.46504 
   23300    139.11127   -596.10203    135563.77   -35777.225    2690.3418   -38467.567    72.784399    242.10137 
   23350    138.90438   -785.62002    135561.19   -35732.263    2686.3406   -38418.604    72.721056    241.74131 
   23400    139.67924   -724.66908     135496.6   -35726.487    2701.3261   -38427.813    72.966003    243.08984 
   23450    137.42325   -981.53426    135385.19   -35747.864    2657.6963   -38405.561    73.147336    239.16364 
   23500    139.84074   -468.69817    135299.91   -35761.929    2704.4494   -38466.378    72.979364    243.37091 
   23550    139.76843   -716.15228    135417.61   -35704.467    2703.0509   -38407.518    73.080745    243.24506 
   23600     138.8048   -522.83967    135515.15   -35693.223    2684.4148   -38377.638    73.199514    241.56801 
   23650    138.27715   -593.65168    135590.97   -35749.962    2674.2104   -38424.172    73.352458    240.64972 
   23700    136.23235   -526.15684    135601.79   -35729.675    2634.6649    -38364.34    73.461771    237.09106 
   23750    136.02292   -795.25405    135614.93   -35799.581    2630.6146   -38430.196    73.628547    236.72658 
   23800    139.73002   -1027.4074     135486.3   -35765.837    2702.3082   -38468.145    73.580598    243.17821 
   23850    138.86768   -593.49347    135413.21   -35714.024    2685.6308   -38399.655    73.654771    241.67744 
   23900    136.65741   -496.96529    135432.44   -35757.366    2642.8854   -38400.251    73.991507    237.83081 
   23950    137.51824   -706.76444    135473.66   -35751.399    2659.5333   -38410.932    74.065913    239.32895 
   24000    139.24063   -988.19486    135376.89   -35736.775    2692.8436   -38429.619      74.4215    242.32651 
   24050    138.09403     -511.424    135343.54   -35749.666    2670.6688   -38420.335     74.94777    240.33102 
   24100    136.72896   -459.29918    135414.17   -35737.227     2644.269   -38381.496    75.131463    237.95533 
   24150    140.72749   -549.40895    135534.32    -35690.06    2721.5988   -38411.659    75.271916    244.91416 
   24200    136.80157   -645.67153     135624.7   -35711.126    2645.6733     -38356.8    75.174048     238.0817 
   24250    136.79304   -795.55737    135678.24   -35721.707    2645.5084   -38367.215    75.316804    238.06686 
   24300    138.97497   -1023.0677    135627.23   -35667.519    2687.7058   -38355.225    75.392911    241.86417 
   24350    138.65336   -772.52665    135636.29    -35714.89    2681.4861   -38396.376    75.749553    241.30446 
   24400    135.33851   -754.73099    135592.67    -35719.97    2617.3785   -38337.348    75.681042    235.53548 
   24450    139.37599   -787.50614    135513.01   -35730.044    2695.4614   -38425.506    75.799097    242.56208 
   24500    137.66157   -827.82447    135496.03    -35712.57    2662.3053   -38374.876    75.811098     239.5784 
   24550    139.29749   -681.15296    135411.66   -35709.265    2693.9431   -38403.208    75.929599    242.42545 
   24600    137.71513   -713.38077    135444.39    -35704.18    2663.3412   -38367.522    76.103229    239.67162 
   24650    138.32551   -654.45202    135397.31   -35657.862    2675.1455   -38333.007    76.211624    240.73388 
   24700    138.74182   -708.16956    135364.69   -35627.036    2683.1968   -38310.233    76.397626     241.4584 
   24750    140.14402   -868.15159     135342.1   -35571.485    2710.3146   -38281.799    76.743141    243.89871 
   24800    140.92958   -844.96726     135277.1   -35574.263    2725.5069    -38299.77    76.981618    245.26585 
   24850    142.13669   -776.72018    135245.55   -35600.447    2748.8519   -38349.299    77.206225    247.36664 
   24900    141.71901   -861.52633    135256.15    -35575.03    2740.7742   -38315.805    77.276811    246.63974 
   24950    141.02423   -1009.8213    135178.64    -35579.67    2727.3374   -38307.008    77.423864    245.43057 
   25000    138.24678   -711.36171    135141.84    -35575.97     2673.623   -38249.593     77.29471    240.59686 
   25050    138.01783   -813.04644     135142.3   -35634.519    2669.1952   -38303.714    77.109254    240.19841 
   25100    137.97625   -560.50938     135104.6   -35651.516    2668.3911   -38319.907    77.278645    240.12605 
   25150    142.52504   -590.42437    135220.67    -35657.82    2756.3623   -38414.183    77.579382     248.0425 
   25200    137.71517   -761.06813    135314.48   -35703.513    2663.3419   -38366.855    77.686353    239.67168 
   25250    134.49403   -689.55215    135359.22   -35740.283    2601.0467    -38341.33    77.910945    234.06579 
   25300    136.97176    -731.0102    135263.17   -35715.947    2648.9647   -38364.912    78.158955    238.37789 
   25350    135.75662   -823.26867    135188.16   -35742.861    2625.4646   -38368.326    78.573313    236.26314 
   25400    137.49713   -583.94188    135121.26    -35719.14    2659.1251   -38378.265    78.920733    239.29221 
   25450    136.15042   -959.32402    135099.39    -35731.77    2633.0804   -38364.851    79.089291    236.94848 
   25500    139.56767   -822.60628     134996.3   -35705.172    2699.1684   -38404.341    79.303786    242.89567 
   25550    138.60582   -815.60281    135012.24   -35683.015    2680.5667   -38363.581    79.357895    241.22172 
   25600    137.79904   -664.44453    135154.76   -35655.367    2664.9639   -38320.331    79.940057    239.81764 
   25650    138.89235   -723.08802    135169.81   -35659.331     2686.108   -38345.439    80.115694    241.72038 
   25700    140.43741   -628.88442    135241.57   -35689.913    2715.9888   -38405.902    80.560771    244.40932 
   25750    136.11089   -757.67175    135198.94   -35734.018     2632.316   -38366.334    80.857351    236.87969 
   25800    137.30288   -593.36115    135201.84   -35710.413    2655.3684   -38365.781    81.075567    238.95415 
   25850    136.33657   -588.77489    135218.84   -35760.513    2636.6805   -38397.193    81.065892    237.27245 
   25900     136.7384   -899.49738    135317.43   -35747.744    2644.4517   -38392.195    81.329131    237.97177 
   25950    139.19606   -798.59954    135270.84   -35743.174    2691.9816   -38435.155    81.411998    242.24894 
   26000    136.99091   -587.58684    135319.07   -35763.582    2649.3351   -38412.918    81.623835    238.41122 
   26050    135.15381   -967.75799    135235.16   -35784.266    2613.8066   -38398.072    82.016557    235.21404 
   26100    137.60622   -604.55312    135164.26   -35749.577     2661.235   -38410.812    82.079001    239.48208 
   26150    136.29936    -800.3721    135211.33    -35751.17    2635.9609   -38387.131    82.257156    237.20769 
   26200    134.22024   -625.63729    135206.56   -35752.018    2595.7517   -38347.769    82.391435     233.5893 
   26250    137.20051   -837.27887    135126.69   -35767.008    2653.3886   -38420.397    82.550001    238.77599 
   26300    138.08002   -780.54293    135077.42   -35753.515     2670.398   -38423.913    82.844675    240.30665 
   26350    137.59191   -600.17081     135087.3   -35751.343    2660.9582   -38412.301    83.221865    239.45717 
   26400    137.01973   -483.06823    135145.87   -35710.304    2649.8924   -38360.197    83.428179    238.46137 
   26450    140.94907   -807.41746    135161.02   -35664.222    2725.8839   -38390.106    83.490018    245.29977 
   26500    140.49474   -813.04497    135092.02   -35665.532    2717.0974   -38382.629    83.467346    244.50908 
   26550    140.10988   -541.53408    135103.53   -35689.284    2709.6544   -38398.939    83.426627     243.8393 
   26600    139.98406   -574.43702    135134.69   -35694.457    2707.2211   -38401.678    83.358128    243.62032 
   26650    140.82852   -532.28512    135238.81   -35680.126    2723.5526   -38403.679    83.394633    245.08998 
   26700    138.75677   -916.75457     135303.3   -35660.536    2683.4859   -38344.022    83.754658    241.48442 
   26750    138.63929   -855.24945    135179.03   -35693.148    2681.2139   -38374.362    83.898498    241.27996 
   26800    137.71191   -788.22411    135187.67   -35660.747    2663.2789   -38324.026    84.025528    239.66601 
   26850    137.96147   -642.18653    135151.02   -35669.972    2668.1053   -38338.078    84.122981    240.10033 
   26900    138.47009   -692.41076    135097.23   -35670.372    2677.9417   -38348.314    84.168198     240.9855 
   26950    140.10968    -696.7911    135062.81   -35639.914    2709.6505   -38349.564    84.504494    243.83895 
   27000    138.36432   -608.88949    135164.25   -35665.215    2675.8961   -38341.111    84.722227    240.80142 
   27050    140.11858   -694.01412    135219.55   -35636.578    2709.8226   -38346.401    84.791453    243.85443 
   27100    138.30621   -655.83678    135208.74   -35659.669    2674.7724   -38334.442    84.820138     240.7003 
   27150     137.0195   -779.86148    135217.05   -35717.061     2649.888   -38366.949    84.915712    238.46097 
   27200     137.0065   -640.73108    135242.36    -35725.12    2649.6366   -38374.756    85.086743    238.43835 
   27250    139.44137   -654.05525    135261.48   -35706.303    2696.7258   -38403.028    85.053664    242.67587 
   27300    137.78515   -916.96937    135180.51   -35660.654    2664.6953    -38325.35    85.294208    239.79347 
   27350     139.8976   -810.16508    135156.17   -35663.445    2705.5491   -38368.994     85.39564    243.46986 
   27400    139.95456   -845.49312     135117.4   -35677.805    2706.6506   -38384.455    85.665593    243.56899 
   27450    139.75451    -671.8378     135049.9   -35681.251    2702.7817   -38384.032    85.983047    243.22083 
   27500    138.91952   -683.77222    135042.29   -35648.622    2686.6335   -38335.256    86.159475    241.76767 
   27550    137.90282   -564.21682    135035.93   -35676.281     2666.971   -38343.252    86.100294    239.99826 
   27600    140.71613   -692.69095    135094.42   -35640.264    2721.3789   -38361.643    86.306077    244.89437 
   27650    141.14551   -675.03205    135058.95    -35627.37    2729.6829   -38357.053     86.53001    245.64164 
   27700    140.09651   -608.01777    135062.39   -35602.343    2709.3959   -38311.738    86.802168    243.81603 
   27750    140.00286   -902.88648    135006.72   -35607.783    2707.5847   -38315.368    87.149146    243.65305 
   27800    140.00676   -719.22731    134989.17    -35622.42    2707.6602    -38330.08    87.335443    243.65984 
   27850    139.25585    -703.4046    135002.37   -35658.749    2693.1378   -38351.887    87.483301    242.35299 
   27900    138.42136   -631.27447    135092.05   -35685.331    2676.9992    -38362.33    87.670913    240.90069 
   27950    139.94052   -854.82399    135077.17   -35639.591    2706.3791    -38345.97    87.771246    243.54455 
   28000    140.68185   -648.36027    135060.28   -35687.153     2720.716   -38407.869    88.109687    244.83472 
   28050    139.29814   -703.80969    135009.36   -35719.764    2693.9558    -38413.72    88.333925    242.42659 
   28100    138.07719   -794.00031    135062.46   -35748.713    2670.3432   -38419.056    88.355526    240.30171 
   28150    134.71103   -676.87343    135031.89   -35834.325    2605.2434   -38439.569    88.793017    234.44345 
   28200    137.60812   -697.06619    135056.18   -35803.406    2661.2716   -38464.677    89.212899    239.48538 
   28250    134.33893   -812.32369    135102.18   -35820.434    2598.0472   -38418.481    89.498586    233.79587 
   28300    138.80145   -835.54314    135115.84   -35793.102      2684.35   -38477.452    89.771094    241.56218 
   28350    133.85837   -523.27351    135163.17   -35772.757    2588.7534   -38361.511    90.294233    232.95953 
   28400    137.08319    -656.1877    135199.09   -35798.951    2651.1197    -38450.07    90.583262    238.57181 
   28450    136.88374   -649.49875    135240.95   -35776.744    2647.2626   -38424.007    90.779615    238.22471 
   28500    136.89781   -813.44678    135183.47   -35771.395    2647.5346    -38418.93    91.044359     238.2492 
   28550    137.86589   -866.61668     135084.7   -35759.308    2666.2567   -38425.565    91.196302    239.93398 
   28600    137.57038   -657.14114    134937.19   -35760.664    2660.5417   -38421.205    91.287719    239.41969 
   28650    138.36119   -612.68336    134845.78   -35707.022    2675.8357   -38382.858    91.261761    240.79598 
   28700    136.91119   -691.34853     134878.3   -35729.933    2647.7933   -38377.726    91.404671    238.27248 
   28750    137.58172   -528.08393     134874.8   -35740.033     2660.761   -38400.794    91.512609    239.43942 
   28800    137.46916   -552.31577     134928.8    -35726.63    2658.5843   -38385.214     91.72211    239.24355 
   28850    134.88657    -753.7835    134932.71   -35765.951    2608.6383   -38374.589    91.671985    234.74895 
   28900    135.18333   -730.60326     134972.1   -35805.767    2614.3775   -38420.144    91.915354    235.26541 
   28950    137.10939   -892.44455    134999.85   -35783.548    2651.6264   -38435.174    92.149443    238.61741 
   29000    136.02032   -977.37538    134924.65   -35782.347    2630.5644   -38412.911    92.158946    236.72206 
   29050    138.49984   -751.24067     134886.2    -35740.21     2678.517   -38418.727    92.414998    241.03727 
   29100     135.4933   -1065.4946    134796.42   -35807.916     2620.372   -38428.288    92.758559    235.80486 
   29150    135.50009   -913.28419    134743.04    -35853.19    2620.5033   -38473.693     92.97898    235.81667 
   29200    138.40955   -684.49813    134678.08   -35810.177    2676.7708   -38486.948    93.093459    240.88013 
   29250    135.87622   -804.91727     134643.6   -35798.737    2627.7776   -38426.514    93.207847    236.47128 
   29300    137.48143   -510.97916    134530.88   -35758.579    2658.8215     -38417.4    93.380438    239.26489 
   29350    136.78697   -800.32446    134520.74   -35792.347    2645.3909   -38437.738    93.578743    238.05629 
   29400    137.66534   -627.40851    134615.93   -35766.002    2662.3782   -38428.381    93.853873    239.58495 
   29450    138.71204   -745.99925    134692.89   -35722.465    2682.6209   -38405.085    93.983693    241.40657 
   29500    140.37933   -446.22831    134714.04   -35707.486    2714.8655   -38422.352    94.269311    244.30824 
   29550    138.85795   -552.91648    134672.21   -35722.002    2685.4427   -38407.444    94.508326    241.66051 
   29600    136.90385   -786.33176    134596.49   -35748.237    2647.6513   -38395.888    94.738374     238.2597 
   29650    138.38607   -466.86366    134601.02   -35739.367    2676.3169   -38415.684    94.728586    240.83928 
   29700    137.32525   -766.50307    134652.38   -35735.591    2655.8011   -38391.392    94.983098    238.99309 
   29750    139.49736   -542.12059    134675.42   -35682.257    2697.8085   -38380.065    95.218732     242.7733 
   29800    136.95742   -604.88243    134676.46   -35652.053    2648.6874    -38300.74    95.443187    238.35293 
   29850    137.79699   -813.82517    134594.27   -35633.809    2664.9242   -38298.733    95.480039    239.81407 
   29900    141.96038   -650.31117    134586.93     -35563.8    2745.4422   -38309.242    95.500555    247.05981 
   29950    137.58031   -717.64568    134589.28   -35595.432    2660.7338   -38256.166    95.910556    239.43698 
   30000    141.59257    -768.8189    134557.29   -35608.606    2738.3289   -38346.935    96.303763    246.41969 
   30050    138.97047   -619.33947    134642.03   -35627.223    2687.6188   -38314.842    96.543755    241.85633 
   30100    138.67231   -841.37098    134580.65   -35644.441    2681.8526   -38326.294    96.821198    241.33744 
   30150    134.25427   -743.57124    134634.55   -35663.787    2596.4098   -38260.197    97.145533    233.64852 
   30200    138.94031   -623.15615    134679.42   -35674.048    2687.0356   -38361.084    97.599964    241.80385 
   30250    137.42951   -796.61902    134719.74    -35658.64    2657.8174   -38316.458    98.123452    239.17454 
   30300    137.65514   -816.84993    134726.69   -35646.094     2662.181   -38308.275    98.222082    239.56721 
   30350    136.63993   -623.45784    134752.54   -35676.936    2642.5473   -38319.483    98.540488    237.80039 
   30400    136.22288    -552.3247    134735.14   -35722.077    2634.4817   -38356.558    98.535225    237.07458 
   30450    136.70569   -871.41478    134801.08   -35751.406     2643.819   -38395.225    98.870149    237.91483 
   30500    137.35546   -621.64639    134858.43   -35685.734    2656.3853    -38342.12    99.129641    239.04566 
   30550    135.82223   -1014.1652    134868.96    -35627.87    2626.7334   -38254.604    99.268562    236.37731 
   30600     140.3957   -833.13294    134909.13   -35634.873     2715.182   -38350.055    99.312021    244.33672 
   30650    137.25346   -595.33144    134883.64   -35648.865    2654.4126   -38303.278    99.550402    238.86814 
   30700    136.60715   -712.52967    134962.79   -35726.946    2641.9134   -38368.859      99.5832    237.74335 
   30750    139.27618   -926.85259    134941.52   -35668.477     2693.531   -38362.008      99.4478    242.38837 
   30800    138.06873   -967.00924     134925.1   -35688.139    2670.1797   -38358.319    99.417462      240.287 
   30850    139.26221   -581.47471    134961.97   -35658.472     2693.261   -38351.733    99.529201    242.36407 
   30900    138.32021   -683.98236    134936.84    -35641.75    2675.0431   -38316.794    99.503615    240.72466 
   30950    137.48126   -408.63418    134991.98   -35692.942    2658.8182    -38351.76    99.518819     239.2646 
   31000    135.73211   -482.73078    135023.07   -35710.875    2624.9906   -38335.865    99.699623    236.22048 
   31050    138.44089   -639.99291    135059.76   -35731.355     2677.377   -38408.732    99.779754    240.93468 
   31100    138.47578    -662.3232    135098.21    -35741.54    2678.0517   -38419.592    99.738521     240.9954 
   31150    136.62566   -745.68246    135110.78   -35737.997    2642.2714   -38380.268    99.872437    237.77556 
   31200    138.57397   -696.03501    135156.33    -35727.92    2679.9508   -38407.871    99.777662    241.16629 
   31250    138.21975   -658.38906    135214.68   -35680.298    2673.1003   -38353.399    99.839045    240.54982 
   31300    138.32229   -714.35882    135264.98   -35615.654    2675.0834   -38290.737    100.00124    240.72828 
   31350    138.65814   -915.27407    135314.23   -35640.353    2681.5784   -38321.932     100.2105    241.31277 
   31400    136.88066   -718.00728    135296.65   -35683.917    2647.2028    -38331.12    100.39421    238.21934 
   31450    138.50673   -807.18311    135261.76   -35663.225    2678.6503   -38341.875     100.5527    241.04927 
   31500    137.50053    -668.5414    135210.23   -35694.175     2659.191   -38353.366    100.68002    239.29814 
   31550    136.66581   -854.65026    135173.47   -35721.477    2643.0478   -38364.524    100.90277    237.84543 
   31600      137.816   -708.03989    135161.18   -35730.643    2665.2919   -38395.935    101.17314    239.84716 
   31650    137.60355   -663.62251    135136.18   -35767.464    2661.1832   -38428.647    101.40162    239.47742 
   31700    133.43921   -901.63095     135100.2   -35765.659    2580.6469   -38346.306    101.43491    232.23003 
   31750    137.88127   -699.53406    135057.96   -35733.679    2666.5541   -38400.233    101.72509    239.96074 
   31800    134.37551   -783.74972       134975   -35772.486    2598.7545    -38371.24     101.9327    233.85952 
   31850    133.96507   -748.32049    134954.15   -35826.352    2590.8168   -38417.169    102.11347    233.14521 
   31900    131.98961   -910.50139    134963.91   -35831.825    2552.6124   -38384.437    102.33642    229.70723 
   31950      134.117   -827.25928    134952.77   -35812.125    2593.7551    -38405.88    102.66232    233.40963 
   32000    133.64778   -879.67055    134924.72   -35821.674    2584.6807   -38406.354    102.94131    232.59303 
   32050    137.91645   -588.06023    134939.19   -35816.471    2667.2346   -38483.705    103.07658    240.02198 
   32100    137.98357   -688.49651    134976.47   -35764.402    2668.5327   -38432.935    103.38697    240.13879 
   32150    134.10476   -860.93381    134915.03   -35817.509    2593.5184   -38411.028    103.59378    233.38833 
   32200    135.99789   -922.00732    134823.57   -35802.837    2630.1305   -38432.967    103.87413    236.68302 
   32250    137.03763   -681.52884    134826.66   -35740.368    2650.2387   -38390.607     104.1566    238.49253 
   32300    138.27196   -821.57093    134858.32   -35730.621    2674.1099   -38404.731    104.40234    240.64068 
   32350    137.47426   -828.24752    134810.55   -35734.895    2658.6829   -38393.578    104.62684    239.25242 
   32400    136.33674   -565.70874    134847.27   -35721.951    2636.6839   -38358.635    105.12247    237.27275 
   32450    140.17867   -219.56593    134916.16   -35729.745    2710.9847    -38440.73     105.3858    243.95901 
   32500    136.37023   -655.90089    135008.29   -35719.026    2637.3315   -38356.357    105.56251    237.33103 
   32550    138.50853   -411.83761    135005.43   -35691.691    2678.6852   -38370.377    105.59433     241.0524 
   32600    137.52634    -494.6937    135062.23   -35692.168      2659.69   -38351.858    105.91896    239.34304 
   32650    138.37879   -597.65854    135067.19   -35696.311     2676.176   -38372.487    106.30146    240.82661 
   32700    134.38967   -585.09578    135057.45   -35737.528    2599.0285   -38336.557    106.30635    233.88418 
   32750    137.64139   -587.58765    135008.53   -35763.382     2661.915   -38425.297    106.51493    239.54327 
   32800    137.43927   -634.13667    135077.24   -35715.661    2658.0062   -38373.667     106.3939    239.19152 
   32850    139.25813   -693.48771    135049.33   -35642.631     2693.182   -38335.813    106.47083    242.35696 
   32900    139.56161   -601.93458    135000.26   -35676.156    2699.0511   -38375.207     106.6308    242.88512 
   32950    140.76793   -885.36055    135008.83   -35644.844    2722.3807   -38367.225    106.43616    244.98452 
   33000    139.04801   -946.25817     135049.3   -35628.293    2689.1184   -38317.411    106.61245    241.99128 
   33050     139.6634   -671.91897     134978.8   -35642.198    2701.0196   -38343.218    106.50343    243.06226 
   33100     139.4714   -752.46902    134850.61   -35637.847    2697.3065   -38335.153    106.47576    242.72812 
   33150    139.19969   -656.99417    134854.13   -35604.818    2692.0518    -38296.87    106.73443    242.25525 
   33200    138.75493   -778.49684    134854.48     -35579.3    2683.4504    -38262.75    106.66046    241.48122 
   33250    138.67559   -553.26262     134798.8   -35592.211     2681.916   -38274.127    106.86056    241.34314 
   33300    140.15833   -485.89883    134889.71   -35638.438    2710.5913   -38349.029    107.14898    243.92361 
   33350    139.10815   -445.56066    134995.05   -35685.952    2690.2814   -38376.233    107.17319    242.09594 
   33400    138.52936   -610.05738    135086.16   -35650.702    2679.0879    -38329.79    107.27207    241.08865 
   33450    138.99288    -787.4132    135183.56   -35620.816    2688.0522   -38308.868    107.22016    241.89534 
   33500    140.05536   -752.75866    135159.04   -35631.729    2708.5999   -38340.329    107.42378    243.74441 
   33550    137.79967   -736.46678    135247.24   -35641.696    2664.9761   -38306.673    107.80467    239.81874 
   33600    137.87617   -700.36256    135169.06    -35684.53    2666.4556   -38350.985    107.79845    239.95188 
   33650    136.19215   -654.90095    135140.73    -35665.56    2633.8875   -38299.448    107.95651    237.02111 
   33700    138.83916   -912.56325    135178.07   -35621.228    2685.0794   -38306.307    107.99657    241.62781 
   33750    140.97894   -836.87978    135097.16   -35604.137    2726.4616   -38330.599    108.39915    245.35176 
   33800    139.91041   -1244.5151    134977.19   -35630.128    2705.7968   -38335.925     108.3966    243.49216 
   33850    141.56083   -1034.7559     134908.1   -35607.196     2737.715   -38344.911    108.61108    246.36444 
   33900    137.24819   -918.39695    134880.13   -35629.408    2654.3107   -38283.719    108.80823    238.85897 
   33950    138.91513   -631.28612    134910.13   -35637.837    2686.5486   -38324.386    108.89898    241.76002 
[...]
   92000    137.54691   -835.61868    135066.08   -35691.174    2660.0878   -38351.262    269.77862    239.37885 
   92050    137.39234   -736.50417    135043.91   -35653.739    2657.0985   -38310.838    270.04241    239.10984 
   92100    140.04394   -603.78444    134946.48   -35623.496    2708.3792   -38331.875    270.73061    243.72454 
   92150    141.02049   -555.86941    134977.46   -35608.604    2727.2651    -38335.87    270.37904    245.42407 
   92200    139.27965   -568.15345     134909.7   -35608.686    2693.5982   -38302.284    270.57391    242.39441 
   92250    140.18896   -639.25459    134941.96   -35618.631    2711.1838   -38329.814    270.67161    243.97693 
   92300    138.95512   -732.58107    134875.18   -35628.757    2687.3219   -38316.079    270.68178    241.82961 
   92350    140.61181   -757.19746    134789.77   -35621.328    2719.3614    -38340.69    270.77757    244.71282 
   92400    138.29139   -613.84629    134740.81   -35721.075    2674.4858   -38395.561    271.24166    240.67451 
   92450    136.07675   -700.87844    134726.62   -35718.081    2631.6557   -38349.737    271.11455    236.82027 
   92500    138.39084   -643.35725    134809.05   -35740.941    2676.4091    -38417.35    271.35672    240.84758 
   92550    137.21283   -729.70872    134835.78   -35710.292    2653.6269   -38363.919    271.23114    238.79743 
   92600    136.11644   -653.28682    134792.58   -35725.277    2632.4233   -38357.701    271.39357    236.88934 
   92650    138.11379   -706.70892    134794.19   -35697.583     2671.051   -38368.634    271.59211    240.36541 
   92700    139.55665   -836.94675    134828.62   -35721.231    2698.9552   -38420.186    271.77553    242.87649 
   92750    138.26398   -845.31575     134846.2   -35720.649    2673.9557   -38394.605    271.95255     240.6268 
   92800    138.99702   -790.15777    134888.19   -35686.245    2688.1322   -38374.377    271.86849    241.90254 
   92850    138.56225   -652.81499    135006.57   -35668.578     2679.724   -38348.302    272.30205    241.14589 
   92900    138.33761   -537.67564    135064.45   -35687.829    2675.3796   -38363.209    272.46962    240.75494 
   92950    138.51696   -519.80307    135129.85   -35630.924    2678.8481   -38309.772    273.24787    241.06707 
   93000    137.75769   -817.41464    135180.51   -35649.978    2664.1642   -38314.142    273.44144    239.74568 
   93050    139.49728   -695.03521    135120.46   -35691.007     2697.807   -38388.814    274.02389    242.77316 
   93100     135.5318   -677.21615    135116.98   -35719.362    2621.1166   -38340.478    274.58574    235.87186 
   93150    136.80062   -671.04017    135123.93   -35721.981     2645.655   -38367.636    274.37886    238.08005 
   93200     137.8337   -562.97509    135106.17   -35711.786    2665.6343    -38377.42    274.30985    239.87797 
   93250    137.83617   -652.76243    135148.47   -35750.747    2665.6821   -38416.429    274.44541    239.88227 
   93300     139.0523   -840.18668     135165.4    -35740.19    2689.2014   -38429.392    274.11253    241.99875 
   93350     139.2288   -873.48227    135107.44   -35736.978    2692.6148   -38429.593    274.15434    242.30592 
   93400    137.95517   -753.13717     135038.1   -35729.949    2667.9834   -38397.933    274.53424    240.08936 
   93450    138.29365   -576.01598    134975.84   -35816.657    2674.5294   -38491.186    274.37083    240.67843 
   93500    138.31771   -649.70593    134941.11   -35812.044    2674.9948   -38487.038    274.95548    240.72031 
   93550    134.87832   -376.62041    134986.41   -35877.434    2608.4786   -38485.913    274.80452    234.73458 
   93600    137.64014   -416.52544    135078.37   -35820.585    2661.8909   -38482.476    274.82938    239.54111 
   93650     135.6803   -621.24406    135104.35   -35882.426    2623.9885   -38506.415    275.06476     236.1303 
   93700    135.46601   -859.62965    135033.68   -35903.142    2619.8442   -38522.986    275.34324    235.75736 
   93750     136.2232   -698.02569    135023.49   -35863.401    2634.4879   -38497.889    275.53458    237.07513 
   93800    138.95318   -542.90568    135077.08   -35819.812    2687.2845   -38507.096    275.26606    241.82625 
   93850    141.35019    -802.2972    135079.36   -35783.274    2733.6413   -38516.916    275.08322    245.99786 
   93900    137.52049   -783.90978    135007.43   -35763.012     2659.577   -38422.589    275.29137    239.33288 
   93950    140.85299   -752.78008    134955.53   -35766.439    2724.0258   -38490.465    274.93251    245.13257 
   94000    135.48737   -725.66614    134969.65   -35853.341    2620.2574   -38473.598    275.22873    235.79454 
   94050    139.55328   -684.75402    135032.79   -35828.212    2698.8901   -38527.102    275.26133    242.87062 
   94100    136.33016   -800.19022    135067.16   -35838.834    2636.5565    -38475.39    275.27183    237.26128 
   94150    135.94755   -632.46466    135168.97   -35850.432     2629.157   -38479.589    275.77079    236.59541 
   94200    136.50773   -857.08502    135100.92   -35827.592    2639.9907   -38467.582    275.80571    237.57032 
   94250    134.90482   -812.17328    135038.45   -35861.532    2608.9912   -38470.523     275.8042    234.78071 
   94300    138.01865   -292.09297    135007.04   -35836.322    2669.2111   -38505.533    275.80756    240.19985 
   94350    139.60742   -852.82671    135098.15   -35780.954     2699.937   -38480.891     276.1508    242.96484 
   94400     136.4996   -459.43409    135021.86   -35760.881    2639.8334   -38400.714    276.11454    237.55617 
   94450    137.39015   -820.39385    134960.62   -35735.894    2657.0561    -38392.95    276.37253    239.10603 
   94500    138.07232   -654.02222    134934.82   -35717.815    2670.2491   -38388.064    276.15184    240.29325 
   94550    137.78055   -840.94283    134962.83   -35725.174    2664.6064    -38389.78    276.47955    239.78547 
   94600    138.14571   -940.92633    134905.12   -35756.029    2671.6683   -38427.697    276.58577    240.42096 
   94650    139.10817   -827.47447     134883.6   -35745.822    2690.2818   -38436.104    276.56657    242.09597 
   94700    137.11687   -731.15935    134876.36   -35748.361     2651.771   -38400.132    277.07883    238.63042 
   94750    136.14439   -669.85193    134853.71   -35735.409    2632.9639   -38368.373     277.2942    236.93799 
   94800    137.36192   -944.37288    134819.56   -35762.425    2656.5102   -38418.936    277.51499     239.0569 
   94850    136.59713   -775.91817    134819.41   -35731.425    2641.7195   -38373.145    277.80552     237.7259 
   94900    135.82493   -673.64909    134776.79   -35738.589    2626.7856   -38365.374    278.47032    236.38201 
   94950    136.58088   -805.88316    134726.74   -35734.712    2641.4054   -38376.118    278.42989    237.69763 
   95000     136.5192   -750.51487    134706.86   -35712.908    2640.2124   -38353.121    278.35861    237.59027 
   95050    138.28409   -772.79963    134752.66   -35670.486    2674.3446   -38344.831    278.74611     240.6618 
   95100    140.35492   -627.32144    134772.17   -35637.728    2714.3934   -38352.122    279.26923    244.26576 
   95150    135.88896   -694.46434    134771.98   -35681.205    2628.0239   -38309.229    279.50333    236.49344 
   95200    140.45441   -896.30766    134743.35   -35664.127    2716.3175   -38380.444    280.05562    244.43891 
   95250    135.91589   -662.56281    134809.13   -35692.606    2628.5448   -38321.151    280.49369    236.54032 
   95300    137.42271   -807.71218    134729.28   -35697.842    2657.6859   -38355.528    281.04803     239.1627 
   95350    136.46666   -798.80037    134725.12    -35719.76    2639.1964   -38358.956    281.42964    237.49885 
   95400    137.37068   -763.45443    134741.34   -35714.395    2656.6797   -38371.075    281.46888    239.07216 
   95450    138.69354   -652.64934     134785.8   -35656.011    2682.2631   -38338.274    281.47539    241.37438 
   95500    138.51217   -356.42538    134901.99   -35621.291    2678.7555   -38300.047    282.07198    241.05873 
   95550    137.24583   -831.21342    134931.22   -35678.542    2654.2651   -38332.807    282.06457    238.85486 
   95600    138.12186   -619.95106    134944.54   -35693.767    2671.2071   -38364.974    282.30943    240.37946 
   95650    135.97669   -951.38866    134870.98   -35726.955    2629.7206   -38356.676    282.52217    236.64613 
   95700    141.79515   -670.00599    134893.84   -35629.332    2742.2467   -38371.579    282.75348    246.77224 
   95750    138.54848   -737.85306    134884.79   -35630.395    2679.4576   -38309.853    283.20679    241.12192 
   95800    140.38021   -636.35641    134717.88   -35652.924    2714.8825   -38367.807    283.26481    244.30977 
   95850    138.25754   -395.84218    134670.77   -35673.374    2673.8312   -38347.205    283.31808     240.6156 
   95900     138.5464    -656.6353    134753.69   -35661.733    2679.4174   -38341.151    283.85178     241.1183 
   95950    137.30245   -629.59933    134711.65   -35622.467    2655.3601   -38277.827    283.96801     238.9534 
   96000    138.58669   -499.21574    134611.36   -35578.331    2680.1967   -38258.528    283.92525    241.18842 
   96050    140.16294   -804.20927    134593.52   -35495.483    2710.6805   -38206.164    284.18128    243.93163 
   96100    140.56273    -644.7852    134480.49   -35491.115    2718.4124   -38209.528     284.6377    244.62742 
   96150    141.40052   -609.64096    134456.98   -35530.785    2734.6147     -38265.4    285.04115    246.08545 
   96200     136.3845   -899.05814    134463.74   -35581.331    2637.6075   -38218.939     285.1295    237.35586 
   96250    137.99072   -672.47806    134426.09   -35558.652    2668.6708   -38227.323    284.93773    240.15122 
   96300    140.24196   -798.94027    134445.32   -35593.734    2712.2087   -38305.943    285.36548    244.06916 
   96350    135.02911   -952.46532    134398.07   -35665.024    2611.3949   -38276.419    285.71603    234.99701 
   96400    138.19862    -678.7792    134361.62   -35628.086    2672.6917   -38300.778    286.03111    240.51306 
   96450    138.63004     -1003.48    134319.66   -35632.075    2681.0351    -38313.11    286.16374    241.26388 
   96500    137.67829   -833.85729    134314.76   -35585.635    2662.6287   -38248.264    286.68608     239.6075 
   96550    139.21318   -831.20527    134276.52   -35620.434    2692.3126   -38312.747    286.53536    242.27873 
   96600    137.35491     -690.589    134207.79    -35631.97    2656.3747   -38288.345    286.64017    239.04471 
   96650    137.35227   -573.03248    134199.48   -35652.653    2656.3236   -38308.976    286.62086     239.0401 
   96700     139.2169   -521.18849    134139.34   -35636.979    2692.3845   -38329.364    286.75977     242.2852 
   96750    138.27436   -508.47009    134195.35   -35622.717    2674.1565   -38296.874    286.71549    240.64487 
   96800    134.12702   -607.69336    134187.61   -35679.589     2593.949   -38273.538     286.6674    233.42707 
   96850    136.34712   -599.39342    134229.36   -35624.115    2636.8844   -38260.999    286.54069     237.2908 
   96900    135.13311   -498.52093    134260.13   -35607.165    2613.4061   -38220.571    286.86459      235.178 
   96950    139.51262   -530.82166    134209.48   -35602.065    2698.1037   -38300.168    286.92637    242.79986 
   97000    143.52127   -578.45966     134230.7   -35604.764    2775.6289   -38380.393    287.37956    249.77628 
   97050    138.18279   -807.66948    134159.72   -35606.258    2672.3854   -38278.643    287.42302     240.4855 
   97100    136.51578   -582.20139    134039.98   -35651.894    2640.1463    -38292.04    287.35932    237.58433 
   97150    138.58109   -392.48372     134159.1   -35641.945    2680.0883   -38322.033    287.45652    241.17867 
   97200    139.80915   -582.90787    134222.41   -35610.576    2703.8384   -38314.415    287.90406    243.31592 
   97250    141.36866   -787.59311    134273.96   -35621.003    2733.9987   -38355.002    288.58168    246.03001 
   97300    137.84886   -664.48203    134371.16   -35663.948    2665.9275   -38329.875    288.38051    239.90435 
   97350    137.83011   -436.80888    134453.74    -35639.88    2665.5648   -38305.445    288.46196    239.87171 
   97400    139.71292   -627.47458    134525.92    -35636.89    2701.9773   -38338.868     288.4767    243.14844 
   97450    140.38789   -820.03684    134582.89   -35634.978     2715.031   -38350.009    288.92448    244.32313 
   97500    139.27627   -572.05898    134567.35   -35635.359    2693.5328   -38328.891    288.57884    242.38853 
   97550    134.30108   -886.79071    134584.95   -35631.792    2597.3151   -38229.107    288.37989    233.72999 
   97600    140.38494   -849.72198     134554.3   -35599.878     2714.974   -38314.852    288.75065      244.318 
   97650    135.96398    -612.0255    134569.72    -35628.74    2629.4748   -38258.215    288.75998    236.62401 
   97700    139.43471   -357.49978    134586.29    -35616.95    2696.5969   -38313.547     289.0065    242.66426 
   97750    136.32515    -535.0593    134670.25   -35704.983    2636.4597   -38341.442    289.02471    237.25257 
   97800    136.00874   -728.30398    134692.58   -35717.291    2630.3405   -38347.631    289.37943    236.70191 
   97850    134.44853   -596.82186    134688.15   -35774.949    2600.1667   -38375.115    289.74592     233.9866 
   97900     137.1587   -706.78124     134692.4   -35757.041      2652.58   -38409.621    289.52803    238.70322 
   97950    135.24264   -684.36992    134704.14    -35803.31    2615.5245   -38418.835    289.86653    235.36863 
   98000    134.43229   -933.52339    134726.31   -35789.971    2599.8528   -38389.823    290.56992    233.95835 
   98050    136.49276    -541.6473    134676.45    -35736.63    2639.7012   -38376.331    290.74059    237.54427 
   98100    136.60072   -592.52157    134748.79   -35750.784    2641.7891   -38392.573    291.05843    237.73216 
   98150    135.57856   -999.86262    134704.43   -35761.951     2622.021   -38383.972     291.2778    235.95325 
   98200    133.31199   -744.97367    134694.44   -35751.136    2578.1867   -38329.323      291.587    232.00864 
   98250    135.52972   -850.85171    134643.41    -35757.82    2621.0764   -38378.896    291.70043    235.86824 
   98300     137.9239   -834.41061    134633.49   -35701.223    2667.3786   -38368.602    291.34157    240.03494 
   98350     136.1371   -743.23932    134684.34   -35707.335    2632.8228   -38340.158    291.20662    236.92529 
   98400    138.93684   -516.94065    134781.75   -35661.221    2686.9685   -38348.189    291.36699    241.79781 
   98450    139.70448   -506.13668    134858.53     -35658.7    2701.8141   -38360.514    291.58323    243.13376 
   98500    132.79037   -661.23918    134847.76   -35655.025    2568.0987   -38223.123    292.23164    231.10083 
   98550    138.42029   -504.12721    134815.12   -35660.051    2676.9786    -38337.03    292.47068    240.89883 
   98600     137.4896   -627.71498    134840.66   -35628.997    2658.9796   -38287.977    292.71192    239.27912 
   98650    138.62819      -376.81    134901.28    -35652.06    2680.9992    -38333.06    292.67536    241.26064 
   98700     135.6293   -493.99809    134948.09   -35659.069    2623.0022   -38282.071    292.99539    236.04154 
   98750    137.01934   -595.31377    134969.28   -35640.211    2649.8849   -38290.096     292.9855    238.46069 
   98800    138.08945   -664.26399    135043.54   -35668.843    2670.5802   -38339.424    293.32255    240.32305 
   98850    136.19678   -569.24031    135058.48   -35628.677    2633.9771   -38262.654    293.39594    237.02916 
   98900    136.25724   -548.33153    135055.15   -35621.447    2635.1462   -38256.593    293.42148    237.13438 
   98950    139.41061   -463.02951    135093.61   -35577.809    2696.1309    -38273.94    293.74113    242.62233 
   99000    142.48308   -496.91653    135208.13   -35527.302    2755.5508   -38282.853    294.29667    247.96948 
   99050    141.06513   -670.13667    135306.53   -35513.265    2728.1284   -38241.393    294.32218    245.50176 
   99100    137.78686   -829.77608    135285.62   -35567.848    2664.7284   -38232.576     294.2718    239.79645 
   99150    138.19327     -725.165    135252.37   -35573.912    2672.5881     -38246.5    293.92826    240.50373 
   99200    138.33437   -877.20527    135229.87    -35591.17    2675.3169   -38266.487    294.15494    240.74929 
   99250    136.39076   -745.77958    135069.51   -35616.739    2637.7286   -38254.468    293.84205    237.36676 
   99300    137.06738   -848.16447    135047.04   -35636.632     2650.814   -38287.446    294.13601    238.54431 
   99350    135.86656   -603.29253    135090.07   -35651.022    2627.5908   -38278.613    294.40865    236.45447 
   99400    138.57881   -893.80734    135121.53   -35607.284    2680.0442   -38287.328    294.76939    241.17471 
   99450    139.00375    -648.9269    135013.88   -35579.473    2688.2623   -38267.736    294.64155    241.91425 
   99500     140.9819   -668.84543    134953.23   -35538.479    2726.5187   -38264.997    294.85748     245.3569 
   99550    140.55402   -519.90543    134992.46   -35570.947    2718.2439   -38289.191    295.22251    244.61226 
   99600    137.59429   -489.35512     135006.4   -35602.327    2661.0041   -38263.331    295.49911     239.4613 
   99650    134.89284   -858.21606    135036.74   -35655.248    2608.7595   -38264.007     295.5786    234.75986 
   99700     137.9969   -815.97096    134983.05   -35571.899    2668.7903   -38240.689    295.91143    240.16198 
   99750    139.89364   -585.97788    135010.05   -35574.933    2705.4724   -38280.405    296.27101    243.46296 
   99800    138.25403   -410.85522     135066.5   -35628.934    2673.7632   -38302.697    296.27571    240.60948 
   99850    138.56453   -436.56011    135123.18   -35634.812    2679.7681    -38314.58    296.16525    241.14985 
   99900    140.09709   -417.49717    135130.53   -35641.644     2709.407   -38351.051    296.15375    243.81704 
   99950    139.40536   -746.63285     135087.3   -35662.757    2696.0293   -38358.787    295.93532    242.61318 
  100000    134.51082   -791.51602    135111.84   -35698.939    2601.3715   -38300.311    296.20225    234.09501 
Loop time of 56.2154 on 90 procs for 100000 steps with 6489 atoms

Performance: 768.473 ns/day, 0.031 hours/ns, 1778.872 timesteps/s
97.2% CPU use with 90 MPI tasks x no OpenMP threads

MPI task timing breakdown:
Section |  min time  |  avg time  |  max time  |%varavg| %total
---------------------------------------------------------------
Pair    | 7.3026     | 17.971     | 39.346     | 305.1 | 31.97
Neigh   | 0.5717     | 1.3166     | 3.3128     |  82.7 |  2.34
Comm    | 5.1409     | 19.283     | 42.701     | 313.8 | 34.30
Output  | 0.14687    | 0.14991    | 0.15976    |   0.5 |  0.27
Modify  | 3.427      | 16.695     | 38.877     | 380.9 | 29.70
Other   |            | 0.7994     |            |       |  1.42

Nlocal:    72.1 ave 158 max 41 min
Histogram: 58 2 0 4 11 0 0 0 2 13
Nghost:    722.156 ave 1056 max 442 min
Histogram: 30 0 0 6 24 0 0 0 14 16
Neighs:    0 ave 0 max 0 min
Histogram: 90 0 0 0 0 0 0 0 0 0
FullNghs:  5787.67 ave 18834 max 1588 min
Histogram: 60 0 0 0 15 0 0 0 0 15

Total # of neighbors = 520890
Ave neighs/atom = 80.2728
Neighbor list builds = 5978
Dangerous builds = 0

write_data		${DIR}/data.eq-${NAME}-${TEMP}
write_data		run_10/data.eq-${NAME}-${TEMP}
write_data		run_10/data.eq-het_freeze_10-${TEMP}
write_data		run_10/data.eq-het_freeze_10-240
undump          1

reset_timestep  0

unfix           2
unfix           3
unfix           4


################################################
#######         Run Simulation         #########
################################################

log				${DIR}/log.run_${NAME}
log				run_10/log.run_${NAME}
log				run_10/log.run_het_freeze_10
