LAMMPS data file via write_data, version 16 Mar 2018, timestep = 8000000

6472 atoms
2 atom types

0.0000000000000000e+00 4.9219999999999999e+01 xlo xhi
0.0000000000000000e+00 4.9019635930410494e+01 ylo yhi
1.2239910967662695e+00 5.8838008903229920e+01 zlo zhi

Masses

1 18.015
2 12.01

Atoms # atomic

101 1 1.5170798209585543e+00 3.3603527514424862e+00 2.3145830294795537e+00 3 3 1
156 1 1.3315071516390549e+00 6.9942350840987566e-01 1.9191462199034732e+00 2 2 0
1458 1 3.5890781565649137e+00 3.7177629738415670e+00 4.0577033977505330e+00 0 2 1
1565 1 5.7948681096223416e+00 3.4403595672935920e+00 2.8158597826866840e+00 -3 0 0
3674 1 5.6112963439150576e+00 8.2832062680970153e-01 1.8802957388860098e+00 2 -1 0
208 1 8.0589805245858113e+00 3.8464442346647987e+00 4.2796992462147063e+00 0 -2 0
6426 1 1.0255562343641827e+01 1.0089309773918032e+00 1.9673508245162008e+00 1 3 1
97 1 1.0587625280877850e+01 3.5886027341451192e+00 2.8998227689252101e+00 3 -4 0
6402 1 3.5404711893568335e+00 6.1417659794429573e+00 5.2434734140602313e+00 -1 1 0
3643 1 1.4866004637924377e+00 7.5688689320058620e+00 4.1831066337827831e+00 4 1 0
2122 1 1.0460784464439943e+01 5.6384894742873533e+00 1.1833064832279664e+01 -2 -2 1
3609 1 5.8810783194904088e+00 7.5489519047393818e+00 3.9964579057493141e+00 0 -2 0
1625 1 5.9421854361159285e+00 7.9965224498676948e+00 1.3524606118246689e+00 1 -1 0
4575 1 7.9785356917255319e+00 6.4008310965475248e+00 5.3583510029548620e+00 2 4 1
3454 1 1.0391860268461169e+01 7.6397431286169581e+00 4.4145903566779285e+00 1 1 0
2064 1 1.0619038293789524e+01 7.5624084399857043e+00 1.5479406736608705e+00 2 2 0
3111 1 8.2980131734023388e+00 9.4718807573952688e+00 1.1801191056219521e+01 2 1 0
5325 1 1.5772733856460703e+00 1.0106087712315018e+01 5.3992717909670844e+00 -1 1 0
3487 1 4.0563548040036403e+00 1.1156253438901562e+01 4.3867226856784818e+00 2 0 0
2018 1 3.6091775054267905e+00 1.1388150677410207e+01 1.6577248872820345e+00 -1 2 0
6166 1 6.1045000010505364e+00 9.7044534728966045e+00 5.2952382907018052e+00 0 -1 1
384 1 1.0474815931762613e+01 8.2654209367826397e+00 1.2826869110158064e+01 -1 0 0
418 1 8.0048363791217074e+00 1.1261510718518634e+01 4.4223390643463949e+00 -1 1 0
3437 1 1.0284075568535574e+01 1.0070341599831213e+01 5.3798297830348218e+00 0 -3 0
1314 1 1.2861456273366776e+00 2.9090358780736043e+00 8.0687367633072817e+00 -1 -2 1
3655 1 3.3720713328650467e+00 2.2246824277948374e+00 6.4628580425649140e+00 2 0 1
5305 1 1.2057882620148030e+00 1.2952726114792998e+00 1.0465471593361762e+01 0 -3 0
1540 1 5.5654740373553846e+00 2.5601705515318018e+00 8.2533553498552195e+00 2 -1 1
3630 1 7.9413238385403639e+00 2.5327603823943732e+00 6.5400682189184094e+00 3 0 0
1946 1 5.7302724630172817e+00 1.1663771418801787e+00 1.0705959358849638e+01 0 1 0
2871 1 1.0238870552069194e+01 2.7607231473619178e+00 7.9010587890880837e+00 1 -2 1
3800 1 1.0278454669421677e+01 1.2534081236772152e+00 1.0216262964104653e+01 -1 0 1
6410 1 1.4957954634734787e+00 5.4010164895779988e+00 9.2165775768542026e+00 -2 1 1
4681 1 3.6398763433693122e+00 6.4365288346071452e+00 7.9922479309656342e+00 -4 0 1
1700 1 5.8947831561414956e+00 4.9656767529372718e+00 9.0897579606118288e+00 0 1 0
2077 1 7.9814250425307600e+00 6.4222515514114216e+00 8.1228416237713930e+00 -3 1 0
6313 1 1.0187981567875392e+01 5.2077824415210667e+00 9.1178271194437315e+00 -2 3 1
5453 1 8.1683195234033228e+00 1.1833197960131642e+01 1.2831991603700592e+01 0 3 1
3339 1 1.2592473891374081e+00 1.0140921050051306e+01 7.9575258968401039e+00 1 3 1
4797 1 3.4454965724736666e+00 9.0551281146467169e+00 9.1373737584876409e+00 1 2 1
5384 1 5.8041956079235133e+00 1.0195646996818896e+01 8.1643694111728102e+00 1 4 1
3195 1 8.1278802648305941e+00 9.0978396795246912e+00 9.0283310822067921e+00 1 0 0
5198 1 1.0189439540718727e+01 1.0283623137914303e+01 8.0799638403091905e+00 2 3 0
5221 1 3.2939193014521204e+00 1.4338565540776493e+00 1.2089066610508292e+01 2 1 0
2179 1 3.7908603142567574e+00 4.0392018721269531e+00 1.2863959590558922e+01 -2 0 1
3579 1 3.8929221700407175e+00 8.9692682323458008e+00 1.2107938613123814e+01 -2 -2 1
285 1 3.6859470318673142e+00 1.1746720953826497e+01 1.2908968730206929e+01 2 -3 0
2154 1 8.0526721001347639e+00 1.7942599481543771e+00 1.2067544474857637e+01 -1 2 1
3366 1 8.3459140503588056e+00 4.1603739140498366e+00 1.2999439725185510e+01 -1 -1 1
3560 1 1.5778060106810021e+00 7.8189062847581123e+00 1.3085693496960559e+01 -1 3 0
1802 1 1.3456148989080987e+00 5.3539036250253300e+00 1.2062393684146578e+01 -1 0 0
4786 1 6.1199968867240875e+00 5.5421919579480043e+00 1.1878450203028704e+01 4 1 0
483 1 6.1000189857867300e+00 8.1483318255975394e+00 1.2984188954665678e+01 1 2 1
462 1 7.9794577060823011e+00 1.1373143128568570e+01 1.7420388138479552e+00 -1 -2 0
4880 1 3.3959320479901955e+00 3.8926506908605916e+00 1.5424518165545560e+01 2 1 1
3046 1 8.0089872604191488e+00 5.0750090706712735e-02 1.4461950590937391e+01 0 2 1
4917 1 1.3168054179047892e+00 7.5177977929091782e+00 1.3890751568132629e+00 2 0 0
3073 1 3.3951476075136320e+00 2.7322549515571146e-02 1.4427550009998846e+01 -5 4 1
2182 1 8.0704887276212709e+00 1.2049551527538316e+01 1.5571857733442968e+01 2 1 1
6273 1 1.2301660391479675e+01 7.9173373488621024e-04 1.4107141133183397e+01 -2 1 1
1933 1 3.6724368365016544e+00 1.1822447320615744e+01 1.5469462100403485e+01 0 5 0
1666 1 1.1323173562338997e+00 2.3468649537140415e-01 1.5581647684193475e+01 2 4 1
272 1 8.2235299211267137e+00 4.2142810446348209e+00 1.5506129163409009e+01 3 3 0
2982 1 1.1230877562585693e+00 2.8982521099833156e+00 1.6611251046614377e+01 2 0 1
2960 1 1.1589732507999666e+00 3.1147895018724978e+00 1.9389107143393367e+01 0 2 1
3336 1 1.2189024030366731e+01 1.3889044719818322e+00 2.0807645752645552e+01 -2 0 0
1820 1 5.7966360082862103e+00 2.9825249065147297e+00 1.6511002898531224e+01 -1 2 0
48 1 5.8520290423930135e+00 3.2238026842825569e+00 1.9429395496514640e+01 1 4 0
3259 1 1.2199128747323689e+01 1.7472654913991919e+00 2.3461004128909760e+01 3 1 1
5256 1 1.0470334568937284e+01 2.7778061497330717e+00 1.6797285761445735e+01 0 1 1
3757 1 1.0720503288984251e+01 3.4151576112823347e+00 1.9560625286663434e+01 4 0 1
3650 1 3.8971489021725931e+00 1.1766218098072704e+01 2.3057706348729802e+01 0 1 0
3030 1 3.9046253535895885e+00 6.7764308345670949e+00 1.6804668035755611e+01 3 -3 0
3060 1 3.2497420858671133e+00 6.9269210117836906e+00 1.9412856153396081e+01 2 0 1
754 2 8.6135000000000002e+00 1.2077301606043163e+01 3.0030999999997469e+01 0 0 0
417 1 8.0797645029040766e+00 6.8507849552961106e+00 1.9407100031227607e+01 1 -5 1
4576 1 8.2420098252643168e+00 6.8318750343099026e+00 1.6731600459430815e+01 1 0 1
4621 1 8.1242735596151459e+00 4.2981575213385685e+00 2.0468510105235637e+01 0 0 1
2007 1 5.0090544930969505e-01 5.1558541720960993e-01 2.3302196299731165e+01 1 2 0
1436 1 1.0251772535940228e+01 8.2406142964865943e+00 2.0200524280193168e+01 2 2 1
801 2 1.1074500000000002e+01 1.2077301606043163e+01 3.0030999999997469e+01 0 0 0
803 2 1.1074500000000002e+01 1.0656442593567498e+01 3.0030999999997469e+01 0 0 0
5229 1 1.3744056655159824e+00 1.0549080805501875e+01 1.6209200669783410e+01 -1 4 0
1970 1 1.2042242258049809e+00 1.0238001028590039e+01 1.9012334213942193e+01 -2 1 0
5366 1 5.7787546202520161e+00 1.0448887421655174e+01 1.9239876250261648e+01 2 3 0
6214 1 5.7728334568284287e+00 1.0921105580919765e+01 1.6609335394225738e+01 1 0 1
757 2 9.8440000000000012e+00 1.1366872099805333e+01 2.6785818843537847e+01 0 0 0
755 2 8.6134999999999984e+00 1.0656442593567498e+01 2.6785818843537847e+01 0 0 0
756 2 8.6134999999999984e+00 1.0656442593567498e+01 3.0030999999997469e+01 0 0 0
180 1 1.0290861388919774e+01 1.0486046772643414e+01 1.6792694127221083e+01 4 0 0
5252 1 1.0380547299931772e+01 1.0809416179779536e+01 1.9651206091660786e+01 -1 5 0
4699 1 1.0764610399343237e+00 5.8474906081863476e-01 2.0514982271259129e+01 -1 -2 1
2126 1 2.9827715635120988e+00 1.5805268758791613e+00 2.4146797065660039e+01 3 0 0
12 1 3.4914927632395916e+00 4.2763806019172854e+00 2.0337913876882773e+01 1 0 1
714 2 8.6134999999999984e+00 9.2355835810918343e+00 2.6785818843537847e+01 0 0 0
4757 1 5.9430030715675235e+00 5.5999434615614885e-01 2.0688886136436423e+01 -2 2 1
802 2 1.1074500000000002e+01 1.0656442593567498e+01 2.6785818843537847e+01 0 0 0
4680 1 3.4416148991556148e+00 1.1715462950028048e+01 2.0136144026973955e+01 3 -1 0
4785 1 9.0399230540887494e+00 9.8847273138858938e-01 2.0982584304554273e+01 -1 -2 1
2078 1 9.3603652180657733e+00 1.7055655087790045e+00 2.3570862927271349e+01 6 -1 0
760 2 9.8440000000000012e+00 8.5251540748539956e+00 3.0030999999997469e+01 0 0 0
804 2 1.2304999999999998e+01 1.1366872099805333e+01 2.6785818843537847e+01 0 0 0
555 1 1.0998186864328707e+00 7.8723620803321648e+00 2.0739840837087158e+01 -1 0 1
4608 1 3.3700209117510367e+00 3.9952685494994333e+00 2.3059869033045199e+01 0 0 1
6285 1 1.3593426871495167e+00 5.7850305377515987e+00 2.3743797271017485e+01 1 -2 1
4679 1 5.8651923961675596e+00 7.8629532479979716e+00 2.0447434904478921e+01 3 -3 1
3672 1 8.1409143681725720e+00 4.1702572525020010e+00 2.3263818895641108e+01 0 2 0
3771 1 5.6315417158248753e+00 5.1899070694635485e+00 2.4001159777001114e+01 0 2 1
6106 1 1.0317690304535802e+01 5.6818510482116116e+00 2.4233292619042235e+01 1 0 0
4563 1 1.0344082878566592e+01 8.3672210985874020e+00 2.3018395717160477e+01 1 2 1
6347 1 8.1495568640844294e+00 1.1667012336001278e+01 2.3165586268711596e+01 2 4 1
409 1 1.3772452953585914e+00 8.4726145809253239e+00 2.3539601303994438e+01 -2 4 0
759 2 9.8440000000000012e+00 8.5251540748539956e+00 2.6785818843537847e+01 0 0 0
297 1 3.8619015035305315e+00 9.3623833646799373e+00 2.4105246749264264e+01 2 -1 0
1587 1 6.1667703255387654e+00 7.6590867024446441e+00 2.3030881341633371e+01 2 -3 1
761 2 1.1074500000000002e+01 9.2355835810918343e+00 2.6785818843537847e+01 0 0 0
6140 1 7.9543020983212323e+00 9.2999919090669891e+00 2.4206480292485601e+01 0 1 1
581 2 0.0000000000000000e+00 2.8417180249513345e+00 2.6785818843537847e+01 0 0 0
583 2 0.0000000000000000e+00 0.0000000000000000e+00 2.6785818843537847e+01 0 0 0
585 2 1.2305000000000001e+00 7.1042950623783474e-01 2.6785818843537847e+01 0 0 0
592 2 1.2305000000000001e+00 2.1312885187134998e+00 2.6785818843537847e+01 0 0 0
594 2 2.4610000000000003e+00 2.8417180249513345e+00 2.6785818843537847e+01 0 0 0
596 2 2.4610000000000003e+00 0.0000000000000000e+00 2.6785818843537847e+01 0 0 0
598 2 3.6915000000000004e+00 7.1042950623783474e-01 2.6785818843537847e+01 0 0 0
613 2 3.6914999999999996e+00 2.1312885187134998e+00 2.6785818843537847e+01 0 0 0
582 2 0.0000000000000000e+00 1.4208590124756650e+00 3.0030999999997469e+01 0 0 0
584 2 0.0000000000000000e+00 0.0000000000000000e+00 3.0030999999997469e+01 0 0 0
591 2 1.2305000000000001e+00 3.5521475311891644e+00 3.0030999999997469e+01 0 0 0
593 2 1.2305000000000001e+00 2.1312885187134998e+00 3.0030999999997469e+01 0 0 0
595 2 2.4610000000000003e+00 1.4208590124756650e+00 3.0030999999997469e+01 0 0 0
597 2 2.4610000000000003e+00 0.0000000000000000e+00 3.0030999999997469e+01 0 0 0
612 2 3.6914999999999996e+00 3.5521475311891644e+00 3.0030999999997469e+01 0 0 0
614 2 3.6914999999999996e+00 2.1312885187134998e+00 3.0030999999997469e+01 0 0 0
615 2 4.9220000000000006e+00 2.8417180249513332e+00 2.6785818843537847e+01 0 0 0
617 2 4.9220000000000006e+00 0.0000000000000000e+00 2.6785818843537847e+01 0 0 0
619 2 6.1524999999999999e+00 7.1042950623783407e-01 2.6785818843537847e+01 0 0 0
642 2 6.1524999999999999e+00 2.1312885187134989e+00 2.6785818843537847e+01 0 0 0
644 2 7.3829999999999991e+00 2.8417180249513345e+00 2.6785818843537847e+01 0 0 0
646 2 7.3829999999999991e+00 0.0000000000000000e+00 2.6785818843537847e+01 0 0 0
616 2 4.9220000000000006e+00 1.4208590124756650e+00 3.0030999999997469e+01 0 0 0
618 2 4.9220000000000006e+00 0.0000000000000000e+00 3.0030999999997469e+01 0 0 0
641 2 6.1524999999999999e+00 3.5521475311891644e+00 3.0030999999997469e+01 0 0 0
643 2 6.1524999999999999e+00 2.1312885187134989e+00 3.0030999999997469e+01 0 0 0
645 2 7.3829999999999991e+00 1.4208590124756659e+00 3.0030999999997469e+01 0 0 0
647 2 7.3829999999999991e+00 0.0000000000000000e+00 3.0030999999997469e+01 0 0 0
648 2 8.6134999999999984e+00 7.1042950623783407e-01 2.6785818843537847e+01 0 0 0
679 2 8.6134999999999984e+00 2.1312885187135002e+00 2.6785818843537847e+01 0 0 0
681 2 9.8440000000000012e+00 2.8417180249513332e+00 2.6785818843537847e+01 0 0 0
683 2 9.8440000000000012e+00 0.0000000000000000e+00 2.6785818843537847e+01 0 0 0
685 2 1.1074500000000002e+01 7.1042950623783330e-01 2.6785818843537847e+01 0 0 0
724 2 1.1074500000000002e+01 2.1312885187135002e+00 2.6785818843537847e+01 0 0 0
678 2 8.6134999999999984e+00 3.5521475311891657e+00 3.0030999999997469e+01 0 0 0
680 2 8.6134999999999984e+00 2.1312885187135002e+00 3.0030999999997469e+01 0 0 0
682 2 9.8440000000000012e+00 1.4208590124756659e+00 3.0030999999997469e+01 0 0 0
684 2 9.8440000000000012e+00 0.0000000000000000e+00 3.0030999999997469e+01 0 0 0
723 2 1.1074500000000002e+01 3.5521475311891644e+00 3.0030999999997469e+01 0 0 0
725 2 1.1074500000000002e+01 2.1312885187135002e+00 3.0030999999997469e+01 0 0 0
586 2 0.0000000000000000e+00 7.1042950623783341e+00 2.6785818843537847e+01 0 0 0
588 2 0.0000000000000000e+00 4.2625770374269996e+00 2.6785818843537847e+01 0 0 0
590 2 1.2305000000000001e+00 4.9730065436648339e+00 2.6785818843537847e+01 0 0 0
605 2 1.2305000000000001e+00 6.3938655561404980e+00 2.6785818843537847e+01 0 0 0
607 2 2.4610000000000003e+00 7.1042950623783341e+00 2.6785818843537847e+01 0 0 0
609 2 2.4610000000000003e+00 4.2625770374269996e+00 2.6785818843537847e+01 0 0 0
611 2 3.6914999999999996e+00 4.9730065436648339e+00 2.6785818843537847e+01 0 0 0
634 2 3.6914999999999996e+00 6.3938655561404980e+00 2.6785818843537847e+01 0 0 0
587 2 0.0000000000000000e+00 5.6834360499026637e+00 3.0030999999997469e+01 0 0 0
589 2 0.0000000000000000e+00 4.2625770374269996e+00 3.0030999999997469e+01 0 0 0
604 2 1.2305000000000001e+00 7.8147245686161639e+00 3.0030999999997469e+01 0 0 0
606 2 1.2305000000000001e+00 6.3938655561404980e+00 3.0030999999997469e+01 0 0 0
608 2 2.4610000000000003e+00 5.6834360499026637e+00 3.0030999999997469e+01 0 0 0
610 2 2.4610000000000003e+00 4.2625770374269996e+00 3.0030999999997469e+01 0 0 0
633 2 3.6914999999999996e+00 7.8147245686161639e+00 3.0030999999997469e+01 0 0 0
635 2 3.6914999999999996e+00 6.3938655561404980e+00 3.0030999999997469e+01 0 0 0
636 2 4.9220000000000006e+00 7.1042950623783341e+00 2.6785818843537847e+01 0 0 0
638 2 4.9220000000000006e+00 4.2625770374269978e+00 2.6785818843537847e+01 0 0 0
640 2 6.1524999999999999e+00 4.9730065436648339e+00 2.6785818843537847e+01 0 0 0
671 2 6.1524999999999999e+00 6.3938655561404980e+00 2.6785818843537847e+01 0 0 0
673 2 7.3830000000000009e+00 7.1042950623783341e+00 2.6785818843537847e+01 0 0 0
675 2 7.3829999999999991e+00 4.2625770374269996e+00 2.6785818843537847e+01 0 0 0
637 2 4.9220000000000006e+00 5.6834360499026637e+00 3.0030999999997469e+01 0 0 0
639 2 4.9220000000000006e+00 4.2625770374269978e+00 3.0030999999997469e+01 0 0 0
670 2 6.1524999999999999e+00 7.8147245686161639e+00 3.0030999999997469e+01 0 0 0
672 2 6.1524999999999999e+00 6.3938655561404980e+00 3.0030999999997469e+01 0 0 0
674 2 7.3829999999999991e+00 5.6834360499026637e+00 3.0030999999997469e+01 0 0 0
676 2 7.3829999999999991e+00 4.2625770374269996e+00 3.0030999999997469e+01 0 0 0
677 2 8.6135000000000002e+00 4.9730065436648339e+00 2.6785818843537847e+01 0 0 0
716 2 8.6135000000000002e+00 6.3938655561404980e+00 2.6785818843537847e+01 0 0 0
718 2 9.8440000000000012e+00 7.1042950623783341e+00 2.6785818843537847e+01 0 0 0
720 2 9.8440000000000012e+00 4.2625770374270004e+00 2.6785818843537847e+01 0 0 0
722 2 1.1074500000000002e+01 4.9730065436648339e+00 2.6785818843537847e+01 0 0 0
763 2 1.1074500000000002e+01 6.3938655561404980e+00 2.6785818843537847e+01 0 0 0
715 2 8.6135000000000002e+00 7.8147245686161639e+00 3.0030999999997469e+01 0 0 0
717 2 8.6135000000000002e+00 6.3938655561404980e+00 3.0030999999997469e+01 0 0 0
719 2 9.8440000000000012e+00 5.6834360499026637e+00 3.0030999999997469e+01 0 0 0
721 2 9.8440000000000012e+00 4.2625770374270004e+00 3.0030999999997469e+01 0 0 0
762 2 1.1074500000000002e+01 7.8147245686161639e+00 3.0030999999997469e+01 0 0 0
764 2 1.1074500000000002e+01 6.3938655561404980e+00 3.0030999999997469e+01 0 0 0
599 2 0.0000000000000000e+00 1.1366872099805333e+01 2.6785818843537847e+01 0 0 0
601 2 0.0000000000000000e+00 8.5251540748539991e+00 2.6785818843537847e+01 0 0 0
603 2 1.2305000000000001e+00 9.2355835810918343e+00 2.6785818843537847e+01 0 0 0
626 2 1.2305000000000001e+00 1.0656442593567498e+01 2.6785818843537847e+01 0 0 0
628 2 2.4610000000000003e+00 1.1366872099805333e+01 2.6785818843537847e+01 0 0 0
630 2 2.4610000000000003e+00 8.5251540748539991e+00 2.6785818843537847e+01 0 0 0
632 2 3.6915000000000004e+00 9.2355835810918343e+00 2.6785818843537847e+01 0 0 0
663 2 3.6914999999999996e+00 1.0656442593567499e+01 2.6785818843537847e+01 0 0 0
600 2 0.0000000000000000e+00 9.9460130873296642e+00 3.0030999999997469e+01 0 0 0
602 2 0.0000000000000000e+00 8.5251540748539991e+00 3.0030999999997469e+01 0 0 0
625 2 1.2305000000000001e+00 1.2077301606043163e+01 3.0030999999997469e+01 0 0 0
627 2 1.2305000000000001e+00 1.0656442593567498e+01 3.0030999999997469e+01 0 0 0
629 2 2.4610000000000003e+00 9.9460130873296642e+00 3.0030999999997469e+01 0 0 0
631 2 2.4610000000000003e+00 8.5251540748539991e+00 3.0030999999997469e+01 0 0 0
662 2 3.6914999999999996e+00 1.2077301606043163e+01 3.0030999999997469e+01 0 0 0
664 2 3.6914999999999996e+00 1.0656442593567499e+01 3.0030999999997469e+01 0 0 0
711 2 7.3830000000000009e+00 9.9460130873296642e+00 3.0030999999997469e+01 0 0 0
669 2 6.1524999999999999e+00 9.2355835810918343e+00 2.6785818843537847e+01 0 0 0
709 2 6.1524999999999999e+00 1.0656442593567499e+01 3.0030999999997469e+01 0 0 0
708 2 6.1524999999999999e+00 1.0656442593567499e+01 2.6785818843537847e+01 0 0 0
710 2 7.3829999999999991e+00 1.1366872099805333e+01 2.6785818843537847e+01 0 0 0
713 2 7.3830000000000009e+00 8.5251540748539991e+00 3.0030999999997469e+01 0 0 0
667 2 4.9220000000000006e+00 8.5251540748539991e+00 2.6785818843537847e+01 0 0 0
666 2 4.9220000000000006e+00 9.9460130873296642e+00 3.0030999999997469e+01 0 0 0
665 2 4.9220000000000006e+00 1.1366872099805333e+01 2.6785818843537847e+01 0 0 0
668 2 4.9220000000000006e+00 8.5251540748539991e+00 3.0030999999997469e+01 0 0 0
707 2 6.1524999999999999e+00 1.2077301606043163e+01 3.0030999999997469e+01 0 0 0
712 2 7.3830000000000009e+00 8.5251540748539991e+00 2.6785818843537847e+01 0 0 0
758 2 9.8440000000000012e+00 9.9460130873296642e+00 3.0030999999997469e+01 0 0 0
1496 1 5.1079827690450532e+00 7.1004305726908967e-02 2.3444231454450613e+01 -1 3 0
385 1 7.8356176905477719e+00 1.1931014256828449e+01 2.0348522369316271e+01 4 -2 0
3740 1 5.8734439749652942e+00 4.1460800618272831e-01 1.5810595749703236e+01 0 1 1
406 1 6.1686290338235965e+00 8.3184466456017923e+00 1.5736814786145182e+01 4 -1 1
6201 1 1.4356863981588386e+00 7.7849426763481437e+00 1.5830627664715440e+01 1 -1 1
3608 1 1.0088645965620428e+01 1.8913197898617898e-01 1.5910634609342036e+01 -3 -2 0
530 1 1.0421592956696633e+01 8.1072950551319494e+00 1.5733586687038635e+01 -2 0 1
910 2 0.0000000000000000e+00 2.8417180249513345e+00 3.3276181156488114e+01 0 0 0
911 2 0.0000000000000000e+00 0.0000000000000000e+00 3.3276181156488114e+01 0 0 0
912 2 1.2305000000000001e+00 7.1042950623783474e-01 3.3276181156488114e+01 0 0 0
916 2 1.2305000000000001e+00 2.1312885187134998e+00 3.3276181156488114e+01 0 0 0
917 2 2.4610000000000003e+00 2.8417180249513345e+00 3.3276181156488114e+01 0 0 0
918 2 2.4610000000000003e+00 0.0000000000000000e+00 3.3276181156488114e+01 0 0 0
919 2 3.6915000000000004e+00 7.1042950623783474e-01 3.3276181156488114e+01 0 0 0
927 2 3.6914999999999996e+00 2.1312885187134998e+00 3.3276181156488114e+01 0 0 0
928 2 4.9220000000000006e+00 2.8417180249513332e+00 3.3276181156488114e+01 0 0 0
929 2 4.9220000000000006e+00 0.0000000000000000e+00 3.3276181156488114e+01 0 0 0
930 2 6.1524999999999999e+00 7.1042950623783407e-01 3.3276181156488114e+01 0 0 0
942 2 6.1524999999999999e+00 2.1312885187134989e+00 3.3276181156488114e+01 0 0 0
943 2 7.3829999999999991e+00 2.8417180249513345e+00 3.3276181156488114e+01 0 0 0
944 2 7.3829999999999991e+00 0.0000000000000000e+00 3.3276181156488114e+01 0 0 0
945 2 8.6134999999999984e+00 7.1042950623783407e-01 3.3276181156488114e+01 0 0 0
961 2 8.6134999999999984e+00 2.1312885187135002e+00 3.3276181156488114e+01 0 0 0
962 2 9.8440000000000012e+00 2.8417180249513332e+00 3.3276181156488114e+01 0 0 0
963 2 9.8440000000000012e+00 0.0000000000000000e+00 3.3276181156488114e+01 0 0 0
964 2 1.1074500000000002e+01 7.1042950623783330e-01 3.3276181156488114e+01 0 0 0
984 2 1.1074500000000002e+01 2.1312885187135002e+00 3.3276181156488114e+01 0 0 0
913 2 0.0000000000000000e+00 7.1042950623783341e+00 3.3276181156488114e+01 0 0 0
914 2 0.0000000000000000e+00 4.2625770374269996e+00 3.3276181156488114e+01 0 0 0
915 2 1.2305000000000001e+00 4.9730065436648339e+00 3.3276181156488114e+01 0 0 0
923 2 1.2305000000000001e+00 6.3938655561404980e+00 3.3276181156488114e+01 0 0 0
924 2 2.4610000000000003e+00 7.1042950623783341e+00 3.3276181156488114e+01 0 0 0
925 2 2.4610000000000003e+00 4.2625770374269996e+00 3.3276181156488114e+01 0 0 0
926 2 3.6914999999999996e+00 4.9730065436648339e+00 3.3276181156488114e+01 0 0 0
938 2 3.6914999999999996e+00 6.3938655561404980e+00 3.3276181156488114e+01 0 0 0
939 2 4.9220000000000006e+00 7.1042950623783341e+00 3.3276181156488114e+01 0 0 0
940 2 4.9220000000000006e+00 4.2625770374269978e+00 3.3276181156488114e+01 0 0 0
941 2 6.1524999999999999e+00 4.9730065436648339e+00 3.3276181156488114e+01 0 0 0
957 2 6.1524999999999999e+00 6.3938655561404980e+00 3.3276181156488114e+01 0 0 0
958 2 7.3830000000000009e+00 7.1042950623783341e+00 3.3276181156488114e+01 0 0 0
959 2 7.3829999999999991e+00 4.2625770374269996e+00 3.3276181156488114e+01 0 0 0
960 2 8.6135000000000002e+00 4.9730065436648339e+00 3.3276181156488114e+01 0 0 0
980 2 8.6135000000000002e+00 6.3938655561404980e+00 3.3276181156488114e+01 0 0 0
981 2 9.8440000000000012e+00 7.1042950623783341e+00 3.3276181156488114e+01 0 0 0
982 2 9.8440000000000012e+00 4.2625770374270004e+00 3.3276181156488114e+01 0 0 0
983 2 1.1074500000000002e+01 4.9730065436648339e+00 3.3276181156488114e+01 0 0 0
1004 2 1.1074500000000002e+01 6.3938655561404980e+00 3.3276181156488114e+01 0 0 0
920 2 0.0000000000000000e+00 1.1366872099805333e+01 3.3276181156488114e+01 0 0 0
921 2 0.0000000000000000e+00 8.5251540748539991e+00 3.3276181156488114e+01 0 0 0
922 2 1.2305000000000001e+00 9.2355835810918343e+00 3.3276181156488114e+01 0 0 0
934 2 1.2305000000000001e+00 1.0656442593567498e+01 3.3276181156488114e+01 0 0 0
935 2 2.4610000000000003e+00 1.1366872099805333e+01 3.3276181156488114e+01 0 0 0
936 2 2.4610000000000003e+00 8.5251540748539991e+00 3.3276181156488114e+01 0 0 0
937 2 3.6915000000000004e+00 9.2355835810918343e+00 3.3276181156488114e+01 0 0 0
953 2 3.6914999999999996e+00 1.0656442593567499e+01 3.3276181156488114e+01 0 0 0
954 2 4.9220000000000006e+00 1.1366872099805333e+01 3.3276181156488114e+01 0 0 0
955 2 4.9220000000000006e+00 8.5251540748539991e+00 3.3276181156488114e+01 0 0 0
956 2 6.1524999999999999e+00 9.2355835810918343e+00 3.3276181156488114e+01 0 0 0
976 2 6.1524999999999999e+00 1.0656442593567499e+01 3.3276181156488114e+01 0 0 0
977 2 7.3829999999999991e+00 1.1366872099805333e+01 3.3276181156488114e+01 0 0 0
978 2 7.3830000000000009e+00 8.5251540748539991e+00 3.3276181156488114e+01 0 0 0
979 2 8.6134999999999984e+00 9.2355835810918343e+00 3.3276181156488114e+01 0 0 0
1000 2 8.6134999999999984e+00 1.0656442593567498e+01 3.3276181156488114e+01 0 0 0
1001 2 9.8440000000000012e+00 1.1366872099805333e+01 3.3276181156488114e+01 0 0 0
1002 2 9.8440000000000012e+00 8.5251540748539956e+00 3.3276181156488114e+01 0 0 0
1003 2 1.1074500000000002e+01 9.2355835810918343e+00 3.3276181156488114e+01 0 0 0
1024 2 1.1074500000000002e+01 1.0656442593567498e+01 3.3276181156488114e+01 0 0 0
1025 2 1.2304999999999998e+01 1.1366872099805333e+01 3.3276181156488114e+01 0 0 0
1889 1 4.2110787230889022e+00 3.4215141670197275e+00 3.5782845842398608e+01 2 3 -1
2953 1 2.1095311536553591e+00 9.8957676455553631e+00 4.4206195195844288e+01 1 3 -1
4573 1 2.7624110106453355e+00 4.9558446952115209e-01 3.8657705389573643e+01 2 1 0
1487 1 7.1751971476483867e+00 5.8677704542175990e-01 3.5954804840962687e+01 2 -1 -1
219 1 4.3114825256201268e+00 7.2396926509442650e-01 3.6317972986727050e+01 -2 2 -1
6116 1 8.5736011992749130e+00 1.4666778473825510e+00 3.9516966743328609e+01 2 -2 0
3119 1 8.3014885148467403e+00 2.8339388731167521e+00 3.6953178380487984e+01 -1 1 -1
3598 1 1.0722887428797330e+01 4.2185558009412274e+00 3.6888451747836477e+01 -5 1 -1
502 1 2.1903709616082883e+00 4.8605570119887700e+00 3.7023096857795871e+01 -1 1 0
2022 1 1.9032447117601452e+00 7.3088916870077627e+00 3.5642172097431782e+01 -1 1 -1
60 1 6.3051967665468851e+00 4.7956181460491925e+00 3.7069490400400426e+01 1 2 -1
4686 1 6.3738480515388289e+00 7.2641885364855563e+00 3.6110855034110379e+01 1 2 0
3564 1 6.0985143456674358e+00 4.8355891754189653e+00 3.9677933696960253e+01 0 1 -1
3737 1 1.0898489105880879e+01 6.9146335164798201e+00 3.6325424153058584e+01 1 -1 0
5182 1 4.0767355557351417e+00 1.1315595026213600e+01 3.5724955047721942e+01 3 1 -1
306 1 4.0383638049514499e+00 8.6301332345614483e+00 3.6688164712634595e+01 0 1 -1
1371 1 3.9708373283425988e+00 8.1763214833196027e+00 3.9317220683476840e+01 0 1 0
6424 1 8.5367455386789413e+00 1.1285764248030590e+01 3.5941585478067658e+01 2 0 -1
1374 1 8.5399292411740166e+00 8.4874104507400379e+00 3.6424443204399715e+01 0 -1 0
3495 1 8.5330968817745383e+00 8.7130690877876233e+00 3.9550065150863333e+01 2 -3 -1
5145 1 4.2578728728359296e+00 3.1938948195121508e+00 4.3116157651701826e+01 2 1 -1
252 1 4.2552888766221324e+00 1.1214465632143527e+01 4.3057035373255758e+01 1 2 -1
3469 1 4.0934293916245119e+00 2.5446281676274674e+00 4.0267649168746878e+01 0 5 -1
4654 1 1.1028819350355695e+01 2.4484884243810452e+00 4.4318208943027535e+01 0 4 0
5240 1 8.2879117918875362e+00 1.1179812444645597e+01 4.0643454116624888e+01 -1 1 -1
3477 1 8.2644064530387844e+00 3.3839435960019459e+00 4.3581818506869695e+01 0 1 -1
5143 1 8.1926429469212874e+00 3.6654407829206566e+00 4.0951115560011303e+01 -1 0 -1
3748 1 8.8152205611414480e+00 1.0838293401963117e+01 4.3351761563747218e+01 -2 4 0
4979 1 1.8216773822569863e+00 4.5406740799125229e+00 3.9689647154923044e+01 1 1 0
4982 1 1.9284968442570192e+00 7.2027275324029585e+00 4.3139323653861339e+01 1 0 0
243 1 1.7334553722894912e+00 7.1123818117658351e+00 4.0372087462927425e+01 3 -4 0
3423 1 6.3742123991539179e+00 7.4748026293488099e+00 4.0506054463519625e+01 0 -1 -1
2102 1 6.5930243669761763e+00 7.3046815246468144e+00 4.3267804210088379e+01 -3 2 -1
1392 1 4.1509785530380752e+00 1.0922640464050779e+01 4.0326937150465284e+01 -1 3 0
3641 1 1.0757333035271269e+01 4.5666612309620991e+00 3.9594712314968888e+01 -1 -1 -1
3144 1 1.0813707413243264e+01 6.9319226770742892e+00 4.3388953164971724e+01 -1 -1 -1
2986 1 1.0683547664039045e+01 7.2112974871976414e+00 4.0718591699223971e+01 3 1 0
1822 1 3.9959163138037153e+00 5.7545561613743788e+00 4.3850281809690351e+01 2 -2 -1
337 1 1.9260174395780496e+00 1.8139203240727635e+00 4.4155450763851796e+01 3 -1 -1
2966 1 1.0814307244476439e+01 1.3712858683270013e-01 4.0631230856208894e+01 3 0 0
5403 1 6.4093548069383006e+00 5.6159558493631612e-01 4.0940043449398317e+01 -4 3 0
3352 1 3.9595874222041812e-02 1.6546187125275769e+00 3.8539711238358706e+01 3 0 0
2030 1 6.3549129223933125e+00 9.8512494075670105e+00 4.4309486078611911e+01 1 1 -1
3349 1 1.8815665098482925e+00 2.3218286971420907e+00 4.6857544757963971e+01 3 4 -1
1522 1 3.8250250508114494e+00 9.5989776348050271e-01 4.8034595994412257e+01 -2 -3 0
6217 1 6.3045477455789030e+00 2.4020928308652527e+00 4.6967800223080495e+01 0 -1 0
1716 1 1.0740604281526046e+01 2.3163904351777327e+00 4.7237100050221628e+01 0 3 -1
334 1 8.3964901440019819e+00 1.2270142542047862e+00 4.8223538522821066e+01 -3 -1 -1
5000 1 7.7674608171025836e+00 1.1355848703258648e+01 5.5032019834625160e+01 3 3 0
375 1 1.9492642905765323e+00 4.9057703051598240e+00 4.7911846439421552e+01 1 -1 -1
1681 1 4.0743505220999401e+00 5.8606349671951419e+00 4.6682364069094191e+01 -3 -2 0
5196 1 6.2744491286003825e+00 5.2775505412563826e+00 4.8018918135545206e+01 3 2 -1
4761 1 8.5949251228636339e+00 6.0402641417483940e+00 4.7187011613129798e+01 2 2 0
6196 1 1.0894678200499024e+01 4.9684353617497816e+00 4.8073894138187562e+01 4 0 0
5293 1 8.0134596077385112e+00 4.4482612884451583e-01 5.8447494968709378e+01 -5 -2 0
78 1 1.8151663757850118e+00 1.0195605826626734e+01 4.6985225716461137e+01 1 0 -1
1297 1 4.0070015346053456e+00 8.4243057372166277e+00 4.7707726105063365e+01 1 0 0
491 1 7.9260122561535109e+00 8.5751741354545086e+00 5.5251452423737490e+01 3 1 0
4972 1 6.3392723713258006e+00 9.7685679437387325e+00 4.6955390639231027e+01 2 3 -1
5273 1 8.3961773712447183e+00 8.5399635633942985e+00 4.8038198381973153e+01 1 3 -1
286 1 1.0649496270994169e+01 9.8226979995851273e+00 4.7195596255520435e+01 5 1 -1
448 1 3.3594152551058194e+00 1.2443381540510516e+00 5.0588985040754750e+01 3 -1 -1
3619 1 4.1804308325086375e+00 3.6391943830651918e+00 5.1700896208459113e+01 4 0 -1
3706 1 3.5942469544707540e+00 8.9104267789961824e+00 5.8276292214055800e+01 -2 0 0
1803 1 8.4854009457100723e+00 3.2987328711813211e+00 5.1614274737439608e+01 0 -1 -1
153 1 8.4036722671246427e+00 7.0336123981307630e-01 5.0763623080108111e+01 -1 0 -1
489 1 1.8161388364120490e+00 4.8734918548066677e+00 5.0750807232498950e+01 0 2 0
1511 1 1.7229118747136805e+00 7.4991411204831397e+00 5.1585786639387024e+01 -3 0 -1
3353 1 6.4958485225885276e+00 4.9005996376391394e+00 5.0725607844943255e+01 -1 1 0