LAMMPS data file via write_data, version 16 Mar 2018, timestep = 100000

6472 atoms
2 atom types

0.0000000000000000e+00 4.9219999999999999e+01 xlo xhi
0.0000000000000000e+00 4.9019635930410494e+01 ylo yhi
1.8686190943403034e+00 5.8193380905663318e+01 zlo zhi

Masses

1 18.015
2 12.01

Atoms # atomic

2962 1 3.5809522642988081e+00 3.2806464147322156e+00 5.1612586239687754e+00 0 0 1
3615 1 4.6673041118204300e-01 1.5813583249890184e+00 9.8185185951547425e+00 0 1 0
1950 1 4.2684480994898770e+00 1.2644933914991479e+00 3.4716071532553086e+00 1 3 1
2187 1 8.2533915736231585e+00 1.0942143227004500e+01 8.1562722909230558e+00 -2 -1 1
6245 1 8.4409602197196136e+00 9.7371927607712561e-01 5.3236233487023297e+00 1 1 1
1895 1 1.1208173424924686e+01 1.1223177086536813e+00 6.0910537800109532e+00 3 0 0
66 1 8.8166532790332504e+00 1.0223797053342846e+01 1.5164302301238656e+01 2 -1 1
1731 1 8.6225775698451912e-02 9.8234108968664682e+00 9.8519504770098685e+00 1 0 0
4742 1 4.5920359238164723e+00 5.9327231127134459e+00 5.2995125960280713e+00 2 -1 1
512 1 2.9314325877704857e+00 7.3122076748640517e+00 6.9638707106119533e+00 -1 0 1
3449 1 7.4654718416801700e+00 5.7384732043382636e+00 4.0093487151308320e+00 0 1 0
6327 1 1.0816877589937981e+01 7.4774521931106701e+00 6.3044945320063803e+00 0 1 1
5107 1 7.5996555962536583e+00 1.0752832088044787e+01 4.2859991690652031e+00 -1 1 0
5356 1 7.9294015807754448e-01 2.5005243659910914e-01 4.4907398714227238e+00 1 2 1
6435 1 8.2901496569246502e-01 9.0064468605064860e+00 5.8595098856375314e+00 2 -1 1
3404 1 5.8120261830711888e+00 8.6343426070867064e+00 3.9457500394478342e+00 -1 0 0
3731 1 3.0746176516656885e+00 9.9092324456220453e+00 4.1551590300172148e+00 0 -1 1
1683 1 1.0416515476993460e+01 1.1345887672196778e+01 3.2430930619815896e+00 -1 1 0
5197 1 1.2096564350282792e+01 1.1996615562004246e+01 7.3251412801670339e+00 1 1 0
6364 1 1.0192330121198021e+01 1.0361078629766808e+01 6.0647442794705935e+00 1 -3 1
258 1 1.0433835544026556e+01 7.4107906419056144e+00 1.1746400918759809e+01 1 -1 0
3541 1 4.1681576452428866e+00 2.1759510411547196e+00 7.8488788652605299e+00 1 -1 0
2005 1 8.0344643312847062e+00 2.4889917212378059e+00 7.6991995403063793e+00 -1 2 0
3748 1 4.1075044761125419e+00 1.2115666730842277e+01 1.5049118290878276e+01 1 2 1
5394 1 6.2458178852777495e+00 1.3449509706903426e+00 9.4998505714308514e+00 1 2 1
6152 1 1.0812297335764223e+01 2.4486173162520020e+00 8.7781545490442401e+00 2 2 1
2868 1 2.6571573905398780e+00 3.3438995734470369e+00 9.6124913962556153e+00 1 1 1
3279 1 5.5429267929168002e+00 4.8557368778264731e+00 9.5291287042664088e+00 1 1 0
6416 1 4.2237815192111654e+00 8.1125699486052305e+00 9.1688639144557840e+00 2 -1 1
2028 1 7.8382065059964168e+00 8.0477572312624588e+00 1.1443712509945195e+01 3 1 0
223 1 1.1064559678528953e+01 9.4572235322887401e+00 1.3441641043847911e+01 -1 -2 0
2934 1 6.9591468044970846e+00 5.2506699261340515e+00 7.2107442904913439e+00 -1 0 1
1526 1 3.0291011949045301e+00 1.0402575046795668e+01 1.0540567092894221e+01 2 1 1
5285 1 4.1558709301754977e+00 1.2000393436760818e+01 6.1036678269516500e+00 2 1 0
2025 1 3.8201530950675946e+00 9.2482666144512180e+00 1.5760332495642874e+01 2 -2 1
4988 1 1.0276663761084492e+00 3.4918359792691320e+00 4.3161329808152047e+00 2 0 0
1622 1 7.2619247947968510e+00 1.0453481455273923e+01 1.2670221667827667e+01 0 -2 1
5244 1 5.1035720039575638e-01 5.1082021147185044e+00 1.1651649815837212e+01 0 -1 0
27 1 9.7308052325871479e+00 7.3636834682776930e+00 3.6162827972380609e+00 3 0 1
6263 1 7.0325286555805038e+00 8.4769137618253012e+00 9.0057429111859069e+00 1 1 1
4842 1 7.9942882280542662e+00 3.1330955834182204e+00 3.1356334001723862e+00 1 1 1
6144 1 3.7650864729963596e+00 2.6467494844789141e+00 1.3634888202954944e+01 -2 1 1
3039 1 6.3222294490240936e+00 1.7085168182364006e+00 1.2474873911711102e+01 -1 1 1
5129 1 8.5602004571120442e+00 1.6893157698428192e+00 1.4407632825884615e+01 2 1 0
1769 1 9.8304442874670901e+00 1.9800557825181344e+00 1.1715886799151072e+01 -2 0 0
5029 1 9.5424014182541832e+00 4.9211178872552086e+00 9.9211268361175424e+00 2 0 0
88 1 2.3323780708362625e+00 4.8290390912265240e+00 1.3837662739306312e+01 -1 2 1
3477 1 4.3048473724203751e+00 6.5467012090975807e+00 1.4275998165419567e+01 1 0 0
4859 1 2.4774893918326142e+00 8.9952570051139134e+00 1.3302736073894110e+01 0 0 0
3308 1 1.1835478404795492e+01 8.2553065675931414e+00 9.3513772037583305e+00 2 1 0
4950 1 7.4242869908520515e+00 4.1383982286351664e+00 1.1382967436336807e+01 2 0 0
1354 1 6.9230307285720043e+00 6.0489481749078919e+00 1.3268263817803044e+01 1 -2 1
6385 1 8.8945754377986965e+00 5.8015374018535351e+00 1.4996391735397891e+01 0 0 1
3330 1 9.0303026279625005e+00 6.8698386060520669e+00 8.2022722033399447e+00 2 1 0
1412 1 1.1204932704357031e+01 4.7508757836476425e+00 1.3367811336590625e+01 2 0 1
1652 1 1.2125899942347258e+00 7.3159763381747531e+00 2.2951189299995018e+00 1 0 1
3209 1 2.1269682369608049e+00 7.3162389359911373e-01 1.2460303451813957e+01 -1 2 1
4604 1 8.2075809816891638e+00 1.1987271504010641e+01 1.0568800715953623e+01 1 -3 1
3104 1 4.6841142588094584e+00 1.1262387500248495e+01 1.2507912790844664e+01 1 1 1
3710 1 1.1757798791238800e+01 1.9501111948904668e+00 1.3927350231868223e+01 1 -1 1
5417 1 1.0913143620118687e+01 1.1913973707109106e+01 1.1856318980685199e+01 3 0 1
6239 1 3.7934765864351725e+00 6.3810104168491097e+00 2.7120543336805722e+00 2 -1 1
5325 1 1.2290277512097175e+01 1.6230666879646969e+00 3.8154644546731129e+00 0 3 0
6384 1 1.4866342700919055e+00 5.4016546834542210e+00 8.1453512843620590e+00 2 1 1
6304 1 1.0009431411445631e+01 1.4970021815482548e+00 2.3349768589894984e+00 1 1 1
5127 1 4.3275652640432405e+00 1.3073691565209224e+00 1.5919459268540484e+01 1 -1 0
802 2 1.1074500000000002e+01 1.0656442593567498e+01 2.6858437789776385e+01 0 0 0
354 1 3.0556790310531362e-01 1.9303030701192689e+00 2.0779726373196272e+01 2 0 0
1495 1 5.7018058316082731e+00 3.5485819115418273e+00 1.7296146566477088e+01 0 2 0
759 2 9.8440000000000012e+00 8.5251540748539956e+00 2.6858437789776385e+01 0 0 0
555 1 1.7409863596358499e+00 8.6229357055277944e+00 1.7584880685752445e+01 1 0 1
2982 1 5.1216956313774746e+00 3.0026947246673656e+00 2.0021503670650315e+01 -1 -1 1
1889 1 1.0478302512406986e+01 3.6211767383275899e+00 1.8283472821653000e+01 2 2 0
4502 1 1.0040272881303686e+01 1.8734914925586981e+00 2.0425509082855243e+01 2 0 1
714 2 8.6134999999999984e+00 9.2355835810918343e+00 2.6858437789776385e+01 0 0 0
3814 1 4.8986124230846011e+00 6.4290068949538979e+00 1.6802695639857703e+01 0 0 1
2952 1 2.4907947995197288e+00 5.6027719604409434e+00 1.8120125388141972e+01 0 1 1
3336 1 7.9795834944238715e+00 6.2585247261354304e+00 2.0865390253934848e+01 -2 1 0
2 1 9.0883891143891891e+00 7.8361771080487417e+00 1.6639900524721906e+01 -1 -1 1
3652 1 1.1672710051642580e+01 6.5812644467797821e+00 1.7924133215121422e+01 -1 0 0
3169 1 6.9974906425064454e+00 7.3819189576967261e+00 1.8472712190132246e+01 -1 0 1
5144 1 2.7154181668987176e+00 9.3604293089260882e+00 2.0217615140810075e+01 0 1 0
3246 1 1.1858068562199179e+01 1.4971925593974176e+00 1.6761094910223264e+01 0 1 1
210 1 5.6330627755455396e+00 9.3107971722242642e+00 2.0152182405601309e+01 0 2 0
1570 1 6.6558777812310561e+00 1.1761220616218585e+01 1.6355243850678526e+01 1 1 0
5338 1 6.3159255697065504e+00 1.1834514639198233e+01 1.9063691329777775e+01 -1 2 1
398 1 1.0798348299727786e+01 1.1093044619634945e+01 1.8512601386171486e+01 0 1 0
1427 1 2.5536134026169846e+00 3.7134534590468378e+00 2.1210515762214278e+01 2 0 1
754 2 8.6135000000000002e+00 1.2077301606043163e+01 3.0031000000001303e+01 0 0 0
756 2 8.6134999999999984e+00 1.0656442593567498e+01 3.0031000000001303e+01 0 0 0
2910 1 2.2901158105301285e+00 3.3925330448592117e+00 2.3818689521321950e+01 -2 -1 1
1858 1 4.8510473820289182e+00 2.3310182110179039e+00 2.4216687384157346e+01 2 2 1
73 1 1.2179996102007490e+01 7.3518803154983936e-01 2.4181872397460964e+01 -2 2 0
4517 1 9.4677283783744102e+00 1.8849957818253178e+00 2.3481320198906232e+01 1 -1 1
3481 1 6.0127153444438464e-01 1.8653755491017177e+00 1.7761429288202010e+01 1 0 0
4729 1 1.5325727638305748e+00 6.1227471705561785e+00 2.3973861669542856e+01 1 0 1
6283 1 1.5485270419438777e+00 6.3073274582609136e+00 2.0692352741495004e+01 1 0 1
1625 1 7.2930486219197075e+00 3.4743774876503926e+00 2.4086591475515895e+01 0 0 0
3697 1 7.4265958338957940e+00 3.6457121999805717e+00 2.1156193532771042e+01 0 0 1
1310 1 7.4905793265342009e+00 6.6058812600346748e+00 2.3515179183729604e+01 0 1 1
2108 1 9.7816859311690827e+00 8.1367491277673434e+00 2.4240700282250259e+01 1 0 1
6315 1 1.0834189730813030e+01 5.8747785808359305e+00 2.0679907343244654e+01 -2 0 1
121 1 2.4739426927611111e-01 1.6688675900426659e+00 2.3947508175514635e+01 -1 -1 0
2899 1 3.0150960863739318e+00 8.4652048682083869e+00 2.3005170467033626e+01 0 1 0
3450 1 2.2271912388193349e+00 1.1818212806929978e+01 2.1225216931438887e+01 1 0 0
1493 1 1.4906438184292234e+00 1.0771050040041020e+01 2.3832549219590835e+01 2 0 1
6224 1 5.9944469718352167e+00 8.7723381588487896e+00 2.2826547316147138e+01 0 2 1
1658 1 6.8386261276673839e+00 1.0939902550107377e+01 2.4253477411397295e+01 0 0 0
3117 1 8.7318406969364908e+00 1.0965817725718981e+01 2.0314204222974496e+01 0 1 1
190 1 9.0784150381492754e+00 1.1322657830256089e+01 2.2983552864937003e+01 2 1 0
581 2 0.0000000000000000e+00 2.8417180249513345e+00 2.6858437789776385e+01 0 0 0
583 2 0.0000000000000000e+00 0.0000000000000000e+00 2.6858437789776385e+01 0 0 0
585 2 1.2305000000000001e+00 7.1042950623783474e-01 2.6858437789776385e+01 0 0 0
592 2 1.2305000000000001e+00 2.1312885187134998e+00 2.6858437789776385e+01 0 0 0
594 2 2.4610000000000003e+00 2.8417180249513345e+00 2.6858437789776385e+01 0 0 0
596 2 2.4610000000000003e+00 0.0000000000000000e+00 2.6858437789776385e+01 0 0 0
598 2 3.6915000000000004e+00 7.1042950623783474e-01 2.6858437789776385e+01 0 0 0
613 2 3.6914999999999996e+00 2.1312885187134998e+00 2.6858437789776385e+01 0 0 0
582 2 0.0000000000000000e+00 1.4208590124756650e+00 3.0031000000001303e+01 0 0 0
584 2 0.0000000000000000e+00 0.0000000000000000e+00 3.0031000000001303e+01 0 0 0
591 2 1.2305000000000001e+00 3.5521475311891644e+00 3.0031000000001303e+01 0 0 0
593 2 1.2305000000000001e+00 2.1312885187134998e+00 3.0031000000001303e+01 0 0 0
595 2 2.4610000000000003e+00 1.4208590124756650e+00 3.0031000000001303e+01 0 0 0
597 2 2.4610000000000003e+00 0.0000000000000000e+00 3.0031000000001303e+01 0 0 0
612 2 3.6914999999999996e+00 3.5521475311891644e+00 3.0031000000001303e+01 0 0 0
614 2 3.6914999999999996e+00 2.1312885187134998e+00 3.0031000000001303e+01 0 0 0
615 2 4.9220000000000006e+00 2.8417180249513332e+00 2.6858437789776385e+01 0 0 0
617 2 4.9220000000000006e+00 0.0000000000000000e+00 2.6858437789776385e+01 0 0 0
619 2 6.1524999999999999e+00 7.1042950623783407e-01 2.6858437789776385e+01 0 0 0
642 2 6.1524999999999999e+00 2.1312885187134989e+00 2.6858437789776385e+01 0 0 0
644 2 7.3829999999999991e+00 2.8417180249513345e+00 2.6858437789776385e+01 0 0 0
646 2 7.3829999999999991e+00 0.0000000000000000e+00 2.6858437789776385e+01 0 0 0
616 2 4.9220000000000006e+00 1.4208590124756650e+00 3.0031000000001303e+01 0 0 0
618 2 4.9220000000000006e+00 0.0000000000000000e+00 3.0031000000001303e+01 0 0 0
641 2 6.1524999999999999e+00 3.5521475311891644e+00 3.0031000000001303e+01 0 0 0
643 2 6.1524999999999999e+00 2.1312885187134989e+00 3.0031000000001303e+01 0 0 0
645 2 7.3829999999999991e+00 1.4208590124756659e+00 3.0031000000001303e+01 0 0 0
647 2 7.3829999999999991e+00 0.0000000000000000e+00 3.0031000000001303e+01 0 0 0
648 2 8.6134999999999984e+00 7.1042950623783407e-01 2.6858437789776385e+01 0 0 0
679 2 8.6134999999999984e+00 2.1312885187135002e+00 2.6858437789776385e+01 0 0 0
681 2 9.8440000000000012e+00 2.8417180249513332e+00 2.6858437789776385e+01 0 0 0
683 2 9.8440000000000012e+00 0.0000000000000000e+00 2.6858437789776385e+01 0 0 0
685 2 1.1074500000000002e+01 7.1042950623783330e-01 2.6858437789776385e+01 0 0 0
724 2 1.1074500000000002e+01 2.1312885187135002e+00 2.6858437789776385e+01 0 0 0
678 2 8.6134999999999984e+00 3.5521475311891657e+00 3.0031000000001303e+01 0 0 0
680 2 8.6134999999999984e+00 2.1312885187135002e+00 3.0031000000001303e+01 0 0 0
682 2 9.8440000000000012e+00 1.4208590124756659e+00 3.0031000000001303e+01 0 0 0
684 2 9.8440000000000012e+00 0.0000000000000000e+00 3.0031000000001303e+01 0 0 0
723 2 1.1074500000000002e+01 3.5521475311891644e+00 3.0031000000001303e+01 0 0 0
725 2 1.1074500000000002e+01 2.1312885187135002e+00 3.0031000000001303e+01 0 0 0
586 2 0.0000000000000000e+00 7.1042950623783341e+00 2.6858437789776385e+01 0 0 0
588 2 0.0000000000000000e+00 4.2625770374269996e+00 2.6858437789776385e+01 0 0 0
590 2 1.2305000000000001e+00 4.9730065436648339e+00 2.6858437789776385e+01 0 0 0
605 2 1.2305000000000001e+00 6.3938655561404980e+00 2.6858437789776385e+01 0 0 0
607 2 2.4610000000000003e+00 7.1042950623783341e+00 2.6858437789776385e+01 0 0 0
609 2 2.4610000000000003e+00 4.2625770374269996e+00 2.6858437789776385e+01 0 0 0
611 2 3.6914999999999996e+00 4.9730065436648339e+00 2.6858437789776385e+01 0 0 0
634 2 3.6914999999999996e+00 6.3938655561404980e+00 2.6858437789776385e+01 0 0 0
587 2 0.0000000000000000e+00 5.6834360499026637e+00 3.0031000000001303e+01 0 0 0
589 2 0.0000000000000000e+00 4.2625770374269996e+00 3.0031000000001303e+01 0 0 0
604 2 1.2305000000000001e+00 7.8147245686161639e+00 3.0031000000001303e+01 0 0 0
606 2 1.2305000000000001e+00 6.3938655561404980e+00 3.0031000000001303e+01 0 0 0
608 2 2.4610000000000003e+00 5.6834360499026637e+00 3.0031000000001303e+01 0 0 0
610 2 2.4610000000000003e+00 4.2625770374269996e+00 3.0031000000001303e+01 0 0 0
633 2 3.6914999999999996e+00 7.8147245686161639e+00 3.0031000000001303e+01 0 0 0
635 2 3.6914999999999996e+00 6.3938655561404980e+00 3.0031000000001303e+01 0 0 0
636 2 4.9220000000000006e+00 7.1042950623783341e+00 2.6858437789776385e+01 0 0 0
638 2 4.9220000000000006e+00 4.2625770374269978e+00 2.6858437789776385e+01 0 0 0
640 2 6.1524999999999999e+00 4.9730065436648339e+00 2.6858437789776385e+01 0 0 0
671 2 6.1524999999999999e+00 6.3938655561404980e+00 2.6858437789776385e+01 0 0 0
673 2 7.3830000000000009e+00 7.1042950623783341e+00 2.6858437789776385e+01 0 0 0
675 2 7.3829999999999991e+00 4.2625770374269996e+00 2.6858437789776385e+01 0 0 0
637 2 4.9220000000000006e+00 5.6834360499026637e+00 3.0031000000001303e+01 0 0 0
639 2 4.9220000000000006e+00 4.2625770374269978e+00 3.0031000000001303e+01 0 0 0
670 2 6.1524999999999999e+00 7.8147245686161639e+00 3.0031000000001303e+01 0 0 0
672 2 6.1524999999999999e+00 6.3938655561404980e+00 3.0031000000001303e+01 0 0 0
674 2 7.3829999999999991e+00 5.6834360499026637e+00 3.0031000000001303e+01 0 0 0
676 2 7.3829999999999991e+00 4.2625770374269996e+00 3.0031000000001303e+01 0 0 0
677 2 8.6135000000000002e+00 4.9730065436648339e+00 2.6858437789776385e+01 0 0 0
716 2 8.6135000000000002e+00 6.3938655561404980e+00 2.6858437789776385e+01 0 0 0
718 2 9.8440000000000012e+00 7.1042950623783341e+00 2.6858437789776385e+01 0 0 0
720 2 9.8440000000000012e+00 4.2625770374270004e+00 2.6858437789776385e+01 0 0 0
722 2 1.1074500000000002e+01 4.9730065436648339e+00 2.6858437789776385e+01 0 0 0
763 2 1.1074500000000002e+01 6.3938655561404980e+00 2.6858437789776385e+01 0 0 0
715 2 8.6135000000000002e+00 7.8147245686161639e+00 3.0031000000001303e+01 0 0 0
717 2 8.6135000000000002e+00 6.3938655561404980e+00 3.0031000000001303e+01 0 0 0
719 2 9.8440000000000012e+00 5.6834360499026637e+00 3.0031000000001303e+01 0 0 0
721 2 9.8440000000000012e+00 4.2625770374270004e+00 3.0031000000001303e+01 0 0 0
762 2 1.1074500000000002e+01 7.8147245686161639e+00 3.0031000000001303e+01 0 0 0
764 2 1.1074500000000002e+01 6.3938655561404980e+00 3.0031000000001303e+01 0 0 0
599 2 0.0000000000000000e+00 1.1366872099805333e+01 2.6858437789776385e+01 0 0 0
601 2 0.0000000000000000e+00 8.5251540748539991e+00 2.6858437789776385e+01 0 0 0
603 2 1.2305000000000001e+00 9.2355835810918343e+00 2.6858437789776385e+01 0 0 0
626 2 1.2305000000000001e+00 1.0656442593567498e+01 2.6858437789776385e+01 0 0 0
628 2 2.4610000000000003e+00 1.1366872099805333e+01 2.6858437789776385e+01 0 0 0
630 2 2.4610000000000003e+00 8.5251540748539991e+00 2.6858437789776385e+01 0 0 0
632 2 3.6915000000000004e+00 9.2355835810918343e+00 2.6858437789776385e+01 0 0 0
663 2 3.6914999999999996e+00 1.0656442593567499e+01 2.6858437789776385e+01 0 0 0
600 2 0.0000000000000000e+00 9.9460130873296642e+00 3.0031000000001303e+01 0 0 0
602 2 0.0000000000000000e+00 8.5251540748539991e+00 3.0031000000001303e+01 0 0 0
625 2 1.2305000000000001e+00 1.2077301606043163e+01 3.0031000000001303e+01 0 0 0
627 2 1.2305000000000001e+00 1.0656442593567498e+01 3.0031000000001303e+01 0 0 0
629 2 2.4610000000000003e+00 9.9460130873296642e+00 3.0031000000001303e+01 0 0 0
631 2 2.4610000000000003e+00 8.5251540748539991e+00 3.0031000000001303e+01 0 0 0
662 2 3.6914999999999996e+00 1.2077301606043163e+01 3.0031000000001303e+01 0 0 0
664 2 3.6914999999999996e+00 1.0656442593567499e+01 3.0031000000001303e+01 0 0 0
711 2 7.3830000000000009e+00 9.9460130873296642e+00 3.0031000000001303e+01 0 0 0
713 2 7.3830000000000009e+00 8.5251540748539991e+00 3.0031000000001303e+01 0 0 0
665 2 4.9220000000000006e+00 1.1366872099805333e+01 2.6858437789776385e+01 0 0 0
667 2 4.9220000000000006e+00 8.5251540748539991e+00 2.6858437789776385e+01 0 0 0
669 2 6.1524999999999999e+00 9.2355835810918343e+00 2.6858437789776385e+01 0 0 0
708 2 6.1524999999999999e+00 1.0656442593567499e+01 2.6858437789776385e+01 0 0 0
710 2 7.3829999999999991e+00 1.1366872099805333e+01 2.6858437789776385e+01 0 0 0
712 2 7.3830000000000009e+00 8.5251540748539991e+00 2.6858437789776385e+01 0 0 0
666 2 4.9220000000000006e+00 9.9460130873296642e+00 3.0031000000001303e+01 0 0 0
668 2 4.9220000000000006e+00 8.5251540748539991e+00 3.0031000000001303e+01 0 0 0
707 2 6.1524999999999999e+00 1.2077301606043163e+01 3.0031000000001303e+01 0 0 0
709 2 6.1524999999999999e+00 1.0656442593567499e+01 3.0031000000001303e+01 0 0 0
758 2 9.8440000000000012e+00 9.9460130873296642e+00 3.0031000000001303e+01 0 0 0
803 2 1.1074500000000002e+01 1.0656442593567498e+01 3.0031000000001303e+01 0 0 0
755 2 8.6134999999999984e+00 1.0656442593567498e+01 2.6858437789776385e+01 0 0 0
801 2 1.1074500000000002e+01 1.2077301606043163e+01 3.0031000000001303e+01 0 0 0
760 2 9.8440000000000012e+00 8.5251540748539956e+00 3.0031000000001303e+01 0 0 0
804 2 1.2304999999999998e+01 1.1366872099805333e+01 2.6858437789776385e+01 0 0 0
761 2 1.1074500000000002e+01 9.2355835810918343e+00 2.6858437789776385e+01 0 0 0
757 2 9.8440000000000012e+00 1.1366872099805333e+01 2.6858437789776385e+01 0 0 0
279 1 2.3526313346190530e+00 4.9669345994225643e-02 1.6831426511222759e+01 0 -1 0
64 1 6.7012071973379095e-01 1.1810774659030674e+01 1.8858514311276252e+01 1 2 0
3311 1 8.2466640864293410e+00 3.5712971852089939e+00 1.6467342074566396e+01 0 0 0
6445 1 1.1676171993019050e+01 1.0151245580056012e+01 2.2785116393018388e+01 -1 1 1
99 1 5.3358399235702603e+00 2.8138914973060458e-01 2.0668268832300072e+01 1 -2 1
1999 1 8.1648944553265912e-01 4.4943642535595965e+00 1.5969813754824937e+01 2 0 0
910 2 0.0000000000000000e+00 2.8417180249513345e+00 3.3203562210223893e+01 0 0 0
911 2 0.0000000000000000e+00 0.0000000000000000e+00 3.3203562210223893e+01 0 0 0
912 2 1.2305000000000001e+00 7.1042950623783474e-01 3.3203562210223893e+01 0 0 0
916 2 1.2305000000000001e+00 2.1312885187134998e+00 3.3203562210223893e+01 0 0 0
917 2 2.4610000000000003e+00 2.8417180249513345e+00 3.3203562210223893e+01 0 0 0
918 2 2.4610000000000003e+00 0.0000000000000000e+00 3.3203562210223893e+01 0 0 0
919 2 3.6915000000000004e+00 7.1042950623783474e-01 3.3203562210223893e+01 0 0 0
927 2 3.6914999999999996e+00 2.1312885187134998e+00 3.3203562210223893e+01 0 0 0
928 2 4.9220000000000006e+00 2.8417180249513332e+00 3.3203562210223893e+01 0 0 0
929 2 4.9220000000000006e+00 0.0000000000000000e+00 3.3203562210223893e+01 0 0 0
930 2 6.1524999999999999e+00 7.1042950623783407e-01 3.3203562210223893e+01 0 0 0
942 2 6.1524999999999999e+00 2.1312885187134989e+00 3.3203562210223893e+01 0 0 0
943 2 7.3829999999999991e+00 2.8417180249513345e+00 3.3203562210223893e+01 0 0 0
944 2 7.3829999999999991e+00 0.0000000000000000e+00 3.3203562210223893e+01 0 0 0
945 2 8.6134999999999984e+00 7.1042950623783407e-01 3.3203562210223893e+01 0 0 0
961 2 8.6134999999999984e+00 2.1312885187135002e+00 3.3203562210223893e+01 0 0 0
962 2 9.8440000000000012e+00 2.8417180249513332e+00 3.3203562210223893e+01 0 0 0
963 2 9.8440000000000012e+00 0.0000000000000000e+00 3.3203562210223893e+01 0 0 0
964 2 1.1074500000000002e+01 7.1042950623783330e-01 3.3203562210223893e+01 0 0 0
984 2 1.1074500000000002e+01 2.1312885187135002e+00 3.3203562210223893e+01 0 0 0
913 2 0.0000000000000000e+00 7.1042950623783341e+00 3.3203562210223893e+01 0 0 0
914 2 0.0000000000000000e+00 4.2625770374269996e+00 3.3203562210223893e+01 0 0 0
915 2 1.2305000000000001e+00 4.9730065436648339e+00 3.3203562210223893e+01 0 0 0
923 2 1.2305000000000001e+00 6.3938655561404980e+00 3.3203562210223893e+01 0 0 0
924 2 2.4610000000000003e+00 7.1042950623783341e+00 3.3203562210223893e+01 0 0 0
925 2 2.4610000000000003e+00 4.2625770374269996e+00 3.3203562210223893e+01 0 0 0
926 2 3.6914999999999996e+00 4.9730065436648339e+00 3.3203562210223893e+01 0 0 0
938 2 3.6914999999999996e+00 6.3938655561404980e+00 3.3203562210223893e+01 0 0 0
939 2 4.9220000000000006e+00 7.1042950623783341e+00 3.3203562210223893e+01 0 0 0
940 2 4.9220000000000006e+00 4.2625770374269978e+00 3.3203562210223893e+01 0 0 0
941 2 6.1524999999999999e+00 4.9730065436648339e+00 3.3203562210223893e+01 0 0 0
957 2 6.1524999999999999e+00 6.3938655561404980e+00 3.3203562210223893e+01 0 0 0
958 2 7.3830000000000009e+00 7.1042950623783341e+00 3.3203562210223893e+01 0 0 0
959 2 7.3829999999999991e+00 4.2625770374269996e+00 3.3203562210223893e+01 0 0 0
960 2 8.6135000000000002e+00 4.9730065436648339e+00 3.3203562210223893e+01 0 0 0
980 2 8.6135000000000002e+00 6.3938655561404980e+00 3.3203562210223893e+01 0 0 0
981 2 9.8440000000000012e+00 7.1042950623783341e+00 3.3203562210223893e+01 0 0 0
982 2 9.8440000000000012e+00 4.2625770374270004e+00 3.3203562210223893e+01 0 0 0
983 2 1.1074500000000002e+01 4.9730065436648339e+00 3.3203562210223893e+01 0 0 0
1004 2 1.1074500000000002e+01 6.3938655561404980e+00 3.3203562210223893e+01 0 0 0
920 2 0.0000000000000000e+00 1.1366872099805333e+01 3.3203562210223893e+01 0 0 0
921 2 0.0000000000000000e+00 8.5251540748539991e+00 3.3203562210223893e+01 0 0 0
922 2 1.2305000000000001e+00 9.2355835810918343e+00 3.3203562210223893e+01 0 0 0
934 2 1.2305000000000001e+00 1.0656442593567498e+01 3.3203562210223893e+01 0 0 0
935 2 2.4610000000000003e+00 1.1366872099805333e+01 3.3203562210223893e+01 0 0 0
936 2 2.4610000000000003e+00 8.5251540748539991e+00 3.3203562210223893e+01 0 0 0
937 2 3.6915000000000004e+00 9.2355835810918343e+00 3.3203562210223893e+01 0 0 0
953 2 3.6914999999999996e+00 1.0656442593567499e+01 3.3203562210223893e+01 0 0 0
954 2 4.9220000000000006e+00 1.1366872099805333e+01 3.3203562210223893e+01 0 0 0
955 2 4.9220000000000006e+00 8.5251540748539991e+00 3.3203562210223893e+01 0 0 0
956 2 6.1524999999999999e+00 9.2355835810918343e+00 3.3203562210223893e+01 0 0 0
976 2 6.1524999999999999e+00 1.0656442593567499e+01 3.3203562210223893e+01 0 0 0
977 2 7.3829999999999991e+00 1.1366872099805333e+01 3.3203562210223893e+01 0 0 0
978 2 7.3830000000000009e+00 8.5251540748539991e+00 3.3203562210223893e+01 0 0 0
979 2 8.6134999999999984e+00 9.2355835810918343e+00 3.3203562210223893e+01 0 0 0
1000 2 8.6134999999999984e+00 1.0656442593567498e+01 3.3203562210223893e+01 0 0 0
1001 2 9.8440000000000012e+00 1.1366872099805333e+01 3.3203562210223893e+01 0 0 0
1002 2 9.8440000000000012e+00 8.5251540748539956e+00 3.3203562210223893e+01 0 0 0
1003 2 1.1074500000000002e+01 9.2355835810918343e+00 3.3203562210223893e+01 0 0 0
1024 2 1.1074500000000002e+01 1.0656442593567498e+01 3.3203562210223893e+01 0 0 0
1025 2 1.2304999999999998e+01 1.1366872099805333e+01 3.3203562210223893e+01 0 0 0
1631 1 2.9657355881979490e+00 3.0456897301419628e+00 3.5410230499208083e+01 2 0 -1
6112 1 5.1198646041740554e+00 1.6087930795380860e+00 3.5919479481487961e+01 1 0 0
5271 1 8.1095316153297059e+00 2.6763441600275373e+00 3.6820710868531727e+01 -1 0 -1
3121 1 5.8360154603936580e+00 1.7557267891866639e+00 3.8639350910699839e+01 0 0 -1
5292 1 4.4812656598433467e+00 1.1507123114702177e+01 4.2608568820118521e+01 0 1 -1
1960 1 1.2204475096652750e+01 1.0545259266068799e+01 4.1364802917064985e+01 1 1 -1
2016 1 1.1842493661304943e+01 8.7415270222749686e-01 3.7691086553322840e+01 -1 -2 0
6210 1 3.6729276331773963e+00 5.7157345223293694e+00 3.6056010916423539e+01 0 -1 0
4570 1 1.2587654051650203e+00 7.1505970509833618e+00 3.5887433568492966e+01 2 0 0
3251 1 8.3208536215747557e+00 5.5355956211040631e+00 3.6982859509908145e+01 -1 1 -1
6137 1 6.1652298276342519e+00 6.9073379767642606e+00 3.5767627837160468e+01 1 1 0
3011 1 6.2957754322247306e+00 8.7241849109541469e+00 3.9495041689872458e+01 1 0 0
2133 1 1.0641365871192026e+01 5.9118198878329835e+00 3.5671353247866683e+01 0 0 -1
4824 1 1.1185619890887317e+01 8.4641664827451955e+00 3.6510540947923658e+01 -2 -1 0
2060 1 1.0988161586209911e+01 8.7738018606309147e+00 3.9510718857623559e+01 1 1 -1
3374 1 2.2016554802890274e+00 9.7968584184217260e+00 3.6373290167888854e+01 3 0 -1
2043 1 2.7797920067716690e+00 1.0056538402459337e+01 3.9275289681364377e+01 1 1 0
5063 1 1.2384680351099826e+00 6.9085770797697164e+00 4.2109952532338781e+01 2 0 -1
5349 1 6.0893328292195381e+00 9.1914770008521369e+00 3.6795838233966002e+01 0 0 -1
3334 1 4.5221836931218276e+00 1.1208644688369597e+01 3.5662069687613815e+01 2 1 0
2159 1 9.1118244520648339e+00 1.0526230414795274e+01 3.8652522950475863e+01 1 -1 -1
456 1 8.6046250866974940e+00 9.9964598131724554e+00 3.5845598868982037e+01 1 1 -1
2119 1 9.0655726230913913e+00 2.5403223333626572e+00 3.9545969604742993e+01 1 0 0
1439 1 9.9663479990802983e+00 9.3184971425652396e-01 3.5586212894843776e+01 -1 1 0
1992 1 2.0673372357847186e+00 1.6989982509026980e+00 3.9214207996434304e+01 3 0 -1
6168 1 2.2173500810246720e+00 4.2529867305269775e+00 4.1919765669119286e+01 1 0 0
4511 1 3.9902120681073292e+00 3.9159965043781249e+00 3.9613126024385870e+01 -1 1 0
4535 1 6.7812154271879130e+00 3.8365154959410837e+00 4.3335678050889065e+01 0 0 0
6383 1 6.7559248145941933e+00 4.1048973524196315e+00 4.0662844029074506e+01 1 0 -1
5324 1 9.7801258522019339e+00 3.6461592619574872e+00 4.3404873253890024e+01 1 0 0
3807 1 1.1018702594361240e+01 4.2301069797939963e+00 4.0869365884804623e+01 1 1 0
343 1 3.5764800799110734e+00 7.9566854997476231e+00 4.0821334410542661e+01 1 -2 -1
1406 1 2.7319575454801215e+00 6.1900963505990330e+00 3.8728212037962464e+01 1 0 0
4670 1 3.8615909299914293e+00 8.8373674899804957e+00 4.3469813706560643e+01 1 2 0
3354 1 6.8215132466295203e-01 1.7577778963046251e+00 3.6435742547645226e+01 2 -1 -1
4626 1 1.0246795256329982e+01 1.1090353409023269e+01 4.3132216771742229e+01 1 0 0
5382 1 7.7537719254579009e+00 6.1914217430562930e+00 3.9490336371118445e+01 -1 2 -1
6143 1 7.1143316069573066e+00 1.0928302929309977e+01 4.1317743703601110e+01 -1 0 0
435 1 1.0040542749976382e+01 6.7224737653419000e+00 4.1225553597516956e+01 0 -1 0
3513 1 1.1856340972923942e+01 7.7622880791598217e+00 4.3395093733183543e+01 -1 2 -1
1642 1 8.3365966446454163e+00 8.9198814638806834e+00 4.2612352638813590e+01 0 -1 0
1384 1 1.0637824987723546e+01 1.1679365156323053e-01 4.0283256501562832e+01 -1 1 0
2073 1 2.6492692785445422e-02 1.2156293717186472e+01 4.1816006995213748e+01 -1 0 -1
1262 1 6.1055977467091429e+00 9.0017448717897142e-01 4.3471971204652192e+01 0 -1 0
245 1 1.2432907737595780e-01 1.0603150621138010e+01 3.9246516080056857e+01 1 0 -1
2946 1 1.1780817746650618e+01 3.6365188703083757e+00 3.6581989790893402e+01 -1 0 0
534 1 1.5611537303986980e-01 2.1529154424896713e+00 4.1290542552871045e+01 0 -1 0
5008 1 2.0554267222707048e+00 2.9260378554231345e+00 4.7397341448587561e+01 0 1 -1
3518 1 1.3970406489276903e+00 1.6758490756151503e+00 4.9747701563783629e+01 2 0 -1
6448 1 3.6392641462635966e+00 1.4336348632143394e+00 4.4983653810412562e+01 3 0 0
559 1 4.1975415066308246e+00 7.7261689034682768e-01 4.7746046832374198e+01 1 0 0
3091 1 6.7309786733355432e+00 2.0699232332633071e+00 4.9098117304762454e+01 1 1 0
2864 1 1.7380894223086560e+00 2.9812785282927554e+00 5.7693161827861204e+01 1 -1 -1
451 1 9.2744693992147518e+00 4.3116228357358706e+00 5.7021746243145479e+01 1 0 0
2994 1 3.2217366035296204e+00 5.7631044511192187e+00 4.7172119179089407e+01 -1 -2 0
348 1 1.3532947390365107e+00 6.9041948781658959e+00 4.9156413011095985e+01 -1 0 -1
5397 1 6.1963337399606448e+00 4.9793861614519335e+00 4.8269594726161479e+01 -2 -1 0
3592 1 6.3924321554302201e+00 5.5593318424414377e+00 4.5444981761482801e+01 1 -1 -1
1787 1 4.9486720027583901e+00 6.8345397669560555e+00 5.0107159623228831e+01 0 1 -1
4655 1 9.0674136684266280e+00 6.5716041866547661e+00 4.5685670628985285e+01 0 1 0
1505 1 1.2457746297919452e+00 5.8714253823704894e+00 5.4100622424969465e+01 0 -2 -1
149 1 1.9505906313206245e+00 1.2010781975475350e+01 4.7348469925847759e+01 0 -1 -1
1414 1 4.0959920344732792e+00 4.1545281345854832e+00 5.7073885463377252e+01 0 1 0
1620 1 2.6043951508773620e+00 9.1410525658921511e+00 4.7731771455667314e+01 1 0 0
273 1 6.0538665492366670e+00 1.0353597196910616e+01 4.6398123903710463e+01 -1 0 -1
6146 1 1.0366954539376652e+01 1.0261784319158960e+00 4.4483329501275392e+01 0 0 0
257 1 4.8189348330540946e+00 9.4667027098534700e+00 4.8886864389739905e+01 0 1 -1
1577 1 8.6173760752980684e+00 1.1249216777197772e+01 4.6936409428674068e+01 -1 -1 0
6235 1 1.1043925852637457e+01 5.3455072331667663e+00 5.2490987083077130e+01 2 2 0
160 1 1.1577798184855949e+01 8.9990855125852665e-01 4.7215623991915059e+01 2 1 -1