LAMMPS data file via write_data, version 16 Mar 2018, timestep = 100000

6472 atoms
2 atom types

0.0000000000000000e+00 4.9219999999999999e+01 xlo xhi
0.0000000000000000e+00 4.9019635930410494e+01 ylo yhi
1.9855371539795392e+00 5.8076462846022451e+01 zlo zhi

Masses

1 18.015
2 12.01

Atoms # atomic

1820 1 1.2044609530532014e+01 1.5395199528584214e+00 1.4853364454121261e+01 -1 0 0
4840 1 7.3850173699455690e-01 3.5531850272012480e+00 4.8374778223705857e+00 1 -1 1
1422 1 4.9091308797506255e+00 1.1466455558316394e+01 1.1851250999690937e+01 0 -1 1
339 1 9.9792327698218024e+00 1.0389581401256994e+01 1.2544673428120202e+01 1 0 0
235 1 2.7723645456303886e-01 2.5931442884626992e+00 1.5600659726567333e+01 1 -1 0
5108 1 1.5653346102581378e+00 7.3513374019882987e+00 1.4339109586708394e+01 -1 1 0
6442 1 3.3953576322281626e-01 5.8307552323283940e-01 1.3748156405899094e+01 0 2 0
3231 1 1.1752782429795749e+01 2.3392531503844931e+00 2.3909257178966548e+00 0 0 1
3210 1 9.0969901656092453e+00 1.2478869260767933e+00 3.6674890733318755e+00 -1 1 0
489 1 2.8524864422922862e+00 5.3930546828462473e+00 3.9612473107096493e+00 0 0 1
6164 1 2.1846869171396426e+00 7.6402235549295412e+00 2.7935022332529726e+00 1 2 1
6268 1 4.9277336765618731e+00 2.3531691046640582e+00 2.8600712457482622e+00 2 0 1
2887 1 7.4945313444552406e+00 5.5875933500814607e+00 2.9506476661969572e+00 1 1 1
1889 1 5.7331137700724693e+00 4.5176836888007186e+00 4.7160488096441648e+00 2 2 0
4649 1 1.0957449446322924e+01 6.5728201629349865e+00 5.6505074273493543e+00 -1 -2 1
4835 1 1.1237611606284709e+01 2.3380347923958951e+00 1.1821963438950803e+01 -1 1 1
3142 1 1.1480092691403470e+00 9.4569078693463275e+00 4.7283777040865402e+00 0 1 1
3795 1 1.0405608698427415e+01 9.7574175057114410e+00 1.5349277686142534e+01 -1 -1 1
3442 1 5.5103321128897260e+00 1.0407523211798379e+01 5.8549543055240623e+00 0 -1 0
453 1 7.1171431024057448e+00 8.0063946225489158e+00 4.6133936568373155e+00 1 1 1
5205 1 1.1517207690255457e+01 4.9165048118364050e+00 3.0231007612058534e+00 1 0 0
438 1 9.6664220996940085e+00 8.7150312850706282e+00 3.9060621964164230e+00 1 0 0
6101 1 7.9511775511933696e+00 1.1942133619418756e+01 1.4971632382706334e+01 -2 2 1
513 1 1.6937044185053105e+00 2.0542321648513591e+00 9.9064282758853377e+00 2 0 1
4729 1 2.7997065890693262e+00 1.2781800271519008e+00 4.2435019522970610e+00 1 0 1
3204 1 6.8614479106473736e+00 1.6326729053871527e+00 7.6195109870471791e+00 2 0 0
3585 1 7.7637112497498366e+00 2.9511974901394344e+00 5.6470842027820618e+00 1 2 0
4889 1 3.2130573117625505e+00 1.1142496725771693e+01 4.3136781129317576e+00 -1 1 0
4584 1 6.4123820199687094e+00 9.4035683072205956e+00 2.1352791541553753e+00 0 0 1
134 1 9.9370696149170996e+00 4.3281684777772709e+00 6.7529897696997532e+00 -1 2 1
353 1 4.2533366814791140e+00 4.8799845692709685e+00 7.4655629699667481e+00 0 0 0
397 1 2.2080649287087399e+00 7.8095499509793793e+00 1.1449419035332363e+01 0 1 1
5401 1 5.5394015181137881e+00 7.7843078259836016e+00 7.4073008009995256e+00 1 -2 1
2136 1 6.6547931484302536e+00 7.3726472261413232e+00 1.0500977959953607e+01 0 1 0
4960 1 2.6949476659521561e+00 2.4175090703143267e+00 7.5523699253167180e+00 1 3 0
6114 1 1.0451078539952251e+01 7.8369589445905365e+00 8.0440826764913993e+00 2 -1 1
1373 1 8.7813990723378730e+00 7.9184819213198061e+00 1.2644376341452547e+01 0 -1 0
4580 1 1.7961527395160395e+00 8.4032212522396144e+00 7.3889466221490867e+00 2 0 1
3348 1 5.2385592549362965e+00 1.1009613418228717e+01 1.4959810302433553e+01 -1 2 0
3363 1 2.3049095385086003e+00 6.0630481605103421e+00 9.4017207778015646e+00 1 1 0
1552 1 3.5419059085164823e+00 1.0605756537530670e+01 8.0061255525287436e+00 0 1 1
4973 1 5.6964440893694244e+00 9.9977823814426294e+00 9.4846668543378208e+00 1 1 0
3208 1 1.0524165574290077e+01 1.0370739395119966e+01 9.3566474597324110e+00 1 0 1
112 1 8.1878260090342021e+00 1.1544796248837592e+01 9.2951032010123100e+00 0 1 0
107 1 4.5751127586223133e+00 2.9191650793756563e+00 1.0986120579218269e+01 0 -1 0
3738 1 6.0961945431363684e+00 3.8619756514981582e+00 9.1935761653565642e+00 4 -1 0
2979 1 4.3749810082843643e-01 5.0665676904784940e+00 7.2796684436771431e+00 1 0 1
3652 1 4.6163322267572928e+00 8.5211827693417614e+00 1.2393743686125058e+01 -1 0 0
3092 1 1.1766791708806432e+01 9.3306433149310442e-01 9.3539178683914592e+00 -2 1 1
2126 1 8.6170506791998829e+00 3.2204051611657709e+00 1.1233463406985720e+01 1 2 0
4799 1 6.6416611201274138e+00 1.2914342686805200e+00 1.2281029627202111e+01 0 1 0
6296 1 9.0027885362904125e-01 4.2712390217989391e+00 1.1395047469666762e+01 -1 0 1
3800 1 1.6328974545510719e+00 4.5835034264952546e+00 1.3939935211985292e+01 -1 1 1
497 1 4.2053971753682031e+00 4.2735650246025534e+00 1.3744638812216877e+01 1 2 0
1573 1 4.9863764991431330e+00 6.7559818613954041e+00 1.4679083743895994e+01 -1 1 0
555 1 7.8035400388398219e+00 6.5283632947718369e+00 1.4932112300488969e+01 1 0 1
5300 1 8.7817879867432929e+00 5.6549063375114086e+00 8.8187739205866329e+00 -1 0 0
1794 1 1.0457014068257260e+01 5.9220314256375612e+00 1.1860614866675974e+01 0 0 0
5101 1 8.4678115793600615e+00 3.6993709078231229e+00 1.4033045898450837e+01 1 1 1
517 1 1.2138803243779485e+01 5.4124636523038685e+00 1.4288013691837596e+01 1 2 1
6416 1 9.1186887297114061e-01 1.0443941123229163e+01 1.4322743528738901e+01 2 -1 1
5141 1 8.5097556018818210e+00 4.4895075963004560e-01 9.4722386425047276e+00 0 1 0
5182 1 1.0339779874332518e+01 1.1081057801466356e+01 5.2452593482991947e+00 1 0 0
3426 1 8.4439252130170572e-01 1.0353039730950295e+01 1.0932915206431547e+01 1 2 1
1314 1 9.6219540258168088e+00 1.8526440823187007e-01 1.6003170264404758e+01 0 -1 1
296 1 1.3557594964739236e-01 9.2061469877295543e-01 6.2830123565865659e+00 -1 0 0
335 1 5.8690867394094788e+00 3.3674177058793835e+00 1.5599476414318477e+01 2 1 0
291 1 4.6271377712905890e+00 4.5462921826223779e-01 6.6243576377002542e+00 0 -2 0
2899 1 1.0653299792332428e+01 3.8011373287458174e+00 1.5725369687990682e+01 0 1 0
3610 1 7.7089206334618492e+00 1.2166800687668276e+01 1.2328726837911951e+01 0 1 0
803 2 1.1074500000000002e+01 1.0656442593567498e+01 3.0031000000000507e+01 0 0 0
1864 1 1.1119522700208410e+01 1.0263030560635650e+01 2.3259389854518826e+01 1 1 0
4777 1 1.0919930341221777e+01 1.2188545024824323e+01 1.6483435340987914e+01 2 1 1
4898 1 9.8444374520025324e+00 1.3090368205117170e-02 2.3859359799605620e+01 1 1 1
2160 1 5.7035163337368795e+00 9.4003645139215131e+00 1.8175858561582690e+01 0 0 1
756 2 8.6134999999999984e+00 1.0656442593567498e+01 3.0031000000000507e+01 0 0 0
1917 1 6.1038083814108024e+00 4.8700236129411039e+00 1.7574178010073609e+01 -2 1 0
3748 1 9.1686511120252785e+00 3.2943690784342983e-01 1.8932010929218801e+01 1 2 1
754 2 8.6135000000000002e+00 1.2077301606043163e+01 3.0031000000000507e+01 0 0 0
6464 1 8.0482489257753409e-01 3.9088863937446283e-01 1.7414751171567914e+01 2 -1 1
405 1 1.5618934792744665e+00 7.2931317569452530e+00 1.7159971408933018e+01 -1 -1 0
1719 1 4.3211338134392170e+00 7.0736035321055208e+00 1.7411975688406102e+01 0 2 0
3047 1 8.6420304412595730e+00 5.9877852292539258e+00 1.7552845996112922e+01 2 -2 1
2015 1 6.4991295107226925e+00 1.2404215714975936e-01 1.8432374782889479e+01 1 2 0
4970 1 5.3033741544043815e+00 7.9858625515018844e-01 1.6085689796092851e+01 0 2 0
6117 1 1.0772540840315729e+01 5.0247229129585005e+00 2.3956418179970580e+01 1 1 1
470 1 9.3362099302214450e+00 1.1468518565390173e+01 2.0484222911704016e+01 0 0 0
5121 1 6.2681875131060290e+00 1.0911986786523157e+01 2.0481129459485540e+01 0 1 0
5003 1 7.7918626124385337e-01 4.4297233768636435e+00 2.0213953484207856e+01 1 1 0
4633 1 8.8463443266188708e+00 8.3003195284931905e+00 1.9200080117933684e+01 -2 -2 1
5019 1 3.3553647450504651e+00 1.2062211968786325e+01 2.0255346992183451e+01 -1 1 0
802 2 1.1074500000000002e+01 1.0656442593567498e+01 2.6871608899809402e+01 0 0 0
5197 1 3.5090925574589122e+00 5.1249662130620477e+00 1.9759509302984412e+01 1 1 0
3677 1 1.0788291724937279e+01 4.3281663073080621e+00 1.8717626723281786e+01 2 0 0
4502 1 6.1692807455359455e+00 3.4020257844063675e+00 2.0052190194967654e+01 2 1 1
3057 1 2.0594990078534652e+00 5.2159756859875106e-01 2.3858518606928559e+01 1 2 0
5129 1 7.3129516843619280e+00 1.0396334436580076e+01 2.3792965893170173e+01 2 0 0
1980 1 7.2880807819416571e+00 8.8328239556326915e-01 2.4217506770444338e+01 0 0 0
6234 1 4.9324209670294321e+00 7.3548087556174446e-01 2.0710408136057268e+01 -1 2 1
6241 1 3.7252617120913767e+00 2.7915478907087059e+00 2.4110144923652189e+01 1 2 1
804 2 1.2304999999999998e+01 1.1366872099805333e+01 2.6871608899809402e+01 0 0 0
1838 1 7.8466950532992197e+00 5.2406075124644644e+00 2.3949080086130742e+01 1 0 0
4966 1 1.0279991865081808e+01 2.3356347729060971e+00 2.0726760550531541e+01 2 0 0
2861 1 4.2987274153215536e+00 8.0835896419534485e+00 2.0987705799577654e+01 2 0 1
6315 1 3.2829695500697222e+00 5.3923945346912410e+00 2.2787547839114627e+01 -2 0 1
251 1 7.2057708891102159e+00 8.2892896084684438e+00 2.1817927945335629e+01 -2 0 0
1479 1 7.9507235357976027e+00 5.4397261862855979e+00 2.1334316976124331e+01 0 0 1
6376 1 6.2039356374738004e+00 3.0750352742115026e+00 2.2961590438835426e+01 2 1 1
3626 1 4.0895841141385025e+00 7.8800077514461560e+00 2.3683008040983736e+01 1 2 0
1868 1 9.9878445607491226e+00 7.8531006456909562e+00 2.3798542866435998e+01 0 1 0
3472 1 1.0632300362298107e+01 5.6334015765631369e+00 2.1274806614205943e+01 1 2 0
5093 1 1.1437653571956528e+01 2.2462714573153715e+00 2.3553468227148667e+01 2 1 0
4846 1 2.1115228485269211e+00 9.8693342160207198e+00 2.0932519338767992e+01 0 1 1
2007 1 4.7916801923156144e-01 1.1377174937784604e+01 1.6743151417964171e+01 1 0 0
3774 1 2.2565330190533275e+00 1.0003035765225254e+01 2.3832078514116194e+01 0 0 1
757 2 9.8440000000000012e+00 1.1366872099805333e+01 2.6871608899809402e+01 0 0 0
6285 1 6.9695527345358403e+00 7.6169558512561082e+00 2.4875336425707680e+01 1 2 1
75 1 2.5850937054170997e-01 1.5329679431257948e+00 2.0040296250037997e+01 2 1 0
5371 1 1.1117911580881692e+01 8.5751153468328773e+00 2.0787297692070748e+01 0 0 1
759 2 9.8440000000000012e+00 8.5251540748539956e+00 2.6871608899809402e+01 0 0 0
761 2 1.1074500000000002e+01 9.2355835810918343e+00 2.6871608899809402e+01 0 0 0
581 2 0.0000000000000000e+00 2.8417180249513345e+00 2.6871608899809402e+01 0 0 0
583 2 0.0000000000000000e+00 0.0000000000000000e+00 2.6871608899809402e+01 0 0 0
585 2 1.2305000000000001e+00 7.1042950623783474e-01 2.6871608899809402e+01 0 0 0
592 2 1.2305000000000001e+00 2.1312885187134998e+00 2.6871608899809402e+01 0 0 0
594 2 2.4610000000000003e+00 2.8417180249513345e+00 2.6871608899809402e+01 0 0 0
596 2 2.4610000000000003e+00 0.0000000000000000e+00 2.6871608899809402e+01 0 0 0
598 2 3.6915000000000004e+00 7.1042950623783474e-01 2.6871608899809402e+01 0 0 0
613 2 3.6914999999999996e+00 2.1312885187134998e+00 2.6871608899809402e+01 0 0 0
582 2 0.0000000000000000e+00 1.4208590124756650e+00 3.0031000000000507e+01 0 0 0
584 2 0.0000000000000000e+00 0.0000000000000000e+00 3.0031000000000507e+01 0 0 0
591 2 1.2305000000000001e+00 3.5521475311891644e+00 3.0031000000000507e+01 0 0 0
593 2 1.2305000000000001e+00 2.1312885187134998e+00 3.0031000000000507e+01 0 0 0
595 2 2.4610000000000003e+00 1.4208590124756650e+00 3.0031000000000507e+01 0 0 0
597 2 2.4610000000000003e+00 0.0000000000000000e+00 3.0031000000000507e+01 0 0 0
612 2 3.6914999999999996e+00 3.5521475311891644e+00 3.0031000000000507e+01 0 0 0
614 2 3.6914999999999996e+00 2.1312885187134998e+00 3.0031000000000507e+01 0 0 0
615 2 4.9220000000000006e+00 2.8417180249513332e+00 2.6871608899809402e+01 0 0 0
617 2 4.9220000000000006e+00 0.0000000000000000e+00 2.6871608899809402e+01 0 0 0
619 2 6.1524999999999999e+00 7.1042950623783407e-01 2.6871608899809402e+01 0 0 0
642 2 6.1524999999999999e+00 2.1312885187134989e+00 2.6871608899809402e+01 0 0 0
644 2 7.3829999999999991e+00 2.8417180249513345e+00 2.6871608899809402e+01 0 0 0
646 2 7.3829999999999991e+00 0.0000000000000000e+00 2.6871608899809402e+01 0 0 0
616 2 4.9220000000000006e+00 1.4208590124756650e+00 3.0031000000000507e+01 0 0 0
618 2 4.9220000000000006e+00 0.0000000000000000e+00 3.0031000000000507e+01 0 0 0
641 2 6.1524999999999999e+00 3.5521475311891644e+00 3.0031000000000507e+01 0 0 0
643 2 6.1524999999999999e+00 2.1312885187134989e+00 3.0031000000000507e+01 0 0 0
645 2 7.3829999999999991e+00 1.4208590124756659e+00 3.0031000000000507e+01 0 0 0
647 2 7.3829999999999991e+00 0.0000000000000000e+00 3.0031000000000507e+01 0 0 0
648 2 8.6134999999999984e+00 7.1042950623783407e-01 2.6871608899809402e+01 0 0 0
679 2 8.6134999999999984e+00 2.1312885187135002e+00 2.6871608899809402e+01 0 0 0
681 2 9.8440000000000012e+00 2.8417180249513332e+00 2.6871608899809402e+01 0 0 0
683 2 9.8440000000000012e+00 0.0000000000000000e+00 2.6871608899809402e+01 0 0 0
685 2 1.1074500000000002e+01 7.1042950623783330e-01 2.6871608899809402e+01 0 0 0
724 2 1.1074500000000002e+01 2.1312885187135002e+00 2.6871608899809402e+01 0 0 0
678 2 8.6134999999999984e+00 3.5521475311891657e+00 3.0031000000000507e+01 0 0 0
680 2 8.6134999999999984e+00 2.1312885187135002e+00 3.0031000000000507e+01 0 0 0
682 2 9.8440000000000012e+00 1.4208590124756659e+00 3.0031000000000507e+01 0 0 0
684 2 9.8440000000000012e+00 0.0000000000000000e+00 3.0031000000000507e+01 0 0 0
723 2 1.1074500000000002e+01 3.5521475311891644e+00 3.0031000000000507e+01 0 0 0
725 2 1.1074500000000002e+01 2.1312885187135002e+00 3.0031000000000507e+01 0 0 0
586 2 0.0000000000000000e+00 7.1042950623783341e+00 2.6871608899809402e+01 0 0 0
588 2 0.0000000000000000e+00 4.2625770374269996e+00 2.6871608899809402e+01 0 0 0
590 2 1.2305000000000001e+00 4.9730065436648339e+00 2.6871608899809402e+01 0 0 0
605 2 1.2305000000000001e+00 6.3938655561404980e+00 2.6871608899809402e+01 0 0 0
607 2 2.4610000000000003e+00 7.1042950623783341e+00 2.6871608899809402e+01 0 0 0
609 2 2.4610000000000003e+00 4.2625770374269996e+00 2.6871608899809402e+01 0 0 0
611 2 3.6914999999999996e+00 4.9730065436648339e+00 2.6871608899809402e+01 0 0 0
634 2 3.6914999999999996e+00 6.3938655561404980e+00 2.6871608899809402e+01 0 0 0
587 2 0.0000000000000000e+00 5.6834360499026637e+00 3.0031000000000507e+01 0 0 0
589 2 0.0000000000000000e+00 4.2625770374269996e+00 3.0031000000000507e+01 0 0 0
604 2 1.2305000000000001e+00 7.8147245686161639e+00 3.0031000000000507e+01 0 0 0
606 2 1.2305000000000001e+00 6.3938655561404980e+00 3.0031000000000507e+01 0 0 0
608 2 2.4610000000000003e+00 5.6834360499026637e+00 3.0031000000000507e+01 0 0 0
610 2 2.4610000000000003e+00 4.2625770374269996e+00 3.0031000000000507e+01 0 0 0
633 2 3.6914999999999996e+00 7.8147245686161639e+00 3.0031000000000507e+01 0 0 0
635 2 3.6914999999999996e+00 6.3938655561404980e+00 3.0031000000000507e+01 0 0 0
636 2 4.9220000000000006e+00 7.1042950623783341e+00 2.6871608899809402e+01 0 0 0
638 2 4.9220000000000006e+00 4.2625770374269978e+00 2.6871608899809402e+01 0 0 0
640 2 6.1524999999999999e+00 4.9730065436648339e+00 2.6871608899809402e+01 0 0 0
671 2 6.1524999999999999e+00 6.3938655561404980e+00 2.6871608899809402e+01 0 0 0
673 2 7.3830000000000009e+00 7.1042950623783341e+00 2.6871608899809402e+01 0 0 0
675 2 7.3829999999999991e+00 4.2625770374269996e+00 2.6871608899809402e+01 0 0 0
637 2 4.9220000000000006e+00 5.6834360499026637e+00 3.0031000000000507e+01 0 0 0
639 2 4.9220000000000006e+00 4.2625770374269978e+00 3.0031000000000507e+01 0 0 0
670 2 6.1524999999999999e+00 7.8147245686161639e+00 3.0031000000000507e+01 0 0 0
672 2 6.1524999999999999e+00 6.3938655561404980e+00 3.0031000000000507e+01 0 0 0
674 2 7.3829999999999991e+00 5.6834360499026637e+00 3.0031000000000507e+01 0 0 0
676 2 7.3829999999999991e+00 4.2625770374269996e+00 3.0031000000000507e+01 0 0 0
677 2 8.6135000000000002e+00 4.9730065436648339e+00 2.6871608899809402e+01 0 0 0
716 2 8.6135000000000002e+00 6.3938655561404980e+00 2.6871608899809402e+01 0 0 0
718 2 9.8440000000000012e+00 7.1042950623783341e+00 2.6871608899809402e+01 0 0 0
720 2 9.8440000000000012e+00 4.2625770374270004e+00 2.6871608899809402e+01 0 0 0
722 2 1.1074500000000002e+01 4.9730065436648339e+00 2.6871608899809402e+01 0 0 0
763 2 1.1074500000000002e+01 6.3938655561404980e+00 2.6871608899809402e+01 0 0 0
715 2 8.6135000000000002e+00 7.8147245686161639e+00 3.0031000000000507e+01 0 0 0
717 2 8.6135000000000002e+00 6.3938655561404980e+00 3.0031000000000507e+01 0 0 0
719 2 9.8440000000000012e+00 5.6834360499026637e+00 3.0031000000000507e+01 0 0 0
721 2 9.8440000000000012e+00 4.2625770374270004e+00 3.0031000000000507e+01 0 0 0
762 2 1.1074500000000002e+01 7.8147245686161639e+00 3.0031000000000507e+01 0 0 0
764 2 1.1074500000000002e+01 6.3938655561404980e+00 3.0031000000000507e+01 0 0 0
599 2 0.0000000000000000e+00 1.1366872099805333e+01 2.6871608899809402e+01 0 0 0
601 2 0.0000000000000000e+00 8.5251540748539991e+00 2.6871608899809402e+01 0 0 0
603 2 1.2305000000000001e+00 9.2355835810918343e+00 2.6871608899809402e+01 0 0 0
626 2 1.2305000000000001e+00 1.0656442593567498e+01 2.6871608899809402e+01 0 0 0
628 2 2.4610000000000003e+00 1.1366872099805333e+01 2.6871608899809402e+01 0 0 0
630 2 2.4610000000000003e+00 8.5251540748539991e+00 2.6871608899809402e+01 0 0 0
632 2 3.6915000000000004e+00 9.2355835810918343e+00 2.6871608899809402e+01 0 0 0
663 2 3.6914999999999996e+00 1.0656442593567499e+01 2.6871608899809402e+01 0 0 0
600 2 0.0000000000000000e+00 9.9460130873296642e+00 3.0031000000000507e+01 0 0 0
602 2 0.0000000000000000e+00 8.5251540748539991e+00 3.0031000000000507e+01 0 0 0
625 2 1.2305000000000001e+00 1.2077301606043163e+01 3.0031000000000507e+01 0 0 0
627 2 1.2305000000000001e+00 1.0656442593567498e+01 3.0031000000000507e+01 0 0 0
629 2 2.4610000000000003e+00 9.9460130873296642e+00 3.0031000000000507e+01 0 0 0
631 2 2.4610000000000003e+00 8.5251540748539991e+00 3.0031000000000507e+01 0 0 0
662 2 3.6914999999999996e+00 1.2077301606043163e+01 3.0031000000000507e+01 0 0 0
664 2 3.6914999999999996e+00 1.0656442593567499e+01 3.0031000000000507e+01 0 0 0
665 2 4.9220000000000006e+00 1.1366872099805333e+01 2.6871608899809402e+01 0 0 0
667 2 4.9220000000000006e+00 8.5251540748539991e+00 2.6871608899809402e+01 0 0 0
669 2 6.1524999999999999e+00 9.2355835810918343e+00 2.6871608899809402e+01 0 0 0
708 2 6.1524999999999999e+00 1.0656442593567499e+01 2.6871608899809402e+01 0 0 0
710 2 7.3829999999999991e+00 1.1366872099805333e+01 2.6871608899809402e+01 0 0 0
712 2 7.3830000000000009e+00 8.5251540748539991e+00 2.6871608899809402e+01 0 0 0
666 2 4.9220000000000006e+00 9.9460130873296642e+00 3.0031000000000507e+01 0 0 0
668 2 4.9220000000000006e+00 8.5251540748539991e+00 3.0031000000000507e+01 0 0 0
707 2 6.1524999999999999e+00 1.2077301606043163e+01 3.0031000000000507e+01 0 0 0
709 2 6.1524999999999999e+00 1.0656442593567499e+01 3.0031000000000507e+01 0 0 0
711 2 7.3830000000000009e+00 9.9460130873296642e+00 3.0031000000000507e+01 0 0 0
713 2 7.3830000000000009e+00 8.5251540748539991e+00 3.0031000000000507e+01 0 0 0
760 2 9.8440000000000012e+00 8.5251540748539956e+00 3.0031000000000507e+01 0 0 0
758 2 9.8440000000000012e+00 9.9460130873296642e+00 3.0031000000000507e+01 0 0 0
755 2 8.6134999999999984e+00 1.0656442593567498e+01 2.6871608899809402e+01 0 0 0
714 2 8.6134999999999984e+00 9.2355835810918343e+00 2.6871608899809402e+01 0 0 0
801 2 1.1074500000000002e+01 1.2077301606043163e+01 3.0031000000000507e+01 0 0 0
21 1 5.0456292288981039e+00 1.1687005738937440e+01 2.3309436145671214e+01 0 2 0
1739 1 3.2816204733563464e-01 5.4062456265522227e+00 2.3058663571096314e+01 1 0 1
64 1 3.3804450236939334e+00 1.1027064594638867e+01 1.7171952950902956e+01 1 2 0
3729 1 7.9046334237455724e+00 9.2647298239587155e+00 1.6719546114461711e+01 1 -1 1
1429 1 9.4274572723254124e+00 1.2035183726783778e+01 2.4331985567332993e+01 1 0 1
6113 1 1.2077953030616127e+01 1.1389380454634136e+01 1.9092844868937036e+01 1 1 1
3265 1 4.6846119554173404e-01 4.8609643900335131e+00 1.7471869301252148e+01 0 1 0
910 2 0.0000000000000000e+00 2.8417180249513345e+00 3.3190391100191519e+01 0 0 0
911 2 0.0000000000000000e+00 0.0000000000000000e+00 3.3190391100191519e+01 0 0 0
912 2 1.2305000000000001e+00 7.1042950623783474e-01 3.3190391100191519e+01 0 0 0
916 2 1.2305000000000001e+00 2.1312885187134998e+00 3.3190391100191519e+01 0 0 0
917 2 2.4610000000000003e+00 2.8417180249513345e+00 3.3190391100191519e+01 0 0 0
918 2 2.4610000000000003e+00 0.0000000000000000e+00 3.3190391100191519e+01 0 0 0
919 2 3.6915000000000004e+00 7.1042950623783474e-01 3.3190391100191519e+01 0 0 0
927 2 3.6914999999999996e+00 2.1312885187134998e+00 3.3190391100191519e+01 0 0 0
928 2 4.9220000000000006e+00 2.8417180249513332e+00 3.3190391100191519e+01 0 0 0
929 2 4.9220000000000006e+00 0.0000000000000000e+00 3.3190391100191519e+01 0 0 0
930 2 6.1524999999999999e+00 7.1042950623783407e-01 3.3190391100191519e+01 0 0 0
942 2 6.1524999999999999e+00 2.1312885187134989e+00 3.3190391100191519e+01 0 0 0
943 2 7.3829999999999991e+00 2.8417180249513345e+00 3.3190391100191519e+01 0 0 0
944 2 7.3829999999999991e+00 0.0000000000000000e+00 3.3190391100191519e+01 0 0 0
945 2 8.6134999999999984e+00 7.1042950623783407e-01 3.3190391100191519e+01 0 0 0
961 2 8.6134999999999984e+00 2.1312885187135002e+00 3.3190391100191519e+01 0 0 0
962 2 9.8440000000000012e+00 2.8417180249513332e+00 3.3190391100191519e+01 0 0 0
963 2 9.8440000000000012e+00 0.0000000000000000e+00 3.3190391100191519e+01 0 0 0
964 2 1.1074500000000002e+01 7.1042950623783330e-01 3.3190391100191519e+01 0 0 0
984 2 1.1074500000000002e+01 2.1312885187135002e+00 3.3190391100191519e+01 0 0 0
913 2 0.0000000000000000e+00 7.1042950623783341e+00 3.3190391100191519e+01 0 0 0
914 2 0.0000000000000000e+00 4.2625770374269996e+00 3.3190391100191519e+01 0 0 0
915 2 1.2305000000000001e+00 4.9730065436648339e+00 3.3190391100191519e+01 0 0 0
923 2 1.2305000000000001e+00 6.3938655561404980e+00 3.3190391100191519e+01 0 0 0
924 2 2.4610000000000003e+00 7.1042950623783341e+00 3.3190391100191519e+01 0 0 0
925 2 2.4610000000000003e+00 4.2625770374269996e+00 3.3190391100191519e+01 0 0 0
926 2 3.6914999999999996e+00 4.9730065436648339e+00 3.3190391100191519e+01 0 0 0
938 2 3.6914999999999996e+00 6.3938655561404980e+00 3.3190391100191519e+01 0 0 0
939 2 4.9220000000000006e+00 7.1042950623783341e+00 3.3190391100191519e+01 0 0 0
940 2 4.9220000000000006e+00 4.2625770374269978e+00 3.3190391100191519e+01 0 0 0
941 2 6.1524999999999999e+00 4.9730065436648339e+00 3.3190391100191519e+01 0 0 0
957 2 6.1524999999999999e+00 6.3938655561404980e+00 3.3190391100191519e+01 0 0 0
958 2 7.3830000000000009e+00 7.1042950623783341e+00 3.3190391100191519e+01 0 0 0
959 2 7.3829999999999991e+00 4.2625770374269996e+00 3.3190391100191519e+01 0 0 0
960 2 8.6135000000000002e+00 4.9730065436648339e+00 3.3190391100191519e+01 0 0 0
980 2 8.6135000000000002e+00 6.3938655561404980e+00 3.3190391100191519e+01 0 0 0
981 2 9.8440000000000012e+00 7.1042950623783341e+00 3.3190391100191519e+01 0 0 0
982 2 9.8440000000000012e+00 4.2625770374270004e+00 3.3190391100191519e+01 0 0 0
983 2 1.1074500000000002e+01 4.9730065436648339e+00 3.3190391100191519e+01 0 0 0
1004 2 1.1074500000000002e+01 6.3938655561404980e+00 3.3190391100191519e+01 0 0 0
920 2 0.0000000000000000e+00 1.1366872099805333e+01 3.3190391100191519e+01 0 0 0
921 2 0.0000000000000000e+00 8.5251540748539991e+00 3.3190391100191519e+01 0 0 0
922 2 1.2305000000000001e+00 9.2355835810918343e+00 3.3190391100191519e+01 0 0 0
934 2 1.2305000000000001e+00 1.0656442593567498e+01 3.3190391100191519e+01 0 0 0
935 2 2.4610000000000003e+00 1.1366872099805333e+01 3.3190391100191519e+01 0 0 0
936 2 2.4610000000000003e+00 8.5251540748539991e+00 3.3190391100191519e+01 0 0 0
937 2 3.6915000000000004e+00 9.2355835810918343e+00 3.3190391100191519e+01 0 0 0
953 2 3.6914999999999996e+00 1.0656442593567499e+01 3.3190391100191519e+01 0 0 0
954 2 4.9220000000000006e+00 1.1366872099805333e+01 3.3190391100191519e+01 0 0 0
955 2 4.9220000000000006e+00 8.5251540748539991e+00 3.3190391100191519e+01 0 0 0
956 2 6.1524999999999999e+00 9.2355835810918343e+00 3.3190391100191519e+01 0 0 0
976 2 6.1524999999999999e+00 1.0656442593567499e+01 3.3190391100191519e+01 0 0 0
977 2 7.3829999999999991e+00 1.1366872099805333e+01 3.3190391100191519e+01 0 0 0
978 2 7.3830000000000009e+00 8.5251540748539991e+00 3.3190391100191519e+01 0 0 0
979 2 8.6134999999999984e+00 9.2355835810918343e+00 3.3190391100191519e+01 0 0 0
1000 2 8.6134999999999984e+00 1.0656442593567498e+01 3.3190391100191519e+01 0 0 0
1001 2 9.8440000000000012e+00 1.1366872099805333e+01 3.3190391100191519e+01 0 0 0
1002 2 9.8440000000000012e+00 8.5251540748539956e+00 3.3190391100191519e+01 0 0 0
1003 2 1.1074500000000002e+01 9.2355835810918343e+00 3.3190391100191519e+01 0 0 0
1024 2 1.1074500000000002e+01 1.0656442593567498e+01 3.3190391100191519e+01 0 0 0
1025 2 1.2304999999999998e+01 1.1366872099805333e+01 3.3190391100191519e+01 0 0 0
1415 1 4.6319346132570514e-02 7.1448966474203361e+00 3.9410004324442880e+01 0 -1 0
1315 1 6.9816569507427015e+00 8.0848195229674302e-01 3.9515575551388011e+01 1 0 0
1790 1 4.0966662410957655e+00 1.5045624791156567e+00 3.6478385118180114e+01 0 -1 -1
6249 1 6.5774417532796337e+00 3.3074363243982865e+00 3.5954281142377383e+01 -2 0 0
1645 1 8.5539406525049220e+00 4.9475286054045426e+00 3.7456014297538772e+01 -2 0 0
3767 1 7.1485821293532625e+00 3.9320665696648238e-01 3.6401091881677502e+01 0 0 0
6206 1 1.7519188449794612e+00 1.1701803906138510e+01 4.3162568805730004e+01 -1 1 0
140 1 9.2927891700947054e+00 2.1853184314065475e+00 3.7584013220347074e+01 0 1 -1
302 1 2.3371356441870277e+00 7.5192865652860030e+00 4.1105183623824928e+01 1 2 -1
1570 1 2.5536520569043963e+00 4.8844587643804172e+00 3.6076935690800596e+01 1 1 -1
2994 1 3.6506812388291419e+00 4.9817031604949840e+00 4.0486477573436346e+01 -1 -2 0
31 1 5.0916516773300726e+00 5.4501192283737900e+00 3.6710735966781613e+01 1 1 -1
3656 1 6.5697855182709421e+00 7.2798291493073064e+00 3.5589176426539936e+01 0 0 0
5100 1 9.2915896987723876e+00 7.1126084737626130e+00 3.5784215822799197e+01 2 -1 0
1480 1 1.1455109591381269e+01 7.2654347088067910e+00 3.9069307768624057e+01 0 0 0
6325 1 1.6420427179371755e+00 1.0409756588260558e+01 4.0762773700035595e+01 0 1 0
3594 1 1.9164656332084165e+00 8.7447724070048540e+00 3.5986506774281480e+01 -1 1 -1
3226 1 6.1744651090287546e+00 9.3185235957647130e+00 3.7140365356495394e+01 1 1 0
4625 1 5.0841281091137578e+00 8.4907068823891922e+00 3.9552954539825919e+01 -1 -1 0
1366 1 9.8049605197541627e+00 8.7830712484082216e+00 4.0277074042087719e+01 1 -1 0
5142 1 3.5276780124092331e+00 1.1091262748639929e+01 3.6460420652275815e+01 2 -1 -1
5227 1 3.5663111902572098e-02 1.0834671907774492e+01 3.6735452252848233e+01 1 0 -1
1326 1 8.9217693339097046e+00 9.4803463137800197e+00 3.7394602927580095e+01 1 -2 0
1458 1 7.9829436555107339e-02 3.3306472053991016e+00 4.0690743211311968e+01 1 0 0
1992 1 4.2505928011435703e+00 1.3667784320079286e+00 3.9346604337786317e+01 3 0 -1
1299 1 3.2283621338691169e+00 1.4496306691000957e+00 4.2384963592139471e+01 2 -1 0
499 1 2.0067866169096922e+00 3.0800104143350353e+00 3.8712062139613934e+01 0 1 0
115 1 7.5876692217698229e+00 3.5526761067888186e+00 4.0464033433857125e+01 1 -1 -1
6405 1 3.8228096335129877e+00 3.7521789450651850e+00 4.3078543943685972e+01 0 -1 0
1609 1 1.0563216347474626e+01 1.7853559356241180e+00 3.9961337736407586e+01 -1 -1 -1
3206 1 3.7910549649368402e-01 6.4057490529747625e+00 3.6903969274435596e+01 1 -1 -1
4599 1 1.1549609372880907e+01 1.9067295781831108e+00 3.6204067892364037e+01 0 -1 0
1714 1 1.5247122564654987e+00 6.8959351163825771e+00 4.3556223306262908e+01 -1 0 -1
1847 1 3.7926521879256572e+00 1.1168265241687470e+01 3.9037916606067654e+01 3 0 -1
2917 1 6.6618799810158258e+00 4.3136016700102591e+00 4.3212616227653783e+01 -1 1 0
3580 1 7.0836875723444637e+00 7.0585449618198757e+00 4.3343440792250092e+01 0 0 -1
2106 1 6.1492436504637995e+00 5.4751222762627121e+00 3.9230373939163243e+01 0 1 -1
4711 1 7.1198510514817359e+00 8.8130422248588491e+00 4.1233150171274943e+01 1 0 0
1782 1 1.0296368948442568e+01 4.3311689386142698e+00 4.1620675921517403e+01 0 0 0
6431 1 9.9086773172243134e+00 6.9778660823835894e+00 4.2607635352702275e+01 1 0 -1
6094 1 1.1388601939828060e+01 1.0949731319322835e+01 4.1512613388598297e+01 1 0 -1
3756 1 6.7468134485840503e+00 1.1513678488102340e+01 4.1797923813036476e+01 -1 0 0
2115 1 9.2296983908286450e+00 3.2172876428105188e+00 4.3945024570974979e+01 -2 0 0
4828 1 6.8767252737378586e+00 1.1944613031067798e+01 3.8996066272618791e+01 0 -1 0
2892 1 4.4544106038156350e+00 1.1234448537005621e+01 4.4050990204189944e+01 0 -1 0
1721 1 1.2033918837517467e+01 8.5237840204547144e+00 3.6498499219555086e+01 1 -1 -1
6195 1 8.8974469431915060e-01 2.2941453665042753e+00 3.6092984008788591e+01 1 3 0
3026 1 9.4109571510625507e+00 5.7098540198444281e-01 4.3859016425378314e+01 1 1 0
3603 1 1.1129806849187569e+00 3.6756364059584140e-01 4.4022580378322004e+01 1 0 -1
3008 1 6.1729269527114621e+00 1.2146845694936079e+01 3.5378391039065633e+01 0 -1 0
3062 1 4.2293585403670558e-01 2.5119232497361961e+00 4.5740970357354072e+01 1 1 -1
4809 1 6.3981614979671964e+00 1.0919695415794726e+01 5.3237476621266367e+01 0 1 0
1785 1 1.1473687108750507e+01 8.3594608795140406e+00 4.4353549410957015e+01 -1 1 -1
1950 1 1.1763641166144055e+01 7.5388397874961486e+00 5.3389466426320283e+01 1 3 0
179 1 1.0602894451687495e+01 5.4647300154957035e-01 5.2465790807573441e+01 1 1 -1
1615 1 9.5903632023891010e+00 1.0237444133094298e+01 5.5571125184628769e+01 0 0 0
30 1 4.8958198043907925e-01 9.7483974218412728e-01 5.2534644385144901e+01 2 0 0
1304 1 1.6793354115029264e+00 8.7618566837161005e+00 4.7132765613823338e+01 0 -1 0
113 1 1.1764936283255379e+01 1.1209144186494429e+01 5.0283068181902237e+01 1 0 -1
1282 1 2.6099405058212111e+00 4.7238966777238520e+00 4.5309869130825007e+01 1 3 0
2908 1 3.8826379295339635e+00 7.1382152035926705e+00 4.6285337017502258e+01 0 1 0