LAMMPS data file via write_data, version 16 Mar 2018, timestep = 8000000

6472 atoms
2 atom types

0.0000000000000000e+00 4.9219999999999999e+01 xlo xhi
0.0000000000000000e+00 4.9019635930410494e+01 ylo yhi
4.5501973104977012e-01 5.9606980268933199e+01 zlo zhi

Masses

1 18.015
2 12.01

Atoms # atomic

1760 1 2.5205680044151095e+00 1.2326938210990044e+00 2.2132214678671644e+00 1 -1 0
5050 1 2.3999475942235633e+00 1.3189132842583369e+00 4.9617895096057829e+00 -2 2 0
6206 1 2.4265735158326387e+00 3.7422155713043548e+00 1.4044749466642164e+00 0 1 1
3748 1 6.5877482966146070e+00 1.3392710858434347e+00 2.2792723034881543e+00 2 4 1
320 1 6.6126561377446480e+00 1.2546057045122201e+00 4.9509159606602120e+00 -2 -1 0
1307 1 6.8851650039665717e+00 3.8536783473166287e+00 1.8197675477484074e+00 -3 4 1
486 1 1.1709707380716436e+01 1.2259504354477926e+00 2.3330120950726831e+00 1 -1 0
1608 1 1.1544600209758212e+01 1.1162758007015867e+00 5.0326346882534390e+00 4 -2 1
5217 1 1.1691076875753106e+01 3.8556862714195947e+00 1.5385451160930197e+00 -1 -1 0
3687 1 2.4405238678927397e+00 1.1593185176931469e+01 8.8607228691723989e+00 1 -1 0
2173 1 9.2097475805325217e+00 1.0438007978475166e+01 1.2571419701054440e+01 -2 -1 1
574 1 4.5080750427021101e+00 1.0179688611765823e+01 1.2782259551021614e+01 -1 2 1
434 1 4.6118108540465252e+00 5.2880454925684850e+00 2.1930178927916861e+00 0 0 0
3317 1 4.3750654882172277e+00 7.9970327270311001e+00 1.7133578579712199e+00 -1 -1 0
5096 1 9.3479174370381184e+00 4.9084205123208404e+00 2.9978983344416008e+00 -5 3 0
4964 1 8.6674267672096139e+00 7.4154794276823930e+00 2.0055564221907134e+00 -3 3 0
2042 1 2.4105874860592489e+00 9.7391433081852750e+00 2.2847517391388408e+00 2 4 0
1972 1 2.2215495138397028e+00 9.3187973844960190e+00 5.1568626546330893e+00 0 5 0
2041 1 6.7068075936541840e+00 9.0876110594589683e+00 2.7031258762447625e+00 1 2 1
324 1 6.8278971904419130e+00 1.1636309341324555e+01 2.1556367757041075e+00 -1 -1 0
58 1 6.7761132867246756e+00 9.1287640556861742e+00 5.4268527245372811e+00 -3 3 0
3555 1 1.0910001489006525e+01 9.0365671981523210e+00 2.8577652205980191e+00 0 -1 0
3151 1 1.1651575950143442e+01 1.1451859854435414e+01 2.0278222703635924e+00 2 -4 1
4904 1 2.4495503841517525e+00 3.7718226182962908e+00 6.2484075261823877e+00 4 3 0
4995 1 2.3312958999876989e+00 3.8749999839948814e+00 8.7216402706044889e+00 1 2 0
3226 1 4.6462398766107098e+00 2.7454049227023765e+00 9.7213088917821437e+00 1 -1 1
171 1 6.7107866017374977e+00 3.9224283555306179e+00 8.8596438783958327e+00 2 3 1
2203 1 6.8232831565838516e+00 3.9028781258957697e+00 6.2028039185058610e+00 -1 -2 1
3218 1 1.1875262413647599e+01 3.7736275664057968e+00 6.1159340743944366e+00 -4 -1 1
4520 1 9.2078256049290577e+00 2.6188655805660197e+00 9.0467847394741039e+00 0 0 1
559 1 1.1831761864883365e+01 3.8105184271318544e+00 8.8634409273794930e+00 3 4 1
4796 1 2.3623872920998754e+00 6.5971788096139727e+00 9.5205931537384050e+00 0 -1 1
3521 1 1.1297893490730022e+01 8.8552620886883489e+00 1.3503688526727535e+01 -3 1 0
6350 1 4.3668189569441953e+00 5.3080037111690963e+00 5.2152813014836976e+00 3 0 1
3348 1 4.5655121574632380e+00 7.9235816582023295e+00 8.8938980552731355e+00 -4 4 0
4728 1 6.8125365532672832e+00 6.4007914939708002e+00 9.6811735496546021e+00 -1 0 1
1358 1 4.3405601738547901e+00 8.0617329861461187e+00 6.2196252106800731e+00 -3 2 1
3750 1 9.1902780789839209e+00 4.9513682481290022e+00 5.4988249771978133e+00 2 1 0
1504 1 1.1455598173584850e+01 6.2520914095784947e+00 9.6380119897109431e+00 -2 -1 1
4693 1 9.1835184918395161e+00 7.5944600871055838e+00 8.7810059748151570e+00 -2 2 1
3087 1 9.0548786440824536e+00 7.6287407274627848e+00 6.2268332720499995e+00 -1 -2 1
4750 1 2.4116991976993978e+00 1.1714101701603667e+01 6.2306507760086767e+00 1 -3 1
1462 1 1.2703229537507074e-01 1.0273084653378595e+01 1.2225544474682682e+01 2 0 0
6158 1 4.6405752735189516e+00 1.0531464040330494e+01 9.8044225116714561e+00 1 2 1
1296 1 6.9348908155371154e+00 1.1710222801335320e+01 6.2754557564210343e+00 1 0 1
3161 1 6.9983459860459210e+00 1.1517279104061190e+01 9.0819681815690547e+00 -3 2 1
6102 1 1.1397448852633941e+01 8.8236255917667030e+00 5.8549901483967721e+00 3 -2 1
5123 1 9.0610479202498535e+00 1.0286624309051982e+01 9.9210120888469824e+00 2 -1 0
3232 1 1.1382664298600885e+01 1.1458303397200831e+01 9.1794634528891841e+00 -3 -1 1
5383 1 1.1653270134380849e+01 1.1443322838147035e+01 6.5153340409295666e+00 0 -2 0
1318 1 2.1603944225611929e+00 1.3119613739338232e+00 1.3299245255576974e+01 2 4 1
3238 1 4.2523006596549235e+00 2.7640787802234636e+00 1.2323641723291150e+01 1 1 1
1960 1 6.4831536244773851e+00 1.5557591666952069e+00 1.3230693647981020e+01 0 2 0
5113 1 1.1142497883499640e+01 1.6182665774405081e+00 1.3079259375063183e+01 1 -1 0
5403 1 8.7468982834528806e+00 2.7383461100162108e+00 1.2155290904400994e+01 -3 1 1
6381 1 2.1977090506647832e+00 6.2544761383207774e+00 1.2219543030113332e+01 -2 1 0
1423 1 6.7295225928635078e+00 9.1561321018559649e+00 1.3671465045561431e+01 0 2 1
3299 1 6.8230147306734565e+00 6.5521438939995047e+00 1.2531056881564846e+01 4 -2 0
1744 1 4.5212158097903821e+00 5.1290794020529242e+00 1.3164005146193505e+01 2 3 1
3739 1 8.9914471342155888e+00 5.0173323772014937e+00 1.3484634122142705e+01 1 -2 0
5235 1 1.1357508865220684e+01 6.3042807814700783e+00 1.2491446512121678e+01 0 4 0
6305 1 2.1196733874759515e+00 9.0429595319854936e+00 1.3124937623764625e+01 0 4 1
5012 1 5.1223542797147781e-01 5.1955614884384671e+00 5.0137882244695771e+00 2 -2 0
2998 1 3.3975665337427779e-01 1.0208267571128152e+01 9.5133014315630717e+00 2 -2 1
1734 1 1.9527952047265729e-01 5.3418975754330464e+00 2.2813204788480883e+00 -2 3 0
1575 1 8.9250129320548766e+00 2.5756359052067697e-02 8.4964060994024990e+00 -1 -1 0
1304 1 8.9978378605501632e+00 1.5403430830073275e-01 1.4593431156194780e+00 -2 1 1
1285 1 9.9572603091544920e-02 7.6279824815878854e+00 8.4543817667747483e+00 -1 0 1
3437 1 2.8667923720210098e-01 8.1017962464134783e+00 1.5138155237874471e+00 0 -1 0
6441 1 2.3014659135863980e-01 4.8459203144755216e+00 1.3281361845844296e+01 0 -1 0
2896 1 6.7593354275516049e-02 7.9605789855547755e+00 5.7835989023407786e+00 0 6 1
5085 1 4.3157971317978232e+00 1.3465461449030869e-01 8.6994287926539133e+00 -1 -1 0
3117 1 1.2737126264307638e-01 5.0770746074746853e-02 8.5725612169848677e+00 -3 1 1
3219 1 1.7000799485932577e-01 9.0587270804761033e-02 5.8910293142200034e+00 1 1 0
4807 1 2.3403118404089409e+00 1.2662641916987238e+00 1.6195949041793220e+01 0 -2 0
760 2 9.8440000000000012e+00 8.5251540748539956e+00 3.0030999999990637e+01 0 0 0
5029 1 4.2684058534708704e+00 2.5613862046086244e+00 1.9862821474523606e+01 1 0 0
4997 1 4.5280986385359485e+00 2.3342365276288812e+00 1.7174312308559692e+01 3 1 0
2895 1 6.7222850471649522e+00 1.1753976734055964e+00 1.6066668845959306e+01 -3 3 1
3222 1 8.7784472640176734e+00 2.3249379035989164e+00 1.7065468428966657e+01 2 1 1
5401 1 1.0840118000467793e+01 9.4147370077112658e-01 1.5936793311359049e+01 -2 0 1
5122 1 8.8117664600669467e+00 2.1416195872580084e+00 1.9951155492187784e+01 -5 1 0
3360 1 2.1973394774105648e+00 6.3265586625176873e+00 1.7048581050423717e+01 0 1 1
6353 1 2.1056213478368351e+00 6.1737548790351928e+00 1.9911298450757329e+01 -1 1 1
5159 1 4.2211337507765556e+00 5.0645715159795559e+00 1.6153885650288196e+01 -2 2 0
3807 1 6.6077532150819902e+00 6.2226057744858183e+00 1.7434444903826716e+01 0 2 1
1320 1 6.6619160130622426e+00 6.3944926987496338e+00 2.0133897222547397e+01 -1 -1 1
1815 1 8.8480493121409598e+00 4.8342950000161276e+00 1.6461878954469928e+01 1 2 0
1619 1 1.1244497126474721e+01 6.0985518669884922e+00 1.7444153953998281e+01 -2 1 0
317 1 1.1242278472415791e+01 6.4563469655728483e+00 2.0128969173864494e+01 1 2 0
4817 1 2.1023814442684010e+00 8.9464298990505497e+00 1.5886841423769303e+01 -3 0 1
754 2 8.6135000000000002e+00 1.2077301606043163e+01 3.0030999999990637e+01 0 0 0
250 1 6.6991551690291411e+00 8.7014423292814609e+00 1.6421775656864646e+01 1 0 0
508 1 4.5426617675136471e+00 1.0327533613604036e+01 1.7054217960347074e+01 0 -2 1
2093 1 4.7381536710367085e+00 9.9029929617553272e+00 1.9860540323593394e+01 2 0 1
189 1 1.1497946172043005e+01 8.4378722340971990e+00 1.6311423224697748e+01 0 0 0
6249 1 9.2042016016372266e+00 9.7582371940819996e+00 1.7223896704636569e+01 -1 -2 1
331 1 9.3928145342861828e+00 9.9652755187363784e+00 2.0158417875897957e+01 2 1 1
6376 1 2.1222844548373296e+00 1.1595120928735290e+00 2.0654850869407962e+01 1 3 1
64 1 1.9657284737308744e+00 1.5693345839946846e+00 2.3235929312940900e+01 1 5 0
1314 1 4.0565387294730648e+00 2.7175100656715832e+00 2.4010699812315838e+01 0 2 1
1699 1 6.4034242342863310e+00 1.0031580059799940e+00 2.0753809066454277e+01 -5 2 1
29 1 6.4430465995470723e+00 1.1244255014841651e+00 2.3396465997809560e+01 0 -3 0
1590 1 1.1057436928397973e+01 9.7328717533634501e-01 2.0650147099656007e+01 2 1 0
1810 1 8.7323060371428038e+00 2.4913175751152545e+00 2.3892527704884149e+01 -3 4 0
5366 1 1.0966253844676345e+01 1.1627668171309911e+00 2.3419316202678036e+01 0 1 0
6326 1 1.7516525110388854e+00 6.4815972140271221e+00 2.4222146060674209e+01 3 1 1
323 1 4.2989006930577416e+00 5.4234601262262059e+00 2.3517756194913748e+01 0 -3 1
1792 1 4.3614114851372872e+00 5.1556860668366680e+00 2.0838448533213061e+01 -3 1 0
3185 1 6.7850197122840008e+00 6.5312842535409539e+00 2.4116906439188586e+01 0 4 0
1289 1 1.1509174325297584e+01 6.1031195506027984e+00 2.4191042336800834e+01 2 0 1
1620 1 9.0150346811278954e+00 5.1073752855929175e+00 2.0646988480033194e+01 4 2 1
1733 1 9.0440157558150851e+00 5.0008374085036911e+00 2.3406137186666989e+01 0 0 0
3531 1 2.0466303195824724e+00 8.8374108918999710e+00 2.0643022218648035e+01 2 0 0
2072 1 2.0396456231709026e+00 9.0260611453062758e+00 2.3312450644999430e+01 -1 0 0
757 2 9.8440000000000012e+00 1.1366872099805333e+01 2.6699192307821132e+01 0 0 0
3388 1 7.0438036610934809e+00 8.9530034973458381e+00 2.0855687959933963e+01 1 0 0
2051 1 6.8459114853194372e+00 9.1992811185440608e+00 2.3523713805535188e+01 -1 1 0
395 1 4.2322053576055305e+00 1.0252108365472315e+01 2.4119320048350410e+01 0 0 0
6129 1 1.1665052015537348e+01 8.7798449424615121e+00 2.1055203129155956e+01 0 0 1
5180 1 1.1654137437985138e+01 8.9140502756869555e+00 2.3824379946914970e+01 1 0 0
3354 1 9.0549863018732992e+00 1.0110100070044313e+01 2.4361808921686254e+01 6 -5 0
581 2 0.0000000000000000e+00 2.8417180249513345e+00 2.6699192307821132e+01 0 0 0
583 2 0.0000000000000000e+00 0.0000000000000000e+00 2.6699192307821132e+01 0 0 0
585 2 1.2305000000000001e+00 7.1042950623783474e-01 2.6699192307821132e+01 0 0 0
592 2 1.2305000000000001e+00 2.1312885187134998e+00 2.6699192307821132e+01 0 0 0
594 2 2.4610000000000003e+00 2.8417180249513345e+00 2.6699192307821132e+01 0 0 0
596 2 2.4610000000000003e+00 0.0000000000000000e+00 2.6699192307821132e+01 0 0 0
598 2 3.6915000000000004e+00 7.1042950623783474e-01 2.6699192307821132e+01 0 0 0
613 2 3.6914999999999996e+00 2.1312885187134998e+00 2.6699192307821132e+01 0 0 0
582 2 0.0000000000000000e+00 1.4208590124756650e+00 3.0030999999990637e+01 0 0 0
584 2 0.0000000000000000e+00 0.0000000000000000e+00 3.0030999999990637e+01 0 0 0
591 2 1.2305000000000001e+00 3.5521475311891644e+00 3.0030999999990637e+01 0 0 0
593 2 1.2305000000000001e+00 2.1312885187134998e+00 3.0030999999990637e+01 0 0 0
595 2 2.4610000000000003e+00 1.4208590124756650e+00 3.0030999999990637e+01 0 0 0
597 2 2.4610000000000003e+00 0.0000000000000000e+00 3.0030999999990637e+01 0 0 0
612 2 3.6914999999999996e+00 3.5521475311891644e+00 3.0030999999990637e+01 0 0 0
614 2 3.6914999999999996e+00 2.1312885187134998e+00 3.0030999999990637e+01 0 0 0
615 2 4.9220000000000006e+00 2.8417180249513332e+00 2.6699192307821132e+01 0 0 0
617 2 4.9220000000000006e+00 0.0000000000000000e+00 2.6699192307821132e+01 0 0 0
619 2 6.1524999999999999e+00 7.1042950623783407e-01 2.6699192307821132e+01 0 0 0
642 2 6.1524999999999999e+00 2.1312885187134989e+00 2.6699192307821132e+01 0 0 0
644 2 7.3829999999999991e+00 2.8417180249513345e+00 2.6699192307821132e+01 0 0 0
646 2 7.3829999999999991e+00 0.0000000000000000e+00 2.6699192307821132e+01 0 0 0
616 2 4.9220000000000006e+00 1.4208590124756650e+00 3.0030999999990637e+01 0 0 0
618 2 4.9220000000000006e+00 0.0000000000000000e+00 3.0030999999990637e+01 0 0 0
641 2 6.1524999999999999e+00 3.5521475311891644e+00 3.0030999999990637e+01 0 0 0
643 2 6.1524999999999999e+00 2.1312885187134989e+00 3.0030999999990637e+01 0 0 0
645 2 7.3829999999999991e+00 1.4208590124756659e+00 3.0030999999990637e+01 0 0 0
647 2 7.3829999999999991e+00 0.0000000000000000e+00 3.0030999999990637e+01 0 0 0
648 2 8.6134999999999984e+00 7.1042950623783407e-01 2.6699192307821132e+01 0 0 0
679 2 8.6134999999999984e+00 2.1312885187135002e+00 2.6699192307821132e+01 0 0 0
681 2 9.8440000000000012e+00 2.8417180249513332e+00 2.6699192307821132e+01 0 0 0
683 2 9.8440000000000012e+00 0.0000000000000000e+00 2.6699192307821132e+01 0 0 0
685 2 1.1074500000000002e+01 7.1042950623783330e-01 2.6699192307821132e+01 0 0 0
724 2 1.1074500000000002e+01 2.1312885187135002e+00 2.6699192307821132e+01 0 0 0
678 2 8.6134999999999984e+00 3.5521475311891657e+00 3.0030999999990637e+01 0 0 0
680 2 8.6134999999999984e+00 2.1312885187135002e+00 3.0030999999990637e+01 0 0 0
682 2 9.8440000000000012e+00 1.4208590124756659e+00 3.0030999999990637e+01 0 0 0
684 2 9.8440000000000012e+00 0.0000000000000000e+00 3.0030999999990637e+01 0 0 0
723 2 1.1074500000000002e+01 3.5521475311891644e+00 3.0030999999990637e+01 0 0 0
725 2 1.1074500000000002e+01 2.1312885187135002e+00 3.0030999999990637e+01 0 0 0
586 2 0.0000000000000000e+00 7.1042950623783341e+00 2.6699192307821132e+01 0 0 0
588 2 0.0000000000000000e+00 4.2625770374269996e+00 2.6699192307821132e+01 0 0 0
590 2 1.2305000000000001e+00 4.9730065436648339e+00 2.6699192307821132e+01 0 0 0
605 2 1.2305000000000001e+00 6.3938655561404980e+00 2.6699192307821132e+01 0 0 0
607 2 2.4610000000000003e+00 7.1042950623783341e+00 2.6699192307821132e+01 0 0 0
609 2 2.4610000000000003e+00 4.2625770374269996e+00 2.6699192307821132e+01 0 0 0
611 2 3.6914999999999996e+00 4.9730065436648339e+00 2.6699192307821132e+01 0 0 0
634 2 3.6914999999999996e+00 6.3938655561404980e+00 2.6699192307821132e+01 0 0 0
587 2 0.0000000000000000e+00 5.6834360499026637e+00 3.0030999999990637e+01 0 0 0
589 2 0.0000000000000000e+00 4.2625770374269996e+00 3.0030999999990637e+01 0 0 0
604 2 1.2305000000000001e+00 7.8147245686161639e+00 3.0030999999990637e+01 0 0 0
606 2 1.2305000000000001e+00 6.3938655561404980e+00 3.0030999999990637e+01 0 0 0
608 2 2.4610000000000003e+00 5.6834360499026637e+00 3.0030999999990637e+01 0 0 0
610 2 2.4610000000000003e+00 4.2625770374269996e+00 3.0030999999990637e+01 0 0 0
633 2 3.6914999999999996e+00 7.8147245686161639e+00 3.0030999999990637e+01 0 0 0
635 2 3.6914999999999996e+00 6.3938655561404980e+00 3.0030999999990637e+01 0 0 0
636 2 4.9220000000000006e+00 7.1042950623783341e+00 2.6699192307821132e+01 0 0 0
638 2 4.9220000000000006e+00 4.2625770374269978e+00 2.6699192307821132e+01 0 0 0
640 2 6.1524999999999999e+00 4.9730065436648339e+00 2.6699192307821132e+01 0 0 0
671 2 6.1524999999999999e+00 6.3938655561404980e+00 2.6699192307821132e+01 0 0 0
673 2 7.3830000000000009e+00 7.1042950623783341e+00 2.6699192307821132e+01 0 0 0
675 2 7.3829999999999991e+00 4.2625770374269996e+00 2.6699192307821132e+01 0 0 0
637 2 4.9220000000000006e+00 5.6834360499026637e+00 3.0030999999990637e+01 0 0 0
639 2 4.9220000000000006e+00 4.2625770374269978e+00 3.0030999999990637e+01 0 0 0
670 2 6.1524999999999999e+00 7.8147245686161639e+00 3.0030999999990637e+01 0 0 0
672 2 6.1524999999999999e+00 6.3938655561404980e+00 3.0030999999990637e+01 0 0 0
674 2 7.3829999999999991e+00 5.6834360499026637e+00 3.0030999999990637e+01 0 0 0
676 2 7.3829999999999991e+00 4.2625770374269996e+00 3.0030999999990637e+01 0 0 0
677 2 8.6135000000000002e+00 4.9730065436648339e+00 2.6699192307821132e+01 0 0 0
716 2 8.6135000000000002e+00 6.3938655561404980e+00 2.6699192307821132e+01 0 0 0
718 2 9.8440000000000012e+00 7.1042950623783341e+00 2.6699192307821132e+01 0 0 0
720 2 9.8440000000000012e+00 4.2625770374270004e+00 2.6699192307821132e+01 0 0 0
722 2 1.1074500000000002e+01 4.9730065436648339e+00 2.6699192307821132e+01 0 0 0
763 2 1.1074500000000002e+01 6.3938655561404980e+00 2.6699192307821132e+01 0 0 0
715 2 8.6135000000000002e+00 7.8147245686161639e+00 3.0030999999990637e+01 0 0 0
717 2 8.6135000000000002e+00 6.3938655561404980e+00 3.0030999999990637e+01 0 0 0
719 2 9.8440000000000012e+00 5.6834360499026637e+00 3.0030999999990637e+01 0 0 0
721 2 9.8440000000000012e+00 4.2625770374270004e+00 3.0030999999990637e+01 0 0 0
762 2 1.1074500000000002e+01 7.8147245686161639e+00 3.0030999999990637e+01 0 0 0
764 2 1.1074500000000002e+01 6.3938655561404980e+00 3.0030999999990637e+01 0 0 0
599 2 0.0000000000000000e+00 1.1366872099805333e+01 2.6699192307821132e+01 0 0 0
601 2 0.0000000000000000e+00 8.5251540748539991e+00 2.6699192307821132e+01 0 0 0
603 2 1.2305000000000001e+00 9.2355835810918343e+00 2.6699192307821132e+01 0 0 0
626 2 1.2305000000000001e+00 1.0656442593567498e+01 2.6699192307821132e+01 0 0 0
628 2 2.4610000000000003e+00 1.1366872099805333e+01 2.6699192307821132e+01 0 0 0
630 2 2.4610000000000003e+00 8.5251540748539991e+00 2.6699192307821132e+01 0 0 0
632 2 3.6915000000000004e+00 9.2355835810918343e+00 2.6699192307821132e+01 0 0 0
663 2 3.6914999999999996e+00 1.0656442593567499e+01 2.6699192307821132e+01 0 0 0
600 2 0.0000000000000000e+00 9.9460130873296642e+00 3.0030999999990637e+01 0 0 0
602 2 0.0000000000000000e+00 8.5251540748539991e+00 3.0030999999990637e+01 0 0 0
625 2 1.2305000000000001e+00 1.2077301606043163e+01 3.0030999999990637e+01 0 0 0
627 2 1.2305000000000001e+00 1.0656442593567498e+01 3.0030999999990637e+01 0 0 0
629 2 2.4610000000000003e+00 9.9460130873296642e+00 3.0030999999990637e+01 0 0 0
631 2 2.4610000000000003e+00 8.5251540748539991e+00 3.0030999999990637e+01 0 0 0
662 2 3.6914999999999996e+00 1.2077301606043163e+01 3.0030999999990637e+01 0 0 0
664 2 3.6914999999999996e+00 1.0656442593567499e+01 3.0030999999990637e+01 0 0 0
666 2 4.9220000000000006e+00 9.9460130873296642e+00 3.0030999999990637e+01 0 0 0
668 2 4.9220000000000006e+00 8.5251540748539991e+00 3.0030999999990637e+01 0 0 0
709 2 6.1524999999999999e+00 1.0656442593567499e+01 3.0030999999990637e+01 0 0 0
711 2 7.3830000000000009e+00 9.9460130873296642e+00 3.0030999999990637e+01 0 0 0
707 2 6.1524999999999999e+00 1.2077301606043163e+01 3.0030999999990637e+01 0 0 0
713 2 7.3830000000000009e+00 8.5251540748539991e+00 3.0030999999990637e+01 0 0 0
665 2 4.9220000000000006e+00 1.1366872099805333e+01 2.6699192307821132e+01 0 0 0
667 2 4.9220000000000006e+00 8.5251540748539991e+00 2.6699192307821132e+01 0 0 0
669 2 6.1524999999999999e+00 9.2355835810918343e+00 2.6699192307821132e+01 0 0 0
708 2 6.1524999999999999e+00 1.0656442593567499e+01 2.6699192307821132e+01 0 0 0
710 2 7.3829999999999991e+00 1.1366872099805333e+01 2.6699192307821132e+01 0 0 0
712 2 7.3830000000000009e+00 8.5251540748539991e+00 2.6699192307821132e+01 0 0 0
761 2 1.1074500000000002e+01 9.2355835810918343e+00 2.6699192307821132e+01 0 0 0
756 2 8.6134999999999984e+00 1.0656442593567498e+01 3.0030999999990637e+01 0 0 0
804 2 1.2304999999999998e+01 1.1366872099805333e+01 2.6699192307821132e+01 0 0 0
758 2 9.8440000000000012e+00 9.9460130873296642e+00 3.0030999999990637e+01 0 0 0
755 2 8.6134999999999984e+00 1.0656442593567498e+01 2.6699192307821132e+01 0 0 0
801 2 1.1074500000000002e+01 1.2077301606043163e+01 3.0030999999990637e+01 0 0 0
714 2 8.6134999999999984e+00 9.2355835810918343e+00 2.6699192307821132e+01 0 0 0
803 2 1.1074500000000002e+01 1.0656442593567498e+01 3.0030999999990637e+01 0 0 0
759 2 9.8440000000000012e+00 8.5251540748539956e+00 2.6699192307821132e+01 0 0 0
802 2 1.1074500000000002e+01 1.0656442593567498e+01 2.6699192307821132e+01 0 0 0
3344 1 4.2896227032422019e-02 1.0718741864029360e+01 2.4077177722778266e+01 -2 1 0
3649 1 2.8708912578352397e-03 1.0491574749706075e+01 1.9701614043154109e+01 0 -2 0
910 2 0.0000000000000000e+00 2.8417180249513345e+00 3.3362807692173675e+01 0 0 0
911 2 0.0000000000000000e+00 0.0000000000000000e+00 3.3362807692173675e+01 0 0 0
912 2 1.2305000000000001e+00 7.1042950623783474e-01 3.3362807692173675e+01 0 0 0
916 2 1.2305000000000001e+00 2.1312885187134998e+00 3.3362807692173675e+01 0 0 0
917 2 2.4610000000000003e+00 2.8417180249513345e+00 3.3362807692173675e+01 0 0 0
918 2 2.4610000000000003e+00 0.0000000000000000e+00 3.3362807692173675e+01 0 0 0
919 2 3.6915000000000004e+00 7.1042950623783474e-01 3.3362807692173675e+01 0 0 0
927 2 3.6914999999999996e+00 2.1312885187134998e+00 3.3362807692173675e+01 0 0 0
928 2 4.9220000000000006e+00 2.8417180249513332e+00 3.3362807692173675e+01 0 0 0
929 2 4.9220000000000006e+00 0.0000000000000000e+00 3.3362807692173675e+01 0 0 0
930 2 6.1524999999999999e+00 7.1042950623783407e-01 3.3362807692173675e+01 0 0 0
942 2 6.1524999999999999e+00 2.1312885187134989e+00 3.3362807692173675e+01 0 0 0
943 2 7.3829999999999991e+00 2.8417180249513345e+00 3.3362807692173675e+01 0 0 0
944 2 7.3829999999999991e+00 0.0000000000000000e+00 3.3362807692173675e+01 0 0 0
945 2 8.6134999999999984e+00 7.1042950623783407e-01 3.3362807692173675e+01 0 0 0
961 2 8.6134999999999984e+00 2.1312885187135002e+00 3.3362807692173675e+01 0 0 0
962 2 9.8440000000000012e+00 2.8417180249513332e+00 3.3362807692173675e+01 0 0 0
963 2 9.8440000000000012e+00 0.0000000000000000e+00 3.3362807692173675e+01 0 0 0
964 2 1.1074500000000002e+01 7.1042950623783330e-01 3.3362807692173675e+01 0 0 0
984 2 1.1074500000000002e+01 2.1312885187135002e+00 3.3362807692173675e+01 0 0 0
913 2 0.0000000000000000e+00 7.1042950623783341e+00 3.3362807692173675e+01 0 0 0
914 2 0.0000000000000000e+00 4.2625770374269996e+00 3.3362807692173675e+01 0 0 0
915 2 1.2305000000000001e+00 4.9730065436648339e+00 3.3362807692173675e+01 0 0 0
923 2 1.2305000000000001e+00 6.3938655561404980e+00 3.3362807692173675e+01 0 0 0
924 2 2.4610000000000003e+00 7.1042950623783341e+00 3.3362807692173675e+01 0 0 0
925 2 2.4610000000000003e+00 4.2625770374269996e+00 3.3362807692173675e+01 0 0 0
926 2 3.6914999999999996e+00 4.9730065436648339e+00 3.3362807692173675e+01 0 0 0
938 2 3.6914999999999996e+00 6.3938655561404980e+00 3.3362807692173675e+01 0 0 0
939 2 4.9220000000000006e+00 7.1042950623783341e+00 3.3362807692173675e+01 0 0 0
940 2 4.9220000000000006e+00 4.2625770374269978e+00 3.3362807692173675e+01 0 0 0
941 2 6.1524999999999999e+00 4.9730065436648339e+00 3.3362807692173675e+01 0 0 0
957 2 6.1524999999999999e+00 6.3938655561404980e+00 3.3362807692173675e+01 0 0 0
958 2 7.3830000000000009e+00 7.1042950623783341e+00 3.3362807692173675e+01 0 0 0
959 2 7.3829999999999991e+00 4.2625770374269996e+00 3.3362807692173675e+01 0 0 0
960 2 8.6135000000000002e+00 4.9730065436648339e+00 3.3362807692173675e+01 0 0 0
980 2 8.6135000000000002e+00 6.3938655561404980e+00 3.3362807692173675e+01 0 0 0
981 2 9.8440000000000012e+00 7.1042950623783341e+00 3.3362807692173675e+01 0 0 0
982 2 9.8440000000000012e+00 4.2625770374270004e+00 3.3362807692173675e+01 0 0 0
983 2 1.1074500000000002e+01 4.9730065436648339e+00 3.3362807692173675e+01 0 0 0
1004 2 1.1074500000000002e+01 6.3938655561404980e+00 3.3362807692173675e+01 0 0 0
920 2 0.0000000000000000e+00 1.1366872099805333e+01 3.3362807692173675e+01 0 0 0
921 2 0.0000000000000000e+00 8.5251540748539991e+00 3.3362807692173675e+01 0 0 0
922 2 1.2305000000000001e+00 9.2355835810918343e+00 3.3362807692173675e+01 0 0 0
934 2 1.2305000000000001e+00 1.0656442593567498e+01 3.3362807692173675e+01 0 0 0
935 2 2.4610000000000003e+00 1.1366872099805333e+01 3.3362807692173675e+01 0 0 0
936 2 2.4610000000000003e+00 8.5251540748539991e+00 3.3362807692173675e+01 0 0 0
937 2 3.6915000000000004e+00 9.2355835810918343e+00 3.3362807692173675e+01 0 0 0
953 2 3.6914999999999996e+00 1.0656442593567499e+01 3.3362807692173675e+01 0 0 0
954 2 4.9220000000000006e+00 1.1366872099805333e+01 3.3362807692173675e+01 0 0 0
955 2 4.9220000000000006e+00 8.5251540748539991e+00 3.3362807692173675e+01 0 0 0
956 2 6.1524999999999999e+00 9.2355835810918343e+00 3.3362807692173675e+01 0 0 0
976 2 6.1524999999999999e+00 1.0656442593567499e+01 3.3362807692173675e+01 0 0 0
977 2 7.3829999999999991e+00 1.1366872099805333e+01 3.3362807692173675e+01 0 0 0
978 2 7.3830000000000009e+00 8.5251540748539991e+00 3.3362807692173675e+01 0 0 0
979 2 8.6134999999999984e+00 9.2355835810918343e+00 3.3362807692173675e+01 0 0 0
1000 2 8.6134999999999984e+00 1.0656442593567498e+01 3.3362807692173675e+01 0 0 0
1001 2 9.8440000000000012e+00 1.1366872099805333e+01 3.3362807692173675e+01 0 0 0
1002 2 9.8440000000000012e+00 8.5251540748539956e+00 3.3362807692173675e+01 0 0 0
1003 2 1.1074500000000002e+01 9.2355835810918343e+00 3.3362807692173675e+01 0 0 0
1024 2 1.1074500000000002e+01 1.0656442593567498e+01 3.3362807692173675e+01 0 0 0
1025 2 1.2304999999999998e+01 1.1366872099805333e+01 3.3362807692173675e+01 0 0 0
6095 1 1.5536982628012990e+00 1.2931720061607064e+00 3.6392477872864589e+01 3 1 0
4671 1 1.7115700097717106e+00 1.3323850276279623e+00 3.9482481818207887e+01 1 -1 -1
169 1 6.1382668979700350e+00 1.3074657059389454e+00 3.6224576162904114e+01 -6 1 0
307 1 6.2380982464544630e+00 1.5409277927236946e+00 3.9606865601908780e+01 3 0 -1
2159 1 1.1258222852951757e+01 1.4773637888196989e+00 3.6078693624987480e+01 2 2 -1
282 1 1.0762415688738772e+01 1.6666988961328921e+00 3.9642779081236512e+01 2 0 -1
2196 1 1.0805233636411886e+01 9.9770061537604739e+00 4.0045283323984265e+01 2 2 -1
114 1 1.7330478979740978e+00 4.0097457519882314e+00 3.9020077536954076e+01 2 2 -1
6424 1 1.8563027447097271e+00 4.2224450517149608e+00 3.6127992446372730e+01 1 -1 -1
93 1 4.0412966678168694e+00 5.6897409543758215e+00 3.9066751110977407e+01 -1 -1 0
4644 1 4.2404757211675470e+00 6.0792505842761475e+00 3.5853609333630104e+01 0 1 0
1966 1 5.9853384720563225e+00 4.2798695483092626e+00 3.6499607139809811e+01 -1 1 -1
3514 1 6.3540885549847745e+00 4.3168345668246522e+00 3.9079448099656332e+01 2 0 -1
2063 1 1.0587948383182562e+01 4.2294075789204086e+00 3.6175315386478360e+01 -2 -2 -1
1700 1 1.0753076074977926e+01 4.5163636199009689e+00 3.8998972806648609e+01 1 0 -1
5426 1 8.2711170687411553e+00 5.7166302249227501e+00 3.5709694276392312e+01 0 -2 0
1737 1 8.4945619835416757e+00 5.8749548037911428e+00 4.0003907319466947e+01 4 4 -1
5325 1 1.8898906870364875e+00 9.8742807635109777e+00 3.5528585756421748e+01 0 3 -1
425 1 3.8090656809304897e+00 8.4378951417965364e+00 3.9438883089167874e+01 -1 3 0
3400 1 3.9788797339433661e+00 8.7893048248341241e+00 3.6813467525520693e+01 2 2 -1
438 1 6.2034119651349702e+00 1.0067851140723565e+01 3.6041875529910087e+01 -1 2 -1
1526 1 8.5687253310907359e+00 8.5353899628855245e+00 3.9308739178067398e+01 3 -1 0
1853 1 8.2520710316197547e+00 8.1869738722117287e+00 3.6745417512206060e+01 1 4 -1
1588 1 1.0693474598568942e+01 9.6074369191116649e+00 3.5908156515941684e+01 0 1 0
306 1 8.4809199190496880e+00 1.0687707891638958e+01 4.3602371249324179e+01 -1 1 -1
3710 1 1.9411299605258676e+00 1.6377929275116305e+00 4.2264799281753511e+01 0 1 0
3416 1 3.8400088984033651e+00 3.2022822062449041e+00 4.3274939932130764e+01 3 1 -1
371 1 6.3343253303270535e+00 1.5633398130964062e+00 4.2562689564340516e+01 2 0 -1
6241 1 8.5603072299430387e+00 2.9724772426923480e+00 4.3595001829390583e+01 3 6 0
1374 1 1.0610977134305118e+01 1.3849803622096559e+00 4.2432066017653824e+01 0 -1 0
428 1 2.1511333689230328e+00 6.9702615914390673e+00 4.3262910743334487e+01 1 -3 -1
2146 1 4.3171868912576672e+00 5.5437638191530656e+00 4.2225945988515960e+01 0 5 0
1424 1 6.4312282530466778e+00 6.9957244087608785e+00 4.3494658533854377e+01 -2 4 -1
3641 1 1.1013509269332591e+01 6.8264549972529238e+00 4.3569826328309063e+01 0 4 -1
3198 1 8.6122652491165450e+00 5.6281288287006621e+00 4.2671653915860318e+01 2 3 0
6471 1 1.6410503659686373e+00 9.7341454083082635e+00 4.0236654721954707e+01 0 1 0
1317 1 2.1043230259041281e+00 9.7346021145654404e+00 4.2977912140220681e+01 0 -1 -1
1411 1 4.3250941118648036e+00 1.0905126631356904e+01 4.3589602153967391e+01 1 1 0
3571 1 6.1733251673315941e+00 9.8067882360921796e+00 3.9806167768070921e+01 8 2 -1
6274 1 6.4193915240621422e+00 9.6017124674763501e+00 4.2365927880047039e+01 -1 1 0
98 1 1.1131190183557358e+01 9.5913565172201327e+00 4.2797938218041097e+01 2 -1 0
6248 1 8.6120774071594042e+00 3.3732547519093811e-02 3.5998256288592145e+01 -2 -2 0
5326 1 8.5975256810717173e+00 2.8881638062672005e-01 3.8675655323394082e+01 6 -1 -1
1378 1 4.0278233776558698e+00 7.2069778305269949e-02 3.9602493891894710e+01 1 -3 -1
5041 1 2.0463786675075220e+00 4.1997909200794847e+00 4.6708331785629099e+01 -5 0 0
2035 1 4.2540531242767639e+00 2.7701163082756488e+00 4.6096073758722127e+01 -1 2 -1
4809 1 6.6254000720133615e+00 4.1250898562692768e+00 4.6852148324121927e+01 2 0 0
1900 1 8.9523767627554509e+00 2.8645659411197060e+00 4.6189524805850937e+01 3 4 -1
3624 1 1.1204717172730994e+01 4.1709217180095912e+00 4.7145910853962931e+01 -2 -3 -1
6405 1 2.1370272977732880e+00 6.7260869634668623e+00 4.5939672472501570e+01 -2 -3 0
6420 1 6.6080864911803623e+00 6.7641781742303584e+00 4.6139684407279404e+01 2 5 -1
6214 1 4.4214770433545292e+00 7.8207781050333871e+00 4.7312670796140594e+01 2 -1 0
5292 1 1.0835640932345749e+01 6.9398384794885120e+00 4.6332702607799234e+01 0 0 -1
5047 1 8.7909012474352792e+00 8.1609727096726026e+00 4.7095131312837296e+01 -3 2 -1
1517 1 1.1443414677000229e+01 4.3060188073935368e+00 4.9763869924741357e+01 -1 -1 0
1291 1 2.3460199949047058e+00 1.1285466213769556e+01 4.7930141551583915e+01 -3 -1 0
1263 1 1.0918937299525213e+01 1.2105892574523962e+01 5.0132635132687170e+01 -1 -2 0
118 1 4.4605205641565044e+00 1.0324794783376063e+01 4.6248748766481711e+01 4 -2 -1
4893 1 1.1557973094244097e+01 1.1356334502970821e+01 5.8595764918089884e+01 2 2 0