LAMMPS data file via write_data, version 16 Mar 2018, timestep = 100000

6328 atoms
2 atom types

0.0000000000000000e+00 4.9219999999999999e+01 xlo xhi
0.0000000000000000e+00 4.9019635930410494e+01 ylo yhi
3.6055616060454412e+00 5.6456438393953718e+01 zlo zhi

Masses

1 18.015
2 12.01

Atoms # atomic

6290 1 2.5963426990380434e+00 1.3252054650921656e+00 4.8829270266218083e+00 1 0 1
1425 1 4.4642317680713530e+00 4.4946313665818964e+00 5.6101310329841603e+00 0 1 0
3326 1 2.0178297407375854e+00 5.8049674634339721e-01 8.8375219172835422e+00 1 -1 0
3648 1 4.3033428500153788e+00 7.0164695226054263e-01 7.1596754494063628e+00 0 0 0
2944 1 9.9628258171192154e+00 1.0737877400738087e+01 1.5666241923138106e+01 0 -1 0
3484 1 8.3546690770724030e+00 2.0611393379701064e+00 5.7954812459035221e+00 1 1 1
1865 1 5.3859060133949512e+00 9.1727301174309535e+00 1.3440216384858608e+01 1 1 1
5021 1 1.2040688502091086e+01 1.1758171009822952e+01 1.4145608507072780e+01 0 -1 1
2845 1 1.0372688600124773e+01 3.3415973296838741e+00 7.4024500760877423e+00 0 0 1
298 1 1.8740140222660824e+00 6.5226090783472106e+00 4.4113753646332601e+00 0 1 0
3145 1 1.1628398854309143e+01 5.8375537260422901e+00 6.4225486118558592e+00 0 1 1
4851 1 7.0668060660431058e+00 5.5805327711826642e+00 7.6822532387977276e+00 -1 0 0
4740 1 4.6895515979280518e+00 6.9285049010856001e+00 7.0841047033101159e+00 1 0 0
1238 1 1.0611437061754039e+01 2.2691247928469411e+00 3.8103792620012920e+00 0 2 1
1944 1 9.2303337720986498e+00 4.7837670499696436e+00 9.7411282677455411e+00 1 0 0
2107 1 4.0800199945147515e+00 1.0677090794304869e+01 4.5021356527865048e+00 0 0 1
1659 1 5.7699314585955852e-01 8.3749940498172339e+00 1.5417925039836673e+01 1 1 0
420 1 8.6171848067010544e+00 1.0647393716593657e+01 7.0718813127983839e+00 -1 0 0
6060 1 1.3433799195087555e+00 1.1642529390919748e+01 4.1354411993305149e+00 0 0 1
75 1 6.3679990069290229e+00 7.8482750500190424e+00 4.7821045485191283e+00 0 1 0
4662 1 1.0397648111267680e+01 9.0625658529656103e+00 5.8406120342725778e+00 -1 1 1
188 1 1.1061961441720336e+00 1.4209612538089333e+00 1.3349342664599890e+01 2 1 0
5073 1 6.5138875809767658e+00 1.1718024158131321e+01 1.3630215360265547e+01 1 -1 1
4435 1 9.6733878081470994e+00 8.2604855229483913e+00 1.4637626448487568e+01 1 0 0
3078 1 6.7989020471777062e+00 1.2478234808432482e+00 9.6825736049677857e+00 0 0 1
4592 1 6.4548350058828197e+00 3.1130167846479142e+00 3.7394759638036610e+00 0 1 1
2996 1 6.1506492395116625e+00 2.8474167611924281e+00 7.2922407291019216e+00 1 1 1
3625 1 8.1448055691315009e+00 2.9029515032855326e+00 1.1509763651433728e+01 1 0 1
5954 1 5.6754870081162965e+00 3.8996811888569127e-01 4.2488873144722765e+00 0 0 1
6079 1 1.1991039293826017e+01 6.7010930932656105e+00 1.5059908397508771e+01 0 1 1
4952 1 1.3427863925804033e+00 3.3985406484098966e+00 1.1334137839864979e+01 0 0 0
2826 1 3.8301484753305032e-01 3.1306579529560237e+00 8.3824581147576787e+00 0 1 0
3414 1 6.2626194427896680e+00 4.6756767219699249e+00 1.2912201669989093e+01 1 0 0
3656 1 7.3095183711107001e+00 7.0287524822914333e+00 1.0450211802751381e+01 1 1 0
4908 1 5.3153311545308002e+00 9.0914568725187497e+00 8.9328786160380318e+00 0 3 1
381 1 1.1169205318771178e+01 6.8882434562209109e+00 1.0024070383692234e+01 0 0 0
4454 1 1.4671487536423833e+00 1.1668435453507113e+01 8.5210811893183624e+00 1 0 1
332 1 1.7134743439820666e+00 4.0938169465182419e+00 6.0120506088711654e+00 0 1 0
6248 1 1.2142709549587716e+00 8.5424737495079057e+00 9.0885603135593378e+00 0 0 2
2889 1 4.2095856495902968e+00 1.1324417829663981e+01 7.6236157633768302e+00 0 1 1
5008 1 8.9161865048570945e+00 6.6403870691121654e+00 5.5141186764595798e+00 0 1 0
4927 1 7.9656665001333291e+00 9.9442636293150954e+00 9.6586611422205877e+00 -1 0 0
1849 1 4.3322884396832802e-02 5.7587870257546179e+00 1.1893050556484694e+01 1 0 1
1469 1 3.5972623599604403e+00 4.3959740540414796e+00 1.3136832769203082e+01 0 0 1
5114 1 3.4372183735207082e+00 3.0524565124921526e+00 1.5612491070026376e+01 1 -1 1
4865 1 2.3627082686522312e+00 8.7399114882153572e+00 6.3308800512338470e+00 0 0 0
3197 1 1.1362558990521258e+01 5.0806816406289776e+00 3.9162540696802144e+00 1 0 0
6141 1 7.3567937147290374e+00 3.0302695081311075e+00 1.4964645993281575e+01 2 0 1
3264 1 6.6625653643717353e+00 5.2178306471493363e-01 1.3680487901846641e+01 0 1 1
3461 1 1.9024839152789739e+00 1.1266455753319867e+01 1.1324067720906946e+01 1 0 1
1785 1 1.0102437917116101e+01 2.2498971857235128e+00 1.3514881477744444e+01 1 0 0
3298 1 1.0297255665972004e+01 3.0366064990710679e+00 1.6056526290745943e+01 1 0 1
1310 1 2.4902350093602408e+00 7.0801601782686658e+00 1.3049078990685322e+01 0 0 1
5131 1 3.7082443164233800e+00 8.9747176264790465e+00 1.1178486476842291e+01 0 1 1
4883 1 1.0638785826322200e+01 1.1872177273542889e+01 1.1572199316156443e+01 1 0 1
2098 1 7.3578550817467079e+00 7.1573311973936473e+00 1.3351764537363239e+01 0 1 0
3244 1 3.7574093979912693e+00 7.9930852624565976e+00 1.5563163230411529e+01 1 -1 0
3039 1 1.1853263263511526e+01 1.5526409109660773e+00 8.7947098802351178e+00 0 0 1
2138 1 3.3386157608261340e+00 1.0529830492123986e+01 1.6775345267105962e+01 0 0 0
1250 1 9.8418245849456198e+00 8.8747512345411881e+00 1.1645648240843169e+01 1 0 0
1725 1 1.1711581951281582e+01 8.9255498496206478e+00 8.3536911686974769e+00 1 2 0
3427 1 7.0730481731822774e+00 1.0650265043093961e+01 4.6031535700341344e+00 1 0 1
3350 1 3.7453665463955983e+00 5.8482028115635398e-01 1.4011716106638000e+01 1 1 0
1446 1 1.2192908854999210e+01 4.6650483391837625e+00 1.2707613153360583e+01 0 0 1
3397 1 7.9437275773088345e-02 1.0405431679330402e+01 6.3040732178140590e+00 1 0 0
3524 1 4.6809092992022601e+00 1.2208897944598997e+01 1.0725103197750887e+01 0 0 1
3512 1 2.9001897411154220e+00 1.0860295570196854e-02 1.1249013322062257e+01 1 0 0
3376 1 1.0289480676800511e+00 3.1428831514025810e+00 1.6739487423595556e+01 0 1 1
1922 1 6.7037249493170448e+00 6.0587899482285185e-02 1.6808901497823030e+01 -1 0 0
3193 1 2.0500711999666561e+00 2.7464261878495488e+00 2.1399986830135241e+01 1 0 0
730 2 9.8440000000000012e+00 8.5251540748539956e+00 2.6877115796530742e+01 0 0 0
1304 1 1.1674727664531297e+01 9.1193986122179780e+00 2.1135839065370870e+01 0 0 1
6258 1 6.3364429011524459e+00 2.2305063211738889e+00 1.9188133197069057e+01 0 1 0
3024 1 9.5048974047872097e+00 5.8344374182411940e-01 1.7154938805474650e+01 0 1 0
3319 1 8.6037383925312358e+00 3.4816026379862199e+00 2.0170034764402040e+01 1 1 0
1575 1 1.5133451087182961e+00 2.4760712443262620e+00 2.4114237105415167e+01 0 0 0
2080 1 1.0170816535580812e+01 1.7923859789924594e+00 2.1580861058631605e+01 1 0 0
105 1 1.6033313478259319e+00 7.1814199947208692e+00 2.0281455986469794e+01 0 0 0
2958 1 4.6094759805287104e+00 6.4843513410375744e+00 1.9879200907733136e+01 1 1 1
685 2 8.6134999999999984e+00 9.2355835810918343e+00 2.6877115796530742e+01 0 0 0
1946 1 7.4347323455071335e+00 5.3066790619897901e+00 2.1642119145461898e+01 1 0 1
3636 1 1.3810126421539712e-01 1.1400075601607863e+01 1.9751955087900964e+01 0 0 0
1861 1 8.5953804041742199e+00 7.4171337536303152e+00 1.7201360696969061e+01 1 0 1
5061 1 5.7380191564717791e+00 6.5923408228405620e+00 1.7255295913445131e+01 1 0 0
732 2 1.1074500000000002e+01 9.2355835810918343e+00 2.6877115796530742e+01 0 0 0
1539 1 2.0751429248922464e+00 9.9699677586254882e+00 2.1185099611470157e+01 1 1 1
4679 1 4.6470777273275887e+00 9.8328849997880123e+00 1.9151596578543202e+01 0 1 1
773 2 1.1074500000000002e+01 1.0656442593567498e+01 2.6877115796530742e+01 0 0 0
3290 1 7.1666736029787792e+00 9.2091938622621914e+00 1.9022639408493191e+01 0 0 0
2814 1 4.1460810069572057e-01 4.8680406313017874e+00 2.4423065602712526e+01 0 2 1
2018 1 1.1629718532957424e+01 9.9875255677097456e+00 1.8052794986365846e+01 0 1 0
1373 1 9.1672248361608517e+00 1.1189097964276439e+01 1.8751235098443601e+01 0 1 1
104 1 4.4978157994112902e+00 3.7873808589631550e+00 2.1052384097096784e+01 1 0 0
726 2 8.6134999999999984e+00 1.0656442593567498e+01 2.6877115796530742e+01 0 0 0
2128 1 4.0879121821782007e+00 8.3483692885777228e-01 2.4275410445454096e+01 0 0 0
3482 1 4.4316985527834598e+00 3.9557304266390312e+00 2.3812917537953279e+01 0 1 0
4787 1 6.9511692718948499e+00 2.7285830596499498e+00 2.4259161521235932e+01 0 0 1
2803 1 9.0268143225503419e+00 7.2798969839130334e-01 2.3956749729846248e+01 1 0 0
3181 1 2.3707628434103456e-01 4.8600739583859722e+00 2.1318324955358158e+01 1 0 1
3251 1 2.6584071097512805e+00 6.7579588745160475e+00 2.4123824183320256e+01 1 1 1
251 1 7.2821718899480858e+00 8.1524102708438093e+00 2.1491418249516080e+01 1 1 0
3657 1 5.5484818917457330e+00 6.9070736609112409e+00 2.4481702404338044e+01 0 0 0
301 1 8.1861627288394416e+00 5.4137620254621934e+00 2.4299280848564319e+01 1 -1 0
4754 1 1.0833217266329200e+00 1.4182296209151910e+00 1.9157754329032848e+01 1 0 0
775 2 1.2304999999999998e+01 1.1366872099805333e+01 2.6877115796530742e+01 0 0 0
1634 1 1.1013464179706606e+01 6.4611655562055272e+00 2.1182887297379324e+01 0 1 0
5247 1 1.1051033694182808e+01 6.1106990309281084e+00 2.3942700249310274e+01 1 0 0
413 1 2.3169776377795990e+00 9.6612129712139261e+00 2.3995322952305710e+01 1 0 0
728 2 9.8440000000000012e+00 1.1366872099805333e+01 2.6877115796530742e+01 0 0 0
679 2 6.1524999999999999e+00 1.0656442593567499e+01 2.6877115796530742e+01 0 0 0
4604 1 4.8743847276178789e+00 1.0559662991335731e+01 2.4027186888863660e+01 1 0 1
276 1 1.1688538620896990e+01 1.6109929342788589e+00 2.4405623138737102e+01 0 0 0
3309 1 7.1148854564639414e+00 9.0403426643753626e+00 2.4176982152026113e+01 1 1 0
1452 1 9.0970539137930686e+00 1.0296145277925598e+01 2.2146522429682022e+01 1 0 1
5150 1 4.6709596191445373e+00 1.1514458483830383e+01 2.1461651594334974e+01 1 0 1
1424 1 9.9383010781200998e+00 4.8708334910540145e+00 1.8456999024485278e+01 0 0 1
1705 1 1.1463612151223254e+01 8.9020546234108995e+00 2.4182069832402028e+01 1 0 0
552 2 0.0000000000000000e+00 2.8417180249513345e+00 2.6877115796530742e+01 0 0 0
554 2 0.0000000000000000e+00 0.0000000000000000e+00 2.6877115796530742e+01 0 0 0
556 2 1.2305000000000001e+00 7.1042950623783474e-01 2.6877115796530742e+01 0 0 0
563 2 1.2305000000000001e+00 2.1312885187134998e+00 2.6877115796530742e+01 0 0 0
565 2 2.4610000000000003e+00 2.8417180249513345e+00 2.6877115796530742e+01 0 0 0
567 2 2.4610000000000003e+00 0.0000000000000000e+00 2.6877115796530742e+01 0 0 0
569 2 3.6915000000000004e+00 7.1042950623783474e-01 2.6877115796530742e+01 0 0 0
584 2 3.6914999999999996e+00 2.1312885187134998e+00 2.6877115796530742e+01 0 0 0
586 2 4.9220000000000006e+00 2.8417180249513332e+00 2.6877115796530742e+01 0 0 0
588 2 4.9220000000000006e+00 0.0000000000000000e+00 2.6877115796530742e+01 0 0 0
590 2 6.1524999999999999e+00 7.1042950623783407e-01 2.6877115796530742e+01 0 0 0
613 2 6.1524999999999999e+00 2.1312885187134989e+00 2.6877115796530742e+01 0 0 0
615 2 7.3829999999999991e+00 2.8417180249513345e+00 2.6877115796530742e+01 0 0 0
617 2 7.3829999999999991e+00 0.0000000000000000e+00 2.6877115796530742e+01 0 0 0
619 2 8.6134999999999984e+00 7.1042950623783407e-01 2.6877115796530742e+01 0 0 0
650 2 8.6134999999999984e+00 2.1312885187135002e+00 2.6877115796530742e+01 0 0 0
652 2 9.8440000000000012e+00 2.8417180249513332e+00 2.6877115796530742e+01 0 0 0
654 2 9.8440000000000012e+00 0.0000000000000000e+00 2.6877115796530742e+01 0 0 0
656 2 1.1074500000000002e+01 7.1042950623783330e-01 2.6877115796530742e+01 0 0 0
695 2 1.1074500000000002e+01 2.1312885187135002e+00 2.6877115796530742e+01 0 0 0
559 2 0.0000000000000000e+00 4.2625770374269996e+00 2.6877115796530742e+01 0 0 0
561 2 1.2305000000000001e+00 4.9730065436648339e+00 2.6877115796530742e+01 0 0 0
576 2 1.2305000000000001e+00 6.3938655561404980e+00 2.6877115796530742e+01 0 0 0
580 2 2.4610000000000003e+00 4.2625770374269996e+00 2.6877115796530742e+01 0 0 0
582 2 3.6914999999999996e+00 4.9730065436648339e+00 2.6877115796530742e+01 0 0 0
605 2 3.6914999999999996e+00 6.3938655561404980e+00 2.6877115796530742e+01 0 0 0
557 2 0.0000000000000000e+00 7.1042950623783341e+00 2.6877115796530742e+01 0 0 0
578 2 2.4610000000000003e+00 7.1042950623783341e+00 2.6877115796530742e+01 0 0 0
609 2 4.9220000000000006e+00 4.2625770374269978e+00 2.6877115796530742e+01 0 0 0
611 2 6.1524999999999999e+00 4.9730065436648339e+00 2.6877115796530742e+01 0 0 0
642 2 6.1524999999999999e+00 6.3938655561404980e+00 2.6877115796530742e+01 0 0 0
646 2 7.3829999999999991e+00 4.2625770374269996e+00 2.6877115796530742e+01 0 0 0
607 2 4.9220000000000006e+00 7.1042950623783341e+00 2.6877115796530742e+01 0 0 0
644 2 7.3830000000000009e+00 7.1042950623783341e+00 2.6877115796530742e+01 0 0 0
648 2 8.6135000000000002e+00 4.9730065436648339e+00 2.6877115796530742e+01 0 0 0
687 2 8.6135000000000002e+00 6.3938655561404980e+00 2.6877115796530742e+01 0 0 0
691 2 9.8440000000000012e+00 4.2625770374270004e+00 2.6877115796530742e+01 0 0 0
693 2 1.1074500000000002e+01 4.9730065436648339e+00 2.6877115796530742e+01 0 0 0
734 2 1.1074500000000002e+01 6.3938655561404980e+00 2.6877115796530742e+01 0 0 0
689 2 9.8440000000000012e+00 7.1042950623783341e+00 2.6877115796530742e+01 0 0 0
572 2 0.0000000000000000e+00 8.5251540748539991e+00 2.6877115796530742e+01 0 0 0
574 2 1.2305000000000001e+00 9.2355835810918343e+00 2.6877115796530742e+01 0 0 0
601 2 2.4610000000000003e+00 8.5251540748539991e+00 2.6877115796530742e+01 0 0 0
603 2 3.6915000000000004e+00 9.2355835810918343e+00 2.6877115796530742e+01 0 0 0
570 2 0.0000000000000000e+00 1.1366872099805333e+01 2.6877115796530742e+01 0 0 0
597 2 1.2305000000000001e+00 1.0656442593567498e+01 2.6877115796530742e+01 0 0 0
599 2 2.4610000000000003e+00 1.1366872099805333e+01 2.6877115796530742e+01 0 0 0
634 2 3.6914999999999996e+00 1.0656442593567499e+01 2.6877115796530742e+01 0 0 0
681 2 7.3829999999999991e+00 1.1366872099805333e+01 2.6877115796530742e+01 0 0 0
640 2 6.1524999999999999e+00 9.2355835810918343e+00 2.6877115796530742e+01 0 0 0
638 2 4.9220000000000006e+00 8.5251540748539991e+00 2.6877115796530742e+01 0 0 0
636 2 4.9220000000000006e+00 1.1366872099805333e+01 2.6877115796530742e+01 0 0 0
683 2 7.3830000000000009e+00 8.5251540748539991e+00 2.6877115796530742e+01 0 0 0
3087 1 3.3368241564462309e-01 5.3291100137220377e+00 1.8119013195394029e+01 0 0 0
4561 1 4.2495206138411989e-01 1.0946981600629879e+01 1.7170359014266211e+01 -1 0 1
6002 1 1.1775018000715331e+01 7.0048584727413443e+00 1.7893912280441278e+01 0 0 1
1605 1 1.0483643006734725e+01 1.1563844142559034e+01 2.4176048596776866e+01 -1 1 0
1532 1 5.7487028767923123e+00 3.7549900533404208e+00 1.7082987217315829e+01 0 1 0
553 2 0.0000000000000000e+00 1.4208590124756650e+00 3.0030999999999633e+01 0 0 0
555 2 0.0000000000000000e+00 0.0000000000000000e+00 3.0030999999999633e+01 0 0 0
564 2 1.2305000000000001e+00 2.1312885187134998e+00 3.0030999999999633e+01 0 0 0
566 2 2.4610000000000003e+00 1.4208590124756650e+00 3.0030999999999633e+01 0 0 0
568 2 2.4610000000000003e+00 0.0000000000000000e+00 3.0030999999999633e+01 0 0 0
585 2 3.6914999999999996e+00 2.1312885187134998e+00 3.0030999999999633e+01 0 0 0
562 2 1.2305000000000001e+00 3.5521475311891644e+00 3.0030999999999633e+01 0 0 0
583 2 3.6914999999999996e+00 3.5521475311891644e+00 3.0030999999999633e+01 0 0 0
881 2 0.0000000000000000e+00 2.8417180249513345e+00 3.3184884203465764e+01 0 0 0
882 2 0.0000000000000000e+00 0.0000000000000000e+00 3.3184884203465764e+01 0 0 0
883 2 1.2305000000000001e+00 7.1042950623783474e-01 3.3184884203465764e+01 0 0 0
887 2 1.2305000000000001e+00 2.1312885187134998e+00 3.3184884203465764e+01 0 0 0
888 2 2.4610000000000003e+00 2.8417180249513345e+00 3.3184884203465764e+01 0 0 0
889 2 2.4610000000000003e+00 0.0000000000000000e+00 3.3184884203465764e+01 0 0 0
890 2 3.6915000000000004e+00 7.1042950623783474e-01 3.3184884203465764e+01 0 0 0
898 2 3.6914999999999996e+00 2.1312885187134998e+00 3.3184884203465764e+01 0 0 0
587 2 4.9220000000000006e+00 1.4208590124756650e+00 3.0030999999999633e+01 0 0 0
589 2 4.9220000000000006e+00 0.0000000000000000e+00 3.0030999999999633e+01 0 0 0
614 2 6.1524999999999999e+00 2.1312885187134989e+00 3.0030999999999633e+01 0 0 0
616 2 7.3829999999999991e+00 1.4208590124756659e+00 3.0030999999999633e+01 0 0 0
618 2 7.3829999999999991e+00 0.0000000000000000e+00 3.0030999999999633e+01 0 0 0
612 2 6.1524999999999999e+00 3.5521475311891644e+00 3.0030999999999633e+01 0 0 0
899 2 4.9220000000000006e+00 2.8417180249513332e+00 3.3184884203465764e+01 0 0 0
900 2 4.9220000000000006e+00 0.0000000000000000e+00 3.3184884203465764e+01 0 0 0
901 2 6.1524999999999999e+00 7.1042950623783407e-01 3.3184884203465764e+01 0 0 0
913 2 6.1524999999999999e+00 2.1312885187134989e+00 3.3184884203465764e+01 0 0 0
914 2 7.3829999999999991e+00 2.8417180249513345e+00 3.3184884203465764e+01 0 0 0
915 2 7.3829999999999991e+00 0.0000000000000000e+00 3.3184884203465764e+01 0 0 0
651 2 8.6134999999999984e+00 2.1312885187135002e+00 3.0030999999999633e+01 0 0 0
653 2 9.8440000000000012e+00 1.4208590124756659e+00 3.0030999999999633e+01 0 0 0
655 2 9.8440000000000012e+00 0.0000000000000000e+00 3.0030999999999633e+01 0 0 0
696 2 1.1074500000000002e+01 2.1312885187135002e+00 3.0030999999999633e+01 0 0 0
649 2 8.6134999999999984e+00 3.5521475311891657e+00 3.0030999999999633e+01 0 0 0
694 2 1.1074500000000002e+01 3.5521475311891644e+00 3.0030999999999633e+01 0 0 0
916 2 8.6134999999999984e+00 7.1042950623783407e-01 3.3184884203465764e+01 0 0 0
932 2 8.6134999999999984e+00 2.1312885187135002e+00 3.3184884203465764e+01 0 0 0
933 2 9.8440000000000012e+00 2.8417180249513332e+00 3.3184884203465764e+01 0 0 0
934 2 9.8440000000000012e+00 0.0000000000000000e+00 3.3184884203465764e+01 0 0 0
935 2 1.1074500000000002e+01 7.1042950623783330e-01 3.3184884203465764e+01 0 0 0
955 2 1.1074500000000002e+01 2.1312885187135002e+00 3.3184884203465764e+01 0 0 0
558 2 0.0000000000000000e+00 5.6834360499026637e+00 3.0030999999999633e+01 0 0 0
560 2 0.0000000000000000e+00 4.2625770374269996e+00 3.0030999999999633e+01 0 0 0
577 2 1.2305000000000001e+00 6.3938655561404980e+00 3.0030999999999633e+01 0 0 0
579 2 2.4610000000000003e+00 5.6834360499026637e+00 3.0030999999999633e+01 0 0 0
581 2 2.4610000000000003e+00 4.2625770374269996e+00 3.0030999999999633e+01 0 0 0
606 2 3.6914999999999996e+00 6.3938655561404980e+00 3.0030999999999633e+01 0 0 0
575 2 1.2305000000000001e+00 7.8147245686161639e+00 3.0030999999999633e+01 0 0 0
604 2 3.6914999999999996e+00 7.8147245686161639e+00 3.0030999999999633e+01 0 0 0
885 2 0.0000000000000000e+00 4.2625770374269996e+00 3.3184884203465764e+01 0 0 0
886 2 1.2305000000000001e+00 4.9730065436648339e+00 3.3184884203465764e+01 0 0 0
894 2 1.2305000000000001e+00 6.3938655561404980e+00 3.3184884203465764e+01 0 0 0
896 2 2.4610000000000003e+00 4.2625770374269996e+00 3.3184884203465764e+01 0 0 0
897 2 3.6914999999999996e+00 4.9730065436648339e+00 3.3184884203465764e+01 0 0 0
909 2 3.6914999999999996e+00 6.3938655561404980e+00 3.3184884203465764e+01 0 0 0
884 2 0.0000000000000000e+00 7.1042950623783341e+00 3.3184884203465764e+01 0 0 0
895 2 2.4610000000000003e+00 7.1042950623783341e+00 3.3184884203465764e+01 0 0 0
608 2 4.9220000000000006e+00 5.6834360499026637e+00 3.0030999999999633e+01 0 0 0
610 2 4.9220000000000006e+00 4.2625770374269978e+00 3.0030999999999633e+01 0 0 0
643 2 6.1524999999999999e+00 6.3938655561404980e+00 3.0030999999999633e+01 0 0 0
645 2 7.3829999999999991e+00 5.6834360499026637e+00 3.0030999999999633e+01 0 0 0
647 2 7.3829999999999991e+00 4.2625770374269996e+00 3.0030999999999633e+01 0 0 0
641 2 6.1524999999999999e+00 7.8147245686161639e+00 3.0030999999999633e+01 0 0 0
911 2 4.9220000000000006e+00 4.2625770374269978e+00 3.3184884203465764e+01 0 0 0
912 2 6.1524999999999999e+00 4.9730065436648339e+00 3.3184884203465764e+01 0 0 0
928 2 6.1524999999999999e+00 6.3938655561404980e+00 3.3184884203465764e+01 0 0 0
930 2 7.3829999999999991e+00 4.2625770374269996e+00 3.3184884203465764e+01 0 0 0
910 2 4.9220000000000006e+00 7.1042950623783341e+00 3.3184884203465764e+01 0 0 0
929 2 7.3830000000000009e+00 7.1042950623783341e+00 3.3184884203465764e+01 0 0 0
688 2 8.6135000000000002e+00 6.3938655561404980e+00 3.0030999999999633e+01 0 0 0
690 2 9.8440000000000012e+00 5.6834360499026637e+00 3.0030999999999633e+01 0 0 0
692 2 9.8440000000000012e+00 4.2625770374270004e+00 3.0030999999999633e+01 0 0 0
735 2 1.1074500000000002e+01 6.3938655561404980e+00 3.0030999999999633e+01 0 0 0
686 2 8.6135000000000002e+00 7.8147245686161639e+00 3.0030999999999633e+01 0 0 0
733 2 1.1074500000000002e+01 7.8147245686161639e+00 3.0030999999999633e+01 0 0 0
931 2 8.6135000000000002e+00 4.9730065436648339e+00 3.3184884203465764e+01 0 0 0
951 2 8.6135000000000002e+00 6.3938655561404980e+00 3.3184884203465764e+01 0 0 0
953 2 9.8440000000000012e+00 4.2625770374270004e+00 3.3184884203465764e+01 0 0 0
954 2 1.1074500000000002e+01 4.9730065436648339e+00 3.3184884203465764e+01 0 0 0
975 2 1.1074500000000002e+01 6.3938655561404980e+00 3.3184884203465764e+01 0 0 0
952 2 9.8440000000000012e+00 7.1042950623783341e+00 3.3184884203465764e+01 0 0 0
571 2 0.0000000000000000e+00 9.9460130873296642e+00 3.0030999999999633e+01 0 0 0
573 2 0.0000000000000000e+00 8.5251540748539991e+00 3.0030999999999633e+01 0 0 0
600 2 2.4610000000000003e+00 9.9460130873296642e+00 3.0030999999999633e+01 0 0 0
602 2 2.4610000000000003e+00 8.5251540748539991e+00 3.0030999999999633e+01 0 0 0
596 2 1.2305000000000001e+00 1.2077301606043163e+01 3.0030999999999633e+01 0 0 0
598 2 1.2305000000000001e+00 1.0656442593567498e+01 3.0030999999999633e+01 0 0 0
633 2 3.6914999999999996e+00 1.2077301606043163e+01 3.0030999999999633e+01 0 0 0
635 2 3.6914999999999996e+00 1.0656442593567499e+01 3.0030999999999633e+01 0 0 0
892 2 0.0000000000000000e+00 8.5251540748539991e+00 3.3184884203465764e+01 0 0 0
893 2 1.2305000000000001e+00 9.2355835810918343e+00 3.3184884203465764e+01 0 0 0
907 2 2.4610000000000003e+00 8.5251540748539991e+00 3.3184884203465764e+01 0 0 0
908 2 3.6915000000000004e+00 9.2355835810918343e+00 3.3184884203465764e+01 0 0 0
891 2 0.0000000000000000e+00 1.1366872099805333e+01 3.3184884203465764e+01 0 0 0
905 2 1.2305000000000001e+00 1.0656442593567498e+01 3.3184884203465764e+01 0 0 0
906 2 2.4610000000000003e+00 1.1366872099805333e+01 3.3184884203465764e+01 0 0 0
924 2 3.6914999999999996e+00 1.0656442593567499e+01 3.3184884203465764e+01 0 0 0
637 2 4.9220000000000006e+00 9.9460130873296642e+00 3.0030999999999633e+01 0 0 0
639 2 4.9220000000000006e+00 8.5251540748539991e+00 3.0030999999999633e+01 0 0 0
682 2 7.3830000000000009e+00 9.9460130873296642e+00 3.0030999999999633e+01 0 0 0
684 2 7.3830000000000009e+00 8.5251540748539991e+00 3.0030999999999633e+01 0 0 0
678 2 6.1524999999999999e+00 1.2077301606043163e+01 3.0030999999999633e+01 0 0 0
680 2 6.1524999999999999e+00 1.0656442593567499e+01 3.0030999999999633e+01 0 0 0
926 2 4.9220000000000006e+00 8.5251540748539991e+00 3.3184884203465764e+01 0 0 0
927 2 6.1524999999999999e+00 9.2355835810918343e+00 3.3184884203465764e+01 0 0 0
949 2 7.3830000000000009e+00 8.5251540748539991e+00 3.3184884203465764e+01 0 0 0
925 2 4.9220000000000006e+00 1.1366872099805333e+01 3.3184884203465764e+01 0 0 0
947 2 6.1524999999999999e+00 1.0656442593567499e+01 3.3184884203465764e+01 0 0 0
948 2 7.3829999999999991e+00 1.1366872099805333e+01 3.3184884203465764e+01 0 0 0
729 2 9.8440000000000012e+00 9.9460130873296642e+00 3.0030999999999633e+01 0 0 0
731 2 9.8440000000000012e+00 8.5251540748539956e+00 3.0030999999999633e+01 0 0 0
725 2 8.6135000000000002e+00 1.2077301606043163e+01 3.0030999999999633e+01 0 0 0
727 2 8.6134999999999984e+00 1.0656442593567498e+01 3.0030999999999633e+01 0 0 0
772 2 1.1074500000000002e+01 1.2077301606043163e+01 3.0030999999999633e+01 0 0 0
774 2 1.1074500000000002e+01 1.0656442593567498e+01 3.0030999999999633e+01 0 0 0
950 2 8.6134999999999984e+00 9.2355835810918343e+00 3.3184884203465764e+01 0 0 0
973 2 9.8440000000000012e+00 8.5251540748539956e+00 3.3184884203465764e+01 0 0 0
974 2 1.1074500000000002e+01 9.2355835810918343e+00 3.3184884203465764e+01 0 0 0
971 2 8.6134999999999984e+00 1.0656442593567498e+01 3.3184884203465764e+01 0 0 0
972 2 9.8440000000000012e+00 1.1366872099805333e+01 3.3184884203465764e+01 0 0 0
995 2 1.1074500000000002e+01 1.0656442593567498e+01 3.3184884203465764e+01 0 0 0
996 2 1.2304999999999998e+01 1.1366872099805333e+01 3.3184884203465764e+01 0 0 0
2898 1 1.6005290566960841e+00 3.4009811775735788e+00 3.5737294902078681e+01 1 0 0
1302 1 3.6389021611410033e-01 9.0901151150628612e-01 3.5848014242910750e+01 0 0 0
3306 1 2.4030790703152310e-01 7.8181356978365351e+00 3.8413560714552965e+01 1 0 -1
1965 1 7.4326125509101670e+00 1.6326894588698906e+00 3.6012181403703551e+01 0 0 0
2990 1 5.7050520470017965e+00 3.2640081615682233e+00 3.9047393232455107e+01 1 1 0
1529 1 4.4514875168870942e+00 3.0183016621673859e+00 3.6151948712267412e+01 0 1 0
1868 1 9.7741557244284116e-01 1.0386734460519060e+01 4.2598861446528332e+01 0 0 0
3130 1 1.0651288027694553e+01 1.6938402335859040e+00 3.5353533390695183e+01 0 1 0
2079 1 1.1969852843323311e+01 8.0016347477883798e+00 3.5614266244413635e+01 1 0 0
3573 1 3.2665708307233503e+00 6.9471844671410174e+00 3.5711008687741725e+01 1 1 0
2833 1 2.8415495249560663e+00 6.8120799327396560e+00 3.8335128801457699e+01 1 1 -1
2864 1 5.7707493977295590e+00 5.2928563110357878e+00 3.5567360076238387e+01 0 0 0
1549 1 6.8736370095756660e+00 6.1398067844037563e+00 3.7819023554962087e+01 0 1 0
4911 1 8.7488115055902789e+00 4.2283637087035730e+00 3.5600522712669509e+01 2 0 -1
356 1 9.3182058170563575e+00 7.0509108031854337e+00 3.5515088409227729e+01 1 0 0
4723 1 9.0385363696621539e+00 4.9510393937899222e+00 3.8820334897719071e+01 0 1 0
372 1 8.2817157334412492e+00 9.0398147508929014e+00 3.8527332632779476e+01 0 0 0
3081 1 1.0699475563972817e+01 7.5130303771262117e+00 3.8097302587221385e+01 1 1 0
1768 1 7.8384678752357333e+00 1.1690119435261668e+01 3.5671693700947742e+01 0 1 -1
122 1 2.0467659497509487e+00 1.1628041777227871e+01 3.6213118505188717e+01 0 0 0
65 1 1.0639299601436186e+01 8.5742861908472463e+00 4.2960639216053266e+01 0 0 -1
3016 1 6.9103622025597637e+00 8.9530457037210471e+00 3.5838431412013740e+01 -1 1 -1
3177 1 4.0079845877878117e+00 9.6324236007880852e+00 3.5967234744829753e+01 1 1 -1
2821 1 4.4330712538652550e-01 7.6309849479448577e-01 3.8792496055096869e+01 1 1 -1
3386 1 1.0512576696232628e+01 1.2099308215954990e+01 3.5823471167970276e+01 0 0 -1
3717 1 1.9830482604115736e+00 4.2863299696542860e+00 3.8693190614506811e+01 1 1 0
3151 1 7.9704090769194140e+00 1.1281794158650422e+01 4.1077846276261887e+01 -1 1 -1
5086 1 1.5931623812214339e+00 3.2854337870056556e+00 4.1606837118276395e+01 0 -1 0
2094 1 3.1512575399989333e+00 1.8152202777891717e+00 3.9527835779928871e+01 1 1 -1
2034 1 8.1918174104685040e+00 2.0334142193980367e+00 3.8642731514966897e+01 1 1 -1
1988 1 3.3190752981608656e+00 1.1949661527313134e+01 4.2020586442502349e+01 1 1 -1
3504 1 1.0430003431494407e+01 1.5496196642915092e+00 4.2154325372507763e+01 1 0 -1
6046 1 8.5807480372416460e+00 8.1452043771187270e+00 4.1407434091705376e+01 0 1 -1
3026 1 5.3972112343549128e+00 4.5351009476395108e+00 4.1494372378291558e+01 1 2 -1
540 1 5.1896887511000083e+00 7.8403697304848885e+00 3.9488637412624534e+01 0 0 0
3155 1 4.8436435771294359e+00 6.9418466671832384e+00 4.2957811377249925e+01 0 1 0
6321 1 8.2269425642191720e+00 5.4216084394657518e+00 4.1409905200649135e+01 1 1 -1
3550 1 2.6753096447999929e+00 1.1887054083187174e+01 3.9276600650250465e+01 1 0 -1
1333 1 1.0428011105339793e+01 4.2432266535094358e+00 4.2776708172795885e+01 2 0 0
3063 1 4.6974701444485731e+00 1.0451036822897656e+01 3.8479285978814481e+01 0 0 0
2974 1 4.3813034792438561e+00 1.6423971512167693e-01 3.5741960466094540e+01 1 2 0
209 1 1.0456271866564627e+01 1.1422582050647232e+01 4.2805335445614404e+01 0 0 -1
6044 1 7.0369514582080770e+00 1.2160724864611279e+01 3.8400723598805619e+01 1 1 0
5206 1 1.0181109754487371e+01 1.1339899800936053e+01 3.8406068499412129e+01 0 0 -1
1791 1 1.0542687735228952e+01 4.0386885485557328e-01 3.9310919378050521e+01 1 1 -1
4502 1 5.7944898609295681e+00 1.1384730273104610e+01 4.3221274878867007e+01 0 1 0
3493 1 1.2111006964356685e+01 4.8992636116064032e+00 3.9198638438931546e+01 0 0 0
1324 1 4.8878373142031251e-02 7.2571920626285440e+00 3.5930427888095160e+01 1 0 0
1359 1 1.2161235750576793e-01 1.0525695828912321e+01 3.8706161280603538e+01 0 0 -1
1257 1 2.5639367263489672e+00 1.2649084143527958e+00 4.5483499138676464e+01 1 0 0
4661 1 1.7938643055473551e+00 3.8611974805503486e+00 4.6074859147439589e+01 1 1 -1
1478 1 7.5859595927011840e+00 8.8827728394449845e-01 5.1091990324169402e+01 1 0 0
1352 1 6.5641552274160064e+00 1.7272047618958108e+00 4.5484457401652968e+01 0 1 0
4743 1 1.1781871629209896e+01 3.9675717011989562e+00 4.5651775869064636e+01 0 0 -1
355 1 3.8532756269141442e+00 5.4513419892893937e+00 4.6781073124886468e+01 1 0 -1
4684 1 2.1085880976365932e+00 7.7752618181251636e+00 4.3407393945137869e+01 0 0 -1
1497 1 2.7766897028323090e+00 8.2125445286868359e+00 4.5815605725808808e+01 1 0 0
9 1 5.6293676045782250e+00 4.9190562861199929e+00 4.4715709016532145e+01 0 1 0
1827 1 5.8486780679391570e+00 8.2082989167859548e+00 4.6195503594707105e+01 0 -1 -1
4713 1 7.8397053621658888e+00 5.9653371105779911e+00 4.6182614965043918e+01 0 1 -1
6113 1 1.0059306675088010e+01 6.4854533146195203e+00 4.4973564048303729e+01 0 1 0
5159 1 1.1297516291149631e+01 1.0728291987723077e+01 5.5239075814322440e+01 0 0 -1
5199 1 3.2601690573455628e+00 3.6059067767419353e+00 5.5797949910552710e+01 1 0 -1
536 1 8.7910499684285526e+00 9.9924353000829935e+00 5.5549309318080986e+01 0 0 0
4965 1 3.0679192589652833e+00 1.1194961943426652e+01 4.6735068133299158e+01 0 0 -1
3435 1 5.7252459897369610e+00 1.1074498159446549e+01 4.5989552129773848e+01 0 0 0
139 1 7.4639493721581376e+00 1.0647103241843391e+01 4.8269895527990585e+01 1 0 0
1338 1 6.5087024738023587e+00 8.8494250669880259e+00 4.3273780971766172e+01 0 -1 0