LAMMPS data file via write_data, version 16 Mar 2018, timestep = 8000000

6328 atoms
2 atom types

0.0000000000000000e+00 4.9219999999999999e+01 xlo xhi
0.0000000000000000e+00 4.9019635930410494e+01 ylo yhi
2.0826009355509854e+00 5.7979399064441381e+01 zlo zhi

Masses

1 18.015
2 12.01

Atoms # atomic

5099 1 3.4839985325925218e+00 1.0597427597844087e+00 2.7319455516585212e+00 1 -4 0
165 1 3.2681772734761556e+00 1.5315362925162335e+00 5.5163658228252714e+00 2 3 0
6294 1 7.8124034706523169e+00 1.9263506586616603e+00 2.7210466021126676e+00 -3 0 1
1726 1 7.6805731884232475e+00 1.6951582913644585e+00 5.4020115947138905e+00 2 -1 1
1610 1 1.1620014648052290e+01 1.2009092459303806e+01 1.0316960785022978e+01 3 0 0
2917 1 8.4783810022760098e-01 5.0127056468529831e+00 3.1079417405183896e+00 0 -1 1
6044 1 6.4595751295470383e-01 5.1145179336361855e+00 5.7975599368302433e+00 1 0 1
3405 1 5.1057147725165590e+00 5.1875787005803282e+00 2.9798173415578058e+00 0 1 1
3096 1 1.2057793182788412e+01 4.4697300314459731e+00 9.9153124444057141e+00 -6 1 2
242 1 9.9362716294596929e+00 5.6125796649612107e+00 2.6658806584429624e+00 -2 -2 0
4516 1 7.4954034269868304e+00 1.1612323694926092e+01 1.3008903196452875e+01 -1 0 1
294 1 2.9594953229514753e+00 9.0969588332350479e+00 3.4602765432483653e+00 7 3 0
167 1 2.6385796690403827e+00 8.9860993639935618e+00 6.0716168192321245e+00 -4 -7 0
4835 1 7.4494840893027110e+00 9.1883318449639280e+00 2.8558175092819771e+00 -2 4 0
440 1 7.0532621389962298e+00 9.2103960624368337e+00 5.5291503669014972e+00 -1 1 0
6112 1 1.2041396734204959e+01 9.4006059234927282e+00 1.3836445805668427e+01 4 -1 0
4531 1 2.0422696271552837e-01 7.0011885974976114e+00 1.3084534563806878e+01 0 -1 1
4806 1 8.2765162617442500e-01 2.4720051817596742e+00 6.5350705986635589e+00 -1 2 0
2967 1 8.5420963989590482e-01 2.4655281579716526e+00 9.0956173241927427e+00 6 2 1
3226 1 5.4846129069608596e+00 2.5528131314923761e+00 6.5040231126884080e+00 6 -3 1
1459 1 5.0999198001416977e+00 2.4361384155767243e+00 9.1884938858525231e+00 2 2 1
2933 1 9.9589110565256345e+00 3.0427315174513083e+00 6.0557969585358400e+00 -1 -2 1
5259 1 2.8857988341970762e+00 6.4584768283292533e+00 6.8497783842491966e+00 -1 0 0
1481 1 5.3420964330245253e+00 5.2957101142992205e+00 5.7523738369641340e+00 -3 3 1
1628 1 7.5181422616950311e+00 6.6075497753911909e+00 6.4365161334376406e+00 2 -3 0
1263 1 9.9450961588830911e+00 5.6718443995579921e+00 5.4340741437097302e+00 2 -1 1
2918 1 2.4419712073218613e-01 4.2336714322968323e+00 1.3612213854004516e+01 1 0 0
6186 1 4.8435995803349091e-02 1.1982457980893008e+01 1.3765169230960538e+01 1 0 0
414 1 4.7907087269172344e+00 1.0249086487088936e+01 6.9632301769416767e+00 -4 -2 0
4504 1 9.2351420327624485e+00 1.0409789826368057e+01 6.6205327114985906e+00 3 -3 1
5049 1 1.1766506710066581e+01 7.2171132388173804e+00 9.3383950812931324e+00 2 0 0
5236 1 3.0634800582376562e+00 3.7112973612689073e+00 1.0147297861646880e+01 3 0 0
1799 1 7.1749148707665356e+00 9.0260225939831287e+00 1.4077035129281567e+01 1 3 0
288 1 9.8331330129239625e+00 3.0879152261870013e+00 8.8040974261943177e+00 -3 2 1
6224 1 1.0085228555283448e+01 5.6118622108619165e-01 9.9004115081868047e+00 -4 2 0
4577 1 2.7332491976071647e+00 6.4902713758654862e+00 9.6219849846823546e+00 1 -3 1
1363 1 2.3480219790043906e+00 1.1528920832186188e+01 1.2551149800227622e+01 0 4 0
2949 1 7.2197355273750734e+00 4.0038884171863112e+00 9.8260864676702102e+00 -1 -1 1
3122 1 6.9190174404406735e+00 6.6992345137935994e+00 9.1449160428634322e+00 0 2 1
1683 1 4.8685333932650838e+00 7.7595899716407155e+00 1.0502544855609420e+01 0 -3 0
1650 1 1.1962859720631640e+01 1.2151206689938121e+01 1.3137043279192131e+01 -3 0 0
439 1 5.3547320392166027e+00 2.8602363150917787e-01 1.2937839987279011e+01 1 2 1
1464 1 2.3537198426861434e+00 1.1326532626415682e+01 1.0102979801591429e+01 -3 4 1
386 1 4.9335014308108756e+00 1.0395942612711478e+01 9.6628119602106004e+00 -4 0 0
6221 1 7.4258382836031398e+00 1.1705104606403800e+01 1.0501243134098361e+01 4 3 0
379 1 9.3308380911165170e+00 8.1780783665784185e+00 1.0112629676255859e+01 2 5 0
5276 1 9.5465745941484510e+00 1.0413937908699276e+01 9.3395421958124665e+00 -4 1 1
1289 1 1.1841451021484172e+01 9.6600103921818583e+00 5.6059978129334826e+00 3 -2 1
5028 1 2.8873895280948418e+00 3.8169816724294838e+00 1.3058443066618754e+01 0 0 0
2070 1 2.7267969092377045e+00 9.9441766114904628e-01 1.3794203800235362e+01 -1 0 0
2862 1 7.9969054312577921e+00 1.5936953072580877e+00 1.3776854078047384e+01 -1 2 1
1653 1 7.5881154630695109e+00 4.1375019998413460e+00 1.2582291860047009e+01 2 4 0
3317 1 1.0386042059834825e+01 6.2517521708679225e-01 1.2730441673063439e+01 1 -2 1
6099 1 2.1527242330446431e-01 9.9976099263544818e+00 6.5641119204568303e+00 0 -1 1
3561 1 1.2184876313498068e+01 1.7818682315110437e+00 5.4669166257156014e+00 3 -2 1
2926 1 4.7213981765290542e+00 7.5442859139306622e+00 1.3199121563966928e+01 -1 -1 1
4933 1 4.9590436523959003e+00 5.1110273076120256e+00 1.3945144882492679e+01 -2 -2 1
3462 1 9.6744751518561856e+00 8.3375196592651957e+00 1.2797805419784387e+01 -1 -4 0
4714 1 9.9196876445849469e+00 5.5772021088258636e+00 1.3451000836413613e+01 0 3 1
1632 1 2.2338986702497756e+00 8.7042498943940476e+00 1.3615369095458403e+01 1 1 1
1987 1 1.1771800693035074e+01 9.7307243271109289e+00 2.6482245358608330e+00 -7 -2 0
3496 1 3.4528436508052912e-01 7.3493755132339746e+00 1.0464895243678082e+01 0 -2 0
6252 1 1.2114961206183327e+01 7.0336706511428435e+00 6.5813697828977658e+00 -4 0 0
4506 1 1.2215128242634993e+01 1.9029018547625420e+00 1.6047685298675411e+01 1 3 1
5054 1 5.9239592385749162e+00 2.0340541572028312e-01 2.1120254259136320e+00 -2 1 1
6031 1 9.3817771877680611e-01 7.6864925261239305e+00 2.3764318051759421e+00 -3 5 1
3506 1 5.1648676571537813e+00 7.7417862715309056e+00 2.3632588654352920e+00 1 -1 0
5077 1 7.3259974272425499e+00 1.1865156575938414e+01 2.1259874865968484e+00 -2 -1 1
4908 1 2.8199693566300836e+00 1.2527346425918768e+00 1.6566449725869141e+01 1 3 1
5068 1 4.4998948137026457e-01 2.2828180180550022e+00 1.7460163642061630e+01 5 4 0
5196 1 5.2722027769214010e+00 2.5743706530881196e+00 1.7403545897193631e+01 1 5 0
6084 1 1.1384066434495519e+01 1.2126553357481933e+01 2.3997322623817539e+01 -2 3 1
1803 1 9.8164788735565125e+00 3.0464484867416468e+00 1.6862044194022467e+01 3 -2 0
5185 1 2.6200551262784839e+00 6.0637299085574599e+00 1.7360405691790994e+01 2 -1 1
17 1 1.1890688039585877e+01 9.0929115957308966e+00 2.1128157244719034e+01 2 -2 0
4496 1 1.2123531923886741e+01 6.5198016146169486e+00 2.0158983564666421e+01 -3 1 1
1410 1 7.3890323102708084e+00 6.5085201892247495e+00 1.7689000377707600e+01 1 -1 1
1335 1 9.6743350242289363e+00 5.5904237575905009e+00 1.6378999370345426e+01 0 -2 1
4819 1 2.9160922329282566e+00 7.2810623927256679e-01 2.3517879141739577e+01 2 3 1
5303 1 1.1624716379029532e+01 9.4294529889866538e+00 2.3946945230061008e+01 0 1 1
4575 1 1.2126868182034775e+01 9.4136616073025081e+00 1.6460525132233080e+01 2 5 1
1864 1 4.8473759303472077e+00 1.0156905793453944e+01 1.7148143156159556e+01 4 -1 0
142 1 7.6353597188755584e+00 9.0683139399204240e+00 1.6688205144628647e+01 1 4 0
4974 1 9.8630686056997838e+00 1.0262103434789319e+01 1.7570674643764058e+01 1 4 0
640 2 6.1524999999999999e+00 9.2355835810918343e+00 2.6695349971888685e+01 0 0 0
3083 1 2.9980501528003582e+00 1.0177020274511825e+00 2.1080103266906335e+01 0 -2 0
148 1 4.9500159948150984e+00 5.2329964843672423e+00 1.6555472677623676e+01 0 -1 0
4949 1 5.2216584306570306e+00 2.6251959411567394e+00 1.9982989622193095e+01 3 3 0
275 1 7.3798786802896155e+00 1.5284829452768112e+00 2.1107363383761804e+01 0 -3 0
2894 1 9.7243992691751036e+00 2.3839384176239435e+00 1.9931918457483462e+01 -1 -3 1
773 2 1.1074500000000002e+01 1.0656442593567498e+01 2.6695349971888685e+01 0 0 0
4625 1 2.5963152175228874e+00 6.1918035810326213e+00 2.0181782648389067e+01 -3 0 1
3232 1 3.6695111136700165e-01 4.5576901590906935e+00 2.1137747835600617e+01 4 1 1
1604 1 5.0757485552669008e+00 5.1528581366856718e+00 2.1002850821553473e+01 0 -3 1
4781 1 7.4186782304856962e+00 6.4633843070723822e+00 2.0556388203788128e+01 -1 -1 1
2989 1 7.6323095953715994e+00 1.4420588235964080e+00 1.6565289969414053e+01 2 -1 0
1393 1 9.7682875270244907e+00 5.0118504812824272e+00 2.0784437851396646e+01 -2 0 1
2085 1 2.3338394691996647e+00 8.7007902932080619e+00 2.1249730511796603e+01 0 0 1
4584 1 3.8045836358002705e-01 4.8515366969334286e+00 1.6611677693318125e+01 -1 2 1
726 2 8.6134999999999984e+00 1.0656442593567498e+01 2.6695349971888685e+01 0 0 0
2027 1 4.5194654742801115e+00 1.0186544535918486e+01 1.9863648187378669e+01 2 0 1
4607 1 7.0090323168090132e+00 9.1630534237029693e+00 2.1012041969653659e+01 -1 2 0
775 2 1.2304999999999998e+01 1.1366872099805333e+01 2.6695349971888685e+01 0 0 0
3439 1 4.8025980659052292e-01 1.2071413069530859e+01 1.6541894610605041e+01 3 4 0
6043 1 9.4598684536190074e+00 1.0191347994189996e+01 2.0278718105600252e+01 1 3 1
1303 1 2.8390882580398751e+00 3.3607426341379680e+00 2.4211955675345049e+01 3 0 1
10 1 7.4128756142796064e+00 9.2897017786070235e-01 2.3778412316551307e+01 4 1 0
1873 1 7.3458199304893839e+00 3.7120535175940379e+00 2.4172072876425123e+01 -4 -2 0
728 2 9.8440000000000012e+00 1.1366872099805333e+01 2.6695349971888685e+01 0 0 0
6007 1 4.9889379875319939e-01 2.0163077294687604e+00 2.0142803990338095e+01 -2 1 0
732 2 1.1074500000000002e+01 9.2355835810918343e+00 2.6695349971888685e+01 0 0 0
1795 1 5.0732346328525013e+00 4.7561135619363357e+00 2.3817489295435195e+01 2 3 0
304 1 5.1206824068698671e+00 7.2848254180182392e+00 2.4181251836808375e+01 2 0 0
4750 1 9.7006982084501132e+00 5.2556614481452790e+00 2.3246989650665281e+01 3 3 1
270 1 9.3843190146188498e+00 7.8876128290056577e+00 2.4401272550933541e+01 7 1 1
730 2 9.8440000000000012e+00 8.5251540748539956e+00 2.6695349971888685e+01 0 0 0
9 1 2.5465570111351781e+00 8.6315294758836547e+00 2.4083987768636131e+01 2 4 1
1999 1 2.3548402700836859e+00 1.1555089886882834e+01 2.3846297539848713e+01 1 1 0
537 1 7.0480091878158779e+00 9.2899679698726523e+00 2.3741655304819389e+01 0 1 1
4711 1 9.5727873978134759e-02 9.6241042935727688e+00 1.7614972458294119e+01 0 2 0
4440 1 2.9786903841098217e-01 4.6092275541260248e+00 2.3751797050903154e+01 2 1 1
685 2 8.6134999999999984e+00 9.2355835810918343e+00 2.6695349971888685e+01 0 0 0
552 2 0.0000000000000000e+00 2.8417180249513345e+00 2.6695349971888685e+01 0 0 0
554 2 0.0000000000000000e+00 0.0000000000000000e+00 2.6695349971888685e+01 0 0 0
556 2 1.2305000000000001e+00 7.1042950623783474e-01 2.6695349971888685e+01 0 0 0
563 2 1.2305000000000001e+00 2.1312885187134998e+00 2.6695349971888685e+01 0 0 0
565 2 2.4610000000000003e+00 2.8417180249513345e+00 2.6695349971888685e+01 0 0 0
567 2 2.4610000000000003e+00 0.0000000000000000e+00 2.6695349971888685e+01 0 0 0
569 2 3.6915000000000004e+00 7.1042950623783474e-01 2.6695349971888685e+01 0 0 0
584 2 3.6914999999999996e+00 2.1312885187134998e+00 2.6695349971888685e+01 0 0 0
586 2 4.9220000000000006e+00 2.8417180249513332e+00 2.6695349971888685e+01 0 0 0
588 2 4.9220000000000006e+00 0.0000000000000000e+00 2.6695349971888685e+01 0 0 0
590 2 6.1524999999999999e+00 7.1042950623783407e-01 2.6695349971888685e+01 0 0 0
613 2 6.1524999999999999e+00 2.1312885187134989e+00 2.6695349971888685e+01 0 0 0
615 2 7.3829999999999991e+00 2.8417180249513345e+00 2.6695349971888685e+01 0 0 0
617 2 7.3829999999999991e+00 0.0000000000000000e+00 2.6695349971888685e+01 0 0 0
619 2 8.6134999999999984e+00 7.1042950623783407e-01 2.6695349971888685e+01 0 0 0
650 2 8.6134999999999984e+00 2.1312885187135002e+00 2.6695349971888685e+01 0 0 0
652 2 9.8440000000000012e+00 2.8417180249513332e+00 2.6695349971888685e+01 0 0 0
654 2 9.8440000000000012e+00 0.0000000000000000e+00 2.6695349971888685e+01 0 0 0
656 2 1.1074500000000002e+01 7.1042950623783330e-01 2.6695349971888685e+01 0 0 0
695 2 1.1074500000000002e+01 2.1312885187135002e+00 2.6695349971888685e+01 0 0 0
559 2 0.0000000000000000e+00 4.2625770374269996e+00 2.6695349971888685e+01 0 0 0
561 2 1.2305000000000001e+00 4.9730065436648339e+00 2.6695349971888685e+01 0 0 0
576 2 1.2305000000000001e+00 6.3938655561404980e+00 2.6695349971888685e+01 0 0 0
580 2 2.4610000000000003e+00 4.2625770374269996e+00 2.6695349971888685e+01 0 0 0
582 2 3.6914999999999996e+00 4.9730065436648339e+00 2.6695349971888685e+01 0 0 0
605 2 3.6914999999999996e+00 6.3938655561404980e+00 2.6695349971888685e+01 0 0 0
557 2 0.0000000000000000e+00 7.1042950623783341e+00 2.6695349971888685e+01 0 0 0
578 2 2.4610000000000003e+00 7.1042950623783341e+00 2.6695349971888685e+01 0 0 0
609 2 4.9220000000000006e+00 4.2625770374269978e+00 2.6695349971888685e+01 0 0 0
611 2 6.1524999999999999e+00 4.9730065436648339e+00 2.6695349971888685e+01 0 0 0
642 2 6.1524999999999999e+00 6.3938655561404980e+00 2.6695349971888685e+01 0 0 0
646 2 7.3829999999999991e+00 4.2625770374269996e+00 2.6695349971888685e+01 0 0 0
607 2 4.9220000000000006e+00 7.1042950623783341e+00 2.6695349971888685e+01 0 0 0
644 2 7.3830000000000009e+00 7.1042950623783341e+00 2.6695349971888685e+01 0 0 0
648 2 8.6135000000000002e+00 4.9730065436648339e+00 2.6695349971888685e+01 0 0 0
687 2 8.6135000000000002e+00 6.3938655561404980e+00 2.6695349971888685e+01 0 0 0
691 2 9.8440000000000012e+00 4.2625770374270004e+00 2.6695349971888685e+01 0 0 0
693 2 1.1074500000000002e+01 4.9730065436648339e+00 2.6695349971888685e+01 0 0 0
734 2 1.1074500000000002e+01 6.3938655561404980e+00 2.6695349971888685e+01 0 0 0
689 2 9.8440000000000012e+00 7.1042950623783341e+00 2.6695349971888685e+01 0 0 0
601 2 2.4610000000000003e+00 8.5251540748539991e+00 2.6695349971888685e+01 0 0 0
597 2 1.2305000000000001e+00 1.0656442593567498e+01 2.6695349971888685e+01 0 0 0
603 2 3.6915000000000004e+00 9.2355835810918343e+00 2.6695349971888685e+01 0 0 0
570 2 0.0000000000000000e+00 1.1366872099805333e+01 2.6695349971888685e+01 0 0 0
634 2 3.6914999999999996e+00 1.0656442593567499e+01 2.6695349971888685e+01 0 0 0
572 2 0.0000000000000000e+00 8.5251540748539991e+00 2.6695349971888685e+01 0 0 0
599 2 2.4610000000000003e+00 1.1366872099805333e+01 2.6695349971888685e+01 0 0 0
574 2 1.2305000000000001e+00 9.2355835810918343e+00 2.6695349971888685e+01 0 0 0
636 2 4.9220000000000006e+00 1.1366872099805333e+01 2.6695349971888685e+01 0 0 0
681 2 7.3829999999999991e+00 1.1366872099805333e+01 2.6695349971888685e+01 0 0 0
679 2 6.1524999999999999e+00 1.0656442593567499e+01 2.6695349971888685e+01 0 0 0
683 2 7.3830000000000009e+00 8.5251540748539991e+00 2.6695349971888685e+01 0 0 0
638 2 4.9220000000000006e+00 8.5251540748539991e+00 2.6695349971888685e+01 0 0 0
497 1 2.5613145189959416e+00 8.6341298714807024e+00 1.6468539876949833e+01 1 3 1
3099 1 1.2178301618916370e+01 1.4380240366129284e+00 2.1089090354215468e+01 -2 7 1
1669 1 1.1980957225922230e+01 3.9447202441939400e+00 2.4359247347497146e+01 -2 0 0
1922 1 1.2040339183701766e+01 6.7043434644568105e+00 1.7458555357616380e+01 1 4 0
1374 1 6.8872151045084395e+00 1.1932330109047571e+01 2.4445074746149555e+01 -2 1 1
3658 1 1.2078887515063013e+01 1.2615386869405951e+00 2.3726182684524460e+01 -1 -1 0
4830 1 1.4581523999158913e-01 7.3736163088676552e+00 2.4333275161463277e+01 0 -3 0
553 2 0.0000000000000000e+00 1.4208590124756650e+00 3.0030999999996268e+01 0 0 0
555 2 0.0000000000000000e+00 0.0000000000000000e+00 3.0030999999996268e+01 0 0 0
564 2 1.2305000000000001e+00 2.1312885187134998e+00 3.0030999999996268e+01 0 0 0
566 2 2.4610000000000003e+00 1.4208590124756650e+00 3.0030999999996268e+01 0 0 0
568 2 2.4610000000000003e+00 0.0000000000000000e+00 3.0030999999996268e+01 0 0 0
585 2 3.6914999999999996e+00 2.1312885187134998e+00 3.0030999999996268e+01 0 0 0
562 2 1.2305000000000001e+00 3.5521475311891644e+00 3.0030999999996268e+01 0 0 0
583 2 3.6914999999999996e+00 3.5521475311891644e+00 3.0030999999996268e+01 0 0 0
881 2 0.0000000000000000e+00 2.8417180249513345e+00 3.3366650028119736e+01 0 0 0
882 2 0.0000000000000000e+00 0.0000000000000000e+00 3.3366650028119736e+01 0 0 0
883 2 1.2305000000000001e+00 7.1042950623783474e-01 3.3366650028119736e+01 0 0 0
887 2 1.2305000000000001e+00 2.1312885187134998e+00 3.3366650028119736e+01 0 0 0
888 2 2.4610000000000003e+00 2.8417180249513345e+00 3.3366650028119736e+01 0 0 0
889 2 2.4610000000000003e+00 0.0000000000000000e+00 3.3366650028119736e+01 0 0 0
890 2 3.6915000000000004e+00 7.1042950623783474e-01 3.3366650028119736e+01 0 0 0
898 2 3.6914999999999996e+00 2.1312885187134998e+00 3.3366650028119736e+01 0 0 0
587 2 4.9220000000000006e+00 1.4208590124756650e+00 3.0030999999996268e+01 0 0 0
589 2 4.9220000000000006e+00 0.0000000000000000e+00 3.0030999999996268e+01 0 0 0
614 2 6.1524999999999999e+00 2.1312885187134989e+00 3.0030999999996268e+01 0 0 0
616 2 7.3829999999999991e+00 1.4208590124756659e+00 3.0030999999996268e+01 0 0 0
618 2 7.3829999999999991e+00 0.0000000000000000e+00 3.0030999999996268e+01 0 0 0
612 2 6.1524999999999999e+00 3.5521475311891644e+00 3.0030999999996268e+01 0 0 0
899 2 4.9220000000000006e+00 2.8417180249513332e+00 3.3366650028119736e+01 0 0 0
900 2 4.9220000000000006e+00 0.0000000000000000e+00 3.3366650028119736e+01 0 0 0
901 2 6.1524999999999999e+00 7.1042950623783407e-01 3.3366650028119736e+01 0 0 0
913 2 6.1524999999999999e+00 2.1312885187134989e+00 3.3366650028119736e+01 0 0 0
914 2 7.3829999999999991e+00 2.8417180249513345e+00 3.3366650028119736e+01 0 0 0
915 2 7.3829999999999991e+00 0.0000000000000000e+00 3.3366650028119736e+01 0 0 0
651 2 8.6134999999999984e+00 2.1312885187135002e+00 3.0030999999996268e+01 0 0 0
653 2 9.8440000000000012e+00 1.4208590124756659e+00 3.0030999999996268e+01 0 0 0
655 2 9.8440000000000012e+00 0.0000000000000000e+00 3.0030999999996268e+01 0 0 0
696 2 1.1074500000000002e+01 2.1312885187135002e+00 3.0030999999996268e+01 0 0 0
649 2 8.6134999999999984e+00 3.5521475311891657e+00 3.0030999999996268e+01 0 0 0
694 2 1.1074500000000002e+01 3.5521475311891644e+00 3.0030999999996268e+01 0 0 0
916 2 8.6134999999999984e+00 7.1042950623783407e-01 3.3366650028119736e+01 0 0 0
932 2 8.6134999999999984e+00 2.1312885187135002e+00 3.3366650028119736e+01 0 0 0
933 2 9.8440000000000012e+00 2.8417180249513332e+00 3.3366650028119736e+01 0 0 0
934 2 9.8440000000000012e+00 0.0000000000000000e+00 3.3366650028119736e+01 0 0 0
935 2 1.1074500000000002e+01 7.1042950623783330e-01 3.3366650028119736e+01 0 0 0
955 2 1.1074500000000002e+01 2.1312885187135002e+00 3.3366650028119736e+01 0 0 0
558 2 0.0000000000000000e+00 5.6834360499026637e+00 3.0030999999996268e+01 0 0 0
560 2 0.0000000000000000e+00 4.2625770374269996e+00 3.0030999999996268e+01 0 0 0
577 2 1.2305000000000001e+00 6.3938655561404980e+00 3.0030999999996268e+01 0 0 0
579 2 2.4610000000000003e+00 5.6834360499026637e+00 3.0030999999996268e+01 0 0 0
581 2 2.4610000000000003e+00 4.2625770374269996e+00 3.0030999999996268e+01 0 0 0
606 2 3.6914999999999996e+00 6.3938655561404980e+00 3.0030999999996268e+01 0 0 0
575 2 1.2305000000000001e+00 7.8147245686161639e+00 3.0030999999996268e+01 0 0 0
604 2 3.6914999999999996e+00 7.8147245686161639e+00 3.0030999999996268e+01 0 0 0
885 2 0.0000000000000000e+00 4.2625770374269996e+00 3.3366650028119736e+01 0 0 0
886 2 1.2305000000000001e+00 4.9730065436648339e+00 3.3366650028119736e+01 0 0 0
894 2 1.2305000000000001e+00 6.3938655561404980e+00 3.3366650028119736e+01 0 0 0
896 2 2.4610000000000003e+00 4.2625770374269996e+00 3.3366650028119736e+01 0 0 0
897 2 3.6914999999999996e+00 4.9730065436648339e+00 3.3366650028119736e+01 0 0 0
909 2 3.6914999999999996e+00 6.3938655561404980e+00 3.3366650028119736e+01 0 0 0
884 2 0.0000000000000000e+00 7.1042950623783341e+00 3.3366650028119736e+01 0 0 0
895 2 2.4610000000000003e+00 7.1042950623783341e+00 3.3366650028119736e+01 0 0 0
608 2 4.9220000000000006e+00 5.6834360499026637e+00 3.0030999999996268e+01 0 0 0
610 2 4.9220000000000006e+00 4.2625770374269978e+00 3.0030999999996268e+01 0 0 0
643 2 6.1524999999999999e+00 6.3938655561404980e+00 3.0030999999996268e+01 0 0 0
645 2 7.3829999999999991e+00 5.6834360499026637e+00 3.0030999999996268e+01 0 0 0
647 2 7.3829999999999991e+00 4.2625770374269996e+00 3.0030999999996268e+01 0 0 0
641 2 6.1524999999999999e+00 7.8147245686161639e+00 3.0030999999996268e+01 0 0 0
911 2 4.9220000000000006e+00 4.2625770374269978e+00 3.3366650028119736e+01 0 0 0
912 2 6.1524999999999999e+00 4.9730065436648339e+00 3.3366650028119736e+01 0 0 0
928 2 6.1524999999999999e+00 6.3938655561404980e+00 3.3366650028119736e+01 0 0 0
930 2 7.3829999999999991e+00 4.2625770374269996e+00 3.3366650028119736e+01 0 0 0
910 2 4.9220000000000006e+00 7.1042950623783341e+00 3.3366650028119736e+01 0 0 0
929 2 7.3830000000000009e+00 7.1042950623783341e+00 3.3366650028119736e+01 0 0 0
688 2 8.6135000000000002e+00 6.3938655561404980e+00 3.0030999999996268e+01 0 0 0
690 2 9.8440000000000012e+00 5.6834360499026637e+00 3.0030999999996268e+01 0 0 0
692 2 9.8440000000000012e+00 4.2625770374270004e+00 3.0030999999996268e+01 0 0 0
735 2 1.1074500000000002e+01 6.3938655561404980e+00 3.0030999999996268e+01 0 0 0
686 2 8.6135000000000002e+00 7.8147245686161639e+00 3.0030999999996268e+01 0 0 0
733 2 1.1074500000000002e+01 7.8147245686161639e+00 3.0030999999996268e+01 0 0 0
931 2 8.6135000000000002e+00 4.9730065436648339e+00 3.3366650028119736e+01 0 0 0
951 2 8.6135000000000002e+00 6.3938655561404980e+00 3.3366650028119736e+01 0 0 0
953 2 9.8440000000000012e+00 4.2625770374270004e+00 3.3366650028119736e+01 0 0 0
954 2 1.1074500000000002e+01 4.9730065436648339e+00 3.3366650028119736e+01 0 0 0
975 2 1.1074500000000002e+01 6.3938655561404980e+00 3.3366650028119736e+01 0 0 0
952 2 9.8440000000000012e+00 7.1042950623783341e+00 3.3366650028119736e+01 0 0 0
571 2 0.0000000000000000e+00 9.9460130873296642e+00 3.0030999999996268e+01 0 0 0
573 2 0.0000000000000000e+00 8.5251540748539991e+00 3.0030999999996268e+01 0 0 0
600 2 2.4610000000000003e+00 9.9460130873296642e+00 3.0030999999996268e+01 0 0 0
602 2 2.4610000000000003e+00 8.5251540748539991e+00 3.0030999999996268e+01 0 0 0
596 2 1.2305000000000001e+00 1.2077301606043163e+01 3.0030999999996268e+01 0 0 0
598 2 1.2305000000000001e+00 1.0656442593567498e+01 3.0030999999996268e+01 0 0 0
633 2 3.6914999999999996e+00 1.2077301606043163e+01 3.0030999999996268e+01 0 0 0
635 2 3.6914999999999996e+00 1.0656442593567499e+01 3.0030999999996268e+01 0 0 0
892 2 0.0000000000000000e+00 8.5251540748539991e+00 3.3366650028119736e+01 0 0 0
893 2 1.2305000000000001e+00 9.2355835810918343e+00 3.3366650028119736e+01 0 0 0
907 2 2.4610000000000003e+00 8.5251540748539991e+00 3.3366650028119736e+01 0 0 0
908 2 3.6915000000000004e+00 9.2355835810918343e+00 3.3366650028119736e+01 0 0 0
891 2 0.0000000000000000e+00 1.1366872099805333e+01 3.3366650028119736e+01 0 0 0
905 2 1.2305000000000001e+00 1.0656442593567498e+01 3.3366650028119736e+01 0 0 0
906 2 2.4610000000000003e+00 1.1366872099805333e+01 3.3366650028119736e+01 0 0 0
924 2 3.6914999999999996e+00 1.0656442593567499e+01 3.3366650028119736e+01 0 0 0
637 2 4.9220000000000006e+00 9.9460130873296642e+00 3.0030999999996268e+01 0 0 0
639 2 4.9220000000000006e+00 8.5251540748539991e+00 3.0030999999996268e+01 0 0 0
682 2 7.3830000000000009e+00 9.9460130873296642e+00 3.0030999999996268e+01 0 0 0
684 2 7.3830000000000009e+00 8.5251540748539991e+00 3.0030999999996268e+01 0 0 0
678 2 6.1524999999999999e+00 1.2077301606043163e+01 3.0030999999996268e+01 0 0 0
680 2 6.1524999999999999e+00 1.0656442593567499e+01 3.0030999999996268e+01 0 0 0
926 2 4.9220000000000006e+00 8.5251540748539991e+00 3.3366650028119736e+01 0 0 0
927 2 6.1524999999999999e+00 9.2355835810918343e+00 3.3366650028119736e+01 0 0 0
949 2 7.3830000000000009e+00 8.5251540748539991e+00 3.3366650028119736e+01 0 0 0
925 2 4.9220000000000006e+00 1.1366872099805333e+01 3.3366650028119736e+01 0 0 0
947 2 6.1524999999999999e+00 1.0656442593567499e+01 3.3366650028119736e+01 0 0 0
948 2 7.3829999999999991e+00 1.1366872099805333e+01 3.3366650028119736e+01 0 0 0
729 2 9.8440000000000012e+00 9.9460130873296642e+00 3.0030999999996268e+01 0 0 0
731 2 9.8440000000000012e+00 8.5251540748539956e+00 3.0030999999996268e+01 0 0 0
725 2 8.6135000000000002e+00 1.2077301606043163e+01 3.0030999999996268e+01 0 0 0
727 2 8.6134999999999984e+00 1.0656442593567498e+01 3.0030999999996268e+01 0 0 0
772 2 1.1074500000000002e+01 1.2077301606043163e+01 3.0030999999996268e+01 0 0 0
774 2 1.1074500000000002e+01 1.0656442593567498e+01 3.0030999999996268e+01 0 0 0
950 2 8.6134999999999984e+00 9.2355835810918343e+00 3.3366650028119736e+01 0 0 0
973 2 9.8440000000000012e+00 8.5251540748539956e+00 3.3366650028119736e+01 0 0 0
974 2 1.1074500000000002e+01 9.2355835810918343e+00 3.3366650028119736e+01 0 0 0
971 2 8.6134999999999984e+00 1.0656442593567498e+01 3.3366650028119736e+01 0 0 0
972 2 9.8440000000000012e+00 1.1366872099805333e+01 3.3366650028119736e+01 0 0 0
995 2 1.1074500000000002e+01 1.0656442593567498e+01 3.3366650028119736e+01 0 0 0
996 2 1.2304999999999998e+01 1.1366872099805333e+01 3.3366650028119736e+01 0 0 0
5204 1 1.6027838303052744e+00 1.4560520630599663e+00 3.5927160651264586e+01 4 -2 -1
168 1 1.5036470989628326e+00 3.9929225842380642e+00 3.6605529721113612e+01 4 -3 0
159 1 6.1720542763350252e+00 7.5796821436569173e-01 3.5744797200628881e+01 0 -2 -1
109 1 5.9862849551485846e+00 3.3450149785851910e+00 3.6575567924225261e+01 2 -1 0
2135 1 1.0770089012770917e+01 1.1083161213472605e+00 3.6197299696683416e+01 0 1 0
5178 1 1.0608239406683575e+01 3.7674648109129585e+00 3.6306261851788840e+01 3 3 -1
4961 1 3.7716615105757914e+00 4.4265334250769044e+00 3.5657262042449204e+01 -1 -2 -1
1377 1 3.6732398176106069e+00 7.0247429908629426e+00 3.6579765517445672e+01 -3 0 0
4825 1 8.1903106916310477e+00 7.3696411267147877e+00 3.6444251003414422e+01 -1 1 -1
4511 1 8.2410614519793590e+00 4.9436138897466311e+00 3.5820582412073598e+01 -5 0 0
5037 1 1.2080904996075128e+00 8.3269468941769951e+00 3.5811824043709898e+01 5 0 -1
4646 1 1.1073085244329408e+00 1.1097800569844161e+01 3.6371204158717632e+01 -2 -2 -1
2820 1 5.8000904683242762e+00 8.3731895807376144e+00 3.5721326373478512e+01 -4 1 -1
3032 1 5.7129248271820394e+00 1.0973742318953411e+01 3.6823575732357511e+01 1 3 0
1456 1 1.0380938062164459e+01 8.8974595466277027e+00 3.5624059602760042e+01 4 -1 0
6053 1 1.0219422282221954e+01 1.1197552173075174e+01 3.6821319594842883e+01 5 4 0
2890 1 1.4369061575326583e+00 3.9722431083919139e+00 3.9331867877212076e+01 1 0 0
6059 1 1.9154365981971107e+00 1.4931197952537414e+00 4.0283741160387144e+01 -5 3 -1
507 1 5.8912363199174740e+00 3.5984130309009870e+00 3.9437761229762728e+01 2 -3 0
3176 1 6.0494335626068825e+00 1.0613025062623584e+00 4.0312559506709803e+01 -1 0 -1
1696 1 1.0449303428471799e+01 3.4937419044005105e+00 3.9135391961284625e+01 -1 1 -1
6229 1 1.0491852691203629e+01 1.1161643589962011e+00 4.0394841198950040e+01 -1 0 0
4427 1 3.7144357406483555e+00 7.3256540652506477e+00 3.9239168868165095e+01 -2 -5 0
4833 1 3.7016060138194704e+00 4.8746576879480923e+00 4.0364333730361665e+01 -4 2 -1
4432 1 8.2367739514681801e+00 7.1045088011684729e+00 3.9151158161687832e+01 -3 3 0
5059 1 8.2034887372751957e+00 4.3853194026314259e+00 4.0266225708219082e+01 -1 -2 -1
3299 1 1.5175706182242148e+00 8.4726349137055497e+00 4.0315113335225135e+01 -4 -3 -1
3422 1 1.0759350157707621e+00 1.0887740098583530e+01 3.9195176742924311e+01 1 2 -1
1902 1 5.8182026743693482e+00 1.0823683575128944e+01 3.9446796546477813e+01 -2 3 0
2796 1 5.9033295748916492e+00 8.3528505407378510e+00 4.0319734338475506e+01 0 1 0
2033 1 1.0315501734823320e+01 8.4186861776787669e+00 4.0289976197262902e+01 2 2 0
1426 1 1.0370556982191925e+01 1.1329126406793133e+01 3.9648738229753477e+01 0 -1 0
6013 1 1.3530578152456751e+00 9.0986317851081588e-01 4.2804961912922217e+01 0 -3 0
3390 1 3.3549147366804504e+00 1.2155962006337571e+01 4.2900607675091067e+01 1 -7 0
4474 1 5.8059282452456094e+00 8.8902841013701228e-01 4.3198264075174109e+01 0 6 0
189 1 1.0518685775000927e+01 6.8197327282091225e-01 4.3107733873942202e+01 -1 -1 -1
1565 1 3.7238056319393698e+00 4.5641792455112578e+00 4.3067673481679144e+01 2 3 -1
6319 1 3.3523623033708305e+00 1.2005442157494686e+01 4.0171246368175652e+01 -3 0 0
3104 1 8.1747512028998610e+00 4.2931904868734287e+00 4.3125577430490395e+01 -1 -4 0
1652 1 5.6106535046516370e+00 7.9830805554183479e+00 4.3131342363927310e+01 0 1 -1
3111 1 9.7605085123484603e+00 8.3166846515449464e+00 4.2910383516648608e+01 2 -1 0
3579 1 1.1804671992157689e+00 8.2665892730962103e+00 4.3014092955659862e+01 -4 1 -1
1454 1 1.2298312314317249e+01 7.4332992407116762e+00 3.6468220183792731e+01 4 -1 0
1383 1 7.6305254276152219e+00 1.2226941789779104e+01 4.3141694621918582e+01 -3 6 0
1851 1 1.1925550778976836e+01 9.5867324421172508e+00 4.3809972520693435e+01 -1 -2 0
3240 1 3.4711636491862907e+00 9.4946107546794796e+00 4.3972724522636440e+01 -2 -4 0
1974 1 1.0332632452839325e+01 5.8101917243725660e+00 4.3991469952039516e+01 0 1 -1
1251 1 7.9052232520733901e+00 1.2239065718456249e+01 4.0233498602006321e+01 2 2 -1
3485 1 3.8267820245848663e+00 1.3368204034162801e+00 4.7041770809276798e+01 1 -1 -1
1766 1 5.9274426414530357e+00 3.0753969894902555e+00 4.7839315495504202e+01 -1 -1 -1
3162 1 8.1989779680448560e+00 1.9473547090580408e+00 4.7041770154912797e+01 -4 0 -1
3046 1 1.2288465608973663e+01 9.7960630751929845e+00 5.4432702339969651e+01 1 2 0
1498 1 1.1947093917068339e+00 5.7294104737977412e+00 4.6761922306210209e+01 -3 -2 0
1271 1 5.5983195625522475e+00 5.6644702098188251e+00 4.6864804235850293e+01 5 -6 0
1989 1 7.7098751489654562e+00 6.9640021957248832e+00 4.7795055160402804e+01 2 0 -1
1359 1 1.0204383373229371e+01 5.6771009887490491e+00 4.6820278156994370e+01 1 -2 -1
6144 1 1.2202052386881013e+01 2.2285503339167887e+00 5.1588065914711017e+01 2 -3 -1
311 1 3.2337515192847519e+00 9.5918522101830668e+00 4.6586618979467815e+01 1 -1 -1
3242 1 7.4419648079174223e+00 9.5131173776540869e+00 4.6923545776325504e+01 1 0 -1