
# Create simulation box and atoms

read_data data.ML_graphite_1atm_240K
  orthogonal box = (0 0 3.74403) to (49.22 49.0196 56.318)
  4 by 4 by 4 MPI processor grid
  reading atoms ...
  6328 atoms
  reading velocities ...
  6328 velocities
group water type 1
3568 atoms in group water
group graphite type 2
2760 atoms in group graphite

# Define potential

pair_style sw
pair_coeff * * MLC_e.sw mW C


# Fix graphite atoms in place

fix 5 graphite setforce 0.0 0.0 0.0
velocity graphite set 0.0 0.0 0.0


# Equilibration of molecular water

# Add velocity/set timestep

velocity	    water create ${TEMP} ${SEED} rot yes dist gaussian
velocity	    water create 240 ${SEED} rot yes dist gaussian
velocity	    water create 240 23245 rot yes dist gaussian
timestep	    5.0

# Define output

compute			1 water msd
compute			3 water temp
thermo	    	50
thermo_style	custom step temp press vol etotal ke pe c_1[4] c_3

# Neighbor lists

neigh_modify    delay 0 every 1 check yes

# Set fixes

fix             1 water momentum 10 linear 1 1 1 rescale
fix             2 water nve
fix             3 water temp/csvr ${TEMP} ${TEMP} 500.0 ${SEED}
fix             3 water temp/csvr 240 ${TEMP} 500.0 ${SEED}
fix             3 water temp/csvr 240 240 500.0 ${SEED}
fix             3 water temp/csvr 240 240 500.0 23245
fix             4 water press/berendsen z ${PRES} ${PRES} 1000.0 modulus 20000
fix             4 water press/berendsen z 1 ${PRES} 1000.0 modulus 20000
fix             4 water press/berendsen z 1 1 1000.0 modulus 20000

# Run 0.5 ns equilibration

dump		    1 all atom 2000 ${DIR}/eq.${NAME}-${TEMP}.dump
dump		    1 all atom 2000 run_23/eq.${NAME}-${TEMP}.dump
dump		    1 all atom 2000 run_23/eq.het_freeze_23-${TEMP}.dump
dump		    1 all atom 2000 run_23/eq.het_freeze_23-240.dump

reset_timestep  0

run	            100000
Neighbor list info ...
  update every 1 steps, delay 0 steps, check yes
  max neighbors/atom: 2000, page size: 100000
  master list distance cutoff = 6.67472
  ghost atom cutoff = 6.67472
  binsize = 3.33736, bins = 15 15 16
  1 neighbor lists, perpetual/occasional/extra = 1 0 0
  (1) pair sw, perpetual
      attributes: full, newton on
      pair build: full/bin/atomonly
      stencil: full/bin/3d
      bin: standard
Per MPI rank memory allocation (min/avg/max) = 4.072 | 4.208 | 4.496 Mbytes
Step Temp Press Volume TotEng KinEng PotEng c_1[4] c_3 
       0    135.30583   -58.143592    126847.59   -33960.221    2551.8119   -36512.033            0          240 
      50    138.49105   -489.54075     126863.2    -33933.95    2611.8837   -36545.833   0.50754305     245.6498 
     100     136.1001   -438.44359    126821.57   -33938.171    2566.7914   -36504.962   0.92939235    241.40884 
     150     134.4136   -494.82794    126753.38   -33944.403    2534.9848   -36479.388    1.2128889     238.4174 
     200    138.11309   -464.83307    126686.43   -33969.193    2604.7557   -36573.948    1.4382577    244.97941 
     250    133.72948   -136.87288    126763.51    -33965.75    2522.0826   -36487.832    1.6632757    237.20393 
     300    137.15492   -323.70056       126701   -34000.784     2586.685   -36587.469    1.9298186    243.27984 
     350    133.22554   -346.76737     126710.7   -34017.039    2512.5783   -36529.618    2.1737116    236.31005 
     400    132.35373   -248.52242    126655.15   -34060.617    2496.1364   -36556.753    2.4044304    234.76367 
     450    130.13507   -428.09475    126625.12   -34066.512    2454.2935   -36520.805    2.6526813    230.82832 
     500    135.37561   -249.04676    126663.33   -34062.302    2553.1279    -36615.43    2.9221875    240.12377 
     550    135.39226    51.268945    126826.52   -34038.691    2553.4418   -36592.132    3.1200504     240.1533 
     600    135.42293   -167.52981    126866.81   -34050.548    2554.0204   -36604.568    3.3183665    240.20771 
     650    132.67038   -15.807862    127003.47   -34044.151    2502.1084    -36546.26    3.5707989    235.32535 
     700    138.64127   -286.79916    126995.28   -34039.414    2614.7168   -36654.131    3.7680779    245.91626 
     750    135.70664   -391.61167    127082.14   -34006.237    2559.3709   -36565.608    3.9425467    240.71093 
     800    137.08989   -467.87371    127014.83    -34000.61    2585.4584   -36586.069    4.1239699    243.16448 
     850    135.90695   -65.773624    127077.63   -33982.163    2563.1488   -36545.312    4.2483451    241.06624 
     900    133.71493   -253.54407    127149.28   -34019.387    2521.8081   -36541.195    4.4588487    237.17812 
     950    133.74265   -387.33409    127138.32   -34016.279    2522.3309    -36538.61    4.7023444    237.22729 
    1000    134.46748   -159.86391    127150.19   -34032.143    2536.0009   -36568.144    4.8555052    238.51297 
    1050    131.23281   -202.48986    127208.37   -34062.027    2474.9964   -36537.023      5.05104    232.77545 
    1100    135.27044   -196.43583    127110.01   -34030.116    2551.1444    -36581.26    5.2602518    239.93722 
    1150     134.2966   -82.938255    127260.13    -34050.55    2532.7781   -36583.328    5.4964553    238.20986 
    1200    133.38095   -205.13362    127340.94   -34047.636    2515.5093   -36563.145    5.6921062    236.58572 
    1250    135.32932   -192.89824    127457.33   -34012.255    2552.2548    -36564.51     5.885192    240.04166 
    1300    136.81907   -38.194521    127473.59   -33967.681    2580.3509   -36548.032    6.0917706    242.68412 
    1350    138.26512   -488.10231    127451.18   -33946.365    2607.6228   -36553.987    6.3082959    245.24906 
    1400    140.00452   -401.60514    127390.25    -33937.48    2640.4273   -36577.907     6.561265    248.33435 
    1450    139.11553   -161.51479    127395.85   -33941.214    2623.6613   -36564.876    6.7548649    246.75749 
    1500    135.64542   -393.91817    127337.99   -33997.412    2558.2164   -36555.628     7.015459    240.60236 
    1550    136.65004   -236.37261    127336.25   -33969.403     2577.163   -36546.566    7.2983544     242.3843 
    1600    130.62737   -537.96379    127291.89   -34017.049     2463.578   -36480.627    7.5720908    231.70153 
    1650    132.03719    -180.1108    127255.78   -34027.599    2490.1667   -36517.766    7.8952618    234.20222 
    1700    133.29659   -310.90936    127241.23   -34024.314    2513.9184   -36538.233    8.2181071    236.43609 
    1750    134.54722   -382.87762    127122.56   -34028.976    2537.5048   -36566.481    8.4200237    238.65441 
    1800    134.24801   -189.07352    127041.13   -34012.333    2531.8619   -36544.195    8.5808273    238.12368 
    1850    134.48425   -462.70292    127014.06   -34033.542    2536.3171   -36569.859    8.8396708    238.54271 
    1900    135.68683   -151.90105     127104.3   -33997.974    2558.9973   -36556.972    9.1106212     240.6758 
    1950    135.19634    82.903593    127213.72   -33977.578    2549.7469   -36527.325    9.3771945    239.80579 
    2000    136.46513   -204.00129    127225.53   -33980.315    2573.6757   -36553.991    9.5466342    242.05631 
    2050    134.62339     -199.714    127226.72   -33989.863    2538.9413   -36528.805    9.6782773    238.78951 
    2100    136.82027   -383.77721    127225.54   -33959.823    2580.3736   -36540.197    9.8972744    242.68625 
    2150    137.69376   -541.30629    127271.32   -33895.569    2596.8472   -36492.416    10.116189    244.23561 
    2200    135.38812   -253.95264    127292.86   -33955.845    2553.3637   -36509.208    10.254231    240.14595 
    2250     134.2953   -293.21456    127354.03   -33957.282    2532.7537   -36490.036    10.536917    238.20757 
    2300    136.80011   -147.37053    127422.75   -33997.798    2579.9934   -36577.791    10.686723     242.6505 
    2350    135.20255   -281.57481     127460.3   -34003.927     2549.864   -36553.791    10.967965     239.8168 
    2400    135.98387   -82.854028    127463.26   -33995.148    2564.5994   -36559.747    11.188656    241.20268 
    2450    134.48007   -122.91138    127606.79   -34048.258    2536.2384   -36584.497    11.516564     238.5353 
    2500    137.76974   -181.91123     127644.8   -34046.308    2598.2802   -36644.588    11.748048    244.37038 
    2550    135.58187    -117.8605    127592.74   -34018.689    2557.0178   -36575.707    12.086678    240.48962 
    2600      134.612   -345.76839    127605.18   -33986.629    2538.7265   -36525.355    12.270334    238.76931 
    2650    136.15836   -319.40562    127576.43   -33983.283    2567.8902   -36551.173    12.516399    241.51218 
    2700    134.52964   -470.61272    127548.03   -33972.577    2537.1732    -36509.75    12.891253    238.62322 
    2750     135.4949   -652.69706    127452.27   -33928.347    2555.3775   -36483.724    13.186963    240.33535 
    2800    133.78778   -261.75633    127429.11   -33955.376    2523.1821   -36478.558    13.368366    237.30735 
    2850    134.49695   -89.928456    127451.16   -33959.574    2536.5567    -36496.13    13.563356    238.56524 
    2900    136.93841   -289.58613    127429.41   -33925.808    2582.6015   -36508.409    13.683077    242.89579 
    2950    133.32682   -290.34979    127438.65    -33944.05    2514.4885   -36458.538    13.863877    236.48971 
    3000    137.63581   -398.41564    127426.25   -33928.199    2595.7543   -36523.953    14.130572    244.13282 
    3050     136.2063   -491.51067    127427.08   -33951.107    2568.7944   -36519.901     14.33107    241.59722 
    3100    137.16766   -181.69875    127412.36    -33923.07    2586.9251   -36509.995    14.506861    243.30243 
    3150    135.99579   -34.054129    127433.03   -33970.982    2564.8242   -36535.806    14.671396    241.22382 
    3200     135.1787   -221.33207    127412.58   -33952.419    2549.4143   -36501.834    14.858553     239.7745 
    3250    137.51514   -582.88048     127341.7   -33936.124    2593.4785   -36529.602    15.006839    243.91878 
    3300    135.15692   -267.65547    127324.67   -33967.356    2549.0034    -36516.36    15.273504    239.73586 
    3350    134.30016   -280.53056    127355.83    -33941.48    2532.8453   -36474.326    15.467685    238.21618 
    3400    133.65361   -408.59346    127387.78   -34000.224    2520.6517   -36520.876    15.568091    237.06936 
    3450    133.61751    -269.0152       127356   -33970.343    2519.9708   -36490.314      15.8363    237.00532 
    3500    136.07682   -226.60757    127304.72   -33989.037    2566.3523   -36555.389    16.004605    241.36754 
    3550    135.27901   -228.88856    127335.39   -33980.395    2551.3061   -36531.701    16.256129    239.95243 
    3600    134.17467   -486.38998    127282.97   -33977.984    2530.4787   -36508.463    16.394612     237.9936 
    3650    137.78215   -40.846845    127270.13   -33969.479    2598.5142   -36567.993    16.643521    244.39239 
    3700    135.33028   -76.000999    127388.83   -33987.364    2552.2729   -36539.637    16.902819    240.04336 
    3750      135.593   -120.28802    127460.61    -33981.33    2557.2277   -36538.557    17.174754    240.50937 
    3800    135.89146   -182.59174    127436.43   -33954.914    2562.8565   -36517.771    17.322756    241.03876 
    3850    136.72838   -390.02539    127454.53   -33972.868    2578.6405   -36551.509    17.475814    242.52326 
    3900    135.62611   -446.22977    127393.66   -33977.477    2557.8522   -36535.329    17.652642     240.5681 
    3950    138.95833   -442.60433    127356.92   -33951.712    2620.6965   -36572.409    17.895626    246.47866 
    4000    133.03534   -415.32087    127415.33   -33981.235    2508.9913   -36490.226    18.148081    235.97269 
    4050    133.18422   -284.20165    127373.89   -34001.007    2511.7992   -36512.806    18.371548    236.23678 
    4100    136.15454   -232.49258    127315.89   -33951.882    2567.8181     -36519.7    18.659744     241.5054 
    4150    139.22537   -182.49256    127270.98   -33896.044    2625.7326   -36521.776    18.825946    246.95231 
    4200    135.38926   -431.85406    127222.33   -33935.005    2553.3854    -36488.39    19.253903    240.14799 
    4250    134.78698   -127.31324    127145.42   -33964.093    2542.0265    -36506.12    19.613543    239.07967 
    4300    136.76318   -352.79913    127119.14   -33964.841    2579.2968   -36544.138    19.931054    242.58498 
    4350    135.68483   -400.83573    127124.69   -33984.752    2558.9597   -36543.712    20.064558    240.67226 
    4400    136.17485   -276.47273    127118.86   -34000.563    2568.2011   -36568.764    20.222282    241.54142 
    4450    135.16014   -418.48296    127125.11   -33993.338    2549.0641   -36542.402    20.501203    239.74157 
    4500    133.59863   -132.42227    127118.58   -33980.868    2519.6148   -36500.483    20.707811    236.97184 
    4550    138.89673    -419.4211    127133.91   -33985.402    2619.5346   -36604.937    20.850397    246.36938 
    4600    137.71167   -52.198213    127127.67   -33984.525    2597.1849    -36581.71    20.912197    244.26737 
    4650    134.17425   -502.71778    127168.31   -34027.933    2530.4708   -36558.404    20.994029    237.99285 
    4700    137.23721    -102.3695    127230.12   -33995.596    2588.2369   -36583.833    21.381663     243.4258 
    4750    135.80991    -187.8222     127332.3   -33983.337    2561.3185   -36544.656    21.714902     240.8941 
    4800    136.68127   -48.542732     127400.8   -33952.817     2577.752   -36530.569    21.943716    242.43969 
    4850    136.70521   -298.41222    127352.88   -33950.122    2578.2036   -36528.326    22.208953    242.48216 
    4900    137.32015   -478.50613    127325.46   -33945.691    2589.8011   -36535.492    22.429947    243.57292 
    4950    137.35978   -445.84851    127225.89   -34002.675    2590.5486   -36593.224    22.649907    243.64322 
    5000    134.56928   -266.19567    127231.05   -34037.189    2537.9209   -36575.109    22.623787    238.69354 
    5050    137.38892    -209.0052    127275.56   -33995.546     2591.098   -36586.644    22.807306     243.6949 
    5100    134.59543    96.877397    127350.57   -34013.425     2538.414   -36551.839    23.117468    238.73992 
    5150    135.36147   -77.223121    127390.51   -34006.663    2552.8613   -36559.524    23.379972     240.0987 
    5200    136.11517   -488.66263    127439.75    -34005.41    2567.0757   -36572.486    23.568404    241.43558 
    5250    135.15129   -313.76653    127383.97   -33964.053    2548.8972   -36512.951    23.815448    239.72587 
    5300    135.29772   -518.17131    127318.43   -33953.098    2551.6588   -36504.757    24.108163     239.9856 
    5350    134.83077    71.934805    127337.32    -33975.75    2542.8525   -36518.602    24.315587    239.15736 
    5400     134.2562   -156.97584    127389.46   -33981.185    2532.0162   -36513.201    24.513447     238.1382 
    5450    133.62435   -48.555043    127449.94   -34012.905    2520.0999   -36533.005    24.651399    237.01746 
    5500    135.93791   -281.20983    127437.59   -33987.344    2563.7325   -36551.077    24.879506    241.12115 
    5550    136.31749   -510.10989    127360.61   -34000.311    2570.8912   -36571.203    25.008214    241.79443 
    5600    136.05377   -294.05529    127316.71   -34018.603    2565.9177    -36584.52     25.36899    241.32667 
    5650    134.95557   -321.45948    127287.55   -34018.646    2545.2061   -36563.852    25.702704    239.37872 
    5700    135.05272   -243.95061    127233.42   -34055.753    2547.0382   -36602.791    25.870468    239.55103 
    5750    135.38573    -189.2416    127341.12   -34072.033    2553.3187   -36625.352    26.016658    240.14172 
    5800    135.46113     -368.005    127458.97   -34041.942    2554.7407   -36596.682    26.429783    240.27545 
    5850    136.63967   -394.70238    127508.35   -34037.277    2576.9676   -36614.244    26.621839    242.36592 
    5900    135.38754   -25.090933    127487.06   -34033.489    2553.3528   -36586.842    26.778923    240.14493 
    5950    134.13112   -224.76911    127599.82    -34072.43    2529.6574   -36602.087    26.861687    237.91635 
    6000    135.63104   -152.98438    127657.12   -34034.653    2557.9452   -36592.598    27.229953    240.57684 
    6050    138.79723   -457.69398    127686.05   -34006.001    2617.6582   -36623.659    27.496507     246.1929 
    6100    135.55876   -198.04162    127744.41   -34033.214     2556.582   -36589.796    27.522661    240.44864 
    6150     136.0479   -26.269831    127843.39   -34001.683     2565.807    -36567.49    27.514315    241.31625 
    6200     137.3501    -316.8453    127865.69   -33993.447     2590.366   -36583.813    27.771166    243.62604 
    6250    136.66213   -80.760489    127875.79   -33996.017    2577.3911   -36573.409    27.904739    242.40575 
    6300    135.44738   -180.63212     127831.8   -34021.022    2554.4813   -36575.503    28.105144    240.25107 
    6350    137.21446   -424.19198    127841.43   -34057.001    2587.8078   -36644.809    28.282868    243.38544 
    6400    137.15017   -350.36985    127886.99     -34041.8    2586.5952   -36628.395    28.556824     243.2714 
    6450     135.5129   -105.11593    127886.87   -34051.071    2555.7171   -36606.788    28.782199    240.36729 
    6500     136.6367   -280.29402     127897.8   -34042.747    2576.9115   -36619.658    29.015918    242.36064 
    6550     136.6512   -607.23605    127754.26   -34034.811     2577.185   -36611.996     29.15055    242.38637 
    6600    134.17033   -239.09114    127609.94   -34045.469    2530.3968   -36575.866    29.219177     237.9859 
    6650    132.91342   -252.60217    127458.05   -34077.794     2506.692   -36584.486    29.189209    235.75644 
    6700    133.67962   -503.54416    127390.07   -34073.219    2521.1421   -36594.361    29.337765    237.11549 
    6750    133.29916   -316.59728    127231.08   -34126.475    2513.9669   -36640.442    29.487331    236.44065 
    6800    136.35634   -257.96603    127241.48   -34089.124     2571.624   -36660.748    29.713548    241.86335 
    6850    135.22871   -196.92612    127315.73   -34051.326    2550.3573   -36601.683    29.876507     239.8632 
    6900    135.92041   -279.50242    127328.41   -33975.762    2563.4026   -36539.165    30.194961    241.09012 
    6950    136.67154    4.0168285    127380.89    -34032.25    2577.5686   -36609.819    30.571455    242.42244 
    7000    136.53989    -59.38417    127478.06    -34022.28    2575.0857   -36597.366    30.888019    242.18892 
    7050     134.3055   -275.26177    127455.07   -34017.294    2532.9461    -36550.24    31.162004    238.22566 
    7100    134.40137   -169.08007    127448.28   -33977.531    2534.7541   -36512.285    31.277111     238.3957 
    7150    136.06603   -325.41594    127368.36   -33949.532     2566.149   -36515.681    31.494548    241.34841 
    7200    137.34873    -355.0693    127352.84   -33922.558    2590.3401   -36512.898    31.654701    243.62362 
    7250    141.19828   -121.57971    127308.28   -33913.568     2662.941   -36576.509    31.740957    250.45178 
    7300    136.79029    -144.3705    127410.63       -33890    2579.8081   -36469.808     31.84041    242.63307 
    7350    138.26488   -352.25298    127343.59   -33886.721    2607.6183   -36494.339    32.001297    245.24864 
    7400    138.54122   -236.47167    127311.29   -33919.546    2612.8298   -36532.376    32.223018    245.73879 
    7450    138.67808   -401.24706    127318.84   -33958.426    2615.4111   -36573.837    32.522886    245.98156 
    7500    133.06606    -254.3809    127270.35   -33938.797    2509.5707   -36448.367    32.690821    236.02719 
    7550     136.2819   -191.31364    127349.93   -33964.805      2570.22   -36535.025    32.830597     241.7313 
    7600    137.57711   -433.64445    127375.28   -33968.534    2594.6472   -36563.181    32.993023     244.0287 
    7650     137.2474   -264.37733    127408.74   -33954.918     2588.429   -36543.347    33.161329    243.44387 
    7700    137.39301   -316.37926    127405.85   -33956.831    2591.1753   -36548.006    33.187497    243.70216 
    7750    136.60288   -233.59086     127459.4   -33961.885    2576.2736   -36538.158    33.405379    242.30064 
    7800    136.26293   -156.41841    127496.99   -33960.215    2569.8624   -36530.077    33.728126    241.69767 
    7850    137.21662   -99.716906    127528.44   -34002.437    2587.8485   -36590.286    33.910735    243.38927 
    7900    138.21224   -49.822081    127539.62   -33968.974    2606.6256     -36575.6    34.084635    245.15528 
    7950     134.8148   -819.37592    127470.19   -33990.629    2542.5511   -36533.181    34.315534    239.12902 
    8000    134.67848   -559.54023    127350.63   -33975.126    2539.9802   -36515.106    34.739222    238.88723 
    8050    134.82886   -278.78806    127313.75   -34021.592    2542.8164   -36564.409    34.896152    239.15397 
    8100    135.53654    -399.0999    127297.87   -34010.266    2556.1629   -36566.429    35.034986    240.40921 
    8150    136.30632   -389.89681     127327.4   -33982.134    2570.6807   -36552.815    35.179025    241.77463 
    8200    137.41918   -219.80259    127385.91   -33973.873    2591.6688   -36565.541    35.497257    243.74857 
    8250    136.23765   -106.86311    127392.73   -33968.827    2569.3857   -36538.212    35.616147    241.65283 
    8300    136.02712   -265.96803     127396.8   -34008.693    2565.4151   -36574.108    35.855471    241.27939 
    8350    133.33061   -397.35382    127401.74   -34045.903      2514.56   -36560.463    36.120102    236.49643 
    8400    137.08624   -165.67031    127352.82   -34017.463    2585.3896   -36602.852    36.437264    243.15801 
    8450    134.61948   -211.23739    127339.14   -34027.599    2538.8675   -36566.466    36.495717    238.78257 
    8500    134.47646   -300.11741    127256.12   -34027.686    2536.1702   -36563.856    36.576954    238.52889 
    8550    135.73693   -326.40288    127177.63   -34063.498    2559.9421    -36623.44    36.886291    240.76466 
    8600    137.41486   -288.42585    127201.99   -34076.328    2591.5873   -36667.915     37.17608    243.74091 
    8650    135.57207   -370.82645    127197.33    -34054.72    2556.8331   -36611.553    37.497692    240.47225 
    8700    135.96554   -156.14106    127236.81   -33997.954    2564.2538   -36562.208    37.609777    241.17017 
    8750    137.08805   -378.97969    127321.29   -34000.595    2585.4237   -36586.019    37.649844    243.16122 
    8800    135.12688   -149.68981    127393.59   -34014.446    2548.4368   -36562.883     37.92131    239.68257 
    8850    134.00581    158.14994    127424.19   -34022.217    2527.2941   -36549.511    38.116908    237.69408 
    8900    136.35609   -47.446167    127464.33   -34007.162    2571.6192   -36578.781    38.425281     241.8629 
    8950     136.5781   -237.04955    127411.55   -34014.836    2575.8064   -36590.642    38.590509     242.2567 
    9000    136.38802   -230.02383    127341.94   -33958.624    2572.2215   -36530.845    38.798647    241.91954 
    9050    135.40296    -8.114656    127345.57   -33962.341    2553.6436   -36515.984    39.083887    240.17228 
    9100    133.39285   -408.80214    127280.67   -34003.418    2515.7338   -36519.152    39.248408    236.60683 
    9150    134.00515    148.25397    127230.53    -33938.87    2527.2815   -36466.151    39.443679     237.6929 
    9200      135.625    181.43225    127305.27   -33991.627    2557.8312   -36549.459    39.742854    240.56613 
    9250    134.25844   -222.42174    127419.49   -34024.409    2532.0584   -36556.468    40.133665    238.14217 
    9300    133.76106   -135.28488    127463.65     -33918.3    2522.6782   -36440.979    40.377525    237.25995 
    9350    135.39245    36.638789    127534.42   -33972.635    2553.4455    -36526.08    40.809924    240.15364 
    9400    135.52683    85.614506     127618.9   -34013.492    2555.9799   -36569.472    41.070442      240.392 
    9450    136.19088   -10.248608    127684.31   -34002.858    2568.5036   -36571.361    41.301653    241.56987 
    9500    135.71636   -260.37965    127624.01   -33963.468    2559.5543   -36523.022    41.445145    240.72818 
    9550    138.60058   -54.244027    127615.44   -33965.511    2613.9495    -36579.46    41.739812     245.8441 
    9600    137.60433   -251.79786    127632.41   -33997.116    2595.1606   -36592.277    42.117474    244.07699 
    9650    136.52796   -250.82738    127647.81   -33966.552    2574.8608   -36541.413    42.432512    242.16777 
    9700    137.71116   -375.08509    127607.72   -33964.625    2597.1754   -36561.801    42.672569    244.26648 
    9750    136.43337    -256.1122    127591.96   -34023.663    2573.0767   -36596.739    42.799731    241.99998 
    9800    136.32913   -384.00465    127542.29   -34027.033    2571.1108   -36598.144    43.041242    241.81508 
    9850    133.25439   -597.16825    127418.46   -34019.738    2513.1226    -36532.86    43.190304    236.36124 
    9900    134.80805   -495.61792    127369.58   -34032.781     2542.424   -36575.205    43.418179    239.11706 
    9950    136.35864   -298.90569    127351.21   -34038.984    2571.6673   -36610.651     43.51557    241.86742 
   10000    134.90395   -371.56764     127274.7   -34066.971    2544.2326   -36611.204    43.591366    239.28716 
   10050     135.9575   -333.21959    127307.93   -34056.803     2564.102   -36620.905    43.715919     241.1559 
   10100     137.3203   -431.11773    127312.56   -34007.842    2589.8038   -36597.646    43.793665    243.57317 
   10150    139.30542    -78.87114    127371.59   -33966.689    2627.2424   -36593.932    43.892347     247.0943 
   10200    133.66364   -210.92678    127524.48   -33973.768    2520.8408   -36494.609    44.010207    237.08715 
   10250    137.91983   -335.58961     127577.4   -33921.492    2601.1108   -36522.603    44.438337     244.6366 
   10300    136.54247   -45.849773    127481.97    -33929.18    2575.1344   -36504.315    44.643762     242.1935 
   10350    137.72655   -504.20309    127376.48   -33966.904    2597.4655   -36564.369    44.788167    244.29376 
   10400    137.47813    -158.6445    127384.65   -33937.463    2592.7806   -36530.244    44.897084    243.85314 
   10450    135.20292   -282.43561    127398.16   -33998.879     2549.871    -36548.75    45.293465    239.81746 
   10500    133.05281    33.919726    127439.43   -34036.524    2509.3207   -36545.844    45.470139    236.00367 
   10550    135.30707   -252.01585    127470.09   -34019.525    2551.8352    -36571.36    45.865578     240.0022 
   10600    134.91782   -338.12933    127487.46   -33940.235     2544.494   -36484.729    46.023673    239.31175 
   10650    136.22081   -445.83624    127380.56   -33961.956    2569.0679   -36531.024    46.231173    241.62294 
   10700    137.69337   -219.68023    127398.93   -33975.224    2596.8398   -36572.064    46.573846    244.23491 
   10750    135.79232   -464.52331    127349.81   -33962.802    2560.9867   -36523.789    46.641952     240.8629 
   10800    137.85726   -233.83838     127333.6   -33942.053    2599.9308   -36541.984    46.874794    244.52562 
   10850    137.79793    -256.0977    127336.53   -33948.103    2598.8118   -36546.915    47.016436    244.42038 
   10900    135.98697   -358.79733    127214.47   -33934.359    2564.6579   -36499.017    46.931515    241.20818 
   10950    137.58331   -416.99714    127158.11    -33984.32    2594.7642   -36579.084    47.139954     244.0397 
   11000    138.27979   -248.19543    127167.14   -33958.537    2607.8996   -36566.436    47.553692    245.27509 
   11050    139.48426   -413.38708    127237.77   -33907.775    2630.6153    -36538.39    47.735107    247.41153 
   11100    138.43858   -481.35467    127220.62   -33945.988    2610.8943   -36556.882    47.824202    245.55675 
   11150    136.23419   -192.04875    127178.03   -33935.138    2569.3204   -36504.458    48.123854    241.64669 
   11200    137.51861   -175.40792    127271.85   -33970.992     2593.544   -36564.536    48.266876    243.92494 
   11250    135.83081   -459.11182    127243.47   -33965.794    2561.7127   -36527.507      48.4208    240.93118 
   11300    134.32917   -132.76797    127335.87   -33992.933    2533.3924   -36526.325    48.694972    238.26763 
   11350    132.62447      -155.62    127382.35   -34039.974    2501.2425   -36541.217    49.067883    235.24391 
   11400    133.97704    49.554557    127467.85   -34049.229    2526.7514    -36575.98    49.147549    237.64304 
   11450    133.81597   -366.47948    127544.62   -34023.981    2523.7136   -36547.695    49.544502    237.35734 
   11500    133.68579   -203.13236    127505.44   -34056.107    2521.2586   -36577.366    49.717932    237.12644 
   11550     131.6502   -484.47439    127440.08   -34032.575    2482.8682   -36515.443    50.016072    233.51579 
   11600    135.45333   -346.09209    127372.51   -33992.446    2554.5937    -36547.04    50.385479    240.26163 
   11650    135.50033   -370.84089    127235.47   -33994.888    2555.4801   -36550.368    50.535859      240.345 
   11700    137.78209   -391.95993    127217.36   -33942.445    2598.5131   -36540.958    50.805881    244.39229 
   11750    138.64119    -399.1192    127204.29   -33914.768    2614.7153   -36529.483    51.127391    245.91612 
   11800    137.52128   -432.84901    127186.58   -33871.621    2593.5942   -36465.215    51.352453    243.92966 
   11850    135.23423   -272.29403    127191.87   -33861.605    2550.4614   -36412.066    51.754857    239.87299 
   11900    137.56985   -445.47752       127059   -33879.387    2594.5104   -36473.898    52.062819    244.01583 
   11950    136.94746   -724.10036    126901.26   -33935.655    2582.7723   -36518.427    52.188885    242.91185 
   12000    135.46571   -2.9459465    126887.49   -33968.416    2554.8271   -36523.243     52.35571    240.28359 
   12050    137.35967    -245.1956    126918.96   -33993.373    2590.5464    -36583.92      52.5377    243.64302 
   12100    132.99698   -65.994621    126987.03    -34003.58    2508.2679   -36511.847    52.868879    235.90465 
   12150    135.76822   -206.56559    127055.33   -33977.612    2560.5324   -36538.144    53.121757    240.82017 
   12200    137.43065   -11.106739    127092.35   -33996.705    2591.8851    -36588.59    53.375985    243.76892 
   12250    136.39189   -351.37363    127149.11   -33952.775    2572.2944   -36525.069    53.788236     241.9264 
   12300    137.55345   -419.56967    127149.36   -33940.541     2594.201   -36534.742    53.898601    243.98673 
   12350    135.99618    -199.5741    127114.17   -33948.006    2564.8316   -36512.838    54.007692    241.22452 
   12400    135.04081   -138.62927    127190.29   -33954.521    2546.8137   -36501.334     54.20078    239.52992 
   12450    134.39243   -155.98774    127297.68   -33982.297    2534.5854   -36516.882    54.476753    238.37984 
   12500    131.88975   -282.43819    127316.89   -34032.553    2487.3861   -36519.939     54.75367     233.9407 
   12550    135.62102   -192.94596    127337.04   -34003.278    2557.7562   -36561.035    54.792834    240.55907 
   12600    139.02308    -62.18926     127342.3   -33912.028    2621.9176   -36533.945    55.076163     246.5935 
   12650    134.06982   -361.33884     127200.8   -33918.997    2528.5011   -36447.498     55.22257    237.80761 
   12700    136.29856    -490.2425    127150.09   -33874.973    2570.5343   -36445.507    55.684856    241.76086 
   12750    135.61426   -166.63049    126933.97   -33917.379    2557.6287   -36475.008    55.692667    240.54708 
   12800    135.91384   -178.58761    126955.88   -33924.021    2563.2787     -36487.3    56.018421    241.07847 
   12850    134.76046   -277.68906    127003.59   -33932.233    2541.5264   -36473.759    56.262921    239.03264 
   12900     135.0326   -59.309213    126985.66   -33959.667    2546.6587   -36506.325    56.405118    239.51534 
   12950    133.90975    112.98233     127082.3   -33956.961    2525.4823   -36482.443    56.749078    237.52368 
   13000    136.16947   -157.01906    127120.04   -33904.883    2568.0997   -36472.983    57.235752    241.53188 
   13050    137.23316    -229.8692     127153.7   -33864.932    2588.1606   -36453.093    57.270726    243.41862 
   13100    139.29363   -266.45815    127152.11   -33816.121      2627.02   -36443.141    57.358875    247.07339 
   13150    137.96871   -321.76508    127170.96   -33857.235    2602.0326   -36459.267    57.702581     244.7233 
   13200    135.29954   -374.25979    127206.35   -33853.231    2551.6931   -36404.924    58.039113    239.98883 
   13250    133.90163   -101.58503    127230.49   -33866.294    2525.3293   -36391.623    58.252879    237.50929 
   13300    133.43113   -245.35609    127266.55   -33912.885    2516.4557   -36429.341    58.642865    236.67473 
   13350    137.38564    17.738236     127282.7   -33879.075    2591.0362   -36470.111    58.853007    243.68908 
   13400    136.17304   -330.26766    127295.25   -33841.539    2568.1671   -36409.706    59.104617    241.53822 
   13450    138.32856   -242.94482    127352.58   -33877.231    2608.8192   -36486.051    59.469437    245.36159 
   13500    138.11084   -368.88178    127271.21    -33896.24    2604.7131   -36500.953    59.935447     244.9754 
   13550    137.37592   -97.812055     127318.4   -33892.393    2590.8528   -36483.246    60.464203    243.67183 
   13600    137.43645   -209.84084       127359   -33930.799    2591.9945   -36522.793    60.814302    243.77921 
   13650     135.8408   -309.35081    127373.71   -33906.498    2561.9011   -36468.399    61.168373     240.9489 
   13700     136.8415   -239.81342    127411.23    -33894.59     2580.774   -36475.364    61.409526    242.72391 
   13750    135.49858   -25.270449    127441.76   -33937.064     2555.447   -36492.511    61.741228    240.34189 
   13800    133.33538   -207.51358    127519.24   -33912.948      2514.65   -36427.598    61.919339    236.50489 
   13850    134.02559   -274.76034    127491.55    -33933.72    2527.6671   -36461.388    62.374717    237.72917 
   13900    134.99168   -49.396533    127524.18   -33937.727     2545.887   -36483.614    62.713286    239.44276 
   13950    132.24379   -94.151238    127601.98   -33979.739    2494.0629   -36473.802    62.971077    234.56866 
   14000    132.75422   -443.64346    127538.46   -34046.522    2503.6896   -36550.212    63.480349    235.47406 
   14050    133.98012   -531.06514    127538.44   -34025.955    2526.8096   -36552.765    63.955336    237.64851 
   14100    133.63396   -787.73523    127434.99   -34026.184    2520.2811   -36546.465    64.175016     237.0345 
   14150    133.38617   -415.79346    127354.32   -34037.977    2515.6078   -36553.585    64.572929    236.59498 
   14200    137.09277   -367.48639    127278.06   -33971.986    2585.5128   -36557.498    65.046154     243.1696 
   14250    133.88011   -641.08929    127253.73   -34002.052    2524.9233   -36526.975    65.295391    237.47111 
   14300    136.91067   -383.55066    127178.31   -33967.451    2582.0784    -36549.53    65.639542    242.84659 
   14350    135.73691   -303.76145    127160.94   -33977.262    2559.9417   -36537.204    65.723416    240.76462 
   14400    139.03574   -245.16891    127102.64   -33936.294    2622.1564    -36558.45    66.018463    246.61597 
   14450    138.50142   -45.633765    127148.32   -33904.456    2612.0793   -36516.536    66.453056     245.6682 
   14500    137.89885   -356.23785     127207.6   -33968.233    2600.7151   -36568.948    66.619405    244.59939 
   14550    134.99802   -150.21914    127246.28   -33988.681    2546.0067   -36534.688    66.883103    239.45402 
   14600     134.4156   -622.85716     127278.9   -33996.507    2535.0225   -36531.529    67.118759    238.42094 
   14650    135.14449   -218.91121    127249.52    -33993.32     2548.769   -36542.089    67.410632    239.71382 
   14700    136.88777    -181.3603    127202.37   -33959.224    2581.6465    -36540.87    67.803458    242.80597 
   14750    139.12388    58.638694    127223.47   -33965.895    2623.8187   -36589.714    67.905286     246.7723 
   14800    134.81819   -314.80505    127222.79   -33936.526    2542.6151   -36479.141    68.326235    239.13503 
   14850    133.92689   -147.31027    127175.83   -33994.352    2525.8057   -36520.157    68.325336     237.5541 
   14900    134.62043   -35.397686    127158.76   -33969.745    2538.8854    -36508.63    68.851405    238.78426 
   14950    136.02072   -253.10929    127056.76   -33952.817    2565.2943   -36518.111    68.940202    241.26803 
   15000     135.9356   -502.53487    126941.01   -33965.437     2563.689   -36529.126    69.174978    241.11705 
   15050     136.2076   -285.61035    126923.46   -33923.105    2568.8188   -36491.923    69.333629    241.59951 
   15100    137.06381   -172.93889    126969.06   -33910.209    2584.9666   -36495.176    69.546576    243.11823 
   15150    136.40552   -265.80013    126985.11   -33947.553    2572.5516   -36520.104    70.018717    241.95059 
   15200    136.15298   -229.51548    126982.92   -33962.421    2567.7887    -36530.21    70.361658    241.50264 
   15250    136.64334   -148.26478    127086.85    -33983.56    2577.0367   -36560.597    70.456219    242.37242 
   15300    136.01946   -141.67427    127152.57   -34046.374    2565.2706   -36611.645    70.604989     241.2658 
   15350    135.34652   -82.685617    127213.42   -33996.021    2552.5791     -36548.6    70.761228    240.07216 
   15400    136.01854   -238.41358    127238.65   -33991.613    2565.2533   -36556.866    71.051053    241.26418 
   15450    136.94919   -164.97573    127303.15   -33954.581     2582.805   -36537.386    71.244723    242.91493 
   15500    138.28244   -482.74452    127323.43   -33868.503    2607.9495   -36476.452    71.585161    245.27979 
   15550    136.90588   -402.65966    127221.36   -33915.472    2581.9881    -36497.46    72.084545     242.8381 
   15600      138.159   -599.17926    127191.16   -33887.377    2605.6215   -36492.998    72.527332    245.06084 
   15650    137.52688   -344.00942     127158.5   -33886.757    2593.6999   -36480.456    72.749344     243.9396 
   15700    136.05809   -282.11772    127173.31   -33926.267    2565.9992   -36492.266    73.021582    241.33433 
   15750    136.26509   -82.312798    127175.56   -33882.543    2569.9032   -36452.446    73.378679     241.7015 
   15800    135.46175   -511.78308    127204.91   -33863.575    2554.7524   -36418.327    73.864299    240.27656 
   15850    134.68313   -162.44596    127147.58   -33935.913    2540.0679   -36475.981    74.406784    238.89547 
   15900    139.77493   -116.86025     127052.2   -33889.841    2636.0972   -36525.939    74.625578    247.92711 
   15950    133.22065   -222.43473    127020.09   -33955.106    2512.4863   -36467.592     74.86884     236.3014 
   16000    136.25598   -410.48992    127072.44   -33949.579    2569.7313    -36519.31    75.014822    241.68534 
   16050    136.15878   -251.10852    127133.08   -33935.133    2567.8981   -36503.032    75.421787    241.51292 
   16100    136.89476    -395.8367     127087.7   -33945.707    2581.7783   -36527.485    75.639564    242.81837 
   16150    137.77639    -244.6577    127174.65   -33946.035    2598.4056   -36544.441    75.883717    244.38217 
   16200    133.36594   -463.61058    127115.91   -33960.057    2515.2263   -36475.283    76.161347     236.5591 
   16250    135.74447   -324.43314     127031.1   -33971.823    2560.0843   -36531.907    76.599359    240.77803 
   16300    132.69207   -201.47078    126946.39   -33977.564    2502.5175   -36480.082    76.597917    235.36382 
   16350    132.63121   -408.95344    126918.79   -34022.671    2501.3697   -36524.041    76.941037    235.25587 
   16400    136.30548   -540.31368    126809.75   -34005.829    2570.6648   -36576.493    77.274447    241.77314 
   16450    136.08647   -425.96089    126748.87   -34015.165    2566.5344   -36581.699    77.671656    241.38466 
   16500    135.18475   -270.50152     126714.3   -33972.895    2549.5283   -36522.424    77.878338    239.78523 
   16550    136.43611   -163.36446    126738.13   -33964.152    2573.1285   -36537.281    78.069574    242.00484 
   16600    131.98894   -426.72726    126687.92   -34026.083    2489.2566    -36515.34    78.741262    234.11663 
   16650    134.66853   -163.04623    126683.82   -34041.337    2539.7926    -36581.13    79.136188    238.86958 
   16700    133.63563   -99.316735    126780.58   -34068.613    2520.3125   -36588.925    79.535711    237.03746 
   16750    136.72857   -270.43969    126786.53   -34052.633    2578.6441   -36631.277    79.577307    242.52359 
   16800    133.90593   -512.69542     126707.3   -34049.605    2525.4103   -36575.016    79.853988    237.51692 
   16850    133.60333   -596.64469    126648.68   -34040.547    2519.7034    -36560.25    80.011764    236.98018 
   16900     136.3697   -24.434582    126618.47   -33982.823    2571.8759   -36554.699    80.244469    241.88704 
   16950    135.36199   -428.01169    126612.97   -34055.727    2552.8709   -36608.598    80.804998    240.09961 
   17000    133.79456   -41.502887    126635.71   -34055.092      2523.31   -36578.402    81.261773    237.31937 
   17050    135.73272    57.236127    126727.14    -34011.26    2559.8627   -36571.123    81.852209    240.75719 
   17100    136.10372   -227.49035    126769.03   -33996.414    2566.8596   -36563.274    82.197822    241.41525 
   17150     135.5122   -468.30416     126738.6   -33989.988     2555.704   -36545.692    82.628714    240.36605 
   17200    136.93355   -53.670335    126780.72   -33973.557    2582.5099   -36556.067    83.001403    242.88718 
   17250    134.45584   -101.60061     126813.6   -34003.739    2535.7814    -36539.52    83.591596    238.49232 
   17300    136.42324   -167.96991    126900.95   -33972.717    2572.8858   -36545.603    84.136876    241.98202 
   17350    136.77881   -401.68705    126847.16   -33988.915    2579.5915   -36568.507    84.302824     242.6127 
   17400    137.89842    -168.8496    126875.65   -33965.054     2600.707   -36565.761    84.684771    244.59863 
   17450    135.63941   -127.60538    126925.06   -33918.036    2558.1031   -36476.139    85.231615    240.59169 
   17500    137.59459   -70.308025    126913.15   -33895.331    2594.9769   -36490.307    85.516215    244.05971 
   17550    134.21401   -175.34289    126883.58   -33935.605    2531.2206   -36466.825    85.915256    238.06338 
   17600      134.354    77.226647    126976.71   -33965.131    2533.8606   -36498.991    86.344084    238.31167 
   17650    135.52902   -48.937811    127100.22   -33932.874     2556.021   -36488.895    86.707946    240.39587 
   17700    136.49515   -205.28437    127172.07   -33953.577    2574.2419   -36527.818    87.012671    242.10956 
   17750    136.87638   -142.45475    127161.52   -33923.297    2581.4317   -36504.728    87.128836    242.78577 
   17800    137.71834    211.33952    127188.14   -33961.109    2597.3107   -36558.419     87.49595     244.2792 
   17850    136.61593    312.82388    127296.08   -33974.808    2576.5197   -36551.328    87.882918     242.3238 
   17900    138.89106   -91.529172     127397.8   -33961.318    2619.4278   -36580.745    88.211417    246.35933 
   17950    136.03724    24.048797    127408.79   -33938.485    2565.6059   -36504.091    88.511095    241.29734 
   18000    135.28833    177.35182    127468.92   -33936.516    2551.4818   -36487.998    88.646612    239.96896 
   18050    137.37724   -197.28006    127536.13   -33982.108    2590.8778   -36572.986     88.82169    243.67419 
   18100    135.19596   -438.12335    127489.82   -33983.745    2549.7397   -36533.484    88.912337    239.80511 
   18150    134.49865   -205.93583    127479.73   -34023.502    2536.5887   -36560.091    89.054106    238.56825 
   18200     137.6052   -533.01955    127445.37   -33903.789     2595.177   -36498.966    89.320465    244.07853 
   18250    134.95515   -116.75231    127422.18   -33919.107    2545.1982   -36464.305    89.430755    239.37798 
   18300      137.945    121.60364    127488.75   -33948.033    2601.5854   -36549.619    89.574995    244.68124 
   18350    135.98075   -502.66832    127462.14   -33938.832    2564.5405   -36503.373    89.747386    241.19714 
   18400    135.34083    -348.7894    127363.59   -33940.716    2552.4719   -36493.188    90.075218    240.06207 
   18450    136.53223    -226.7565    127378.58    -33960.93    2574.9413   -36535.871    90.275445    242.17534 
   18500     136.4723   -397.17772    127362.08   -33992.297    2573.8109   -36566.108    90.499662    242.06903 
   18550     133.0859   -352.05717    127371.35   -34042.939    2509.9448   -36552.884    90.939134    236.06237 
   18600    138.34687   -54.474818    127369.92   -34001.295    2609.1646    -36610.46    91.325658    245.39407 
   18650    135.15017   -390.94214    127320.29   -33959.495    2548.8762   -36508.372    91.514133     239.7239 
   18700     137.8512   -92.013011    127379.75     -33978.5    2599.8164   -36578.316    91.632438    244.51487 
   18750    136.98179   -397.55656    127356.03   -33971.799    2583.4198   -36555.218    91.764457    242.97275 
   18800    136.20861   -227.06442    127390.53   -34026.538    2568.8379   -36595.376    92.192751    241.60131 
   18850    135.72943   -285.80934    127423.26    -34047.79    2559.8007   -36607.591    92.450794    240.75136 
   18900    132.14851   -468.22191    127466.19   -34116.854    2492.2661    -36609.12    92.786138    234.39967 
   18950    135.74126   -78.086117    127438.87   -34115.822    2560.0239   -36675.846    92.993499    240.77235 
   19000    134.64347   -429.43454    127348.72   -34088.847      2539.32   -36628.167    93.169917    238.82513 
   19050    133.00974   -358.51945    127271.64   -34095.461    2508.5085   -36603.969     93.46416    235.92729 
   19100    134.01342   -422.48499    127162.23   -34019.111    2527.4375   -36546.549    93.950864    237.70757 
   19150    135.17254   -247.23696    127087.44    -34016.21    2549.2981   -36565.508    94.179901    239.76358 
   19200    137.13623    32.056337    127124.43   -33951.912    2586.3325   -36538.244     94.57049    243.24669 
   19250    135.05448   -205.17952    127199.75   -33936.609    2547.0715   -36483.681    95.023569    239.55416 
   19300     135.4535   -231.61935    127136.97   -33935.293    2554.5969    -36489.89    95.349197    240.26193 
   19350    137.82559   -334.70899    127096.56   -33947.591    2599.3335   -36546.925    95.784431    244.46945 
   19400    135.73517   -129.85425    127056.23   -33951.227     2559.909   -36511.136    96.295954    240.76155 
   19450    137.28006    146.17992    127102.19   -33960.175     2589.045    -36549.22    96.715251     243.5018 
   19500     137.6208    -52.95373     127075.3   -33985.183    2595.4712   -36580.654    97.101333    244.10619 
   19550    135.55593   -316.39224    126982.49   -34056.554    2556.5285   -36613.083    97.605006     240.4436 
   19600     137.7971    17.934964    126972.52   -33981.071    2598.7961   -36579.867    98.156725    244.41891 
   19650    138.19623   -411.12625     126996.7   -33978.973    2606.3235   -36585.296    98.575271    245.12687 
   19700    136.24502   -317.48262    126996.41   -33994.932    2569.5246   -36564.456    98.780305    241.66589 
   19750    131.47198   -407.33099    126990.08    -34046.57    2479.5071   -36526.077    99.064636    233.19967 
   19800    132.60054   -177.04592    126958.54   -34019.161    2500.7913   -36519.952    99.198764    235.20147 
   19850    135.24009   -541.80965     126960.1   -34020.366     2550.572   -36570.938    99.354651    239.88338 
   19900     135.0532   -203.25401    126961.12   -34046.337    2547.0474   -36593.384    99.390034     239.5519 
   19950    135.15817   -206.82652    126960.07   -34032.485     2549.027   -36581.512    99.907645    239.73808 
   20000    133.70511   -322.21929    126823.53   -34089.497    2521.6228    -36611.12    100.00041     237.1607 
   20050    134.81824   -332.56645    126737.99   -34073.941     2542.616   -36616.557    99.957681    239.13512 
   20100    136.09777   -311.91812     126765.3    -34068.19    2566.7475   -36634.938    100.28037     241.4047 
   20150    134.10108   -253.25485     126753.5   -34076.103    2529.0908   -36605.194     100.5882    237.86306 
   20200    134.11891   -316.46856    126756.53   -34084.301     2529.427   -36613.728    100.74037    237.89468 
   20250    133.61675    72.342048    126774.82   -34078.005    2519.9565   -36597.961    100.85076    237.00398 
   20300    132.54878    -253.4766    126810.63   -34069.213     2499.815   -36569.028    101.45926    235.10966 
   20350    134.58369   -16.465322    126727.06   -34057.324    2538.1926   -36595.517    102.14712    238.71909 
   20400    136.38843    34.950996     126750.7   -34021.996    2572.2293   -36594.225    102.59111    241.92027 
   20450     132.7327   -58.131445    126758.33   -34009.704    2503.2836   -36512.988    102.72347    235.43587 
   20500    134.65096   -10.265809    126720.15   -33996.151    2539.4613   -36535.612    102.98408    238.83842 
   20550    137.58036   -119.70656    126701.74   -33975.489    2594.7086   -36570.198     103.3539    244.03447 
   20600    136.89553   -337.89726     126717.4   -33941.169     2581.793   -36522.962    103.64439    242.81975 
   20650    136.18596    -172.7033    126660.72   -33967.436    2568.4107   -36535.846    103.73778    241.56114 
   20700     137.3225   -336.09543    126634.31   -33939.002    2589.8454   -36528.847    103.88344    243.57709 
   20750    134.78591   -163.03585    126706.34   -33958.865    2542.0063   -36500.871    104.47578    239.07778 
   20800    134.21807   -329.75175    126785.64   -34042.572    2531.2972   -36573.869     104.9322    238.07058 
   20850    137.33932   -121.55708    126881.08   -34034.667    2590.1627   -36624.829    105.31618    243.60692 
   20900    132.07506   -353.39793    126913.89   -34044.297    2490.8809   -36535.178    105.65884    234.26939 
   20950    136.35754   -208.75221     126958.4   -34027.844    2571.6467   -36599.491    105.73059    241.86548 
   21000    130.65141   -518.33201     126954.5   -34141.532    2464.0314   -36605.563     106.3477    231.74418 
   21050    133.80818   -103.15175    126946.75   -34143.369    2523.5668   -36666.935    106.83649    237.34352 
   21100    137.15917   -533.40298    126921.73   -34056.058    2586.7651   -36642.824    107.16632    243.28738 
   21150    133.97886   -382.67096    127011.07   -34090.885    2526.7857   -36617.671    107.47179    237.64627 
   21200    135.98363   -259.65415    126956.88   -34067.551    2564.5948   -36632.146    107.89295    241.20225 
   21250    135.36187    -494.1691    126873.21   -34060.128    2552.8687   -36612.997    108.38348     240.0994 
   21300    134.28053   -194.62677    126847.93    -34079.61    2532.4752   -36612.085    108.79836    238.18137 
   21350    133.43513    -348.5446    126824.55   -34101.229    2516.5311    -36617.76    109.16178    236.68182 
   21400    136.23043   -265.57401    126887.81   -34075.169    2569.2495   -36644.418    109.23354    241.64002 
   21450    131.83893   -342.98904    126925.42   -34093.723    2486.4275   -36580.151    109.74922    233.85055 
   21500    130.28249   -157.38082     127042.7   -34124.574    2457.0737   -36581.648     109.9971     231.0898 
   21550    134.67399   -501.60361    127146.71   -34062.316    2539.8956   -36602.211    110.29735    238.87926 
   21600    135.47772   -347.76146    127149.92   -33997.763    2555.0536   -36552.817    110.45152    240.30489 
   21650    136.37556   -378.41197    127170.59   -34046.967    2571.9865   -36618.953     110.7793    241.89744 
   21700     135.4879   -274.63624    127103.37   -33991.381    2555.2456   -36546.626    111.01039    240.32294 
   21750    137.06846   -203.66443    127171.94   -34047.691    2585.0543   -36632.745    111.28572    243.12648 
   21800    135.20869   -307.74586    127047.84    -34050.69    2549.9798    -36600.67    111.27939     239.8277 
   21850     135.7362   -311.49987    127034.26   -34018.247    2559.9285   -36578.176    111.21681    240.76337 
   21900    135.80932   -101.35608    127177.37   -34021.314    2561.3075   -36582.621    111.39695    240.89307 
   21950    135.88916   -335.57362    127222.56   -33982.846    2562.8131   -36545.659     111.3824    241.03468 
   22000     133.2325   -141.54547    127177.16    -34036.27    2512.7097    -36548.98     111.4831    236.32241 
   22050     137.5801   -123.80133    127173.64   -33999.202    2594.7036   -36593.905    111.77878      244.034 
   22100    133.33578   -24.550036     127225.1   -34003.184    2514.6575   -36517.842    111.87733     236.5056 
   22150     137.3111   -210.05059     127218.8   -34003.106    2589.6304   -36592.736    112.19335    243.55686 
   22200    137.35652   -103.54712    127289.74   -33972.333     2590.487    -36562.82    112.38301    243.63743 
   22250    132.66429   -301.50616    127336.62   -34002.956    2501.9935    -36504.95    112.73528    235.31454 
   22300    134.53985   -137.22804    127275.02   -34014.055    2537.3657   -36551.421    112.90287    238.64132 
   22350    136.38534   -144.20671    127334.18   -33992.427     2572.171   -36564.598    113.24364    241.91479 
   22400    135.20287   -489.91684    127333.71    -34034.25    2549.8701    -36584.12    113.57318    239.81737 
   22450    135.88997   -110.41134    127311.77   -34088.728    2562.8285   -36651.556    113.47302    241.03612 
   22500    133.62602   -288.48765    127350.31    -34023.26    2520.1313   -36543.391    113.56541    237.02041 
   22550    136.97424   -291.14572    127369.79   -33979.993    2583.2773    -36563.27    113.60236    242.95935 
   22600    138.53854   -364.46898    127313.33   -33902.947    2612.7793   -36515.727    113.56906    245.73404 
   22650     133.6259   -390.12889    127225.13   -33992.371     2520.129     -36512.5    113.66364     237.0202 
   22700    134.97335   -194.76405    127197.88   -34010.839    2545.5414    -36556.38    113.79337    239.41026 
   22750    134.75614   -318.52135    127130.95   -34019.433     2541.445   -36560.878    113.99365    239.02498 
   22800    133.86705   -175.70197     127137.6   -33995.059    2524.6771   -36519.737    114.31838    237.44795 
   22850    137.27922   -135.58104    127119.46   -34003.496    2589.0291   -36592.525     114.5058    243.50031 
   22900    134.31182  -0.62112892    127145.41   -33982.543    2533.0652   -36515.608    114.93077    238.23686 
   22950    135.52418   -393.01739    127133.19    -33988.24    2555.9297    -36544.17    115.12581    240.38729 
   23000    135.54361   -388.80044    127113.99   -34012.447    2556.2962   -36568.744    115.44824    240.42175 
   23050    134.05087   -163.88079    127106.42   -34049.336    2528.1439    -36577.48    115.79561    237.77401 
   23100     136.8736   -265.30591    126986.61   -34004.146    2581.3794   -36585.526    115.85028    242.78085 
   23150    135.86028   -129.11806    126948.27   -34015.075    2562.2685   -36577.343    115.87286    240.98346 
   23200     133.9312   -274.20903    126935.62   -34025.094    2525.8868   -36550.981    116.20593    237.56173 
   23250    135.74143   -377.39914    126911.52   -34016.917    2560.0271   -36576.944    116.10241    240.77265 
   23300    134.60913   -169.26172    126926.27    -33972.41    2538.6723   -36511.082    116.27453    238.76421 
   23350    137.20856   -97.350961       126942    -33998.69    2587.6965   -36586.387    116.60372    243.37498 
   23400    133.30625    203.94128    127049.14   -34016.773    2514.1006   -36530.874    117.14018    236.45322 
   23450    134.68569   -357.87237    127112.24   -33989.464    2540.1162    -36529.58    117.21167    238.90001 
   23500    134.43388   -293.66278    127096.93   -33980.127    2535.3672   -36515.494     117.3365    238.45336 
   23550    133.80884   -179.00222     127034.7   -34026.466    2523.5793   -36550.045    117.38139     237.3447 
   23600    135.46732   -105.23907    126995.57   -34033.692    2554.8574    -36588.55    117.65052    240.28644 
   23650    136.23207   -228.68081    126987.28    -33997.01    2569.2804    -36566.29    117.81776    241.64293 
   23700    132.64143   -275.20577    127026.22   -34001.856    2501.5624   -36503.419    118.08164    235.27399 
   23750    134.93276   -261.13197    127009.93   -33993.311    2544.7758   -36538.086    117.99776    239.33825 
   23800    135.43052   -256.25069    126911.41   -33964.625    2554.1635   -36518.789    117.71923    240.22117 
   23850    135.16602   -228.11336    126849.13   -33957.864    2549.1752   -36507.039     117.8402    239.75202 
   23900    136.41216    47.049962    126822.71   -33987.061    2572.6767   -36559.738      117.773    241.96236 
   23950    135.32958   -75.461648    126948.31   -33983.435    2552.2598   -36535.694    117.84659    240.04213 
   24000     135.7833    89.667614    127077.35   -34024.154    2560.8167   -36584.971     118.1005    240.84691 
   24050    133.02505   -120.52363    127125.72   -34055.044    2508.7972   -36563.841    118.38129    235.95444 
   24100    134.44477   -340.73858    127172.57   -34087.061    2535.5726   -36622.633    118.55715    238.47269 
   24150    136.45795   -300.60314    127105.18   -33983.255    2573.5404   -36556.796    118.75123    242.04358 
   24200    137.69604    -71.77313    127183.96   -33918.179    2596.8902   -36515.069    119.10557    244.23965 
   24250    137.91743   -286.60263    127199.82   -33930.119    2601.0656   -36531.185    119.35874    244.63235 
   24300    137.36377   -17.147698    127168.51   -33947.448    2590.6238   -36538.072     119.4676    243.65029 
   24350    137.12406   -285.97245    127160.72   -33999.368    2586.1029   -36585.471    119.80959     243.2251 
   24400    137.86526   -311.18638    127047.51   -33973.978    2600.0816    -36574.06     120.0393     244.5398 
   24450    137.08438    15.569989    127149.72    -34007.45    2585.3545   -36592.804    120.16677    243.15471 
   24500    135.89157    99.311579    127253.27   -34009.056    2562.8586   -36571.915    120.92275    241.03896 
   24550    135.80818   -16.352086     127251.5   -33989.194    2561.2859    -36550.48    121.02372    240.89104 
   24600    137.83924   -250.05691    127301.98   -33981.148    2599.5908   -36580.739    121.40849    244.49365 
   24650    136.80267    -728.8859    127367.61   -34009.782    2580.0415   -36589.824    121.44418    242.65502 
   24700    132.77449   -569.22333    127341.59   -34043.909    2504.0717   -36547.981    121.74399       235.51 
   24750    135.40517   -153.53145    127358.26   -34026.395    2553.6854   -36580.081    122.33636     240.1762 
   24800    135.63701   -224.53917    127382.95   -34013.997    2558.0577   -36572.055    122.84939    240.58743 
   24850      134.502   -365.96516    127326.36   -34067.959    2536.6519   -36604.611    123.09718    238.57419 
   24900    134.50914   -142.31031    127419.39   -34047.208    2536.7866   -36583.994    123.41943    238.58686 
   24950    133.87216   -168.51273    127455.83   -34074.149    2524.7733   -36598.922    123.61536      237.457 
   25000    131.69508   -197.29081    127393.12   -34128.891    2483.7146   -36612.606    123.70357     233.5954 
   25050    131.68361   -378.87068    127374.37   -34150.828    2483.4983   -36634.327    123.46659    233.57506 
   25100     134.8433   -236.67366    127340.31   -34097.858    2543.0887   -36640.946    123.46929    239.17958 
   25150    132.72471   -332.50107    127319.68   -34095.483     2503.133   -36598.616    123.67161    235.42171 
   25200    132.95305   -377.22909    127321.58   -34069.668    2507.4394   -36577.108    123.69222    235.82673 
   25250     136.8753   -240.47355    127354.71   -33983.972    2581.4115   -36565.383    123.56048    242.78387 
   25300    137.21689   -168.04705     127372.1    -34002.05    2587.8536   -36589.904    123.67321    243.38975 
   25350    137.50243   -297.89424    127304.91   -34010.422    2593.2389   -36603.661    123.79225    243.89624 
   25400    133.39057   -172.42325    127311.71   -34041.617    2515.6909   -36557.308     124.1396    236.60279 
   25450     135.7709   -105.02839     127390.1   -33987.551    2560.5829   -36548.134     124.3864    240.82492 
   25500    136.58211   -223.65613    127374.15   -33996.317     2575.882   -36572.199    124.27786    242.26382 
   25550    136.93326   -289.38905    127305.84   -33965.268    2582.5045   -36547.773    124.32506    242.88667 
   25600    135.64376   -264.51596    127288.93   -33986.236     2558.185   -36544.421    124.45282     240.5994 
   25650    134.58102   -90.410443       127295   -34004.816    2538.1421   -36542.958    124.71284    238.71435 
   25700    135.34291    101.31772    127295.73   -33959.488    2552.5112   -36511.999    124.77807    240.06577 
   25750    136.51556   -171.36418    127322.15   -33978.855    2574.6268   -36553.481    125.19415    242.14576 
   25800    135.22848   -287.87381    127314.48   -33985.497     2550.353    -36535.85    125.51061     239.8628 
   25850    133.68962   -209.28963     127340.1   -34000.416    2521.3307   -36521.746    125.74807    237.13322 
   25900    134.88268   -6.0175929    127395.55    -34045.12    2543.8314   -36588.952    126.01173    239.24943 
   25950    134.28938   -220.46628    127457.08   -34054.321    2532.6419   -36586.963    126.34941    238.19705 
   26000    135.17003   -349.77705    127461.05   -34091.548    2549.2506   -36640.799    126.70029    239.75911 
   26050      133.039   -171.02851    127477.78   -34102.087    2509.0603   -36611.147    127.11384    235.97918 
   26100    134.50252   -370.91195    127515.15    -34097.77    2536.6617   -36634.432    127.52148    238.57511 
   26150    136.52241    -378.9529     127484.3   -34071.303     2574.756   -36646.059    127.94938    242.15791 
   26200    135.83561   -142.26031    127474.84   -34067.077    2561.8032    -36628.88    128.05746     240.9397 
   26250    135.64161    -217.6532    127518.35   -34039.868    2558.1445   -36598.012    128.20743    240.59559 
   26300    133.50548   -193.90362    127556.25   -34101.005    2517.8581   -36618.863    128.35942    236.80662 
   26350     134.5317   -350.17161    127552.49   -34084.886     2537.212   -36622.098    128.55021    238.62687 
   26400    134.53653   -535.94624    127458.81   -34033.623    2537.3032   -36570.926    128.55929    238.63544 
   26450     133.7128   -283.06203    127387.84   -34060.192    2521.7679    -36581.96    128.57422    237.17434 
   26500    134.11954   -348.44808    127442.59   -34070.371    2529.4389    -36599.81    128.76004     237.8958 
   26550    132.55704   -146.92762    127486.55   -34061.593    2499.9707   -36561.564    129.09916     235.1243 
   26600    133.74195    29.209465    127516.07   -34050.914    2522.3177   -36573.231    129.30708    237.22605 
   26650    134.80625   -455.52211    127512.74   -34026.395      2542.39   -36568.785    129.56418    239.11387 
   26700    136.05758   -182.91751    127455.98   -33979.747    2565.9895   -36545.737    129.75865    241.33342 
   26750    133.69635   -350.21924    127424.43   -33990.988    2521.4577   -36512.446    129.95043    237.14517 
   26800    136.21391    30.912272    127422.72   -33956.361    2568.9379   -36525.299    130.24516    241.61072 
   26850    134.98707   -384.52816       127401   -34005.056    2545.8001   -36550.856    130.52074    239.43458 
   26900    136.01974   -490.78368    127340.01   -34021.086     2565.276   -36586.362    130.75183    241.26631 
   26950    136.40636   -247.93947    127303.49   -34007.893    2572.5674   -36580.461    131.00408    241.95208 
   27000    136.24872    46.786654    127245.56   -34012.489    2569.5944   -36582.083    131.42431    241.67246 
   27050    134.33089   -287.83066    127200.02   -33971.327    2533.4248   -36504.752     131.5738    238.27068 
   27100    135.07106   -31.025709    127193.17   -33958.267    2547.3841   -36505.651    131.47333    239.58357 
   27150    135.10232   -152.71668    127241.13   -33987.467    2547.9736    -36535.44    131.48994    239.63901 
   27200    135.66587   -437.89113    127208.08   -34043.013     2558.602   -36601.615     131.5766    240.63862 
   27250    131.35042   -495.76953    127211.77   -34049.402    2477.2145   -36526.616    131.57897    232.98405 
   27300    133.08074   -452.15484    127206.44   -34034.155    2509.8476   -36544.002    131.39348    236.05323 
   27350    135.02643   -545.78359    127097.41    -33993.58    2546.5425   -36540.122    131.39597    239.50441 
   27400    132.20336   -108.86012    127132.92   -34019.612    2493.3006   -36512.913    131.30515    234.49697 
   27450    135.75637   -284.09155     127101.9   -34042.425    2560.3089   -36602.734    131.25676    240.79915 
   27500    131.35217   -205.47507    127166.57   -34073.866    2477.2475   -36551.113    131.45732    232.98716 
   27550    132.10462   -515.95053    127097.29   -34039.634    2491.4384   -36531.073    131.58893    234.32182 
   27600    135.59413   -75.897834    126989.95   -34064.898     2557.249   -36622.147    131.85362    240.51137 
   27650    134.66516   -216.12899    127098.28   -34024.588     2539.729   -36564.317    132.11698    238.86359 
   27700    133.19683   -363.10066    127138.54   -34052.938     2512.037   -36564.975    132.16976    236.25914 
   27750    135.36389    88.511139    127034.99   -34036.016    2552.9068   -36588.923    132.74377    240.10298 
   27800    135.24235   -76.024816    127040.14   -34040.375    2550.6146    -36590.99    133.22647     239.8874 
   27850     136.9417   -117.49522    127064.97     -34009.7    2582.6637   -36592.364    133.25003    242.90164 
   27900    135.80062   -146.42468    127097.29    -33995.47    2561.1434   -36556.614    133.33097    240.87764 
   27950    137.92125   -248.87578    127106.14   -34025.203    2601.1375    -36626.34    133.68719    244.63912 
   28000    132.38588   -164.68093    127013.68   -34069.016    2496.7427   -36565.759    134.12784     234.8207 
   28050    135.19611   -177.69978    126951.04   -34062.694    2549.7426   -36612.436     134.1766    239.80539 
   28100     137.1157   -205.21969    126903.48   -34063.624    2585.9452   -36649.569    134.45818    243.21027 
   28150    136.66397    -160.4596    126896.83   -34056.373    2577.4257   -36633.799    134.49489      242.409 
   28200     134.6571   -231.60937    127004.11   -34079.725    2539.5771   -36619.302    135.02706    238.84931 
   28250    136.27505    85.314142    127072.99   -34075.308    2570.0909   -36645.399    135.55196    241.71916 
   28300    134.68882    16.638971    127086.94   -34054.844    2540.1753    -36595.02    136.00435    238.90557 
   28350    135.12579    133.53945     127196.3   -34063.567    2548.4163   -36611.984    136.46795    239.68064 
   28400    135.75962    7.6055157    127267.01    -34057.16      2560.37    -36617.53    136.57332     240.8049 
   28450    135.90322   -260.90482    127297.65   -34035.345    2563.0784   -36598.424    137.02542    241.05963 
   28500    138.27156   -374.28999    127277.96   -33960.171    2607.7443   -36567.916    137.14289    245.26049 
   28550    139.48471   -287.40771    127353.09   -33936.213    2630.6237   -36566.837    137.47817    247.41232 
   28600    135.65416   -297.00195    127347.67   -33935.444    2558.3811   -36493.825    137.98584    240.61784 
   28650    138.27871   -306.82546    127308.96   -33957.198    2607.8792   -36565.077    138.09987    245.27318 
   28700    138.99047   -342.95407    127303.52   -33951.941    2621.3025   -36573.243    138.73576    246.53565 
   28750    134.19787   -105.04903    127359.43   -33963.721    2530.9161   -36494.637    138.85205    238.03473 
   28800    134.41856   -289.61918    127374.52   -34018.005    2535.0783   -36553.083    138.75553    238.42619 
   28850    132.26477   -134.93909    127315.55   -34064.654    2494.4586   -36559.112    139.21629    234.60588 
   28900     135.7096    -165.8644    127327.37   -34078.566    2559.4268   -36637.993    139.24036    240.71619 
   28950    132.49833    -444.3429    127259.76   -34056.309    2498.8636   -36555.172    139.13505    235.02017 
   29000    134.55609   -261.97387    127218.91   -34019.871     2537.672   -36557.542    139.07659    238.67013 
   29050    134.90211   -282.64825    127320.98   -34051.566    2544.1977   -36595.763     139.3236    239.28389 
   29100    133.81837     74.94265    127380.28   -34029.613    2523.7589   -36553.372    139.79464     237.3616 
   29150    135.01719   -137.78197     127448.8   -34030.402    2546.3682    -36576.77    140.11973    239.48802 
   29200    133.46228   -493.79042    127434.37   -34064.817    2517.0432    -36581.86    140.12204    236.72998 
   29250    135.56665   -64.860968    127433.58   -34044.497    2556.7307   -36601.228    140.05777    240.46262 
   29300    137.24801   -394.67899    127471.71   -34042.084    2588.4406   -36630.524    140.35064    243.44496 
   29350     134.2816   -198.16088     127450.2   -34038.088    2532.4953   -36570.584    140.94259    238.18326 
   29400    133.58784   -300.67464    127515.73    -34052.08    2519.4113   -36571.492    141.48545     236.9527 
   29450    134.99062   -216.31649    127554.72   -34106.232    2545.8671   -36652.099     141.8301    239.44089 
   29500    133.60646    -481.5079    127549.04   -34087.683    2519.7623   -36607.445    142.05024    236.98572 
   29550    136.23832   -219.15195    127442.99   -34047.218    2569.3982   -36616.616    142.02624    241.65401 
   29600     136.3189   -431.40034    127478.48   -34033.562    2570.9179    -36604.48    142.05544    241.79694 
   29650    135.35938   -236.17748    127513.77   -34060.978    2552.8218     -36613.8    142.80041    240.09498 
   29700    135.35094   -377.69718    127427.94   -34039.121    2552.6625   -36591.783    143.27196    240.08001 
   29750    132.42591   -280.76798    127414.05   -34083.568    2497.4977   -36581.066    143.69441    234.89171 
   29800    132.32038   -551.69553    127359.45   -34122.875    2495.5075   -36618.382    143.95292    234.70452 
   29850    130.27954   -312.27612    127244.19   -34130.713     2457.018   -36587.731    144.22375    231.08456 
   29900    131.69061   -338.19071    127212.83   -34054.738    2483.6303   -36538.368     144.3146    233.58747 
   29950    133.39604   -257.30389    127277.26   -34027.515     2515.794   -36543.309    144.65046    236.61249 
   30000     133.5725   -269.44948    127322.09   -34049.779     2519.122   -36568.901    145.14556    236.92549 
   30050    133.28636   -445.04073    127294.13    -34056.23    2513.7254   -36569.955    145.45759    236.41793 
   30100    135.62195   -314.78881    127369.38   -34078.487    2557.7737   -36636.261    145.58535    240.56072 
   30150    135.55412   -255.36349    127421.74   -34047.604    2556.4944   -36604.098    145.86782     240.4404 
   30200    136.18748   -245.35322    127435.34   -34073.862    2568.4394   -36642.302    145.93356    241.56383 
   30250    135.41343    -245.3875     127503.1   -34059.937    2553.8411   -36613.778    146.27591    240.19085 
   30300    135.53664    -21.58322    127547.81   -34056.298    2556.1648   -36612.463    146.66132     240.4094 
   30350    135.64857   -357.99757    127573.15    -34063.34    2558.2758   -36621.615    147.04274    240.60794 
   30400    135.26844   -422.98801    127544.64   -34055.691    2551.1067   -36606.797    147.78718    239.93368 
   30450    134.04387    74.419846    127567.62   -34089.761    2528.0117   -36617.773    148.36765    237.76158 
   30500    132.01311   -385.34907    127576.42   -34104.863    2489.7125   -36594.576    148.69813     234.1595 
   30550     132.5814   -182.21454    127568.72   -34060.969    2500.4302   -36561.399    149.02142    235.16751 
   30600     131.0597   -377.23848    127640.68   -34081.801    2471.7317   -36553.533    149.22506    232.46839 
   30650     129.4866   -297.76699    127629.16    -34100.38    2442.0635   -36542.443    149.36323    229.67808 
   30700    132.24075   -501.10017    127600.15   -34120.478    2494.0057   -36614.484    149.72285    234.56328 
   30750    132.11923   -301.43019    127526.18   -34111.078    2491.7138   -36602.791    150.21881    234.34773 
   30800    131.59725   -486.94724    127516.65   -34127.883    2481.8695   -36609.753    150.35094    233.42186 
   30850    131.84996   -308.18768    127529.58   -34108.955    2486.6356   -36595.591    150.45565    233.87012 
   30900    132.85567   -109.72575    127561.03   -34161.735    2505.6028   -36667.338    150.39365      235.654 
   30950    132.01361   -59.933277    127543.67   -34142.672    2489.7219   -36632.393    150.52858    234.16039 
   31000    133.91607    41.937308    127686.55   -34145.464    2525.6015   -36671.065    150.73392    237.53489 
   31050    132.27242   -3.1535883     127858.3   -34144.971     2494.603   -36639.574    150.64159    234.61946 
   31100    135.48836   -283.50356    127932.24   -34108.441    2555.2543   -36663.695     150.5783    240.32377 
   31150    131.85122   -203.38107     127897.5   -34081.773    2486.6593   -36568.433    150.43053    233.87234 
   31200    135.51411   -106.96987    127968.39   -34094.423    2555.7398   -36650.163    150.71245    240.36943 
   31250     134.9005   -356.95248    128061.26   -34079.054    2544.1675   -36623.222    150.89193    239.28105 
   31300    138.08938   -536.98443    128054.74   -34110.987    2604.3085   -36715.295    151.04243    244.93735 
   31350     133.5751   -622.11442    127960.05   -34147.128     2519.171   -36666.299    150.93247     236.9301 
   31400    134.72607   -578.01849    127861.52   -34115.858    2540.8778   -36656.736     151.0012    238.97164 
   31450    132.91949   -211.17558    127809.35   -34087.746    2506.8064   -36594.553    151.12238     235.7672 
   31500    136.53484   -126.17328    127831.94   -34021.982    2574.9904   -36596.972    151.42765    242.17996 
   31550    138.80703   -90.781325    127891.02   -34047.544    2617.8431   -36665.387    151.37957    246.21029 
   31600       136.03   -94.789228    127922.27   -34055.411    2565.4694   -36620.881    151.52821     241.2845 
   31650    137.21204   -444.17494    128031.12   -34072.736    2587.7621   -36660.499    151.87994    243.38115 
   31700    134.83587   -586.27665     127943.8   -34088.312    2542.9487   -36631.261    151.65915    239.16641 
   31750     135.3231   -292.35856     127910.3   -34114.711    2552.1376   -36666.849    151.75747    240.03064 
   31800     132.6852   -591.79108     127897.9   -34150.702    2502.3878   -36653.089    151.82183    235.35163 
   31850    135.67892   -223.93252    127923.13   -34122.965    2558.8482   -36681.813    152.23457    240.66177 
   31900    137.22222   -278.40093    127958.21   -34048.512    2587.9542   -36636.466    152.48645    243.39922 
   31950    138.36106   -251.98684    127975.91   -34117.807    2609.4321   -36727.239    152.57382    245.41923 
   32000    136.06515    -217.0248    127989.98   -34131.053    2566.1322   -36697.186    152.73493    241.34684 
   32050    134.28284   -183.20452    127910.18   -34155.616    2532.5187   -36688.135    152.83832    238.18546 
   32100    133.80502   -164.58306    127901.47   -34137.335    2523.5071   -36660.842    152.44538    237.33792 
   32150    133.27518    -55.05713     127886.5   -34108.337    2513.5146   -36621.852    152.86696    236.39811 
   32200    133.25866   -245.69062    127906.07   -34133.864    2513.2031   -36647.067    152.73523    236.36881 
   32250    134.70638   -172.51184    127905.81   -34142.132    2540.5065   -36682.639     152.8966    238.93672 
   32300    134.52483   -205.03401    127899.15   -34179.149    2537.0825   -36716.231    152.98307    238.61469 
   32350    134.98724   -493.68299    127774.97   -34201.204    2545.8034   -36747.008    153.22978     239.4349 
   32400    133.37118   -462.70527    127700.69   -34176.338    2515.3252   -36691.663    153.31356    236.56839 
   32450    135.46206   -248.00404    127687.59    -34208.68    2554.7582   -36763.439    153.44048     240.2771 
   32500    133.63983   -104.94391    127675.76   -34137.753    2520.3918   -36658.145    153.61911    237.04492 
   32550    135.72575   -277.64912    127616.79     -34091.8    2559.7313   -36651.531    153.38989    240.74483 
   32600    137.05999   -260.07351     127573.6   -34041.017    2584.8945   -36625.912    153.62209    243.11145 
   32650    134.63444   -115.15943    127598.38   -34037.919    2539.1497   -36577.069    153.68815    238.80911 
   32700    136.22612   -151.39439    127660.28   -34034.855    2569.1681   -36604.023    153.60201    241.63237 
   32750    137.30433   -216.90667    127700.61   -34005.016    2589.5026   -36594.519     154.0557    243.54485 
   32800    137.01967   -308.53141    127712.38   -34020.417    2584.1342   -36604.551     154.4711    243.03994 
   32850    135.99674   -235.71841     127641.1   -33993.104    2564.8421   -36557.946    154.58236     241.2255 
   32900    137.28991   -141.40928     127667.4   -34017.881    2589.2307   -36607.112     154.8298    243.51927 
   32950    135.00979   -365.91119    127607.83   -34016.435    2546.2286   -36562.663    154.77315    239.47489 
   33000    137.45912   -237.99836    127517.78   -33996.396    2592.4221   -36588.818    154.60675    243.81942 
   33050    134.81114   -341.88448    127488.05   -33983.837    2542.4821    -36526.32    154.36973    239.12253 
   33100    133.19699   -409.43551    127461.48   -34071.787      2512.04   -36583.827    154.45265    236.25942 
   33150     132.6539   -182.54921    127506.03   -34054.987    2501.7976   -36556.784     154.8197    235.29611 
   33200     135.1307   -512.43253    127484.61   -34020.519     2548.509   -36569.028    154.89673    239.68936 
   33250    134.87547   -108.63084    127440.74   -34007.293    2543.6955   -36550.989    154.72746    239.23665 
   33300    135.41102   -175.71558    127441.73   -33990.371    2553.7956   -36544.167     154.8071    240.18657 
   33350    136.50483   -533.10509    127411.04   -33984.955    2574.4244   -36559.379    154.74051    242.12673 
   33400    135.38021   -218.94554     127334.7   -34018.702    2553.2146   -36571.917     154.6669    240.13193 
   33450    134.19433   -306.18791    127296.48   -34069.592    2530.8494   -36600.441    154.96329    238.02847 
   33500    132.97268   -164.24619    127249.13   -34047.713    2507.8095   -36555.523    154.81057    235.86154 
   33550    134.57135   -321.80009    127197.71   -34038.633    2537.9599   -36576.593    155.01465    238.69721 
   33600    136.35444   -347.80046    127233.54    -34004.98    2571.5882   -36576.568    155.17175    241.85998 
   33650    137.78406   -270.43726    127325.28   -33940.007    2598.5502   -36538.558     155.3226    244.39577 
   33700    139.81234   -191.86845    127374.21   -33967.977    2636.8028   -36604.779    156.03539    247.99347 
   33750    136.79226   -216.35611    127515.46   -33994.522    2579.8452   -36574.367    156.20219    242.63656 
   33800    135.34166   -213.77463    127600.18   -34007.313    2552.4876   -36559.801    156.15788    240.06355 
   33850    135.43071   -177.39399    127631.74   -33969.654     2554.167   -36523.821    156.30731     240.2215 
   33900    134.49954    -52.24501     127599.9   -33979.567    2536.6056   -36516.173    156.47771    238.56984 
   33950     137.1928   -140.59799    127511.86   -33971.349    2587.3993   -36558.748    156.66035    243.34703 
[...]
   92000    136.94494   -214.85839    127291.49   -34068.046    2582.7248   -36650.771     373.3497    242.90739 
   92050    135.58995   -318.71587    127309.48   -34096.863    2557.1702   -36654.033    373.98695    240.50396 
   92100    135.88027    -499.6803    127341.02   -34077.505    2562.6455    -36640.15    374.31344    241.01892 
   92150    133.09223   -183.98062    127339.02   -34097.285    2510.0642   -36607.349    374.31818    236.07359 
   92200    133.53555   -279.91268    127398.04   -34140.994    2518.4251   -36659.419    374.60638    236.85995 
   92250    132.56005   -473.47663    127414.94    -34146.97    2500.0275   -36646.998    374.86793    235.12964 
   92300    134.05053    165.19232    127439.54   -34101.301    2528.1374   -36629.439    374.94549    237.77339 
   92350    133.93079    -277.5824    127539.65   -34148.488    2525.8792   -36674.367    374.99812    237.56101 
   92400    134.42772   -5.8951387    127568.19   -34143.497     2535.251   -36678.748    375.17985    238.44244 
   92450    133.31163   -338.66566    127646.49    -34132.96     2514.202   -36647.162    375.57819    236.46276 
   92500    132.97913   -102.40857    127701.75   -34146.692    2507.9312   -36654.624    375.91833    235.87299 
   92550    133.34196   -538.79987     127645.9    -34143.88     2514.774   -36658.654    375.55798    236.51656 
   92600      133.646   -195.30367     127607.2   -34099.686    2520.5082   -36620.194    375.63233    237.05586 
   92650    135.66507    -438.6596    127491.35   -34085.035     2558.587   -36643.622    376.01963     240.6372 
   92700    133.14535   -270.82009    127373.87   -34084.817    2511.0661   -36595.883    376.12464    236.16783 
   92750     134.4498   -216.28845    127334.77   -34095.297    2535.6675   -36630.964    375.97831     238.4816 
   92800    134.05606   -93.116444    127354.85   -34138.962    2528.2417   -36667.204    376.00643     237.7832 
   92850    132.85989   -241.87677    127355.78   -34162.432    2505.6824   -36668.114    376.33458    235.66148 
   92900    135.07717   -5.9584046    127373.13   -34158.318    2547.4993   -36705.818    376.75634     239.5944 
   92950    135.12451   -125.92841    127466.43    -34131.55    2548.3922   -36679.943    377.23273    239.67837 
   93000    134.84348   -236.02424    127513.57   -34198.514    2543.0922   -36741.606    377.09064    239.17991 
   93050    134.91801   -265.56064    127487.22   -34171.337    2544.4978   -36715.835    376.92851     239.3121 
   93100    131.98006    -515.1735    127449.88   -34201.276    2489.0892   -36690.365    376.77236    234.10088 
   93150    133.42958   -89.228631    127367.79   -34187.355    2516.4265   -36703.782    377.27463    236.67198 
   93200    134.03105   -297.40714    127406.38   -34114.505    2527.7699   -36642.275    377.63504    237.73884 
   93250    134.72867   -23.718679    127475.76    -34094.28    2540.9268   -36635.207     377.9584    238.97625 
   93300    136.83561   -124.03069    127562.32   -34049.009    2580.6628   -36629.672     378.4794    242.71346 
   93350    133.44959   -408.92875     127529.4   -34080.453     2516.804   -36597.257    378.81693    236.70748 
   93400    135.53643   -22.088886    127549.45   -34122.949    2556.1609    -36679.11    378.85991    240.40903 
   93450    135.90805   -32.059458    127556.69    -34113.82    2563.1694    -36676.99    379.49798    241.06819 
   93500    134.67654   -136.51459     127577.7   -34084.941    2539.9438   -36624.884    380.03602     238.8838 
   93550    134.46551   -40.465552    127606.16   -34042.522    2535.9637   -36578.486    379.78406    238.50947 
   93600    134.91168    -35.81339    127721.39   -34082.172    2544.3784    -36626.55    379.98531    239.30088 
   93650     135.0199   -121.56291    127811.65   -34046.512    2546.4193   -36592.932    380.33035    239.49282 
   93700    138.17314   -199.70506    127756.29   -34055.334    2605.8881   -36661.222    380.39639    245.08591 
   93750    136.49477   -100.80266    127714.71   -34036.902    2574.2347   -36611.136     380.9122    242.10889 
   93800     135.4789   -284.17811    127682.55   -34070.849    2555.0758   -36625.924    381.26415    240.30698 
   93850    136.99372   -111.08076    127620.38   -34122.102    2583.6447   -36705.747    380.96411     242.9939 
   93900      134.903    101.71228     127705.1   -34094.368    2544.2146   -36638.583    380.75179    239.28547 
   93950    136.33436   -221.65698    127698.66   -34020.104    2571.2096   -36591.314    380.86746    241.82437 
   94000    138.09096   -336.41377    127683.54   -34032.342    2604.3383   -36636.681    380.97362    244.94015 
   94050    134.89942    25.657107    127635.31   -34071.116    2544.1471   -36615.263    380.76399    239.27913 
   94100    137.43421    44.077406     127730.7   -34023.845    2591.9523   -36615.797    381.15981    243.77524 
   94150    137.63481   -119.74655    127735.77    -33983.74    2595.7355   -36579.476    381.31546    244.13105 
   94200    137.96867   -63.565406    127621.71   -34011.799    2602.0319   -36613.831    380.75341    244.72323 
   94250    137.73728   -220.43261    127622.79   -34034.725    2597.6679   -36632.393    381.41801     244.3128 
   94300    133.54699    -190.6339     127579.3    -34093.13    2518.6408   -36611.771    381.67907    236.88023 
   94350    135.72933   -192.65354     127448.1   -34073.249    2559.7989   -36633.048    382.57815    240.75119 
   94400    137.37297   -124.30963     127400.7   -34075.191    2590.7973   -36665.988    382.51539    243.66661 
   94450    136.76841    38.282521    127480.85   -34062.323    2579.3955   -36641.719    382.61378    242.59426 
   94500    134.63922   -184.91035    127428.32   -34013.725    2539.2398   -36552.965    382.51078    238.81759 
   94550    138.19654   -331.16455    127385.69   -34030.147    2606.3294   -36636.477    382.77162    245.12742 
   94600    135.13548   -63.555352    127414.15   -34079.831    2548.5991    -36628.43    382.65416    239.69784 
   94650    133.20672    -534.5503    127369.04   -34086.049    2512.2235   -36598.272    382.61524    236.27668 
   94700    134.09673   -301.02644     127178.2   -34097.618    2529.0087   -36626.627    382.38063    237.85534 
   94750    135.00995   -396.51769    127196.55   -34045.856    2546.2316   -36592.088      382.562    239.47517 
   94800     132.7406   -117.44167    127182.18   -34041.258    2503.4327   -36544.691    382.91253     235.4499 
   94850    133.61594   -40.593653     127240.9   -34053.601    2519.9412   -36573.542    383.38572    237.00254 
   94900    132.32771    6.7579391    127271.18   -34061.715    2495.6457    -36557.36    383.46774    234.71752 
   94950    131.57051   -107.00683    127256.06   -34083.828    2481.3652   -36565.194    383.99296    233.37443 
   95000    133.89635    -235.7293    127275.05   -34081.388    2525.2297   -36606.618     384.1139    237.49993 
   95050    132.69997   -275.35719    127271.61   -34072.675    2502.6663   -36575.341    384.47655    235.37782 
   95100    133.72087   -92.096527    127223.85    -33999.67    2521.9201    -36521.59    385.08965    237.18866 
   95150    136.40633   -348.08723    127206.66   -34029.464    2572.5668   -36602.031     385.4792    241.95202 
   95200    131.19836   -457.92224     127127.4   -34127.189    2474.3467   -36601.536    385.69634    232.71434 
   95250    132.78368   -175.88599    127056.56   -34120.662    2504.2452   -36624.907    385.50055    235.52632 
   95300    133.20211   -241.18786    127051.38   -34154.797    2512.1366   -36666.934    385.85442    236.26851 
   95350    133.36996    84.862074    126996.37   -34130.256    2515.3022   -36645.558    385.62444    236.56624 
   95400    134.46795   -281.54223    127027.48   -34087.869    2536.0097   -36623.878    385.60871     238.5138 
   95450    132.82042   -139.54244       127008   -34080.133     2504.938   -36585.071    386.28869    235.59147 
   95500    130.47602   -308.17181    126940.55   -34159.754    2460.7236   -36620.477    386.72801    231.43307 
   95550    132.15772    123.27938    126977.38   -34116.052    2492.4398   -36608.492     386.6826      234.416 
   95600    132.20013   -200.15418    127001.72   -34097.964    2493.2396   -36591.204    387.23792    234.49123 
   95650    135.41592   -170.19144    127008.45   -34059.173    2553.8881   -36613.061    387.23684    240.19527 
   95700    133.04913    -108.4099    127061.51   -34055.157    2509.2514   -36564.408    387.38353    235.99715 
   95750    136.02752   -3.8467607    127095.09   -34006.173    2565.4227   -36571.595    387.24989    241.28011 
   95800    135.30227   -93.027916    127063.41   -34041.421    2551.7447   -36593.165    387.67681    239.99369 
   95850    135.29515    78.145198    127080.48   -34056.635    2551.6103   -36608.246    387.66202    239.98105 
   95900    132.89079   -210.06465    127111.66   -34054.604    2506.2652   -36560.869    387.30726     235.7163 
   95950    137.05944    2.2752623    127125.66   -34028.617    2584.8841   -36613.502    387.64029    243.11047 
   96000    134.37358   -231.88592    127181.04   -34027.682    2534.2299   -36561.912    387.95547     238.3464 
   96050    136.01622   -166.91416    127279.06    -34054.65    2565.2094    -36619.86    388.32524    241.26005 
   96100    134.11683   -22.808938    127330.96   -34034.024    2529.3878   -36563.412    388.59395      237.891 
   96150    136.05484   -68.860403    127383.98    -34044.61    2565.9378   -36610.548    388.78285    241.32855 
   96200    136.48226   -471.52288    127406.01    -34084.92    2573.9988   -36658.919    389.13046     242.0867 
   96250    136.46278   -365.69973    127317.22   -34020.263    2573.6315   -36593.894    388.95687    242.05215 
   96300    135.21284    -530.5733     127282.8   -34017.736     2550.058   -36567.794     388.5061    239.83505 
   96350    137.17548   -547.05734    127266.79   -33969.446    2587.0726   -36556.519    388.36179     243.3163 
   96400    138.69742   -29.608671    127300.67   -33970.216    2615.7759   -36585.992    388.73466    246.01587 
   96450    134.72562   -382.96342    127300.17   -34052.123    2540.8694   -36592.992    389.35922    238.97085 
   96500    134.31386   -35.306373    127337.55   -34046.621    2533.1038   -36579.725    389.38931    238.24049 
   96550    134.12324   -197.61546     127378.3   -34020.334    2529.5087   -36549.843     389.7423    237.90237 
   96600    134.39551    19.756903    127447.41   -34014.908    2534.6435   -36549.551    390.17669     238.3853 
   96650    136.65484   -145.57652    127532.43   -34002.697    2577.2536   -36579.951    389.91756    242.39281 
   96700    134.99028    22.680512     127580.4   -34025.754    2545.8607   -36571.615    391.04239    239.44029 
   96750    136.23094   -282.76372    127537.19   -34022.299     2569.259   -36591.558    390.79159    241.64092 
   96800    135.47803    -246.3572    127514.59   -34066.608    2555.0595   -36621.668    390.68675    240.30544 
   96850     133.5109   -300.19835    127432.69   -34076.872    2517.9602   -36594.832    390.36796    236.81622 
   96900    132.89381   -132.98381    127353.02   -34065.695    2506.3222   -36572.018    390.64558    235.72166 
   96950    135.50784   -190.11917    127327.31   -34045.718    2555.6217   -36601.339     391.0744    240.35832 
   97000    137.54404   -75.690294    127460.93   -34002.588    2594.0235   -36596.612    391.04604    243.97004 
   97050    135.84062   -229.26157     127471.1   -34013.177    2561.8977   -36575.074    391.11204    240.94858 
   97100    134.31314   -208.90036     127405.4   -33990.542      2533.09   -36523.632    391.19027     238.2392 
   97150    134.03922   -173.88584    127371.47    -33982.89    2527.9242   -36510.814    391.33204    237.75334 
   97200    139.55337   -158.46141    127359.06   -33957.009    2631.9187   -36588.928     391.5178    247.53412 
   97250    139.02061   -143.52344       127415   -33989.794     2621.871   -36611.665    391.60032    246.58912 
   97300    136.76199   -484.74918    127439.92   -33946.936    2579.2745    -36526.21    392.26482    242.58288 
   97350      139.269    -276.1601    127399.07   -33897.453    2626.5555   -36524.009     392.3783     247.0297 
   97400    137.37586   -184.58958    127467.58   -33908.866    2590.8518   -36499.718     392.7951    243.67174 
   97450    135.15593   -353.08746    127513.91    -33941.51    2548.9848   -36490.494    393.05329    239.73411 
   97500    137.09273   -431.29818    127428.22   -33968.118    2585.5121    -36553.63    393.54336    243.16953 
   97550    138.16857   -327.34063    127390.65   -33955.324    2605.8019   -36561.126    393.74109    245.07781 
   97600    133.00671   -11.495799    127390.45   -33997.561    2508.4514   -36506.012    393.73298    235.92191 
   97650    136.02377   -75.590719    127382.39   -34035.171    2565.3519   -36600.523    394.12196    241.27345 
   97700    138.83237   -87.052326    127327.67   -34022.887    2618.3209   -36641.208    394.34884    246.25523 
   97750    134.90479   -338.08512    127291.74   -34058.963    2544.2485   -36603.212    394.49326    239.28866 
   97800    131.83868   -406.46754    127277.63   -34131.164    2486.4228   -36617.587    394.65282    233.85011 
   97850    132.17457   -208.32415    127245.93   -34165.703    2492.7575    -36658.46    394.99822    234.44589 
   97900    132.11431   -353.46923     127250.1   -34118.211    2491.6211   -36609.832    395.22515    234.33901 
   97950    132.99785   -241.56394    127237.74   -34088.161    2508.2842   -36596.446    395.35684    235.90619 
   98000    133.80395   -166.13367     127247.6   -34106.085    2523.4869   -36629.572    395.01457    237.33602 
   98050     137.1966   -262.73675    127292.75   -34078.484     2587.471   -36665.955    395.20997    243.35377 
   98100    135.59364   -288.83504    127357.49   -34060.825    2557.2398   -36618.065    395.79121     240.5105 
   98150    135.32439    -360.1847    127377.29   -34062.873    2552.1618   -36615.035    396.21947    240.03292 
   98200    134.09813    -292.2822    127306.85   -34085.069    2529.0351   -36614.104    396.32606    237.85782 
   98250    133.23995   -309.84887    127292.38   -34079.494    2512.8502   -36592.344    396.22099    236.33562 
   98300    132.80774   -136.95674    127330.16   -34065.703    2504.6989   -36570.402    396.61642    235.56899 
   98350    133.98097   -333.39337     127414.9   -34062.555    2526.8255    -36589.38    396.96747    237.65001 
   98400     135.3887   -198.39902    127393.57   -34035.582    2553.3746   -36588.957    396.85934    240.14698 
   98450    134.49444   -456.65079    127348.62   -34025.087    2536.5093   -36561.596    396.74593    238.56078 
   98500    135.50114   -463.24679    127275.36   -34036.108    2555.4953   -36591.603    397.63645    240.34643 
   98550     133.9111   -270.24233    127327.74   -34028.933    2525.5078   -36554.441    398.00685    237.52608 
   98600    133.85599   -35.671259    127367.99   -34034.104    2524.4685   -36558.572    397.93327    237.42833 
   98650    133.65584    -311.9366    127452.14   -34107.777    2520.6938   -36628.471    398.14551    237.07332 
   98700    132.31848   -299.29165    127497.07   -34061.356    2495.4716   -36556.828    398.27998    234.70115 
   98750    134.91264   -250.77367    127539.12    -34032.77    2544.3964   -36577.166    398.72168    239.30257 
   98800    135.25884   -196.11873    127582.21    -34056.04    2550.9255   -36606.966    399.21037    239.91664 
   98850    136.47996   -304.41323       127575   -34054.162    2573.9555   -36628.118    400.35732    242.08262 
   98900    134.54534   -489.81473    127497.45   -34043.599    2537.4693   -36581.069    400.96299    238.65107 
   98950    134.55902   -226.85958    127479.56   -34077.038    2537.7273   -36614.765    400.61416    238.67533 
   99000    131.98799   -337.44567    127500.65   -34101.973    2489.2388   -36591.212    400.74628    234.11495 
   99050    132.45755    -229.0072    127559.19   -34073.337    2498.0944   -36571.432    401.09576    234.94783 
   99100    133.51779   -292.83817    127605.94   -34061.562    2518.0901   -36579.652    401.83413    236.82844 
   99150    136.37155   -51.755861    127677.13   -34063.716    2571.9109   -36635.627    401.80437    241.89033 
   99200    133.05869   -311.89146    127613.02   -34068.465    2509.4316   -36577.897    401.66469    236.01411 
   99250    135.71722   -19.274846    127535.98   -34067.334    2559.5704   -36626.905    401.68375     240.7297 
   99300    133.33835    112.42798    127487.49   -34023.581    2514.7059   -36538.287    401.32559    236.51016 
   99350    136.07493   -131.63034    127583.24   -34044.568    2566.3167   -36610.885    401.57909    241.36419 
   99400    136.15575   -170.67628    127466.16   -34019.846     2567.841   -36587.687    401.49363    241.50755 
   99450    132.76949   -134.86417    127435.84   -34030.578    2503.9774   -36534.556    401.72889    235.50113 
   99500     134.4682   -387.14368    127353.22   -34020.712    2536.0145   -36556.726    402.12685    238.51424 
   99550    136.00892   -345.39515    127300.44   -34005.675    2565.0719   -36570.747     401.8331    241.24711 
   99600     135.2774   -440.46428    127296.61   -34054.279    2551.2756   -36605.555    402.28611    239.94957 
   99650    134.11264   -426.96911    127334.49   -34056.056    2529.3087   -36585.365    402.73564    237.88356 
   99700     136.5954   -67.584967    127342.28   -34035.946    2576.1326   -36612.079    402.46969    242.28738 
   99750    132.64512    25.667234    127362.08   -34049.215    2501.6319   -36550.847    403.35796    235.28053 
   99800    131.42184   -400.75673    127344.42   -34023.874    2478.5613   -36502.436    403.55203    233.11072 
   99850    134.50125   -109.80852    127291.72    -34016.12    2536.6377   -36552.758    403.89666    238.57286 
   99900    134.04731   -268.26308    127431.66   -33983.444    2528.0767    -36511.52    404.15561    237.76769 
   99950    136.23481   -367.33471    127470.14   -33992.675     2569.332   -36562.007    404.42692    241.64778 
  100000    133.58228   -223.33812    127515.77   -34008.423    2519.3064    -36527.73    404.36758    236.94284 
Loop time of 89.3836 on 64 procs for 100000 steps with 6328 atoms

Performance: 483.310 ns/day, 0.050 hours/ns, 1118.773 timesteps/s
100.0% CPU use with 64 MPI tasks x no OpenMP threads

MPI task timing breakdown:
Section |  min time  |  avg time  |  max time  |%varavg| %total
---------------------------------------------------------------
Pair    | 18.156     | 39.806     | 65.105     | 336.3 | 44.53
Neigh   | 0.8966     | 1.8988     | 3.8654     |  78.7 |  2.12
Comm    | 15.09      | 39.529     | 63.114     | 323.5 | 44.22
Output  | 0.12676    | 0.12815    | 0.14072    |   0.5 |  0.14
Modify  | 4.5694     | 7.3252     | 12.738     | 105.4 |  8.20
Other   |            | 0.6973     |            |       |  0.78

Nlocal:    98.875 ave 170 max 58 min
Histogram: 31 1 0 6 10 0 0 0 6 10
Nghost:    766.219 ave 1075 max 491 min
Histogram: 32 0 0 0 0 0 0 0 16 16
Neighs:    0 ave 0 max 0 min
Histogram: 64 0 0 0 0 0 0 0 0 0
FullNghs:  8128.41 ave 18721 max 2281 min
Histogram: 32 0 0 1 15 0 0 0 2 14

Total # of neighbors = 520218
Ave neighs/atom = 82.2089
Neighbor list builds = 5993
Dangerous builds = 0

write_data		${DIR}/data.eq-${NAME}-${TEMP}
write_data		run_23/data.eq-${NAME}-${TEMP}
write_data		run_23/data.eq-het_freeze_23-${TEMP}
write_data		run_23/data.eq-het_freeze_23-240
undump          1

reset_timestep  0

unfix           2
unfix           3
unfix           4


################################################
#######         Run Simulation         #########
################################################

log				${DIR}/log.run_${NAME}
log				run_23/log.run_${NAME}
log				run_23/log.run_het_freeze_23
