LAMMPS data file via write_data, version 29 Sep 2021, timestep = 8000000

4065 atoms
2 atom types

0 49.22 xlo xhi
0 49.019635930410494 ylo yhi
1.3127592874124225 26.528072958878653 zlo zhi

Masses

1 18.015
2 12.01

Atoms # atomic

83 2 0 2.8417180249513345 2.831610471636843 0 0 0
85 2 0 0 2.831610471636843 0 0 0
87 2 1.2305000000000001 0.7104295062378347 2.831610471636843 0 0 0
94 2 1.2305000000000001 2.1312885187135 2.831610471636843 0 0 0
96 2 2.4610000000000003 2.8417180249513345 2.831610471636843 0 0 0
98 2 2.4610000000000003 0 2.831610471636843 0 0 0
100 2 3.6915000000000004 0.7104295062378347 2.831610471636843 0 0 0
115 2 3.6914999999999996 2.1312885187135 2.831610471636843 0 0 0
117 2 4.922000000000001 2.841718024951333 2.831610471636843 0 0 0
119 2 4.922000000000001 0 2.831610471636843 0 0 0
90 2 0 4.262577037427 2.831610471636843 0 0 0
111 2 2.4610000000000003 4.262577037427 2.831610471636843 0 0 0
140 2 4.922000000000001 4.262577037426998 2.831610471636843 0 0 0
92 2 1.2305000000000001 4.973006543664834 2.831610471636843 0 0 0
107 2 1.2305000000000001 6.393865556140498 2.831610471636843 0 0 0
113 2 3.6914999999999996 4.973006543664834 2.831610471636843 0 0 0
136 2 3.6914999999999996 6.393865556140498 2.831610471636843 0 0 0
88 2 0 7.104295062378334 2.831610471636843 0 0 0
103 2 0 8.525154074854 2.831610471636843 0 0 0
105 2 1.2305000000000001 9.235583581091834 2.831610471636843 0 0 0
109 2 2.4610000000000003 7.104295062378334 2.831610471636843 0 0 0
132 2 2.4610000000000003 8.525154074854 2.831610471636843 0 0 0
134 2 3.6915000000000004 9.235583581091834 2.831610471636843 0 0 0
138 2 4.922000000000001 7.104295062378334 2.831610471636843 0 0 0
169 2 4.922000000000001 8.525154074854 2.831610471636843 0 0 0
84 2 0 1.420859012475665 5.869312840083774 0 0 0
86 2 0 0 5.869312840083774 0 0 0
95 2 1.2305000000000001 2.1312885187135 5.869312840083774 0 0 0
97 2 2.4610000000000003 1.420859012475665 5.869312840083774 0 0 0
99 2 2.4610000000000003 0 5.869312840083774 0 0 0
412 2 0 2.8417180249513345 8.90701520852666 0 0 0
413 2 0 0 8.90701520852666 0 0 0
414 2 1.2305000000000001 0.7104295062378347 8.90701520852666 0 0 0
418 2 1.2305000000000001 2.1312885187135 8.90701520852666 0 0 0
419 2 2.4610000000000003 2.8417180249513345 8.90701520852666 0 0 0
420 2 2.4610000000000003 0 8.90701520852666 0 0 0
116 2 3.6914999999999996 2.1312885187135 5.869312840083774 0 0 0
118 2 4.922000000000001 1.420859012475665 5.869312840083774 0 0 0
120 2 4.922000000000001 0 5.869312840083774 0 0 0
421 2 3.6915000000000004 0.7104295062378347 8.90701520852666 0 0 0
429 2 3.6914999999999996 2.1312885187135 8.90701520852666 0 0 0
430 2 4.922000000000001 2.841718024951333 8.90701520852666 0 0 0
431 2 4.922000000000001 0 8.90701520852666 0 0 0
91 2 0 4.262577037427 5.869312840083774 0 0 0
93 2 1.2305000000000001 3.5521475311891644 5.869312840083774 0 0 0
112 2 2.4610000000000003 4.262577037427 5.869312840083774 0 0 0
416 2 0 4.262577037427 8.90701520852666 0 0 0
427 2 2.4610000000000003 4.262577037427 8.90701520852666 0 0 0
114 2 3.6914999999999996 3.5521475311891644 5.869312840083774 0 0 0
141 2 4.922000000000001 4.262577037426998 5.869312840083774 0 0 0
442 2 4.922000000000001 4.262577037426998 8.90701520852666 0 0 0
89 2 0 5.683436049902664 5.869312840083774 0 0 0
108 2 1.2305000000000001 6.393865556140498 5.869312840083774 0 0 0
110 2 2.4610000000000003 5.683436049902664 5.869312840083774 0 0 0
417 2 1.2305000000000001 4.973006543664834 8.90701520852666 0 0 0
425 2 1.2305000000000001 6.393865556140498 8.90701520852666 0 0 0
137 2 3.6914999999999996 6.393865556140498 5.869312840083774 0 0 0
139 2 4.922000000000001 5.683436049902664 5.869312840083774 0 0 0
428 2 3.6914999999999996 4.973006543664834 8.90701520852666 0 0 0
440 2 3.6914999999999996 6.393865556140498 8.90701520852666 0 0 0
104 2 0 8.525154074854 5.869312840083774 0 0 0
106 2 1.2305000000000001 7.814724568616164 5.869312840083774 0 0 0
133 2 2.4610000000000003 8.525154074854 5.869312840083774 0 0 0
415 2 0 7.104295062378334 8.90701520852666 0 0 0
423 2 0 8.525154074854 8.90701520852666 0 0 0
424 2 1.2305000000000001 9.235583581091834 8.90701520852666 0 0 0
426 2 2.4610000000000003 7.104295062378334 8.90701520852666 0 0 0
438 2 2.4610000000000003 8.525154074854 8.90701520852666 0 0 0
135 2 3.6914999999999996 7.814724568616164 5.869312840083774 0 0 0
170 2 4.922000000000001 8.525154074854 5.869312840083774 0 0 0
439 2 3.6915000000000004 9.235583581091834 8.90701520852666 0 0 0
441 2 4.922000000000001 7.104295062378334 8.90701520852666 0 0 0
457 2 4.922000000000001 8.525154074854 8.90701520852666 0 0 0
4063 1 3.8377609410087365 2.4785049765406284 11.54452557230505 1 0 -1
43 1 1.8165152342154884 0.7550474808214658 11.871958127165366 5 1 1
3983 1 3.930620176820027 5.174947919768323 11.638072046999397 3 1 -1
1010 1 1.6789372135918945 6.6120351537143 11.247404728025758 1 0 -1
2930 1 1.5174327991905674 9.22590280673683 11.893033011106978 0 2 0
3866 1 4.015112907270198 1.9645764031207131 14.976816610941771 1 -1 0
1921 1 1.766972156239185 0.5926065945599363 14.57904691626385 -1 2 0
778 1 3.89886601176511 4.654545612542282 14.430103311554449 3 0 -1
1983 1 4.089076141917957 1.940262043136744 17.84024626037879 1 -4 -2
3002 1 4.527036275014853 7.154789506894158 24.809908814116852 0 -2 -1
1842 1 1.7872973569923758 6.43484486263892 15.481254781278889 -1 2 0
2093 1 1.8631500929507565 9.09867002452499 14.66615890078003 1 1 0
1015 1 2.3296841238764276 8.972696215168087 25.173628324905657 3 -3 0
789 1 4.404192190659876 6.973537931614166 21.900198519863526 -3 2 0
1070 1 1.6948391414721804 0.7799993215052494 18.879514396420962 1 -1 0
1018 1 1.6060134854342647 0.5114546731999704 21.596563276518978 0 4 1
2123 1 4.291682697961066 4.381938311268474 21.516190344772717 4 -3 0
2012 1 3.897650348696468 4.625640194734012 18.68984158066301 2 3 0
2866 1 1.8523156019993898 3.0042368029174407 22.53870246461139 1 0 1
2995 1 1.559583231834487 6.0925066674098005 18.04790444016715 -1 1 -1
2074 1 2.306467537135 8.841719630115787 22.04444900476793 0 0 0
1867 1 2.205307689585619 8.765339064973432 18.963470015853325 -3 0 0
814 1 1.8552670946870113 3.2543197311072554 25.27897655946805 3 1 0
2929 1 1.8030138056070466 0.5025006026982064 25.325033247505214 0 4 0
1989 1 4.29181419212861 4.597847040724871 25.56662961623617 0 0 -1
3929 1 6.080798262813193 5.973855175714817 17.68319270057061 0 1 0
101 2 0 11.366872099805333 2.831610471636843 0 0 0
124 2 0 12.787731112280996 2.831610471636843 0 0 0
126 2 1.2305000000000001 13.49816061851883 2.831610471636843 0 0 0
128 2 1.2305000000000001 10.656442593567498 2.831610471636843 0 0 0
130 2 2.4610000000000003 11.366872099805333 2.831610471636843 0 0 0
161 2 2.4610000000000003 12.787731112280996 2.831610471636843 0 0 0
163 2 3.6915000000000004 13.49816061851883 2.831610471636843 0 0 0
165 2 3.6914999999999996 10.6564425935675 2.831610471636843 0 0 0
167 2 4.922000000000001 11.366872099805333 2.831610471636843 0 0 0
206 2 4.922000000000001 12.787731112280996 2.831610471636843 0 0 0
208 2 6.152499999999999 13.49816061851883 2.831610471636843 0 0 0
122 2 0 15.629449137232333 2.831610471636843 0 0 0
153 2 0 17.050308149708 2.831610471636843 0 0 0
157 2 1.2305000000000001 14.919019630994494 2.831610471636843 0 0 0
159 2 2.4610000000000003 15.629449137232328 2.831610471636843 0 0 0
198 2 2.4610000000000003 17.050308149708 2.831610471636843 0 0 0
202 2 3.6915000000000004 14.919019630994494 2.831610471636843 0 0 0
204 2 4.922000000000001 15.629449137232333 2.831610471636843 0 0 0
245 2 4.922000000000001 17.050308149708 2.831610471636843 0 0 0
249 2 6.152499999999999 14.919019630994494 2.831610471636843 0 0 0
155 2 1.2305000000000001 17.76073765594583 2.831610471636843 0 0 0
194 2 1.2305000000000001 19.181596668421495 2.831610471636843 0 0 0
200 2 3.6914999999999996 17.76073765594583 2.831610471636843 0 0 0
241 2 3.6914999999999996 19.181596668421495 2.831610471636843 0 0 0
102 2 0 9.946013087329664 5.869312840083774 0 0 0
131 2 2.4610000000000003 9.946013087329664 5.869312840083774 0 0 0
168 2 4.922000000000001 9.946013087329664 5.869312840083774 0 0 0
125 2 0 12.787731112280996 5.869312840083774 0 0 0
127 2 1.2305000000000001 12.077301606043163 5.869312840083774 0 0 0
129 2 1.2305000000000001 10.656442593567498 5.869312840083774 0 0 0
162 2 2.4610000000000003 12.787731112280996 5.869312840083774 0 0 0
422 2 0 11.366872099805333 8.90701520852666 0 0 0
434 2 0 12.787731112280996 8.90701520852666 0 0 0
435 2 1.2305000000000001 13.49816061851883 8.90701520852666 0 0 0
436 2 1.2305000000000001 10.656442593567498 8.90701520852666 0 0 0
437 2 2.4610000000000003 11.366872099805333 8.90701520852666 0 0 0
453 2 2.4610000000000003 12.787731112280996 8.90701520852666 0 0 0
164 2 3.6914999999999996 12.077301606043163 5.869312840083774 0 0 0
166 2 3.6914999999999996 10.6564425935675 5.869312840083774 0 0 0
207 2 4.922000000000001 12.787731112280996 5.869312840083774 0 0 0
454 2 3.6915000000000004 13.49816061851883 8.90701520852666 0 0 0
455 2 3.6914999999999996 10.6564425935675 8.90701520852666 0 0 0
456 2 4.922000000000001 11.366872099805333 8.90701520852666 0 0 0
476 2 4.922000000000001 12.787731112280996 8.90701520852666 0 0 0
477 2 6.152499999999999 13.49816061851883 8.90701520852666 0 0 0
123 2 0 14.208590124756663 5.869312840083774 0 0 0
160 2 2.4610000000000003 14.208590124756663 5.869312840083774 0 0 0
205 2 4.922000000000001 14.208590124756663 5.869312840083774 0 0 0
154 2 0 17.050308149708 5.869312840083774 0 0 0
156 2 1.2305000000000001 16.339878643470165 5.869312840083774 0 0 0
158 2 1.2305000000000001 14.919019630994494 5.869312840083774 0 0 0
199 2 2.4610000000000003 17.050308149708 5.869312840083774 0 0 0
433 2 0 15.629449137232333 8.90701520852666 0 0 0
449 2 0 17.050308149708 8.90701520852666 0 0 0
451 2 1.2305000000000001 14.919019630994494 8.90701520852666 0 0 0
452 2 2.4610000000000003 15.629449137232328 8.90701520852666 0 0 0
472 2 2.4610000000000003 17.050308149708 8.90701520852666 0 0 0
201 2 3.6915000000000004 16.339878643470165 5.869312840083774 0 0 0
203 2 3.6915000000000004 14.919019630994494 5.869312840083774 0 0 0
246 2 4.922000000000001 17.050308149708 5.869312840083774 0 0 0
250 2 6.152499999999999 14.919019630994494 5.869312840083774 0 0 0
474 2 3.6915000000000004 14.919019630994494 8.90701520852666 0 0 0
475 2 4.922000000000001 15.629449137232333 8.90701520852666 0 0 0
496 2 4.922000000000001 17.050308149708 8.90701520852666 0 0 0
498 2 6.152499999999999 14.919019630994494 8.90701520852666 0 0 0
152 2 0 18.471167162183658 5.869312840083774 0 0 0
195 2 1.2305000000000001 19.181596668421495 5.869312840083774 0 0 0
197 2 2.4610000000000003 18.471167162183658 5.869312840083774 0 0 0
450 2 1.2305000000000001 17.76073765594583 8.90701520852666 0 0 0
470 2 1.2305000000000001 19.181596668421495 8.90701520852666 0 0 0
242 2 3.6914999999999996 19.181596668421495 5.869312840083774 0 0 0
244 2 4.922000000000001 18.471167162183658 5.869312840083774 0 0 0
473 2 3.6914999999999996 17.76073765594583 8.90701520852666 0 0 0
494 2 3.6914999999999996 19.181596668421495 8.90701520852666 0 0 0
827 1 4.106565005881076 13.244469187331946 11.72106276195011 2 -2 1
2843 1 3.825982759965255 10.393584919750221 11.241126165517784 -3 -3 0
781 1 1.913012425597342 14.662487375041064 11.361415995471194 1 1 0
2897 1 4.076062000528924 18.793632255462953 11.244521555353467 2 3 -1
3060 1 2.283152808258724 17.301560492155684 12.144655193210335 -2 -1 -1
4030 1 6.087486254738402 17.305234692967037 11.919038058377001 3 0 0
2101 1 4.146183469637897 12.844805108609718 14.618881971290408 0 -2 0
3021 1 4.195761387531744 10.289530504514989 15.457755732908668 1 5 0
894 1 2.2873772059675734 14.44023928062962 15.894240925139632 -4 -4 0
1916 1 5.001464368594433 15.70484422359689 25.36833748121279 -2 -1 0
1975 1 2.3321290962067542 17.178642566912213 14.835149012946708 0 2 0
3975 1 4.210109425611275 18.935333174692072 15.789290933148402 0 -1 -1
2022 1 4.238594813909982 12.896042142317304 19.419235729801485 4 2 0
872 1 1.975385983552192 14.438191587256709 18.681877106468747 0 2 -1
3963 1 4.130482771830644 10.475240710390905 18.25137027160844 3 4 0
1940 1 2.8229110214074584 11.718800047840652 22.301003966191562 3 0 -1
3957 1 2.34333491765976 16.763266021651066 25.251499395433747 0 2 -1
2111 1 4.322053749820697 18.738478856779672 18.63093311300268 -2 -1 0
1084 1 2.382693036668773 16.97336610059841 19.493400564456575 2 -2 0
1846 1 2.4169871157188934 17.15175614344135 22.37622177615949 3 0 0
58 1 5.178396867209172 13.04379959058963 24.938594689964166 1 0 -1
3049 1 2.4758363105696226 11.749218504056628 24.9080531368834 2 -2 -1
2828 1 5.2676321662698005 12.898775944358068 21.98120370910376 2 -2 -1
855 1 4.605639707205506 15.690341084689182 22.715120958590784 1 0 0
900 1 0.07246220883606294 12.888881915097402 22.148632915892836 1 3 1
3109 1 0.0679365729970131 12.807361089512767 25.313975074212685 -3 3 1
2873 1 0.11852983425249834 15.412126887434717 25.763082112535884 0 -3 0
806 1 0.033456291935654775 15.641111765491795 22.869403569610906 7 2 0
1827 1 6.107916776574328 14.72176287216721 18.405137637890988 1 -1 0
1019 1 0.024579536037926175 10.490141853386309 18.681816653796183 -1 2 1
2979 1 0.030206293119299232 10.6309865416287 15.853339449560412 0 0 -1
2859 1 0.18000544012132025 18.36150338429684 18.729457080663977 2 0 -1
2087 1 1.8849233137969927 19.601355356161434 24.913462800504636 0 -2 1
151 2 0 19.89202617465933 2.831610471636843 0 0 0
196 2 2.4610000000000003 19.89202617465933 2.831610471636843 0 0 0
243 2 4.922000000000001 19.89202617465933 2.831610471636843 0 0 0
188 2 0 24.154603212086325 2.831610471636843 0 0 0
190 2 0 21.312885187135 2.831610471636843 0 0 0
192 2 1.2304999999999993 22.023314693372832 2.831610471636843 0 0 0
233 2 1.2304999999999993 23.4441737058485 2.831610471636843 0 0 0
235 2 2.4610000000000003 24.154603212086325 2.831610471636843 0 0 0
237 2 2.4610000000000003 21.312885187134995 2.831610471636843 0 0 0
239 2 3.6914999999999996 22.023314693372832 2.831610471636843 0 0 0
280 2 3.6915000000000004 23.4441737058485 2.831610471636843 0 0 0
282 2 4.922000000000001 24.154603212086325 2.831610471636843 0 0 0
284 2 4.922000000000001 21.312885187134995 2.831610471636843 0 0 0
286 2 6.152499999999999 22.023314693372832 2.831610471636843 0 0 0
1130 2 0 25.575462224561992 2.831610471636843 0 0 0
1132 2 1.2305000000000001 26.285891730799833 2.831610471636843 0 0 0
1140 2 1.230500000000001 27.706750743275496 2.831610471636843 0 0 0
1144 2 2.4610000000000003 25.575462224561992 2.831610471636843 0 0 0
1146 2 3.691499999999999 26.285891730799833 2.831610471636843 0 0 0
1162 2 3.6914999999999996 27.706750743275496 2.831610471636843 0 0 0
1166 2 4.922000000000001 25.575462224561992 2.831610471636843 0 0 0
1192 2 6.152499999999999 27.706750743275496 2.831610471636843 0 0 0
1128 2 0 28.417180249513333 2.831610471636843 0 0 0
1142 2 2.4610000000000003 28.417180249513326 2.831610471636843 0 0 0
1164 2 4.922000000000001 28.417180249513336 2.831610471636843 0 0 0
193 2 1.2305000000000001 20.60245568089716 5.869312840083774 0 0 0
448 2 0 19.89202617465933 8.90701520852666 0 0 0
471 2 2.4610000000000003 19.89202617465933 8.90701520852666 0 0 0
240 2 3.6915000000000004 20.60245568089716 5.869312840083774 0 0 0
495 2 4.922000000000001 19.89202617465933 8.90701520852666 0 0 0
189 2 0 22.733744199610655 5.869312840083774 0 0 0
191 2 0 21.312885187135 5.869312840083774 0 0 0
234 2 1.2304999999999993 23.4441737058485 5.869312840083774 0 0 0
236 2 2.4610000000000003 22.733744199610655 5.869312840083774 0 0 0
238 2 2.4610000000000003 21.312885187134995 5.869312840083774 0 0 0
467 2 0 24.154603212086325 8.90701520852666 0 0 0
468 2 0 21.312885187135 8.90701520852666 0 0 0
469 2 1.2304999999999993 22.023314693372832 8.90701520852666 0 0 0
490 2 1.2304999999999993 23.4441737058485 8.90701520852666 0 0 0
491 2 2.4610000000000003 24.154603212086325 8.90701520852666 0 0 0
492 2 2.4610000000000003 21.312885187134995 8.90701520852666 0 0 0
281 2 3.6915000000000004 23.4441737058485 5.869312840083774 0 0 0
283 2 4.922000000000001 22.733744199610655 5.869312840083774 0 0 0
285 2 4.922000000000001 21.312885187134995 5.869312840083774 0 0 0
493 2 3.6914999999999996 22.023314693372832 8.90701520852666 0 0 0
514 2 3.6915000000000004 23.4441737058485 8.90701520852666 0 0 0
515 2 4.922000000000001 24.154603212086325 8.90701520852666 0 0 0
516 2 4.922000000000001 21.312885187134995 8.90701520852666 0 0 0
517 2 6.152499999999999 22.023314693372832 8.90701520852666 0 0 0
1129 2 0 26.99632123703766 5.869312840083774 0 0 0
1131 2 0 25.575462224561992 5.869312840083774 0 0 0
1133 2 1.2305000000000001 24.865032718324155 5.869312840083774 0 0 0
1141 2 1.230500000000001 27.706750743275496 5.869312840083774 0 0 0
1143 2 2.4610000000000003 26.99632123703766 5.869312840083774 0 0 0
1145 2 2.4610000000000003 25.575462224561992 5.869312840083774 0 0 0
1444 2 0 25.575462224561992 8.90701520852666 0 0 0
1445 2 1.2305000000000001 26.285891730799833 8.90701520852666 0 0 0
1449 2 1.230500000000001 27.706750743275496 8.90701520852666 0 0 0
1451 2 2.4610000000000003 25.575462224561992 8.90701520852666 0 0 0
1147 2 3.6914999999999996 24.865032718324166 5.869312840083774 0 0 0
1163 2 3.6914999999999996 27.706750743275496 5.869312840083774 0 0 0
1165 2 4.922000000000001 26.99632123703766 5.869312840083774 0 0 0
1167 2 4.922000000000001 25.575462224561992 5.869312840083774 0 0 0
1169 2 6.152499999999999 24.865032718324155 5.869312840083774 0 0 0
1193 2 6.152499999999999 27.706750743275496 5.869312840083774 0 0 0
1452 2 3.691499999999999 26.285891730799833 8.90701520852666 0 0 0
1460 2 3.6914999999999996 27.706750743275496 8.90701520852666 0 0 0
1462 2 4.922000000000001 25.575462224561992 8.90701520852666 0 0 0
1475 2 6.152499999999999 27.706750743275496 8.90701520852666 0 0 0
1139 2 1.2304999999999993 29.127609755751163 5.869312840083774 0 0 0
1443 2 0 28.417180249513333 8.90701520852666 0 0 0
1450 2 2.4610000000000003 28.417180249513326 8.90701520852666 0 0 0
1161 2 3.691499999999999 29.127609755751152 5.869312840083774 0 0 0
1191 2 6.152499999999998 29.127609755751152 5.869312840083774 0 0 0
1461 2 4.922000000000001 28.417180249513336 8.90701520852666 0 0 0
2033 1 2.2064282355662526 23.07521943295112 11.217722822782402 1 -2 0
2952 1 4.451279945766474 21.565903581914927 12.059448570318688 3 -2 1
3032 1 2.181626305593498 25.458322670786824 12.110840403785172 -3 2 1
3148 1 4.60867158611634 26.84965525068329 11.170226327126057 2 -1 -1
829 1 0.24391579737931138 21.089748961528826 11.93741744007226 -1 5 -1
1839 1 0.1422544731576943 29.326941005939105 12.150414342236378 2 -6 0
945 1 4.715857681195293 29.34353339326414 11.86593556690751 6 -1 -1
2980 1 2.0897123841022194 22.81306457880822 15.737836932593291 -2 4 0
1091 1 4.265770678797445 21.618597816572287 14.75604308525795 0 0 -1
937 1 2.206390015291715 25.490186848445447 14.866991310812072 -1 2 0
4005 1 4.734857991570341 26.645940806691513 15.576346700361386 1 3 0
2031 1 2.3888711246820393 19.973321879686218 21.998321364893698 0 -1 0
2 1 2.323424010372026 22.611985930271786 18.649714479958206 2 -1 0
1993 1 4.487903759969621 21.516158340275325 19.478567771589855 -2 0 -1
2954 1 2.5515019865403348 25.265414902044032 25.57855313746135 0 1 0
2852 1 4.985720052995944 23.92940464559591 22.764067322318624 1 3 0
2903 1 4.597478884248355 26.459048920674512 18.392103901381546 2 1 0
3808 1 2.5963193350742113 25.372189596790406 19.47611281070534 -3 -1 1
3939 1 0.27837829206461195 26.688868675874744 18.870672511901628 2 -2 0
3799 1 2.6253724940051804 25.002522017490406 22.345931349343555 -3 1 -1
3099 1 2.304143885831882 28.28048746269404 25.230009730498374 -2 2 0
857 1 2.1594231571269957 27.64024372547077 22.497432106526936 -1 1 0
920 1 0.04760715161334437 21.092444041783928 14.796763601827841 2 1 0
1944 1 4.793439034775807 21.168424246863815 22.162226381131795 -4 1 0
2999 1 5.212807183854396 23.88813785909607 25.385351126049937 1 1 -1
3949 1 4.629067897998917 21.05332676299357 25.095245586515983 1 -1 0
3973 1 0.08686891564084756 26.55802077442334 16.147560323539047 0 1 0
3087 1 0.06608980331029193 20.912554094603685 19.49768895150198 -1 2 0
3890 1 4.8619515789078775 29.308630587087848 19.425662635812603 1 0 0
783 1 0.31414487037192607 29.312409506958314 19.83035530827425 3 1 -1
2882 1 0.10365120108608716 29.139839773111166 14.864122947847884 2 0 0
3937 1 4.630376014958988 29.271407386140133 22.36286351188389 -3 2 -1
1932 1 4.923748538401833 29.184609968424684 14.830340211417676 -2 2 -1
1136 2 0 29.83803926198899 2.831610471636843 0 0 0
1138 2 1.2304999999999993 30.54846876822683 2.831610471636843 0 0 0
1158 2 2.4610000000000003 29.83803926198899 2.831610471636843 0 0 0
1160 2 3.6915000000000004 30.54846876822683 2.831610471636843 0 0 0
1188 2 4.922000000000001 29.83803926198899 2.831610471636843 0 0 0
1134 2 0 32.67975728694033 2.831610471636843 0 0 0
1150 2 0 34.100616299416 2.831610471636843 0 0 0
1154 2 1.2304999999999993 31.969327780702493 2.831610471636843 0 0 0
1156 2 2.4610000000000003 32.67975728694034 2.831610471636843 0 0 0
1180 2 2.4609999999999985 34.100616299416 2.831610471636843 0 0 0
1184 2 3.6914999999999996 31.969327780702493 2.831610471636843 0 0 0
1186 2 4.9220000000000015 32.67975728694034 2.831610471636843 0 0 0
1218 2 4.922000000000001 34.100616299416 2.831610471636843 0 0 0
1152 2 1.230500000000001 34.81104580565383 2.831610471636843 0 0 0
1182 2 3.691500000000002 34.81104580565383 2.831610471636843 0 0 0
1148 2 0 36.94233432436734 2.831610471636843 0 0 0
1172 2 0 38.36319333684299 2.831610471636843 0 0 0
1176 2 1.2304999999999993 36.231904818129486 2.831610471636843 0 0 0
1178 2 2.461000000000002 36.94233432436734 2.831610471636843 0 0 0
1210 2 2.4610000000000003 38.36319333684299 2.831610471636843 0 0 0
1214 2 3.6914999999999996 36.231904818129486 2.831610471636843 0 0 0
1216 2 4.922000000000001 36.942334324367316 2.831610471636843 0 0 0
1255 2 4.922000000000001 38.36319333684299 2.831610471636843 0 0 0
1174 2 1.230500000000001 39.07362284308084 2.831610471636843 0 0 0
1212 2 3.691500000000002 39.07362284308082 2.831610471636843 0 0 0
1135 2 0 31.258898274464656 5.869312840083774 0 0 0
1137 2 0 29.83803926198899 5.869312840083774 0 0 0
1157 2 2.4609999999999985 31.258898274464656 5.869312840083774 0 0 0
1159 2 2.4610000000000003 29.83803926198899 5.869312840083774 0 0 0
1447 2 0 29.83803926198899 8.90701520852666 0 0 0
1448 2 1.2304999999999993 30.54846876822683 8.90701520852666 0 0 0
1458 2 2.4610000000000003 29.83803926198899 8.90701520852666 0 0 0
1187 2 4.921999999999998 31.258898274464656 5.869312840083774 0 0 0
1189 2 4.922000000000001 29.83803926198899 5.869312840083774 0 0 0
1459 2 3.6915000000000004 30.54846876822683 8.90701520852666 0 0 0
1473 2 4.922000000000001 29.83803926198899 8.90701520852666 0 0 0
1151 2 0 34.100616299416 5.869312840083774 0 0 0
1153 2 1.2304999999999993 33.39018679317816 5.869312840083774 0 0 0
1155 2 1.2304999999999993 31.969327780702493 5.869312840083774 0 0 0
1181 2 2.4609999999999985 34.100616299416 5.869312840083774 0 0 0
1446 2 0 32.67975728694033 8.90701520852666 0 0 0
1454 2 0 34.100616299416 8.90701520852666 0 0 0
1456 2 1.2304999999999993 31.969327780702493 8.90701520852666 0 0 0
1457 2 2.4610000000000003 32.67975728694034 8.90701520852666 0 0 0
1469 2 2.4609999999999985 34.100616299416 8.90701520852666 0 0 0
1183 2 3.691499999999998 33.39018679317816 5.869312840083774 0 0 0
1185 2 3.6914999999999996 31.969327780702493 5.869312840083774 0 0 0
1219 2 4.922000000000001 34.100616299416 5.869312840083774 0 0 0
1221 2 6.152499999999999 33.39018679317816 5.869312840083774 0 0 0
1471 2 3.6914999999999996 31.969327780702493 8.90701520852666 0 0 0
1472 2 4.9220000000000015 32.67975728694034 8.90701520852666 0 0 0
1488 2 4.922000000000001 34.100616299416 8.90701520852666 0 0 0
1455 2 1.230500000000001 34.81104580565383 8.90701520852666 0 0 0
1470 2 3.691500000000002 34.81104580565383 8.90701520852666 0 0 0
1149 2 0 35.52147531189165 5.869312840083774 0 0 0
1173 2 0 38.36319333684299 5.869312840083774 0 0 0
1175 2 1.2304999999999993 37.65276383060515 5.869312840083774 0 0 0
1177 2 1.2304999999999993 36.231904818129486 5.869312840083774 0 0 0
1179 2 2.4609999999999985 35.52147531189166 5.869312840083774 0 0 0
1211 2 2.4610000000000003 38.36319333684299 5.869312840083774 0 0 0
1453 2 0 36.94233432436734 8.90701520852666 0 0 0
1465 2 0 38.36319333684299 8.90701520852666 0 0 0
1467 2 1.2304999999999993 36.231904818129486 8.90701520852666 0 0 0
1468 2 2.461000000000002 36.94233432436734 8.90701520852666 0 0 0
1484 2 2.4610000000000003 38.36319333684299 8.90701520852666 0 0 0
1213 2 3.6914999999999996 37.65276383060515 5.869312840083774 0 0 0
1215 2 3.6914999999999996 36.231904818129486 5.869312840083774 0 0 0
1217 2 4.922000000000001 35.52147531189166 5.869312840083774 0 0 0
1256 2 4.922000000000001 38.36319333684299 5.869312840083774 0 0 0
1258 2 6.152499999999998 37.65276383060515 5.869312840083774 0 0 0
1486 2 3.6914999999999996 36.231904818129486 8.90701520852666 0 0 0
1487 2 4.922000000000001 36.942334324367316 8.90701520852666 0 0 0
1506 2 4.922000000000001 38.36319333684299 8.90701520852666 0 0 0
1466 2 1.230500000000001 39.07362284308084 8.90701520852666 0 0 0
1485 2 3.691500000000002 39.07362284308082 8.90701520852666 0 0 0
3046 1 2.218237592045487 33.23544363265883 12.022636480151029 1 -2 -1
1097 1 2.391697738319529 30.69042185631006 11.084504101525523 1 2 0
1982 1 4.438225440325755 34.884721938010784 11.37715063021055 -2 1 1
2857 1 4.492862071303186 37.27068658500234 12.599850857176383 2 -2 0
3951 1 2.2130600200128643 38.54030229070528 11.532840532862544 -2 4 -1
912 1 0.119713677094339 34.41321967981034 10.91315949929488 0 -1 -1
868 1 2.2735014241157936 33.03584407919619 14.96981912573959 1 2 -1
1865 1 2.492044736320369 30.472113395714462 15.438296934573929 -1 0 -1
1046 1 4.576795920042659 34.29634116905261 15.69806574595407 1 -4 0
2996 1 4.406807857101818 37.111855392707014 15.434963807885888 1 0 0
2964 1 2.2013068321622646 38.62872022719198 15.404939889342872 0 -4 0
1848 1 2.1318366629779537 38.66807431528284 18.122269536627662 6 -1 1
3843 1 2.1999214354752192 36.503325774940976 25.28090989709851 0 1 0
1852 1 2.526006854552661 30.489080886943317 18.3005755852178 0 1 0
4039 1 2.282658486170363 33.11404300202488 19.456238856562024 -1 2 0
46 1 2.087904079809237 33.57276017957232 22.282052236023404 2 0 0
2036 1 4.506092334040835 32.09559180725186 22.916977113152438 -3 -1 0
3818 1 4.718846707353326 29.626908155756198 25.556075478492737 1 2 1
4020 1 4.566196058423246 34.48755096057913 18.562248540007765 1 -7 -1
1056 1 4.5152939185687915 37.37466769630693 18.913645376004485 -1 2 0
1831 1 4.057059326563333 37.50998255976207 21.689488018954478 1 1 1
3057 1 1.883929888105613 36.17158281357049 22.62499661088902 3 2 0
2009 1 5.0314386036127035 32.29706029707997 25.516460755673524 4 -2 0
2057 1 4.436949391108517 38.00643275934548 25.635657804784625 2 4 0
1981 1 2.3512047387767474 33.593073602476174 25.499543008766544 2 3 0
1005 1 0.15261576123096177 34.65247675117404 18.165628209132514 0 -1 0
1004 1 0.02244751961108753 34.64348914060013 15.509243908651664 0 0 0
3962 1 0.3214993623670779 37.00955338867833 14.575070059897968 -1 -3 0
1170 2 0 41.20491136179432 2.831610471636843 0 0 0
1206 2 1.230500000000001 40.494481855556494 2.831610471636843 0 0 0
1208 2 2.4610000000000003 41.20491136179432 2.831610471636843 0 0 0
1251 2 3.6914999999999996 40.494481855556494 2.831610471636843 0 0 0
1253 2 4.922000000000003 41.20491136179432 2.831610471636843 0 0 0
1296 2 6.152499999999998 40.494481855556494 2.831610471636843 0 0 0
1202 2 0 42.62577037427 2.831610471636843 0 0 0
1204 2 1.2304999999999993 43.33619988050783 2.831610471636843 0 0 0
1247 2 2.4610000000000003 42.62577037427 2.831610471636843 0 0 0
1249 2 3.691500000000002 43.33619988050783 2.831610471636843 0 0 0
1292 2 4.922000000000001 42.62577037426999 2.831610471636843 0 0 0
1200 2 0 45.46748839922133 2.831610471636843 0 0 0
1243 2 1.2304999999999993 44.757058892983494 2.831610471636843 0 0 0
1245 2 2.4610000000000003 45.46748839922133 2.831610471636843 0 0 0
1288 2 3.6914999999999996 44.757058892983494 2.831610471636843 0 0 0
1290 2 4.922000000000001 45.46748839922133 2.831610471636843 0 0 0
1239 2 0 46.888347411697 2.831610471636843 0 0 0
1241 2 1.230500000000001 47.59877691793481 2.831610471636843 0 0 0
1284 2 2.4609999999999985 46.888347411697 2.831610471636843 0 0 0
1286 2 3.6914999999999996 47.598776917934835 2.831610471636843 0 0 0
1329 2 4.922000000000001 46.888347411697 2.831610471636843 0 0 0
1171 2 0 39.78405234931866 5.869312840083774 0 0 0
1205 2 1.230500000000001 41.91534086803216 5.869312840083774 0 0 0
1207 2 1.230500000000001 40.494481855556494 5.869312840083774 0 0 0
1209 2 2.4610000000000003 39.78405234931866 5.869312840083774 0 0 0
1464 2 0 41.20491136179432 8.90701520852666 0 0 0
1482 2 1.230500000000001 40.494481855556494 8.90701520852666 0 0 0
1483 2 2.4610000000000003 41.20491136179432 8.90701520852666 0 0 0
1250 2 3.6914999999999996 41.91534086803216 5.869312840083774 0 0 0
1252 2 3.6914999999999996 40.494481855556494 5.869312840083774 0 0 0
1254 2 4.922000000000001 39.78405234931866 5.869312840083774 0 0 0
1295 2 6.152499999999998 41.91534086803216 5.869312840083774 0 0 0
1297 2 6.152499999999998 40.494481855556494 5.869312840083774 0 0 0
1504 2 3.6914999999999996 40.494481855556494 8.90701520852666 0 0 0
1505 2 4.922000000000003 41.20491136179432 8.90701520852666 0 0 0
1526 2 6.152499999999998 40.494481855556494 8.90701520852666 0 0 0
1201 2 0 44.04662938674566 5.869312840083774 0 0 0
1203 2 0 42.62577037427 5.869312840083774 0 0 0
1246 2 2.4610000000000003 44.04662938674566 5.869312840083774 0 0 0
1248 2 2.4610000000000003 42.62577037427 5.869312840083774 0 0 0
1480 2 0 42.62577037427 8.90701520852666 0 0 0
1481 2 1.2304999999999993 43.33619988050783 8.90701520852666 0 0 0