LAMMPS data file via write_data, version 29 Sep 2021, timestep = 100000

4065 atoms
2 atom types

0 49.22 xlo xhi
0 49.019635930410494 ylo yhi
1.926133447993566 25.914698798291283 zlo zhi

Masses

1 18.015
2 12.01

Atoms # atomic

83 2 0 2.8417180249513345 3.371091117957583 0 0 0
85 2 0 0 3.371091117957583 0 0 0
87 2 1.2305000000000001 0.7104295062378347 3.371091117957583 0 0 0
94 2 1.2305000000000001 2.1312885187135 3.371091117957583 0 0 0
96 2 2.4610000000000003 2.8417180249513345 3.371091117957583 0 0 0
98 2 2.4610000000000003 0 3.371091117957583 0 0 0
100 2 3.6915000000000004 0.7104295062378347 3.371091117957583 0 0 0
115 2 3.6914999999999996 2.1312885187135 3.371091117957583 0 0 0
117 2 4.922000000000001 2.841718024951333 3.371091117957583 0 0 0
119 2 4.922000000000001 0 3.371091117957583 0 0 0
90 2 0 4.262577037427 3.371091117957583 0 0 0
111 2 2.4610000000000003 4.262577037427 3.371091117957583 0 0 0
140 2 4.922000000000001 4.262577037426998 3.371091117957583 0 0 0
92 2 1.2305000000000001 4.973006543664834 3.371091117957583 0 0 0
107 2 1.2305000000000001 6.393865556140498 3.371091117957583 0 0 0
113 2 3.6914999999999996 4.973006543664834 3.371091117957583 0 0 0
136 2 3.6914999999999996 6.393865556140498 3.371091117957583 0 0 0
88 2 0 7.104295062378334 3.371091117957583 0 0 0
103 2 0 8.525154074854 3.371091117957583 0 0 0
105 2 1.2305000000000001 9.235583581091834 3.371091117957583 0 0 0
109 2 2.4610000000000003 7.104295062378334 3.371091117957583 0 0 0
132 2 2.4610000000000003 8.525154074854 3.371091117957583 0 0 0
134 2 3.6915000000000004 9.235583581091834 3.371091117957583 0 0 0
138 2 4.922000000000001 7.104295062378334 3.371091117957583 0 0 0
169 2 4.922000000000001 8.525154074854 3.371091117957583 0 0 0
84 2 0 1.420859012475665 6.261006457885949 0 0 0
86 2 0 0 6.261006457885949 0 0 0
95 2 1.2305000000000001 2.1312885187135 6.261006457885949 0 0 0
97 2 2.4610000000000003 1.420859012475665 6.261006457885949 0 0 0
99 2 2.4610000000000003 0 6.261006457885949 0 0 0
412 2 0 2.8417180249513345 9.150921797813446 0 0 0
413 2 0 0 9.150921797813446 0 0 0
414 2 1.2305000000000001 0.7104295062378347 9.150921797813446 0 0 0
418 2 1.2305000000000001 2.1312885187135 9.150921797813446 0 0 0
419 2 2.4610000000000003 2.8417180249513345 9.150921797813446 0 0 0
420 2 2.4610000000000003 0 9.150921797813446 0 0 0
116 2 3.6914999999999996 2.1312885187135 6.261006457885949 0 0 0
118 2 4.922000000000001 1.420859012475665 6.261006457885949 0 0 0
120 2 4.922000000000001 0 6.261006457885949 0 0 0
421 2 3.6915000000000004 0.7104295062378347 9.150921797813446 0 0 0
429 2 3.6914999999999996 2.1312885187135 9.150921797813446 0 0 0
430 2 4.922000000000001 2.841718024951333 9.150921797813446 0 0 0
431 2 4.922000000000001 0 9.150921797813446 0 0 0
91 2 0 4.262577037427 6.261006457885949 0 0 0
93 2 1.2305000000000001 3.5521475311891644 6.261006457885949 0 0 0
112 2 2.4610000000000003 4.262577037427 6.261006457885949 0 0 0
416 2 0 4.262577037427 9.150921797813446 0 0 0
427 2 2.4610000000000003 4.262577037427 9.150921797813446 0 0 0
114 2 3.6914999999999996 3.5521475311891644 6.261006457885949 0 0 0
141 2 4.922000000000001 4.262577037426998 6.261006457885949 0 0 0
442 2 4.922000000000001 4.262577037426998 9.150921797813446 0 0 0
89 2 0 5.683436049902664 6.261006457885949 0 0 0
108 2 1.2305000000000001 6.393865556140498 6.261006457885949 0 0 0
110 2 2.4610000000000003 5.683436049902664 6.261006457885949 0 0 0
417 2 1.2305000000000001 4.973006543664834 9.150921797813446 0 0 0
425 2 1.2305000000000001 6.393865556140498 9.150921797813446 0 0 0
137 2 3.6914999999999996 6.393865556140498 6.261006457885949 0 0 0
139 2 4.922000000000001 5.683436049902664 6.261006457885949 0 0 0
428 2 3.6914999999999996 4.973006543664834 9.150921797813446 0 0 0
440 2 3.6914999999999996 6.393865556140498 9.150921797813446 0 0 0
104 2 0 8.525154074854 6.261006457885949 0 0 0
106 2 1.2305000000000001 7.814724568616164 6.261006457885949 0 0 0
133 2 2.4610000000000003 8.525154074854 6.261006457885949 0 0 0
415 2 0 7.104295062378334 9.150921797813446 0 0 0
423 2 0 8.525154074854 9.150921797813446 0 0 0
424 2 1.2305000000000001 9.235583581091834 9.150921797813446 0 0 0
426 2 2.4610000000000003 7.104295062378334 9.150921797813446 0 0 0
438 2 2.4610000000000003 8.525154074854 9.150921797813446 0 0 0
135 2 3.6914999999999996 7.814724568616164 6.261006457885949 0 0 0
170 2 4.922000000000001 8.525154074854 6.261006457885949 0 0 0
439 2 3.6915000000000004 9.235583581091834 9.150921797813446 0 0 0
441 2 4.922000000000001 7.104295062378334 9.150921797813446 0 0 0
457 2 4.922000000000001 8.525154074854 9.150921797813446 0 0 0
3006 1 2.1564647281340363 2.0486402121960494 12.247360976947872 1 0 -1
3149 1 3.35015251842145 4.5440224587898586 11.809093065040406 1 1 0
1984 1 3.444649253244626 8.842443717209944 12.05520450180098 0 1 0
3971 1 1.767397215501031 6.7604398470346085 11.764451574679642 1 1 -1
4056 1 1.2360288193797357 9.088998730352431 17.795390028673452 0 1 -1
1807 1 0.9365963150035358 2.949109136813835 14.636683521315526 0 0 0
7 1 3.034083220201002 4.028022392126497 16.477460522287373 1 0 0
806 1 2.5123840527654147 7.208394253088383 21.930270556723535 1 0 0
1852 1 3.6938570143571656 1.4062888093583246 24.823789065535273 1 0 0
3931 1 0.6455680828192989 6.870448283839941 14.418700479382807 -1 0 0
4037 1 2.5832830159082927 6.8065866207957155 16.35853988663699 1 0 -1
3871 1 3.946742343947624 8.847433084375075 15.113091743157002 1 0 -1
1030 1 4.008842778762081 2.7953248369146326 18.679535422025054 0 0 -1
896 1 0.39117687560218967 1.2881499724298862 22.16109536938459 0 0 0
1875 1 2.588560235752352 0.18254072586769046 19.37582669865045 1 0 -1
1125 1 5.340065222750831 4.338681830919384 14.916672208137639 2 1 0
851 1 4.453227686162521 7.526359218975716 18.672729993107104 -1 1 -1
1795 1 1.2809998038291517 6.04073455514865 19.2617474420328 0 0 1
1086 1 0.3028741537636584 0.6441578496048467 15.714919130824653 0 1 1
2036 1 0.30032126247031365 1.4349067865082359 18.256514603642906 0 1 0
1006 1 3.23922445585945 2.424191099549043 21.76078916083808 1 1 0
3126 1 4.304429367312567 4.0813226836471515 24.01010971160715 0 -1 1
1079 1 5.75460040144183 0.8940059451287308 22.570405274020736 0 0 0
1066 1 0.9881953656956417 4.476794912813995 21.630820646954376 1 -1 0
1990 1 2.5421663018643175 6.247247190594123 24.49496581752352 0 0 -1
788 1 4.362473776123855 5.232816677329856 20.548209523659317 0 0 -1
3850 1 4.577443270716735 8.190725742737321 24.815151560006974 0 1 0
4035 1 0.7932095019924628 2.3580906731260916 24.851596120280007 0 1 0
3976 1 5.256062022075936 0.32605246909999835 13.952865320798505 0 0 0
3016 1 0.2991647121417387 4.974973517206949 24.306224545614214 0 0 -1
101 2 0 11.366872099805333 3.371091117957583 0 0 0
124 2 0 12.787731112280996 3.371091117957583 0 0 0
126 2 1.2305000000000001 13.49816061851883 3.371091117957583 0 0 0
128 2 1.2305000000000001 10.656442593567498 3.371091117957583 0 0 0
130 2 2.4610000000000003 11.366872099805333 3.371091117957583 0 0 0
161 2 2.4610000000000003 12.787731112280996 3.371091117957583 0 0 0
163 2 3.6915000000000004 13.49816061851883 3.371091117957583 0 0 0
165 2 3.6914999999999996 10.6564425935675 3.371091117957583 0 0 0
167 2 4.922000000000001 11.366872099805333 3.371091117957583 0 0 0
206 2 4.922000000000001 12.787731112280996 3.371091117957583 0 0 0
208 2 6.152499999999999 13.49816061851883 3.371091117957583 0 0 0
122 2 0 15.629449137232333 3.371091117957583 0 0 0
153 2 0 17.050308149708 3.371091117957583 0 0 0
157 2 1.2305000000000001 14.919019630994494 3.371091117957583 0 0 0
159 2 2.4610000000000003 15.629449137232328 3.371091117957583 0 0 0
198 2 2.4610000000000003 17.050308149708 3.371091117957583 0 0 0
202 2 3.6915000000000004 14.919019630994494 3.371091117957583 0 0 0
204 2 4.922000000000001 15.629449137232333 3.371091117957583 0 0 0
245 2 4.922000000000001 17.050308149708 3.371091117957583 0 0 0
249 2 6.152499999999999 14.919019630994494 3.371091117957583 0 0 0
155 2 1.2305000000000001 17.76073765594583 3.371091117957583 0 0 0
194 2 1.2305000000000001 19.181596668421495 3.371091117957583 0 0 0
200 2 3.6914999999999996 17.76073765594583 3.371091117957583 0 0 0
241 2 3.6914999999999996 19.181596668421495 3.371091117957583 0 0 0
102 2 0 9.946013087329664 6.261006457885949 0 0 0
131 2 2.4610000000000003 9.946013087329664 6.261006457885949 0 0 0
168 2 4.922000000000001 9.946013087329664 6.261006457885949 0 0 0
125 2 0 12.787731112280996 6.261006457885949 0 0 0
127 2 1.2305000000000001 12.077301606043163 6.261006457885949 0 0 0
129 2 1.2305000000000001 10.656442593567498 6.261006457885949 0 0 0
162 2 2.4610000000000003 12.787731112280996 6.261006457885949 0 0 0
422 2 0 11.366872099805333 9.150921797813446 0 0 0
434 2 0 12.787731112280996 9.150921797813446 0 0 0
435 2 1.2305000000000001 13.49816061851883 9.150921797813446 0 0 0
436 2 1.2305000000000001 10.656442593567498 9.150921797813446 0 0 0
437 2 2.4610000000000003 11.366872099805333 9.150921797813446 0 0 0
453 2 2.4610000000000003 12.787731112280996 9.150921797813446 0 0 0
164 2 3.6914999999999996 12.077301606043163 6.261006457885949 0 0 0
166 2 3.6914999999999996 10.6564425935675 6.261006457885949 0 0 0
207 2 4.922000000000001 12.787731112280996 6.261006457885949 0 0 0
454 2 3.6915000000000004 13.49816061851883 9.150921797813446 0 0 0
455 2 3.6914999999999996 10.6564425935675 9.150921797813446 0 0 0
456 2 4.922000000000001 11.366872099805333 9.150921797813446 0 0 0
476 2 4.922000000000001 12.787731112280996 9.150921797813446 0 0 0
477 2 6.152499999999999 13.49816061851883 9.150921797813446 0 0 0
123 2 0 14.208590124756663 6.261006457885949 0 0 0
160 2 2.4610000000000003 14.208590124756663 6.261006457885949 0 0 0
205 2 4.922000000000001 14.208590124756663 6.261006457885949 0 0 0
154 2 0 17.050308149708 6.261006457885949 0 0 0
156 2 1.2305000000000001 16.339878643470165 6.261006457885949 0 0 0
158 2 1.2305000000000001 14.919019630994494 6.261006457885949 0 0 0
199 2 2.4610000000000003 17.050308149708 6.261006457885949 0 0 0
433 2 0 15.629449137232333 9.150921797813446 0 0 0
449 2 0 17.050308149708 9.150921797813446 0 0 0
451 2 1.2305000000000001 14.919019630994494 9.150921797813446 0 0 0
452 2 2.4610000000000003 15.629449137232328 9.150921797813446 0 0 0
472 2 2.4610000000000003 17.050308149708 9.150921797813446 0 0 0
201 2 3.6915000000000004 16.339878643470165 6.261006457885949 0 0 0
203 2 3.6915000000000004 14.919019630994494 6.261006457885949 0 0 0
246 2 4.922000000000001 17.050308149708 6.261006457885949 0 0 0
250 2 6.152499999999999 14.919019630994494 6.261006457885949 0 0 0
474 2 3.6915000000000004 14.919019630994494 9.150921797813446 0 0 0
475 2 4.922000000000001 15.629449137232333 9.150921797813446 0 0 0
496 2 4.922000000000001 17.050308149708 9.150921797813446 0 0 0
498 2 6.152499999999999 14.919019630994494 9.150921797813446 0 0 0
152 2 0 18.471167162183658 6.261006457885949 0 0 0
195 2 1.2305000000000001 19.181596668421495 6.261006457885949 0 0 0
197 2 2.4610000000000003 18.471167162183658 6.261006457885949 0 0 0
450 2 1.2305000000000001 17.76073765594583 9.150921797813446 0 0 0
470 2 1.2305000000000001 19.181596668421495 9.150921797813446 0 0 0
242 2 3.6914999999999996 19.181596668421495 6.261006457885949 0 0 0
244 2 4.922000000000001 18.471167162183658 6.261006457885949 0 0 0
473 2 3.6914999999999996 17.76073765594583 9.150921797813446 0 0 0
494 2 3.6914999999999996 19.181596668421495 9.150921797813446 0 0 0
2989 1 2.273715609918204 11.468097699562211 11.918526322749814 0 0 0
3131 1 4.13732428100258 13.438460706807454 11.813103259191154 1 1 -1
3820 1 3.3531090375120014 15.831585268941014 11.741813548970248 0 0 1
4041 1 0.5559857288117049 16.40828093430108 11.790142599417958 -1 1 0
2909 1 4.764028368464884 18.420404870677118 11.701615667099082 0 0 1
2829 1 0.06895045208315173 13.537792909836622 11.55747164837211 1 0 1
3916 1 3.9591775072392736 10.681303816651639 17.5513384064858 1 0 0
1060 1 2.2566004164301927 9.84560617650278 24.481967102754794 0 1 0
1124 1 3.227206199153355 13.064600239766976 18.863181567544466 0 -1 0
3878 1 3.3818835231425415 17.93636862407365 21.909981820921345 1 -1 0
2997 1 3.6206449161762624 14.056961326990965 14.811679001200456 1 1 0
3047 1 2.549397362482321 11.343735510314469 14.723241630988863 1 0 0
4052 1 3.8975780435777927 17.17900422778877 14.17372041963764 0 0 -1
997 1 0.9018951256674932 15.247986006907269 14.41144670098228 0 0 0
3136 1 1.4202312512759891 18.266859345262393 17.26389963057995 0 0 1
1789 1 1.8848270040030146 19.211918992304664 14.888269342424852 1 0 0
927 1 4.893174019501452 9.987149938169777 20.470882315975956 0 0 0
796 1 3.8304575631838707 15.308656489536018 17.414751665008783 0 1 0
2042 1 0.30599431063776644 10.392478678102075 20.155690186934137 0 2 -1
3007 1 2.1128326820325727 15.182340741235693 24.68984869487008 0 1 0
854 1 5.666762877943754 19.474994881021324 22.18518844762785 0 0 -2
1957 1 2.8406889123383805 18.048061680213774 25.14998152933316 0 -1 -1
2964 1 2.344119234626837 15.324016666564198 21.808803361980495 0 0 0
803 1 3.6120061346067223 17.886065832285965 19.128841708550674 1 1 0
3023 1 5.869796301567425 19.070170964598947 24.932344153691332 -1 -1 0
4054 1 4.035151620678909 13.095966879986424 21.878228174635254 0 1 -1
1027 1 3.5467536656913765 12.676931712107095 24.407891372788278 0 -2 -1
3070 1 0.05079641163018019 16.014082884974346 16.88600400459035 0 1 0
880 1 0.550369737324464 13.916463983951246 18.88409207606172 0 0 0
894 1 5.982722528132826 18.28873368510616 15.502724719390162 0 0 0
1936 1 0.03789056846922084 10.928786839603772 15.90215579378703 1 0 0
3967 1 2.5129027213049997 9.903425368364612 21.71598668824511 -1 0 -1
4001 1 5.986873229614368 18.627659257729356 18.431715938657014 0 0 0
2069 1 6.005411469485795 13.274017001171744 25.06187941968225 1 0 1
151 2 0 19.89202617465933 3.371091117957583 0 0 0
196 2 2.4610000000000003 19.89202617465933 3.371091117957583 0 0 0
243 2 4.922000000000001 19.89202617465933 3.371091117957583 0 0 0
188 2 0 24.154603212086325 3.371091117957583 0 0 0
190 2 0 21.312885187135 3.371091117957583 0 0 0
192 2 1.2304999999999993 22.023314693372832 3.371091117957583 0 0 0
233 2 1.2304999999999993 23.4441737058485 3.371091117957583 0 0 0
235 2 2.4610000000000003 24.154603212086325 3.371091117957583 0 0 0
237 2 2.4610000000000003 21.312885187134995 3.371091117957583 0 0 0
239 2 3.6914999999999996 22.023314693372832 3.371091117957583 0 0 0
280 2 3.6915000000000004 23.4441737058485 3.371091117957583 0 0 0
282 2 4.922000000000001 24.154603212086325 3.371091117957583 0 0 0
284 2 4.922000000000001 21.312885187134995 3.371091117957583 0 0 0
286 2 6.152499999999999 22.023314693372832 3.371091117957583 0 0 0
1130 2 0 25.575462224561992 3.371091117957583 0 0 0
1132 2 1.2305000000000001 26.285891730799833 3.371091117957583 0 0 0
1140 2 1.230500000000001 27.706750743275496 3.371091117957583 0 0 0
1144 2 2.4610000000000003 25.575462224561992 3.371091117957583 0 0 0
1146 2 3.691499999999999 26.285891730799833 3.371091117957583 0 0 0
1162 2 3.6914999999999996 27.706750743275496 3.371091117957583 0 0 0
1166 2 4.922000000000001 25.575462224561992 3.371091117957583 0 0 0
1192 2 6.152499999999999 27.706750743275496 3.371091117957583 0 0 0
1128 2 0 28.417180249513333 3.371091117957583 0 0 0
1142 2 2.4610000000000003 28.417180249513326 3.371091117957583 0 0 0
1164 2 4.922000000000001 28.417180249513336 3.371091117957583 0 0 0
193 2 1.2305000000000001 20.60245568089716 6.261006457885949 0 0 0
448 2 0 19.89202617465933 9.150921797813446 0 0 0
471 2 2.4610000000000003 19.89202617465933 9.150921797813446 0 0 0
240 2 3.6915000000000004 20.60245568089716 6.261006457885949 0 0 0
495 2 4.922000000000001 19.89202617465933 9.150921797813446 0 0 0
189 2 0 22.733744199610655 6.261006457885949 0 0 0
191 2 0 21.312885187135 6.261006457885949 0 0 0
234 2 1.2304999999999993 23.4441737058485 6.261006457885949 0 0 0
236 2 2.4610000000000003 22.733744199610655 6.261006457885949 0 0 0
238 2 2.4610000000000003 21.312885187134995 6.261006457885949 0 0 0
467 2 0 24.154603212086325 9.150921797813446 0 0 0
468 2 0 21.312885187135 9.150921797813446 0 0 0
469 2 1.2304999999999993 22.023314693372832 9.150921797813446 0 0 0
490 2 1.2304999999999993 23.4441737058485 9.150921797813446 0 0 0
491 2 2.4610000000000003 24.154603212086325 9.150921797813446 0 0 0
492 2 2.4610000000000003 21.312885187134995 9.150921797813446 0 0 0
281 2 3.6915000000000004 23.4441737058485 6.261006457885949 0 0 0
283 2 4.922000000000001 22.733744199610655 6.261006457885949 0 0 0
285 2 4.922000000000001 21.312885187134995 6.261006457885949 0 0 0
493 2 3.6914999999999996 22.023314693372832 9.150921797813446 0 0 0
514 2 3.6915000000000004 23.4441737058485 9.150921797813446 0 0 0
515 2 4.922000000000001 24.154603212086325 9.150921797813446 0 0 0
516 2 4.922000000000001 21.312885187134995 9.150921797813446 0 0 0
517 2 6.152499999999999 22.023314693372832 9.150921797813446 0 0 0
1129 2 0 26.99632123703766 6.261006457885949 0 0 0
1131 2 0 25.575462224561992 6.261006457885949 0 0 0
1133 2 1.2305000000000001 24.865032718324155 6.261006457885949 0 0 0
1141 2 1.230500000000001 27.706750743275496 6.261006457885949 0 0 0
1143 2 2.4610000000000003 26.99632123703766 6.261006457885949 0 0 0
1145 2 2.4610000000000003 25.575462224561992 6.261006457885949 0 0 0
1444 2 0 25.575462224561992 9.150921797813446 0 0 0
1445 2 1.2305000000000001 26.285891730799833 9.150921797813446 0 0 0
1449 2 1.230500000000001 27.706750743275496 9.150921797813446 0 0 0
1451 2 2.4610000000000003 25.575462224561992 9.150921797813446 0 0 0
1147 2 3.6914999999999996 24.865032718324166 6.261006457885949 0 0 0
1163 2 3.6914999999999996 27.706750743275496 6.261006457885949 0 0 0
1165 2 4.922000000000001 26.99632123703766 6.261006457885949 0 0 0
1167 2 4.922000000000001 25.575462224561992 6.261006457885949 0 0 0
1169 2 6.152499999999999 24.865032718324155 6.261006457885949 0 0 0
1193 2 6.152499999999999 27.706750743275496 6.261006457885949 0 0 0
1452 2 3.691499999999999 26.285891730799833 9.150921797813446 0 0 0
1460 2 3.6914999999999996 27.706750743275496 9.150921797813446 0 0 0
1462 2 4.922000000000001 25.575462224561992 9.150921797813446 0 0 0
1475 2 6.152499999999999 27.706750743275496 9.150921797813446 0 0 0
1139 2 1.2304999999999993 29.127609755751163 6.261006457885949 0 0 0
1443 2 0 28.417180249513333 9.150921797813446 0 0 0
1450 2 2.4610000000000003 28.417180249513326 9.150921797813446 0 0 0
1161 2 3.691499999999999 29.127609755751152 6.261006457885949 0 0 0
1191 2 6.152499999999998 29.127609755751152 6.261006457885949 0 0 0
1461 2 4.922000000000001 28.417180249513336 9.150921797813446 0 0 0
3887 1 1.4531838970082789 23.920562818050588 11.894699722285862 1 0 -1
2977 1 5.5034365329862736 27.86780356199601 11.330344842027248 0 0 0
2075 1 2.4733606815389604 26.736819574166883 11.979147978164752 1 -1 -1
1882 1 3.951809802081061 22.676716552430822 11.983999777694603 1 1 1
802 1 5.14272358948928 25.23823926027578 12.066987227467552 1 -1 1
2002 1 2.777292966043569 20.261118240674072 12.125229361290929 0 -1 0
873 1 1.2227933287643837 24.58200372045845 14.874380230305935 2 1 -1
4060 1 3.134932962373138 25.783351130904055 18.585613215958794 0 -1 -1
3026 1 4.332820103599528 20.57773599895156 15.864141537174236 0 0 0
2978 1 2.2868766499438853 21.9795358767841 19.63154521182753 1 0 0
3880 1 5.686844301923582 27.542112865643603 16.245940847103313 0 0 0
4017 1 1.3448136630542407 23.883392206368086 17.734398840131465 0 0 0
2845 1 2.434977334449139 27.76867691507389 24.696921474189793 1 0 0
1896 1 2.3440462085235705 28.31796253378337 17.637953710032583 0 1 -1
1921 1 4.168157697102745 25.750481631334598 14.69103297140483 1 0 0
3877 1 4.916228285894885 23.871699058230032 17.294813463040303 0 -1 0
3995 1 4.8251561791404916 21.484548493321466 18.645101727634106 2 -1 1
3112 1 3.231202976102488 23.660331363693043 21.51871162732744 1 0 1
2008 1 5.644879931533816 22.293765599478437 22.123810363971373 1 0 -2
1824 1 5.261777876617888 22.987058652139627 14.632138665215717 1 0 0
1028 1 4.349096316154182 26.08130772393183 20.963097606601984 0 1 0
1848 1 2.3110262860545343 27.550844231255905 21.99157644360119 1 0 1
1009 1 2.37858416833376 27.988127020412836 14.672261511541796 1 0 -1
2056 1 2.128010446851436 20.72882978348708 24.49694375658914 1 0 0
78 1 4.363326422533686 25.878881805003513 25.132628033630034 0 0 1
3066 1 2.8230396375308224 23.84487105802931 24.352609834329705 1 -1 -1
3978 1 4.888330811609435 21.916177137993934 24.893530771355053 0 0 0
4043 1 1.5332023464448876 20.196093038717116 21.864349067181756 1 -1 0
2023 1 0.13194997929084124 20.66227754866929 18.06308772136402 0 -1 1
1812 1 6.010857065481898 29.040831135289185 22.445787047614566 0 0 -1
3941 1 5.941040155830395 27.44070302805471 19.018645624656507 0 0 1
1844 1 0.006589150858651749 24.340479230428713 24.364014667435313 1 1 1
3039 1 0.166002157970496 23.775451788078858 21.599815101882953 0 0 0
1136 2 0 29.83803926198899 3.371091117957583 0 0 0
1138 2 1.2304999999999993 30.54846876822683 3.371091117957583 0 0 0
1158 2 2.4610000000000003 29.83803926198899 3.371091117957583 0 0 0
1160 2 3.6915000000000004 30.54846876822683 3.371091117957583 0 0 0
1188 2 4.922000000000001 29.83803926198899 3.371091117957583 0 0 0
1134 2 0 32.67975728694033 3.371091117957583 0 0 0
1150 2 0 34.100616299416 3.371091117957583 0 0 0
1154 2 1.2304999999999993 31.969327780702493 3.371091117957583 0 0 0
1156 2 2.4610000000000003 32.67975728694034 3.371091117957583 0 0 0
1180 2 2.4609999999999985 34.100616299416 3.371091117957583 0 0 0
1184 2 3.6914999999999996 31.969327780702493 3.371091117957583 0 0 0
1186 2 4.9220000000000015 32.67975728694034 3.371091117957583 0 0 0
1218 2 4.922000000000001 34.100616299416 3.371091117957583 0 0 0
1152 2 1.230500000000001 34.81104580565383 3.371091117957583 0 0 0
1182 2 3.691500000000002 34.81104580565383 3.371091117957583 0 0 0
1148 2 0 36.94233432436734 3.371091117957583 0 0 0
1172 2 0 38.36319333684299 3.371091117957583 0 0 0
1176 2 1.2304999999999993 36.231904818129486 3.371091117957583 0 0 0
1178 2 2.461000000000002 36.94233432436734 3.371091117957583 0 0 0
1210 2 2.4610000000000003 38.36319333684299 3.371091117957583 0 0 0
1214 2 3.6914999999999996 36.231904818129486 3.371091117957583 0 0 0
1216 2 4.922000000000001 36.942334324367316 3.371091117957583 0 0 0
1255 2 4.922000000000001 38.36319333684299 3.371091117957583 0 0 0
1174 2 1.230500000000001 39.07362284308084 3.371091117957583 0 0 0
1212 2 3.691500000000002 39.07362284308082 3.371091117957583 0 0 0
1135 2 0 31.258898274464656 6.261006457885949 0 0 0
1137 2 0 29.83803926198899 6.261006457885949 0 0 0
1157 2 2.4609999999999985 31.258898274464656 6.261006457885949 0 0 0
1159 2 2.4610000000000003 29.83803926198899 6.261006457885949 0 0 0
1447 2 0 29.83803926198899 9.150921797813446 0 0 0
1448 2 1.2304999999999993 30.54846876822683 9.150921797813446 0 0 0
1458 2 2.4610000000000003 29.83803926198899 9.150921797813446 0 0 0
1187 2 4.921999999999998 31.258898274464656 6.261006457885949 0 0 0
1189 2 4.922000000000001 29.83803926198899 6.261006457885949 0 0 0
1459 2 3.6915000000000004 30.54846876822683 9.150921797813446 0 0 0
1473 2 4.922000000000001 29.83803926198899 9.150921797813446 0 0 0
1151 2 0 34.100616299416 6.261006457885949 0 0 0
1153 2 1.2304999999999993 33.39018679317816 6.261006457885949 0 0 0
1155 2 1.2304999999999993 31.969327780702493 6.261006457885949 0 0 0
1181 2 2.4609999999999985 34.100616299416 6.261006457885949 0 0 0
1446 2 0 32.67975728694033 9.150921797813446 0 0 0
1454 2 0 34.100616299416 9.150921797813446 0 0 0
1456 2 1.2304999999999993 31.969327780702493 9.150921797813446 0 0 0
1457 2 2.4610000000000003 32.67975728694034 9.150921797813446 0 0 0
1469 2 2.4609999999999985 34.100616299416 9.150921797813446 0 0 0
1183 2 3.691499999999998 33.39018679317816 6.261006457885949 0 0 0
1185 2 3.6914999999999996 31.969327780702493 6.261006457885949 0 0 0
1219 2 4.922000000000001 34.100616299416 6.261006457885949 0 0 0
1221 2 6.152499999999999 33.39018679317816 6.261006457885949 0 0 0
1471 2 3.6914999999999996 31.969327780702493 9.150921797813446 0 0 0
1472 2 4.9220000000000015 32.67975728694034 9.150921797813446 0 0 0
1488 2 4.922000000000001 34.100616299416 9.150921797813446 0 0 0
1455 2 1.230500000000001 34.81104580565383 9.150921797813446 0 0 0
1470 2 3.691500000000002 34.81104580565383 9.150921797813446 0 0 0
1149 2 0 35.52147531189165 6.261006457885949 0 0 0
1173 2 0 38.36319333684299 6.261006457885949 0 0 0
1175 2 1.2304999999999993 37.65276383060515 6.261006457885949 0 0 0
1177 2 1.2304999999999993 36.231904818129486 6.261006457885949 0 0 0
1179 2 2.4609999999999985 35.52147531189166 6.261006457885949 0 0 0
1211 2 2.4610000000000003 38.36319333684299 6.261006457885949 0 0 0
1453 2 0 36.94233432436734 9.150921797813446 0 0 0
1465 2 0 38.36319333684299 9.150921797813446 0 0 0
1467 2 1.2304999999999993 36.231904818129486 9.150921797813446 0 0 0
1468 2 2.461000000000002 36.94233432436734 9.150921797813446 0 0 0
1484 2 2.4610000000000003 38.36319333684299 9.150921797813446 0 0 0
1213 2 3.6914999999999996 37.65276383060515 6.261006457885949 0 0 0
1215 2 3.6914999999999996 36.231904818129486 6.261006457885949 0 0 0
1217 2 4.922000000000001 35.52147531189166 6.261006457885949 0 0 0
1256 2 4.922000000000001 38.36319333684299 6.261006457885949 0 0 0
1258 2 6.152499999999998 37.65276383060515 6.261006457885949 0 0 0
1486 2 3.6914999999999996 36.231904818129486 9.150921797813446 0 0 0
1487 2 4.922000000000001 36.942334324367316 9.150921797813446 0 0 0
1506 2 4.922000000000001 38.36319333684299 9.150921797813446 0 0 0
1466 2 1.230500000000001 39.07362284308084 9.150921797813446 0 0 0
1485 2 3.691500000000002 39.07362284308082 9.150921797813446 0 0 0
1826 1 3.1393621650601933 34.355105749915616 11.96018604666428 2 0 -1
1930 1 2.1649869840971574 31.815064621509084 11.337260017951676 1 1 -1
1955 1 4.651218922593169 38.55592704621761 11.393682982102062 0 1 1
4036 1 5.902492167148803 34.35888794568812 11.739979766627451 1 0 0
31 1 4.699225321760459 30.584778440989915 11.669326608782109 1 -1 0
3088 1 0.8969509782268311 36.08418457305802 11.895218327398775 0 0 0
4062 1 2.5428965201957014 37.76938843502217 13.172852559340836 0 0 0
3920 1 3.29216166288382 38.7010609159989 17.58411457379141 -1 0 0
2039 1 1.931182363172277 31.824618185923164 14.756785097244126 0 1 -1
2068 1 4.910743119389128 33.42877923246389 23.76596936559686 1 0 0
2922 1 1.0097543969512848 34.74006129142819 14.698774626087824 0 0 0
3881 1 4.8100085516021265 38.1167061355794 22.032976271568536 2 0 0
2983 1 0.6171891646955586 38.13964003294565 17.12292776718669 1 1 -1
946 1 4.319856720359912 35.794047661011554 14.39471052088289 0 0 -1
2044 1 0.02935757237691918 36.221413804006566 24.763944808228942 1 0 -2
868 1 5.699485834440809 30.808830128228994 16.48478147956188 0 -1 -1
22 1 4.130672640132968 30.077916165991514 14.360388476244273 0 0 -1
1064 1 2.1986850586165128 32.08653169236418 17.51253247657194 0 -1 0
1000 1 3.9641088151049253 34.48921784835175 18.74677667531663 0 -1 -1
861 1 3.9700760815269716 30.33212817514256 18.5386657038205 0 -1 0
1843 1 1.039651508153917 35.193545088497885 17.365882409846684 2 1 1
3935 1 1.3499012539744248 34.72897262885567 20.579912286277477 0 -1 0
1865 1 5.277702168940464 36.60511882615406 17.21940528712858 1 -1 -1
3013 1 1.998748501183114 36.81178837789227 22.43918963886687 0 -1 -1
2874 1 2.918941430039321 35.20909923494238 24.987303811714916 1 1 0
2099 1 5.313674991154416 33.469011070151424 20.918506340426006 0 1 1
944 1 1.7049898518286424 32.818069769849906 24.812676472530143 0 -1 -1
1908 1 3.1281600347261147 30.598126477569856 24.83818807339889 1 0 -1
3830 1 3.213997776061797 30.06304395627885 21.462353366894284 1 0 0
2966 1 1.714808137658042 32.1657033507086 21.93568354968822 2 1 1
3908 1 4.538216505274262 37.86962884623618 24.873595462142106 1 0 1
4034 1 5.954929743275394 33.412707475186274 16.980995422578594 2 0 -1
1170 2 0 41.20491136179432 3.371091117957583 0 0 0
1206 2 1.230500000000001 40.494481855556494 3.371091117957583 0 0 0
1208 2 2.4610000000000003 41.20491136179432 3.371091117957583 0 0 0
1251 2 3.6914999999999996 40.494481855556494 3.371091117957583 0 0 0
1253 2 4.922000000000003 41.20491136179432 3.371091117957583 0 0 0
1296 2 6.152499999999998 40.494481855556494 3.371091117957583 0 0 0
1202 2 0 42.62577037427 3.371091117957583 0 0 0
1204 2 1.2304999999999993 43.33619988050783 3.371091117957583 0 0 0
1247 2 2.4610000000000003 42.62577037427 3.371091117957583 0 0 0
1249 2 3.691500000000002 43.33619988050783 3.371091117957583 0 0 0
1292 2 4.922000000000001 42.62577037426999 3.371091117957583 0 0 0
1200 2 0 45.46748839922133 3.371091117957583 0 0 0
1243 2 1.2304999999999993 44.757058892983494 3.371091117957583 0 0 0
1245 2 2.4610000000000003 45.46748839922133 3.371091117957583 0 0 0
1288 2 3.6914999999999996 44.757058892983494 3.371091117957583 0 0 0
1290 2 4.922000000000001 45.46748839922133 3.371091117957583 0 0 0
1239 2 0 46.888347411697 3.371091117957583 0 0 0
1241 2 1.230500000000001 47.59877691793481 3.371091117957583 0 0 0
1284 2 2.4609999999999985 46.888347411697 3.371091117957583 0 0 0
1286 2 3.6914999999999996 47.598776917934835 3.371091117957583 0 0 0
1329 2 4.922000000000001 46.888347411697 3.371091117957583 0 0 0
1171 2 0 39.78405234931866 6.261006457885949 0 0 0
1205 2 1.230500000000001 41.91534086803216 6.261006457885949 0 0 0
1207 2 1.230500000000001 40.494481855556494 6.261006457885949 0 0 0
1209 2 2.4610000000000003 39.78405234931866 6.261006457885949 0 0 0
1464 2 0 41.20491136179432 9.150921797813446 0 0 0
1482 2 1.230500000000001 40.494481855556494 9.150921797813446 0 0 0
1483 2 2.4610000000000003 41.20491136179432 9.150921797813446 0 0 0
1250 2 3.6914999999999996 41.91534086803216 6.261006457885949 0 0 0
1252 2 3.6914999999999996 40.494481855556494 6.261006457885949 0 0 0
1254 2 4.922000000000001 39.78405234931866 6.261006457885949 0 0 0