LAMMPS data file via write_data, version 29 Oct 2020, timestep = 300611

2204 atoms
1 atom types

0.0 49.22 xlo xhi
0.0 49.019635930410494 ylo yhi
0.09916775371548425 27.84083224628514 zlo zhi

Masses

1 18.015

Atoms # atomic

1042 1 23.821310721794866 8.017550968629804 13.586640094552138 0 0 0
335 1 7.79405013262897 1.186125240249791 2.6206231869646683 0 0 0
1592 1 10.45575174954715 0.6344456611178194 0.4916501217640613 0 0 1
778 1 14.237551324829544 0.6213625358244734 1.6990444935609486 0 0 0
834 1 16.326372655975142 1.980649192730235 3.532318519682879 0 0 -1
1082 1 21.233937495213645 4.081784289556353 2.8229900056847197 1 0 0
1329 1 19.337208412485396 0.850005880927795 10.768697511845723 0 0 0
851 1 5.621616367289955 5.3783113753365175 1.7564957563892323 0 0 0
1780 1 8.234397141221475 3.900206457425618 2.1226634673808635 1 1 0
48 1 10.717256740610715 3.3962577074376012 0.8992557525211283 0 0 0
1684 1 12.864342442106514 3.30468658661376 2.658722645561638 1 0 0
1483 1 15.737625085456349 4.585829221876133 2.4676622550866956 1 0 0
1844 1 12.399813777634442 24.154731269139273 13.949999372713872 0 0 -1
625 1 19.899317460193775 6.457968045627615 2.998421771819609 0 0 0
2029 1 18.279488180892262 23.44172181854071 11.33750194348475 1 0 1
1220 1 3.174329970979249 7.610455973958967 1.251981992243398 0 0 0
2121 1 1.7334824827097928 7.175080375194065 4.023469151565241 1 1 0
183 1 14.813146312495924 8.04452335368385 13.395722289079469 0 0 0
2136 1 9.438850327695276 7.354935114579507 1.3760802232403713 1 1 0
1255 1 23.928409614048732 0.7440921400181529 3.111234562714038 1 0 0
1270 1 13.909688398518854 7.526809170896237 2.6350738467848527 0 0 1
563 1 18.228469335747423 5.597182107846629 0.8298609494371867 0 1 0
1421 1 22.499930487644818 7.679534893746178 1.5710856491879208 0 0 0
156 1 10.158166359585532 1.21839942284273 12.314896070944576 -1 1 -1
844 1 3.8975597189172007 10.463066862922606 2.413603973557277 0 1 -1
1899 1 0.21303433715527328 9.422383891924458 10.948444424421611 1 0 1
76 1 8.946550659719826 11.90390712753389 2.1647581792768618 0 0 0
1320 1 11.784205343896568 10.852513955068119 2.0049183906225982 1 0 0
332 1 15.760813389124902 7.459813859042924 0.6876240381277413 0 0 1
845 1 17.30387399901199 9.363848738894655 2.674371076331903 0 0 1
1542 1 0.2842746179208757 13.323526684064731 8.176982196282042 1 1 0
1211 1 20.371072228364802 9.484256168179849 1.543113631282862 1 0 -1
715 1 12.187052658896498 4.64617369435369 13.8951436961044 0 1 -1
842 1 22.10907847232168 11.759600743338398 2.1477534733394164 0 1 0
1299 1 1.2517165631161333 11.89525634441397 2.2763953043762184 1 0 0
1032 1 3.572869887999363 15.733332751131941 2.112068991771872 1 1 1
1737 1 12.356206227409993 8.84199700016178 13.93864896988937 0 1 0
1062 1 10.637719471029074 24.386625501811324 5.585481382310311 0 0 0
900 1 14.523303210821032 14.042939350748503 1.3774533060219858 0 1 0
341 1 24.38239687261464 16.833780912029415 6.827175753329871 -1 0 1
2194 1 17.319526216291493 13.572310624476343 1.2199675421040463 0 1 1
1202 1 18.97657399440356 14.934913645141732 3.2317481923049676 0 0 0
742 1 21.8788161140569 14.301098204199757 2.9883867832910878 -1 0 0
1968 1 0.17860960665232126 19.834723793538142 8.022682220448264 1 0 1
451 1 8.157734986815676 16.611190908271706 1.800516208939775 0 0 0
1473 1 6.641170740574978 14.631473052756053 2.348218678806201 1 0 0
416 1 10.696655534241025 16.13355152182756 0.6634152090125148 0 0 0
480 1 22.516749500612324 5.114738487870929 13.642050601464414 0 0 0
1955 1 19.39221308675 16.97160757788569 1.2583530436963544 0 0 0
330 1 23.711731756268357 17.759189938571595 0.7773648006847628 0 0 1
161 1 1.750134981034886 19.651224504806574 1.222192085236747 1 0 1
1541 1 22.072586376926797 23.77373713708162 6.637809353569472 0 0 -1
353 1 6.090292073736492 20.365719827368917 1.7756148826718197 0 0 0
347 1 12.644953825175655 17.777989551795685 0.38708359306010287 0 0 1
1572 1 17.161145187464992 18.282021607503765 0.7558006035878603 0 0 1
1826 1 21.627523796796513 18.99922867018183 1.8655597572857177 0 0 0
682 1 21.535669249531857 21.51045717987866 0.45039289247018316 0 0 0
1693 1 2.6759256914775906 22.34641957517797 0.8486511684166581 1 0 0
389 1 5.13532963611462 0.46122255934152495 7.926895621287535 0 0 0
1268 1 7.232245796041873 6.956442853043955 13.452746636578823 0 0 0
12 1 17.975817805618618 24.195871336589786 6.645823962733176 0 0 0
2065 1 6.564231227743744 9.988633802865225 0.515372716860871 1 1 0
582 1 15.971890770575683 22.13556260657365 1.8171937727659018 0 0 1
650 1 0.3284447320444735 0.3495325781055839 0.5246393553686145 0 1 0
2028 1 23.74478940557211 23.068900076377776 1.0239963411007924 0 0 2
848 1 8.34106566955869 23.956055627698316 3.8654951819715855 0 0 0
2174 1 24.251190985273244 2.5301452862851583 13.865604432952097 0 1 1
488 1 0.4055545498500865 12.254156102094383 5.433743850778284 0 0 1
1343 1 0.5894556523099215 1.1678648193694352 4.192139082492423 1 0 0
274 1 7.335579064329128 0.5863014648127486 5.273706734229876 0 0 0
1086 1 0.15673374688576736 7.930185501276146 8.626346811665282 1 0 0
944 1 12.00761970757583 1.4033441425783635 4.801737851376608 0 1 1
699 1 24.243713628464395 21.712279282996178 3.2649171365312184 0 0 0
641 1 17.812918567615313 2.2776700541053927 7.008115776879306 0 1 0
889 1 19.33035246215034 2.3797262647721817 3.5344199957032156 0 1 1
1471 1 20.03347728235934 1.0023454166000025 6.291587101598902 0 0 1
1966 1 1.0169738101560986 15.960817651823586 3.655555087764359 1 0 1
137 1 2.3395312784978777 5.097503683251453 5.491627153793064 0 0 1
979 1 4.925923606935754 4.625397464884166 4.678289409748259 0 1 0
807 1 9.54677049797441 2.790026577916532 4.933853509799356 0 1 0
1405 1 12.629534944524798 5.423620046804764 4.351258644683625 0 0 1
1072 1 16.7119809750347 4.3930588844863125 5.432332823647331 1 0 0
1616 1 23.525865163650625 3.361238283819131 4.6189636244009415 0 0 1
2075 1 2.5289523738109616 10.070404107735136 5.083114840017161 1 1 0
249 1 5.816601223743772 7.86009432053439 2.807423974974907 0 0 1
1972 1 6.518868709584297 7.014907056763697 5.543480131916597 1 1 0
1577 1 10.11127850093951 5.67123305816044 3.4938603664433425 1 0 -1
607 1 15.321266548830508 9.167467591214557 4.944755764500786 0 1 0
1285 1 17.296369591958452 7.893244617992884 7.343503875933504 1 0 0
674 1 18.767360758149703 6.295527894694445 5.556885350168451 0 1 1
258 1 1.564527129122767 9.296867900862868 13.273700731619389 0 0 0
1956 1 5.532858643549301 0.7269185029240757 0.9515653637985763 1 1 0
1555 1 4.9528874575711725 9.903943570800458 8.360434251858027 1 0 0
553 1 8.057033922606779 9.177022643078534 2.6581751313204127 0 0 1
202 1 8.020981193703344 10.20594603301135 5.29129727495058 0 0 -1
2195 1 13.350494528093138 11.072844748362181 4.532293951722022 0 0 -1
2001 1 17.96207385641446 11.895264819716175 3.7833526235316848 1 0 0
2085 1 21.34504268052752 10.346028953278635 4.786398077966607 0 0 1
2124 1 21.97919635227463 7.715134225823357 5.01773018487928 0 1 1
2062 1 5.194182416385279 10.92930278507046 5.786111601873981 1 0 1
878 1 4.938866537482296 13.542133265358471 6.131549572948198 0 0 1
408 1 7.765674468266392 12.930759063257769 4.622488602288505 0 0 0
1609 1 11.094874812345978 13.25698624959517 4.1348771087752585 1 0 0
504 1 15.327770553669922 12.840259580928612 4.045556306693488 0 0 1
1867 1 22.668866276573816 14.607322120618846 5.649414791699025 0 1 0
1849 1 19.005600099960894 11.17123825449833 6.302387582704384 0 1 0
1547 1 22.65371179420581 11.92972648830955 6.833692015381721 0 0 1
637 1 2.985148775185364 13.573224050616652 4.1034830703034135 0 1 0
1210 1 20.911734469890334 11.60698641707969 13.684760981988592 0 0 0
1732 1 4.748136439459567 16.46769380012957 4.714223361569558 1 0 0
192 1 6.949280994739612 17.71888016111873 5.708153080052281 -1 0 0
474 1 12.715619664931214 15.512921558343496 3.02598450736635 0 -1 0
653 1 10.214390441020788 16.08703011103318 7.761611321180992 0 1 0
2030 1 14.463071841937495 17.17792490624179 4.514175616486415 1 1 1
2024 1 18.421579394348797 16.18400249362821 5.482496220654656 0 0 0
1341 1 17.297781559349726 18.800582818616366 5.773601742675356 0 0 0
1058 1 20.019398093557786 14.85431239969443 7.051990392836573 0 0 0
1444 1 2.9545098753789385 19.86180397971682 5.037842115510557 1 0 2
1004 1 3.896754721463448 18.63278666989373 2.608194587899566 0 1 1
1632 1 8.307403896718682 19.14495888524193 3.7706279228871704 1 0 0
1344 1 10.593273266892805 17.463562422234524 3.736617425923867 1 0 0
405 1 12.282355626601245 20.558698059270526 5.937784618657158 0 0 1
1807 1 12.936193160246237 19.23784735939589 2.7843489596305306 0 0 1
1775 1 15.86008103898758 19.49660827489653 3.319284504565901 1 0 1
120 1 15.072742299060067 21.39656660368504 5.768482807631365 0 0 0
837 1 19.18921249869446 20.60159444824336 5.891214173544536 0 0 0
14 1 21.70314267878857 19.839532766897456 4.551217218431356 0 -1 0
1745 1 24.20886998335354 19.5779730325284 5.716590439223779 0 0 0
1186 1 4.201494382342632 23.843341182646085 2.515467687146487 1 0 0
1546 1 2.1361840470184026 22.314649329494433 4.242852485792502 1 -1 1
2070 1 6.220256074400148 22.479725404357037 3.8515081787474674 1 0 0
445 1 9.388316004135193 20.598072288651398 6.0440918888550925 0 0 0
273 1 9.29953111050014 21.71436490439997 2.61668890745104 0 0 0
1515 1 11.85730967685867 22.0299003401754 3.718661283628896 0 0 0
215 1 17.744444720318935 22.498212355715708 4.412508034775838 0 -1 0
831 1 21.988544783794172 22.53608197748161 4.22152891023584 0 0 1
379 1 24.45160391155381 15.232025934822417 1.6352491471378885 0 0 1
1778 1 2.6707085536296336 1.480904140857108 9.061909801793417 1 1 0
1743 1 12.100657273462025 16.17227444124775 12.563787601688759 0 0 0
1045 1 7.247034221964446 1.7559647865997434 9.918382779254129 0 1 -1
1354 1 23.76658234580471 15.227784060464465 11.874661294637951 1 0 1
426 1 20.934952615736062 22.863435904876603 12.224925781114845 0 0 1
1201 1 10.978565484180466 2.6399552976965244 9.739698895820808 1 0 0
1720 1 13.615595087118459 3.4024157512147672 8.852370724153287 0 1 0
21 1 15.030219677731393 1.7327779706824078 10.455312710408851 0 1 -1
1031 1 17.597906607828175 2.4274451799531307 9.735580453658319 0 1 0
234 1 13.19829473132418 22.439614566678447 1.3192583327821503 0 0 0
1 1 23.22257769317786 2.352131031890239 9.211040345203736 0 0 0
881 1 1.4354936409543257 4.444457129530698 9.717619521513548 0 1 0
1672 1 6.110915644607703 3.112830111900776 6.79594130597743 0 1 0
1093 1 4.147402386724591 6.047222694586763 11.824277942416618 0 0 0
1263 1 8.924807125557127 3.068641861441921 7.756571891826975 1 0 -1
18 1 6.784556943357212 5.006181707746748 8.924885199181288 0 0 -1
302 1 14.35736494845476 5.0970871574799075 6.418660783816141 -1 0 1
1166 1 18.656033046681145 4.953753064102168 9.528809357521864 0 0 0
1648 1 20.246121597660046 4.707451527523231 7.203439011561861 0 0 1
1252 1 22.10176000541979 2.4636433973519116 6.818957760699579 0 0 0
1056 1 2.3139565522174137 6.324610563148584 7.886090440874803 0 1 -1
131 1 5.085059334414022 6.967572007430744 7.832566635143926 0 0 0
1150 1 4.066207254057189 4.06388106975467 9.906429083280896 0 0 0
5 1 8.769875309467505 5.946168850177637 6.181497679967389 0 0 0
567 1 13.05776518215815 8.069769222616204 10.529188958548456 0 1 -1
201 1 14.592435289960408 7.670796462346107 7.286134090529102 0 0 0
533 1 16.906544002006605 6.928702273873199 9.71775834075389 0 1 0
1811 1 21.454462611121762 7.255990693525018 7.908100879313396 0 1 -1
795 1 24.07800597832557 7.9390316402905965 8.703166730003234 0 1 1
751 1 9.388794087918953 8.456946686059284 7.049851864445216 0 1 0
1040 1 7.550138015114126 10.22980491902812 8.629328227134852 0 1 0
1246 1 12.11886244059893 8.972673261315858 7.910009893309199 1 0 -1
597 1 13.058599000813725 11.44910984430167 7.679577576150101 0 1 1
1205 1 16.146401535876983 10.815971820607865 7.025968114626307 1 0 0
1971 1 16.294233122361458 10.96900262402546 10.21827739096268 0 1 0
67 1 19.761079274641137 9.267073774690187 8.57779441326023 0 0 0
1376 1 22.664024865270004 10.633723700761992 9.377764204270088 0 0 1
702 1 1.8328510111395864 22.128122808417007 9.196997204875526 0 0 0
1931 1 4.043226569241277 11.533681294852016 10.412674843904622 0 0 1
1560 1 7.685422648743924 12.968685677277428 8.94730258187748 0 0 0
538 1 11.610548369579684 13.557652176586085 6.873959936006835 0 1 0
327 1 15.89701609613915 15.006556829411585 5.993687625323815 0 0 0
2151 1 18.57150969617831 13.015160138211892 8.698298042019548 0 0 1
256 1 1.045942096939185 16.147424929464524 7.8928536480217515 0 0 1
1251 1 3.3677453582534786 14.240186454466222 8.431548239077044 1 0 0
423 1 6.5965767223268506 18.479983984129884 9.988559749452433 0 0 0
961 1 7.758461470642983 15.219240802176708 6.450223435880181 0 1 0
126 1 10.905273512221397 19.166807337721323 9.78805432876363 0 0 0
1179 1 12.876151041825866 15.403150094832261 9.633890415660165 0 0 -1
444 1 15.564137262097676 15.381133338463902 8.823070022701861 0 0 0
2014 1 16.120472788724555 18.33425859681858 8.552830122687489 0 0 1
134 1 17.61789433560781 14.649194472458634 10.996152205979298 0 -1 -1
1518 1 20.03071370908877 16.08872229727268 9.570574728608081 1 0 0
1057 1 5.230351227148292 19.47247783527765 7.065906516786487 1 0 -1
218 1 3.1613190740295876 18.209397118340316 8.610717112831217 0 0 0
75 1 8.750267273765232 18.767667182038256 8.137090723474039 0 -1 -1
1821 1 8.02125037767151 21.588075033364653 12.674791916654979 0 1 0
268 1 12.38594258529357 17.879128443327424 6.489090353686826 0 0 -1
103 1 13.539646472127023 18.30343839431192 8.993944685947222 0 -1 0
1645 1 15.407341146208253 21.11682972753509 8.629812771171146 0 0 0
1553 1 19.958461018576397 20.641731622446933 8.4146418149244 0 -1 0
242 1 19.735699185852 18.94207787166142 10.579016302773612 0 0 0
1893 1 2.276634795674765 23.684671885975472 6.662864091139326 1 1 0
176 1 6.463616835291205 22.020064538946414 6.666309446527493 0 0 0
754 1 4.786633882446279 23.81609664135491 7.777422259172191 0 0 0
83 1 8.787654078578841 22.228174040693247 8.740191425472624 0 0 0
671 1 10.345275692835433 21.72817443368812 10.92500304069467 0 0 0
1817 1 13.642038744676862 22.716735187795603 9.840089621851577 0 0 0
2127 1 2.818736563938726 1.0292139343526872 2.612231457112216 0 0 1
2033 1 17.874338839545242 22.43087273180417 8.780468370898584 0 0 0
1426 1 21.676964224699102 22.587334164584572 8.802078033587392 0 0 1
1029 1 0.843264426627098 18.004561206432253 5.590234939779121 0 0 0
1372 1 4.8281589418245145 2.600489299360644 12.144437891743895 1 0 0
988 1 16.755346296686188 22.520298313574845 13.330164783532545 0 0 0
1145 1 14.551045820041566 2.0746685614581293 13.063427311823562 1 0 -1
745 1 21.3983716742947 2.4435241182633476 11.355307943947938 0 1 1
403 1 22.323362409001877 0.8131792955865635 13.361382532134526 -1 0 0
774 1 7.58534185041379 2.3266845316617215 13.015418947717011 0 1 0
1865 1 10.465601769028043 4.831318505520278 11.775864276741181 1 1 -1
1929 1 3.0498037655801147 23.24684672149123 13.297398576411451 1 0 1
1278 1 20.402547955269185 5.024691311788878 11.698595814342625 0 0 -1
2054 1 1.0981170071086288 6.008265864163986 1.1189118181876214 1 1 1
478 1 7.7049000507956595 4.7178578578286094 11.73378169848916 0 0 0
1513 1 10.555137162392604 7.800138787080372 11.76088350960184 0 0 0
1331 1 23.49953162597059 18.651887431864317 13.821521683610431 0 -1 -1
1053 1 14.715645277516574 5.5790584751291 10.438568400904325 -1 1 1
382 1 15.12257823045227 4.872010984300962 13.182974344813852 0 0 -1
1230 1 17.140957046432856 8.549846952319733 11.733952542669476 0 0 1
179 1 21.71824795262963 7.4945634041399165 11.282949759427172 0 0 0
378 1 3.036073145307154 4.049045844989134 0.8921875480640478 0 0 0
1400 1 15.828944721263323 0.20890533089756852 5.997149142345533 0 0 1
2063 1 5.418376282060884 8.369636589776714 10.846630326527173 0 0 0
565 1 4.224012661307028 10.021247447653325 13.055858726606635 0 0 -1
174 1 8.08327109985222 9.345993984686851 11.415104764118562 0 0 -1
692 1 13.920610015878424 10.400064260628755 11.230542825617086 0 1 0
1219 1 20.597211753986993 12.354491382700845 10.35893577615804 0 0 -1
339 1 20.047889715993986 9.569625519920782 11.584084673902487 0 0 0
1445 1 0.7328444499889565 14.213659183573395 11.944809432120481 1 0 1
203 1 1.310889114928521 11.863438183099328 10.4229390667898 1 0 0
1891 1 4.224488159614976 16.614528499035423 10.472770953482899 1 1 0
1207 1 5.606188790211137 14.079299468966319 10.603836001945641 0 0 -1
1943 1 7.323652956166762 16.19103765696396 11.559656404612085 1 0 0
599 1 9.573014737294612 13.066860564623171 10.744952359202326 0 1 0
236 1 12.275571329486763 12.426905860501419 10.242632873624595 0 0 0
928 1 15.576015110186507 13.393802904679147 13.689427958518548 0 0 1
1357 1 17.83156973222228 12.241990432298683 12.210074261016459 0 0 0
1131 1 21.230231751363394 14.681817575944226 11.678704323816634 0 0 0
455 1 3.3354016734043093 14.520539281457195 12.971933947534623 1 0 0
1882 1 3.4084662118034044 17.648836901219582 13.19042787368465 1 0 0
783 1 9.989101783369321 15.91634136900016 10.792212425222992 0 0 0
1135 1 15.016478438619725 15.439833124347182 12.137821710002411 0 0 0
1604 1 17.34672329851337 16.802171572350474 13.496519997112543 0 0 0
636 1 0.7622559757395119 19.551429382953692 13.104814127390547 0 0 -1
2045 1 13.158722593930461 0.4445018613464864 7.082348573706564 0 0 1
1115 1 2.723469852527609 19.86791991260523 10.99935262639863 1 0 0
36 1 5.595076367946581 12.56723027966997 13.153191807184664 0 0 -1
1612 1 0.35446237416419324 4.5579884983786565 12.403673214115177 1 0 0
65 1 5.686557521686729 20.534129063454774 11.431239812449256 1 0 0
714 1 12.001659961017749 18.94194357573613 12.321573008867762 0 0 -1
1468 1 22.94746620021798 3.4422786097041835 0.5063435679947353 0 0 0
594 1 13.098142750507444 21.537568689719052 12.299973351927482 0 1 -1
1038 1 15.417386692104884 20.351214178905334 12.716898663510168 0 0 1
15 1 17.141272516360655 18.670954561725136 11.33528264654154 0 0 0
1269 1 21.837073636353107 20.116107789092943 11.775223556833732 0 0 0
1776 1 23.964694553013782 20.89576116900861 9.917289312143595 0 0 0
1952 1 4.255323104185771 23.091176257426635 10.820683530387566 0 0 0
496 1 13.756998978314883 24.11078777039872 5.747449645791224 0 0 1
651 1 11.553152168003193 22.75340370124224 7.897859097299456 0 0 0
1318 1 8.291017936154622 11.53572269274838 12.94968097401444 1 0 -1
2083 1 0.5734313512600299 1.681618838785459 12.118482968040366 1 1 1
635 1 16.883953973308408 0.5714611301306497 0.5162842003655119 0 1 0
954 1 24.177014166946982 0.11744614238931637 6.27806325738776 0 0 1
419 1 18.032752954273544 5.788106739460618 13.15424341696117 0 0 0
1578 1 11.993349136826751 8.31127054622109 0.6395883870699678 1 0 1
1784 1 3.092287162296854 0.6347878405427939 12.353373974623954 0 1 -1
2196 1 7.069821450241346 23.736078141596114 10.112388145207845 0 0 0
897 1 0.36689183171995554 3.445048572570311 5.777959474537451 0 0 1
343 1 1.583002032663157 0.24499142430379806 6.661280424675419 0 0 -1
1588 1 24.03952520266623 10.910659914570827 13.53549317616197 0 0 1
629 1 24.53791294971577 6.107629016559416 5.0993087165235185 0 1 1
978 1 0.017011055783036966 23.918292374682967 10.25903561098237 1 0 0
318 1 10.44960170589873 24.436267687627566 11.84367592888545 0 0 0
1857 1 12.228354613844248 0.1346738306181905 9.78164259158045 0 1 0
8 1 19.84933055428271 23.8273967854788 0.22428118315014345 0 -1 1
1458 1 15.052504769966312 16.63103029841203 0.19920135763890556 0 0 1
187 1 4.806144740577104 4.0562507490837865 16.93140485798348 1 0 -1
524 1 9.268564855859676 3.2767962648889366 15.200762529844374 0 1 0
1497 1 12.082843241567009 1.9780277442743786 14.408119149728295 1 0 0
871 1 15.786964918991844 23.90362962422952 24.942890842717837 0 1 0
1583 1 20.478871273233757 0.316512241861231 15.35984167610202 0 0 1
2172 1 2.3903112851351542 7.275837633702301 16.645404290274016 0 1 -1
1178 1 6.290584918024869 6.668872256861896 16.916513471369782 0 0 -1
815 1 8.814970973776783 5.8623699490338534 15.86410111528939 0 0 -1
1714 1 10.453904771861984 3.636815991825262 20.13707151332479 0 1 0
1545 1 11.639774912256875 7.0751873157607825 15.766842155441577 1 0 0
1261 1 9.284224268105858 7.158975427549923 18.448137781295124 0 0 -1
1335 1 14.782827516441454 7.187817809589823 16.021730193372097 0 0 0
1209 1 12.577846381779976 4.062509829778634 17.05299331808659 1 0 0
1927 1 17.759520583695526 3.6260747881412345 15.217888048892398 1 0 0
1321 1 4.603651871400576 21.852631046406024 26.74026463166202 1 0 -2
786 1 19.543863734487452 2.5342779856892883 16.66859835224687 0 1 0
374 1 21.07490421764445 4.860049949361882 16.335185439087535 0 0 0
121 1 0.6132510569684905 7.01443711876442 14.457195277663475 0 0 0
1477 1 22.941026821150917 13.555061196777201 14.241999110279687 0 0 0
2025 1 14.044558688619675 11.93314547091487 16.91777110066217 1 1 0
1158 1 15.733279574650435 10.27524702283591 18.223791590794523 0 0 0
19 1 19.321340374110274 6.633198401857062 15.422733607598401 0 0 0
836 1 14.94417445557664 0.14738118849721749 23.64465903438011 0 1 0
1786 1 0.3914901325988654 16.21116713513471 23.778799947171656 1 0 0
372 1 0.7219401889243426 11.218634251836486 15.182447526845785 0 0 1
894 1 23.20892984454057 24.342722324096467 21.341251271848147 0 0 0
4 1 6.677814566339677 10.427141515801244 15.3840260153329 0 0 -1
1569 1 4.889997927495383 7.999789791792517 15.126549934081712 1 0 0
296 1 23.498437222722636 7.376153027317667 26.808519504337706 0 0 0
1631 1 10.240778992095155 11.545591144561335 14.747091221071486 1 0 0
1000 1 23.827313317506157 8.496277661736567 19.27555689959531 0 0 0
1624 1 24.423830546389226 3.923753889836204 20.953558474780024 0 1 1
1415 1 20.712140799278476 12.232499228667896 16.61313229048193 1 0 0
955 1 0.39771792818429347 3.360869546377858 20.23655863783039 1 1 0
1264 1 21.668026348675717 1.0115954443028037 19.961736705144002 0 1 -1
484 1 11.056940707110877 13.961001798964368 16.153923055759808 0 0 0
323 1 8.682168841613949 15.694418722775001 16.480234248510367 0 0 0
391 1 6.75273689183624 13.042251168753193 27.7792555220548 0 0 -1
556 1 15.7053025956075 14.028537446084416 16.551751515834848 0 0 0
1213 1 0.2743430854005393 12.865648839034774 18.61116380290855 1 0 0
1095 1 2.76893251417242 22.412447983361623 20.760219849481793 1 0 0
1107 1 21.525451614923693 14.143652841166118 18.4721947392845 0 0 0
849 1 23.062104476627308 0.7230282813666548 27.55738679653945 0 0 0
1013 1 4.855404839568347 15.402743714441662 15.224961497082312 0 0 1
1556 1 7.320962429656049 17.125188047558105 14.27415781223285 1 0 1
2163 1 11.160086198612532 18.461075030596692 16.380094552339276 1 0 -1
1488 1 2.355447195358868 1.8825549939011745 16.261001045114615 1 1 1
287 1 15.147455348114446 16.59786547979495 15.338912863920015 0 0 0
1563 1 23.172103618422085 0.4095204821866553 24.352879898645966 0 1 -1
370 1 22.298251978544336 16.37568703718637 15.076565589040312 0 0 1
1864 1 21.877653627079578 17.266136654936947 17.783983794973285 0 0 -1
95 1 5.1915756668848 7.015041709994307 26.62221024310497 0 0 -1
872 1 24.04511323731683 1.4511840374932878 21.83667030192602 0 1 0
503 1 8.003451053598596 20.80977155624595 16.122887348785557 0 0 0
1988 1 4.490914212385397 20.57912269797193 16.36663542229558 1 0 0
1002 1 12.351563612801176 20.60937637824171 15.177220238359984 0 0 0
1916 1 15.132276464663606 19.452574429907294 15.257528032604469 1 0 -1
191 1 16.90014533687133 21.183218298388212 16.449062276059763 0 -1 -1
975 1 19.636945717966412 20.48667152153671 16.589827462885303 0 0 1
58 1 15.247144926351103 0.09160689543855952 16.846319693184427 0 0 -1
806 1 23.969914776075477 18.54780758660515 23.927258417975345 0 0 1
402 1 4.765823135400063 23.256585423651956 15.402334394895982 1 0 0
953 1 10.0008010802516 21.337028050493892 18.3730019817632 0 0 1
1842 1 13.83322906793732 21.799112289466752 24.86357757955533 0 0 -1
101 1 11.691207548826267 22.678234170782765 16.689345530562672 0 -1 0
1638 1 7.6526474403421245 22.466984918278044 24.407075078254643 0 0 0
1741 1 23.386176826554134 10.610134011172821 17.153925130721962 0 1 -1
779 1 12.2215646626564 24.147516070988384 24.661419409065935 0 0 0
1080 1 24.13035635401197 20.032857620092546 16.16524491166105 0 0 0
92 1 23.60161912871294 22.934775056195733 15.86901706054123 0 0 0
1480 1 5.5969176037571735 19.283874196088703 14.04667815127249 1 0 0
1307 1 2.028834486587444 1.0956324953097416 19.05072393315925 1 0 -1
1138 1 4.601257306935681 1.5374383220961347 20.018320913859252 0 0 0
809 1 5.778505416501587 1.2863585873485464 17.218619434546774 0 0 -1
1148 1 8.133650629766692 2.600510342048948 17.494963188473843 1 0 -1
570 1 12.620332732145572 1.080213231767419 17.17779209290758 0 1 0
244 1 13.332550970740144 2.416173701747038 20.03542733187809 0 0 -2
322 1 16.282297264974584 10.315308976170162 15.395658703043466 0 0 0
1639 1 18.910149812868436 2.3839693129989876 19.285498656266594 0 0 1
1018 1 0.2113706329132692 1.9860748638588632 24.526807768703495 0 1 0
1068 1 2.678008265619298 5.0686401632500315 18.439031613433087 1 0 0
840 1 7.89901814209028 4.733819682303655 19.370954562757 0 1 0
662 1 11.769624862688161 6.002794068029526 19.15446618545924 0 2 -1
876 1 15.677216658886767 4.6512983787593125 17.048590839549377 0 0 0
1334 1 16.968363728403865 6.590090670926207 19.570673340480536 0 0 -1
366 1 19.333347511530377 5.218201353636293 19.955475645685702 0 0 1
731 1 24.34452335133626 3.859467336744373 16.405690273816234 0 1 -1
2200 1 1.780655607261896 9.598898543145218 18.211846102838113 1 0 0
1079 1 5.252336892910923 7.8580539346398295 18.973322119965392 0 0 -1
189 1 3.995256361066042 10.504720962824477 19.279268797662365 0 0 1
1589 1 7.522970021158675 8.66981588717059 20.07790663565989 0 0 -1
1424 1 9.110876334562587 9.239334927902227 16.58784044688493 0 0 0
1221 1 13.372536098742598 8.744641211402273 18.435688269686786 0 0 0
1198 1 17.57641360784273 8.100109855399642 17.260013608283842 0 0 -1
1710 1 21.81770736976191 6.330900984259265 18.5875251115715 1 0 -1
1890 1 5.3060408225197095 12.142649415340326 17.237978753155822 1 1 -1
1243 1 8.008668218107745 11.120825772679806 19.33554975551538 1 0 0
1103 1 11.226438754526727 10.41846470408557 18.08589157628393 1 0 -1
634 1 18.818464073211203 10.621838922664233 18.355792871244347 0 0 0
35 1 21.042792808164524 9.073144904496656 17.425109473984737 0 0 0
1296 1 22.782705089328786 10.211663331301207 21.227162606505864 0 0 -1
940 1 7.394624185362327 23.235298352610208 14.792460423138667 0 0 1
60 1 2.5312860386328913 12.995589072284979 16.78847388188104 0 0 0
1227 1 7.755017507955054 13.750306206505725 18.11162908359998 1 0 -1
1920 1 9.911164333727758 13.673197422368002 20.39927079678622 1 0 0
1423 1 12.103121990178632 13.479812918979894 18.688065559788203 0 0 0
903 1 14.619244853814916 13.861056482038785 19.752595928930933 0 0 0
1140 1 17.29474115052696 13.313581499323256 18.935670711069005 1 0 0
1973 1 19.162549125263233 15.393420122993144 19.802031039985764 0 0 -1
823 1 23.686701515154276 12.544283467435482 19.352637910872964 0 0 0
1081 1 23.49965875019053 15.84676635046174 20.850423083093286 0 1 0
1028 1 0.8549300920857574 18.23926742228807 17.509557317324315 0 0 0
96 1 9.322574698867326 19.184304113322604 14.31845197106343 0 0 0
614 1 2.8690103673318808 16.150639601780423 17.48043997924946 0 0 -1
1271 1 4.984244490541254 17.31306491361653 19.052521143078362 1 0 0
1204 1 9.134018323267632 18.00340759535081 18.481000041128304 1 0 0
460 1 18.15249439170119 17.286079388250474 18.08236793616587 0 0 0
1245 1 15.511605574477484 16.875236038385808 18.232549200691036 1 0 0
1824 1 16.860160875259908 23.876387610842862 16.10818669400662 0 0 0
1427 1 3.3226694579617146 18.574705962502936 20.79881595058836 0 0 0
1581 1 6.434985157510437 19.687938324439045 18.31504929542399 0 0 0
571 1 11.362489216575897 19.60849786526165 19.617672879699533 0 0 -1
749 1 13.886362392672266 19.46576208375692 18.099340954088262 0 0 1
37 1 14.406451733679607 18.90692488140899 20.870083859717738 0 0 0
108 1 18.94492100867708 19.272519120365054 19.46612503623358 0 0 -1
1765 1 22.202262188560763 20.007804022750562 18.07304014644048 0 1 -1
1523 1 19.50209375612609 17.729788179776484 15.506951942885626 0 -1 -1
1584 1 1.0738357069592435 21.95561974166587 22.89658146490565 0 0 0
1979 1 2.6246592157912754 20.31488732326767 18.690097138197963 0 1 0
737 1 9.24344105780635 0.9051689350839784 19.63578968290624 0 1 0
157 1 9.904167954397654 23.244420415752174 20.76361180553076 0 0 0
1785 1 13.05457221372137 23.29230214232749 21.14032646408232 0 0 0
494 1 13.837669427024057 23.053426223281388 18.459563461064118 0 0 0
1412 1 15.886591428663609 21.34726792185669 18.895576044886788 1 0 0
248 1 7.670614366452629 8.755626050718334 25.931754168014674 0 0 -1
2013 1 17.30532078810147 22.55594051697535 27.024128753505973 0 0 0
2169 1 2.0052644072371026 2.0404745904043122 22.36883380508066 1 1 0
1020 1 5.953966727037482 4.136038777493498 20.959225904252435 0 1 0
123 1 6.400208793611883 1.9546795558019328 23.041918973797614 0 0 -1
1475 1 8.93339909616128 1.1668344963025479 22.506371090912513 1 0 -1
1500 1 22.966012079721157 3.5091051502835797 18.84531279348397 0 1 0
1439 1 18.43779002750697 19.937013057350118 26.34922512619842 1 0 0
1668 1 10.76206746254198 2.4701995641763226 25.338766183004978 1 1 0
1625 1 16.570462868501107 1.4347987126732034 21.66149901237018 0 0 0
693 1 0.07274259595084327 6.592170043165951 26.50158255310427 0 1 -1
151 1 6.932881621542499 0.010957648646702012 14.68773737377011 0 0 0
758 1 3.942064533923141 3.7963108575013953 23.096691990806875 0 1 0
2026 1 19.552441832915704 14.790528038955411 26.86456133199397 0 1 -1
621 1 3.713214549809982 6.41852354165367 20.838959458304245 0 0 -1
1464 1 10.003464855950677 3.9034969238643327 22.641224280550624 0 0 0
88 1 11.322717206592737 6.6835879946614565 21.90563595887875 0 0 0
380 1 12.990173425551172 3.6607223924343186 22.9813492856166 0 0 0
393 1 14.679293546947116 4.800560899606688 20.377723260542332 0 0 0
2104 1 16.40218710137521 3.9194160078280205 22.546824231582892 1 1 -1