
# Create simulation box and atoms

read_data data.ML_graphite_m500atm_240K
  orthogonal box = (0 0 1.70882) to (49.22 49.0196 32.2312)
  4 by 4 by 4 MPI processor grid
  reading atoms ...
  4537 atoms
  reading velocities ...
  4537 velocities
group water type 1
1777 atoms in group water
group graphite type 2
2760 atoms in group graphite

# Define potential

pair_style sw
pair_coeff * * MLC_e.sw mW C


# Fix graphite atoms in place

fix 5 graphite setforce 0.0 0.0 0.0
velocity graphite set 0.0 0.0 0.0


# Equilibration of molecular water

# Add velocity/set timestep

velocity	    water create ${TEMP} ${SEED} rot yes dist gaussian
velocity	    water create 240 ${SEED} rot yes dist gaussian
velocity	    water create 240 14567 rot yes dist gaussian
timestep	    5.0

# Define output

compute			1 water msd
compute			3 water temp
thermo	    	50
thermo_style	custom step temp press vol etotal ke pe c_1[4] c_3

# Neighbor lists

neigh_modify    delay 0 every 1 check yes

# Set fixes

fix             1 water momentum 10 linear 1 1 1 rescale
fix             2 water nve
fix             3 water temp/csvr ${TEMP} ${TEMP} 500.0 ${SEED}
fix             3 water temp/csvr 240 ${TEMP} 500.0 ${SEED}
fix             3 water temp/csvr 240 240 500.0 ${SEED}
fix             3 water temp/csvr 240 240 500.0 14567
fix             4 water press/berendsen z ${PRES} ${PRES} 1000.0 modulus 20000
fix             4 water press/berendsen z -500 ${PRES} 1000.0 modulus 20000
fix             4 water press/berendsen z -500 -500 1000.0 modulus 20000

# Run 0.5 ns equilibration

dump		    1 all atom 2000 ${DIR}/eq.${NAME}-${TEMP}.dump
dump		    1 all atom 2000 run_9/eq.${NAME}-${TEMP}.dump
dump		    1 all atom 2000 run_9/eq.het_freeze_9-${TEMP}.dump
dump		    1 all atom 2000 run_9/eq.het_freeze_9-240.dump

reset_timestep  0

run	            100000
Neighbor list info ...
  update every 1 steps, delay 0 steps, check yes
  max neighbors/atom: 2000, page size: 100000
  master list distance cutoff = 6.67472
  ghost atom cutoff = 6.67472
  binsize = 3.33736, bins = 15 15 10
  1 neighbor lists, perpetual/occasional/extra = 1 0 0
  (1) pair sw, perpetual
      attributes: full, newton on
      pair build: full/bin/atomonly
      stencil: full/bin/3d
      bin: standard
Per MPI rank memory allocation (min/avg/max) = 4.071 | 4.206 | 4.511 Mbytes
Step Temp Press Volume TotEng KinEng PotEng c_1[4] c_3 
       0    93.968254   -654.73592     73642.74   -17158.673    1270.5405   -18429.214            0          240 
      50    93.697069   -590.62245    73644.987   -17194.212    1266.8738   -18461.086   0.52077402    239.30738 
     100    93.453589   -859.68717    73580.723    -17171.96    1263.5817   -18435.542   0.89224204    238.68552 
     150    96.466656    -841.3054    73541.794   -17166.539    1304.3213    -18470.86    1.1735494    246.38105 
     200    92.492417   -535.51014    73606.172   -17148.757    1250.5857   -18399.342    1.3949713    236.23063 
     250    95.632834   -1001.9834    73573.148   -17182.223    1293.0472    -18475.27    1.6163512    244.25143 
     300    93.350094   -787.74892    73481.766   -17167.923    1262.1824   -18430.105    1.8733558    238.42119 
     350    97.883261   -1172.1991    73402.019    -17123.12    1323.4751   -18446.595    2.1302471    249.99914 
     400    94.337448   -929.84738    73406.268   -17125.447    1275.5323   -18400.979    2.3141104    240.94294 
     450     95.43203   -1225.6361    73347.335   -17153.579    1290.3321   -18443.911    2.5807403    243.73856 
     500    94.386923   -302.46136    73372.231   -17126.851    1276.2013   -18403.052    2.8101406     241.0693 
     550    96.303331   -678.97858    73396.894   -17150.831     1302.113   -18452.944    3.1092952    245.96391 
     600    93.984706    -571.7171    73449.327   -17181.583    1270.7629   -18452.345    3.2872367    240.04202 
     650    94.033218   -399.29536    73471.979   -17198.127    1271.4188   -18469.545    3.3963781    240.16592 
     700    95.921236   -1008.9109    73437.386   -17179.465    1296.9467   -18476.412    3.5197635    244.98802 
     750    92.045042   -676.00667    73409.199    -17221.53    1244.5368   -18466.067    3.7480351    235.08801 
     800     92.99934   -865.60357     73403.32    -17179.69    1257.4398    -18437.13     3.952281    237.52534 
     850    95.194167    -830.3912    73413.088   -17198.671     1287.116   -18485.787    4.1177776    243.13105 
     900    94.376258    -843.0248    73422.487   -17208.347    1276.0571   -18484.404    4.1852698    241.04206 
     950    92.156061   -940.46275    73412.595   -17240.616    1246.0379   -18486.654    4.2950094    235.37156 
    1000    90.916358    -1030.053    73390.359   -17236.537    1229.2759   -18465.813    4.3861461    232.20529 
    1050     93.82703   -805.85598    73353.541    -17221.45     1268.631   -18490.081    4.5441522    239.63931 
    1100    93.941762   -583.29156    73363.077   -17231.198    1270.1823   -18501.381    4.8139291    239.93234 
    1150    95.395087   -340.54886    73466.111   -17191.686    1289.8326   -18481.519    5.0291629    243.64421 
    1200    93.549207   -576.03022    73546.099   -17242.982    1264.8746   -18507.856    5.2204792    238.92973 
    1250    93.714552   -774.75932    73595.001   -17208.346    1267.1102   -18475.456    5.2211511    239.35203 
    1300    93.289755   -844.06384     73658.55   -17245.644    1261.3665    -18507.01     5.301589    238.26708 
    1350    99.232269   -649.90054    73752.753   -17174.426     1341.715   -18516.141    5.4169968    253.44458 
    1400    93.862001    -406.1987    73834.922   -17183.404    1269.1038   -18452.508    5.6427047    239.72862 
    1450    96.005876   -556.81911    73839.502   -17164.361    1298.0911   -18462.453    5.8140555     245.2042 
    1500    96.524518   -635.42977    73822.331   -17179.581    1305.1036   -18484.684    5.9518927    246.52884 
    1550    92.430923   -754.24656     73799.02   -17182.182    1249.7543   -18431.937    6.0482514    236.07357 
    1600    94.402212   -958.22652    73808.483   -17175.166     1276.408   -18451.574     6.257057    241.10835 
    1650    92.452423   -1030.1444    73760.826   -17201.425     1250.045    -18451.47    6.4430396    236.12849 
    1700    96.096596   -994.64139     73782.37     -17216.2    1299.3177   -18515.518     6.567363     245.4359 
    1750    95.498593    -798.7998    73848.749   -17210.766    1291.2321   -18501.998    6.8322005    243.90857 
    1800    92.765787   -605.32492    73840.238   -17237.661     1254.282   -18491.943    7.0558294    236.92884 
    1850    96.382162   -1241.9925    73793.461   -17232.047    1303.1788   -18535.226    7.1792396    246.16525 
    1900    93.311445   -680.46362    73854.501   -17256.706    1261.6598   -18518.366    7.2916373    238.32248 
    1950    94.219695   -925.24799    73888.393   -17274.093    1273.9402   -18548.033     7.486142    240.64219 
    2000     91.17125   -712.99786    73896.686   -17304.944    1232.7223   -18537.666     7.640337     232.8563 
    2050    93.403146   -1044.0185    73944.841   -17323.636    1262.8997   -18586.536    7.8445151    238.55668 
    2100    93.078382   -534.28781    73972.167   -17300.824    1258.5086   -18559.332    7.9183381    237.72722 
    2150    92.440929   -909.23865    73991.051   -17268.643    1249.8896   -18518.533    8.0312949    236.09913 
    2200     91.83998   -915.26832    73985.584   -17247.685    1241.7642   -18489.449    8.2371761    234.56427 
    2250    95.869223   -1180.9916    73987.134    -17214.58    1296.2434   -18510.824    8.4060559    244.85518 
    2300    94.769403   -742.78661    74009.661   -17227.648    1281.3728   -18509.021     8.542686    242.04618 
    2350    93.654116   -849.74901    73976.493   -17208.041     1266.293   -18474.334    8.5558136    239.19768 
    2400    94.492216   -1074.9217     73980.34   -17238.938    1277.6249   -18516.563    8.5836513    241.33823 
    2450    93.913472    -745.1448    73978.872   -17256.284    1269.7998   -18526.084    8.6328586    239.86008 
    2500    93.638416   -895.91779    73996.035   -17197.074    1266.0807   -18463.155    8.7205643    239.15758 
    2550     93.10218   -809.02692    73994.394   -17194.924    1258.8303   -18453.754    8.7972909      237.788 
    2600    95.035908   -794.16095    74051.478   -17199.126    1284.9762   -18484.102     8.927533    242.72684 
    2650    94.234304   -836.72905    74117.991   -17239.411    1274.1377   -18513.549    9.0445596    240.67951 
    2700    92.371718   -695.89815    74162.692   -17248.296    1248.9538    -18497.25    9.1000555    235.92236 
    2750    93.604561   -973.22467    74210.049   -17254.434     1265.623   -18520.057    9.2508035    239.07111 
    2800    98.493641   -948.93318    74235.176   -17233.421     1331.728    -18565.15    9.3713783    251.55808 
    2850    91.051835   -1049.2944    74196.889   -17262.949    1231.1077   -18494.057    9.5470947    232.55131 
    2900     94.61752   -1019.5906    74226.637   -17278.321    1279.3192    -18557.64    9.7825335    241.65826 
    2950    91.202841   -1323.5818    74199.541   -17324.479    1233.1495   -18557.629    9.9154101    232.93699 
    3000    89.404928   -1097.3111    74173.831   -17309.188      1208.84   -18518.028    9.9633735    228.34502 
    3050    91.576405   -1139.7977    74135.867   -17269.237    1238.2004   -18507.438    10.104012    233.89109 
    3100    91.945332   -1208.8482    74130.254   -17282.577    1243.1886   -18525.766    10.313106    234.83335 
    3150    94.337269   -1205.5436    74155.184    -17243.11    1275.5299    -18518.64    10.522213    240.94248 
    3200    93.457367   -1199.9063    74163.164    -17222.75    1263.6328   -18486.383    10.609461    238.69517 
    3250    96.229249   -995.40944    74158.276   -17211.729    1301.1113   -18512.841      10.7973     245.7747 
    3300    93.858677   -1177.7636    74141.893   -17247.188    1269.0589   -18516.247    10.847619    239.72013 
    3350    94.197358   -826.55937    74185.542   -17228.176    1273.6382   -18501.814    11.019905    240.58515 
    3400    94.700161   -1048.8503    74240.077   -17200.847    1280.4366   -18481.283    11.363417    241.86933 
    3450    95.865806   -898.97775    74306.321   -17239.442    1296.1972   -18535.639    11.570687    244.84645 
    3500    95.606638   -1224.9213    74344.818   -17256.975     1292.693   -18549.668     11.69495    244.18452 
    3550     94.23405   -1394.8874    74311.079   -17239.315    1274.1343   -18513.449    11.733338    240.67886 
    3600    94.883396   -761.98359    74273.078   -17229.856    1282.9141    -18512.77     11.83066    242.33732 
    3650    92.727874   -1006.1264    74290.854   -17238.613    1253.7694   -18492.382    11.808664      236.832 
    3700    99.345599   -1086.4229    74238.362   -17213.934    1343.2473   -18557.182    11.879317    253.73403 
    3750    93.607098    -1017.823    74268.813   -17229.005    1265.6573   -18494.663    11.943494    239.07759 
    3800    93.583877   -1296.4557     74283.62   -17231.758    1265.3433   -18497.101    12.029872    239.01828 
    3850    92.974178   -853.37596     74279.98    -17243.31    1257.0996    -18500.41    12.228215    237.46108 
    3900    94.763373   -1172.5042    74244.508   -17254.752    1281.2912   -18536.043    12.308298    242.03078 
    3950    91.803663   -1087.8815    74163.714   -17247.424    1241.2731   -18488.697    12.506035    234.47152 
    4000    95.963161   -1031.0183    74118.912   -17199.504    1297.5135   -18497.018     12.72356     245.0951 
    4050    94.237937   -936.28419    74082.206   -17198.573    1274.1868    -18472.76    12.961149    240.68878 
    4100    96.913202   -978.45933    74065.794   -17178.669     1310.359   -18489.028    13.194136    247.52156 
    4150    96.497438   -979.77825     73996.66   -17163.564    1304.7375   -18468.302    13.403919    246.45967 
    4200    96.732905    -1083.303    74024.851   -17157.257    1307.9212   -18465.178    13.613152    247.06107 
    4250    95.664079    -948.7972    73988.812   -17157.341    1293.4696    -18450.81    13.915224    244.33123 
    4300    95.780659   -1302.9007    74011.188   -17135.232    1295.0459   -18430.278    14.081359    244.62898 
    4350    99.510222   -732.49826    73969.555   -17122.567    1345.4732    -18468.04    14.088335    254.15449 
    4400    94.665008   -943.48807    74010.814    -17151.89    1279.9613   -18431.852     14.40888    241.77955 
    4450    93.135412   -957.03879    74030.149    -17148.56    1259.2797    -18407.84    14.681042    237.87288 
    4500    95.102947    -742.3305    74039.912   -17156.196    1285.8826   -18442.078    14.684553    242.89807 
    4550    94.996891   -1177.0727    74052.393   -17159.897    1284.4486   -18444.346     14.67752    242.62719 
    4600    96.426594   -979.71332    74073.022   -17169.268    1303.7796   -18473.048    14.679214    246.27873 
    4650    92.925279   -940.71278     74037.96   -17188.129    1256.4385   -18444.567     14.90383    237.33619 
    4700    93.890044   -817.43958    74018.883   -17183.475     1269.483   -18452.958    15.132325    239.80025 
    4750    96.292517   -1110.5656    73987.492   -17188.212    1301.9667   -18490.179    15.321367    245.93629 
    4800    96.944191   -911.62075    73990.105   -17189.593     1310.778   -18500.371    15.616316     247.6007 
    4850    98.188374   -1189.1259     73939.06   -17210.656    1327.6005   -18538.257    15.846969    250.77842 
    4900    93.039702    -864.4691    73871.224   -17272.498    1257.9856   -18530.484    16.165288    237.62843 
    4950    93.369301   -970.46125    73835.767   -17259.193    1262.4421   -18521.635     16.14021    238.47024 
    5000    92.439465    -827.8372     73810.48    -17280.78    1249.8698    -18530.65    16.268469    236.09539 
    5050    94.625561   -701.59909     73813.81   -17289.657    1279.4279   -18569.085    16.424223     241.6788 
    5100    98.870905   -908.44522    73807.635   -17242.541     1336.829    -18579.37    16.587219    252.52164 
    5150    95.535711   -728.34565    73866.763   -17200.048     1291.734   -18491.782    16.795467    244.00337 
    5200    93.784305   -889.44696    73909.481   -17243.052    1268.0533   -18511.105     17.23072    239.53019 
    5250    92.684911   -807.45178    73936.715   -17260.855    1253.1885   -18514.044    17.415236    236.72227 
    5300    92.573993   -1008.9572    73937.849   -17276.488    1251.6887   -18528.177    17.345136    236.43898 
    5350    93.608172   -781.79254    73950.378   -17241.835    1265.6718   -18507.507    17.349554    239.08033 
    5400    92.743583    -752.5476    73919.854   -17247.716    1253.9818   -18501.697    17.560587    236.87212 
    5450    94.515713   -696.54995    73917.823   -17216.314    1277.9426   -18494.257    17.704041    241.39824 
    5500     95.70809   -948.72161    73899.634   -17195.558    1294.0647   -18489.622    18.012469    244.44364 
    5550    95.206009   -659.49309    73878.757   -17187.902    1287.2761   -18475.179    18.342842    243.16129 
    5600    94.339918     -1351.44     73831.58   -17243.442    1275.5657   -18519.007    18.370947    240.94925 
    5650    92.472072     -1066.74    73828.487   -17222.953    1250.3107   -18473.264    18.488682    236.17867 
    5700     95.00667   -997.01409    73840.855   -17232.595    1284.5808   -18517.176    18.558335    242.65217 
    5750    93.085369    -755.0773    73837.164   -17261.451     1258.603   -18520.054    18.718903    237.74506 
    5800    93.334773   -984.76795    73932.549   -17268.714    1261.9752   -18530.689    18.985908    238.38205 
    5850    93.807689   -1163.2921    73907.814   -17295.937    1268.3695   -18564.306    19.303586    239.58991 
    5900    94.039945   -904.98878    73918.122   -17294.407    1271.5098   -18565.917    19.456981     240.1831 
    5950    93.075307    -996.5254    73948.145   -17278.104     1258.467   -18536.571    19.630009    237.71937 
    6000    92.438935   -1007.8323    73957.955   -17272.936    1249.8626   -18522.799    19.810975    236.09404 
    6050    91.409735   -840.22301    73920.401   -17276.724    1235.9469   -18512.671    20.117723    233.46541 
    6100     94.70926   -975.48517    73956.156   -17264.855    1280.5596   -18545.415    20.308466    241.89257 
    6150    94.616959   -1019.5587    73972.997   -17274.006    1279.3116   -18553.318    20.667866    241.65683 
    6200    93.592211   -781.24878    73973.645   -17304.981     1265.456   -18570.437    20.798133    239.03957 
    6250    92.992366   -697.97566     73963.45    -17317.17    1257.3455   -18574.515    20.944518    237.50753 
    6300    94.172631   -1057.5824    73972.855   -17299.991    1273.3038   -18573.295    20.905591    240.52199 
    6350    89.358006   -896.47119    73935.853   -17352.851    1208.2055   -18561.056    21.045753    228.22518 
    6400    93.450613   -915.60401    73899.771   -17331.768    1263.5415    -18595.31    21.281548    238.67792 
    6450    93.123442   -831.27309    73871.807   -17303.968    1259.1178   -18563.086    21.393187     237.8423 
    6500    95.218921   -999.05491    73873.935   -17290.407    1287.4507   -18577.858    21.497004    243.19427 
    6550    90.578068    -910.3459     73867.28   -17321.165    1224.7019   -18545.867    21.701124    231.34128 
    6600     93.50472   -893.79276    73931.938   -17270.069    1264.2731   -18534.342    21.843238    238.81611 
    6650     91.99028    -803.6908    73911.263   -17289.801    1243.7964   -18533.597     21.98777    234.94815 
    6700    91.903946   -602.42906    73937.607   -17264.383    1242.6291   -18507.012    22.287206    234.72765 
    6750     90.52901   -857.95239    73949.358   -17258.894    1224.0386   -18482.933    22.218459    231.21599 
    6800    93.612589   -991.77525    73941.016   -17233.612    1265.7315   -18499.343    22.434244    239.09161 
    6850    94.432653   -803.52002    73946.119   -17183.958    1276.8196   -18460.777    22.628814     241.1861 
    6900    93.263523    -807.4304    73968.842   -17204.875    1261.0118   -18465.887    22.881411    238.20008 
    6950    96.854254    -716.1578    73942.507     -17180.6    1309.5619   -18490.162    23.161486      247.371 
    7000    96.504498   -969.04877    73927.652   -17197.652    1304.8329   -18502.485     23.24778     246.4777 
    7050    97.013342   -434.40541    73965.507    -17207.19     1311.713   -18518.903    23.240596    247.77732 
    7100    94.005782   -918.58181    74028.084   -17215.744    1271.0479   -18486.792    23.451532    240.09585 
    7150    96.344851   -915.93688    74011.788   -17220.118    1302.6743   -18522.792    23.561181    246.06996 
    7200    91.902981   -553.51895    73969.743   -17211.737     1242.616   -18454.353    23.628387    234.72518 
    7250    96.088684   -650.84163    74019.187   -17226.134    1299.2107   -18525.345    23.845221    245.41569 
    7300     94.91707   -475.45119    74064.629   -17232.928    1283.3694   -18516.297    23.994639    242.42333 
    7350    94.798809   -535.09433    74053.515   -17248.863    1281.7704   -18530.633    23.766265    242.12128 
    7400    93.090756   -843.79008    74109.023   -17214.127    1258.6759   -18472.803      24.0205    237.75882 
    7450    93.339831   -791.13883    74111.508   -17222.681    1262.0436   -18484.725    24.214829    238.39497 
    7500     92.93791    -498.9611    74174.151   -17223.505    1256.6092   -18480.114    24.458189    237.36844 
    7550    94.970932   -985.36708    74188.154   -17188.979    1284.0976   -18473.077     24.47688    242.56089 
    7600    93.109491   -1066.1511    74178.177   -17182.187    1258.9292   -18441.116     24.69787    237.80667 
    7650     93.25255   -1235.6416    74122.099   -17162.535    1260.8635   -18423.399    24.903326    238.17205 
    7700    98.131452   -986.66164    74139.273   -17178.222    1326.8309   -18505.053    24.933882    250.63303 
    7750    94.411368   -1084.8585    74114.745    -17179.24    1276.5318   -18455.771    25.118545    241.13174 
    7800    92.504333   -961.65847    74056.167   -17158.407    1250.7469   -18409.154    25.399954    236.26107 
    7850    95.148445    -859.1342    74017.639    -17182.14    1286.4978   -18468.637    25.639265    243.01427 
    7900    94.978932   -972.82015    73994.559   -17177.535    1284.2058   -18461.741    25.748663    242.58133 
    7950    92.511222   -901.66631    73927.347   -17156.702      1250.84   -18407.542    25.858202    236.27866 
    8000    94.713103   -680.69062    73953.359   -17197.672    1280.6115   -18478.283    25.896406    241.90238 
    8050    95.141586   -992.73601    73900.672   -17212.521     1286.405   -18498.926    25.899041    242.99675 
    8100    91.785827   -913.43863    73917.254   -17209.653     1241.032   -18450.685    26.146894    234.42596 
    8150    92.073093   -936.49118    73942.095   -17241.031    1244.9161   -18485.947    26.338757    235.15966 
    8200    91.577332   -975.16394    73961.636   -17246.463    1238.2129   -18484.676    26.455994    233.89346 
    8250    89.798385   -1137.0044    73949.112   -17274.966    1214.1599   -18489.126    26.823874    229.34993 
    8300     93.48384   -906.61997     73918.09   -17278.308    1263.9907   -18542.299    26.941931    238.76278 
    8350    90.612588   -1013.8646    73879.329    -17298.69    1225.1687   -18523.858    27.223622    231.42945 
    8400    94.067223   -1172.2605     73844.48   -17255.352    1271.8786   -18527.231    27.241678    240.25277 
    8450    91.072484    -1085.517    73801.621    -17236.02    1231.3869   -18467.407    27.622014    232.60405 
    8500     94.33586   -866.01237     73734.23   -17226.303    1275.5109   -18501.814     27.58387    240.93889 
    8550    95.395939   -1085.6631     73770.47   -17204.779    1289.8441   -18494.623    27.528326    243.64638 
    8600    95.169332   -1170.0295    73756.932   -17249.987    1286.7802   -18536.767    27.640602    243.06762 
    8650    94.967218   -703.66442    73766.147    -17282.45    1284.0474   -18566.498    27.977263    242.55141 
    8700    95.903675   -840.80848    73799.666   -17249.298    1296.7092   -18546.008    28.050969    244.94317 
    8750    93.615986   -877.49446     73926.21   -17264.949    1265.7775   -18530.727    28.068874    239.10029 
    8800    92.955424   -874.72415    73965.784   -17267.016     1256.846   -18523.862    28.285948    237.41318 
    8850     92.00089   -837.63409    73991.099   -17256.558    1243.9398   -18500.498     28.54147    234.97525 
    8900    93.883526    -656.3008    73997.029   -17251.557    1269.3949   -18520.952    28.546635     239.7836 
    8950    95.271885    -970.1708    74008.505   -17218.648    1288.1668   -18506.814    28.739061    243.32954 
    9000    94.221695   -1067.6677    73961.291   -17211.929    1273.9672   -18485.896    28.956956     240.6473 
    9050    94.204406   -1054.4152    73835.565   -17244.151    1273.7335   -18517.885    29.073816    240.60315 
    9100    93.747959   -893.76951     73814.15   -17227.545    1267.5619   -18495.107    29.173752    239.43735 
    9150    92.076939   -945.37604    73754.391   -17232.128    1244.9681   -18477.096    29.292373    235.16948 
    9200    93.619858    -768.2816    73789.674   -17229.329    1265.8298   -18495.159    29.308232    239.11018 
    9250    94.119354   -869.15156    73880.199   -17266.787    1272.5835    -18539.37    29.356079    240.38592 
    9300    92.668449   -954.74819    73899.369   -17268.521    1252.9659   -18521.487    29.400465    236.68023 
    9350    92.794283    -770.3244    73892.283   -17254.577    1254.6673   -18509.244    29.421221    237.00161 
    9400    92.575254   -927.74321    73913.233   -17239.111    1251.7058   -18490.817    29.479985     236.4422 
    9450    95.300649   -745.05991    73996.007   -17234.373    1288.5557   -18522.929    29.778927    243.40301 
    9500    94.681398   -692.36192    74043.977   -17233.562    1280.1829   -18513.745    30.200188    241.82141 
    9550    93.766255   -1122.2033     74095.29   -17230.778    1267.8093   -18498.588    30.441016    239.48408 
    9600    96.630459   -951.18858    74103.823   -17175.626     1306.536   -18482.162    30.631903    246.79942 
    9650     96.27016   -883.88403     74120.11   -17173.137    1301.6644   -18474.802     30.76977    245.87919 
    9700    96.115877   -1055.5143    74134.983   -17166.907    1299.5784   -18466.485    30.763337    245.48514 
    9750    94.893521   -676.04265    74111.337   -17175.237     1283.051   -18458.288    30.787222    242.36318 
    9800    94.971527   -952.10631    74089.641   -17220.308    1284.1057   -18504.414    30.922384    242.56241 
    9850    96.042014   -739.32723    74137.079   -17214.149    1298.5797   -18512.729    31.138644    245.29649 
    9900    95.378685   -1412.7111    74189.582   -17213.575    1289.6108   -18503.186    31.458494    243.60232 
    9950    94.540054   -1334.2256     74103.87   -17225.429    1278.2718   -18503.701    31.529331    241.46041 
   10000    91.965361   -874.15221    74057.762   -17258.629    1243.4595   -18502.088    31.848284     234.8845 
   10050     92.98515   -960.32084    74059.089   -17265.946     1257.248   -18523.194    32.243873     237.4891 
   10100    93.497106   -1115.8401    73997.676   -17279.482    1264.1701   -18543.652    32.435666    238.79666 
   10150    92.660767   -489.89354    74053.738   -17271.708     1252.862    -18524.57    32.563747    236.66061 
   10200    92.451486   -1087.7024    74089.556   -17241.937    1250.0323    -18491.97    32.748008    236.12609 
   10250    95.113156   -1174.5911     74062.78   -17252.343    1286.0206   -18538.364    32.802226    242.92414 
   10300    95.229835   -882.06824    74109.967   -17226.553    1287.5982   -18514.152      32.9582    243.22215 
   10350    95.055922   -720.89643    74142.724   -17185.522    1285.2468   -18470.768    33.107601    242.77796 
   10400    94.133301   -1036.9901    74185.883   -17224.317    1272.7721   -18497.089    33.428834    240.42154 
   10450    92.515962    -924.7152    74191.197   -17236.296    1250.9041     -18487.2    33.621736    236.29077 
   10500    95.895484   -1058.9895    74139.837   -17221.088    1296.5985   -18517.686    34.009936    244.92225 
   10550    93.896152   -817.20719    74133.547   -17209.148    1269.5656   -18478.714    34.168456    239.81585 
   10600     95.41058   -1174.3376     74140.76   -17191.774    1290.0421   -18481.816    34.312779    243.68378 
   10650    95.243526   -858.84915    74134.775    -17166.85    1287.7834   -18454.634    34.318284    243.25711 
   10700    93.332986   -575.66635    74138.598   -17182.875    1261.9511   -18444.826    34.634489    238.37749 
   10750     94.71016    -444.1687    74205.252   -17156.597    1280.5718   -18437.169    34.743755    241.89487 
   10800    93.750868     -1087.25    74201.054    -17196.59    1267.6012   -18464.191     34.96999    239.44478 
   10850    92.957041   -1197.6484    74123.037   -17191.153    1256.8679   -18448.021    35.178873    237.41731 
   10900    94.422005   -842.09022    74084.933   -17198.585    1276.6756   -18475.261    35.624292     241.1589 
   10950    94.804219   -956.09568    74071.463   -17229.333    1281.8435   -18511.176    35.841116     242.1351 
   11000    91.216381   -855.09393    74031.606   -17215.188    1233.3325   -18448.521    36.086369    232.97157 
   11050    94.208531   -1234.2725    74009.693   -17223.841    1273.7893    -18497.63    36.276226    240.61368 
   11100    93.350286   -690.75771    74005.615   -17230.803     1262.185   -18492.988    36.717712    238.42168 
   11150    91.412623   -1050.0391    74064.595   -17256.311    1235.9859   -18492.297    37.178938    233.47278 
   11200    91.911092   -1279.5034    74020.038   -17269.646    1242.7257   -18512.372     37.57248     234.7459 
   11250    92.269596   -1150.9475    74024.863    -17259.82     1247.573   -18507.393    37.597463    235.66154 
   11300    93.665198   -1133.3387    73941.643   -17233.736    1266.4429   -18500.179    37.927824    239.22598 
   11350    93.223361   -740.75799    73920.284   -17216.059    1260.4688   -18476.528    37.709493     238.0975 
   11400    93.651372   -1015.7759    73901.214   -17214.456    1266.2559   -18480.712    37.778435    239.19067 
   11450    94.336166   -1224.5604    73909.323   -17231.402     1275.515   -18506.917    38.038964    240.93967 
   11500    96.719332    -786.5909    73888.423   -17208.874    1307.7377   -18516.612    38.259088     247.0264 
   11550    96.782982   -1173.7846    73880.633   -17199.091    1308.5983    -18507.69    38.513315    247.18897 
   11600    95.282006   -697.17999    73949.881   -17199.086    1288.3037    -18487.39    38.768489    243.35539 
   11650    98.291345   -892.83149    73990.819   -17138.105    1328.9928   -18467.097    38.855994    251.04141 
   11700    94.018024   -847.84699    74040.764   -17198.737    1271.2134   -18469.951    39.203377    240.12711 
   11750    95.445283   -677.47608    73993.295   -17164.978    1290.5113   -18455.489    39.260398    243.77241 
   11800    98.304546   -789.14758    74025.648   -17169.589    1329.1713    -18498.76    39.539657    251.07512 
   11850    95.857216   -893.01994    74033.254   -17158.464     1296.081   -18454.545    40.007438    244.82451 
   11900     95.45915   -956.40597    74046.365   -17215.408    1290.6988   -18506.107     40.07186    243.80783 
   11950    92.023854   -1052.0026    74040.095   -17226.813    1244.2503   -18471.064    40.097389     235.0339 
   12000    94.273056   -1052.6222    74065.564   -17251.272    1274.6617   -18525.933    40.161092    240.77848 
   12050    93.562323   -930.41517    74048.449   -17248.786    1265.0519   -18513.838    40.297434    238.96323 
   12100    94.211573   -1326.6019    73994.674   -17269.705    1273.8304   -18543.535    40.406249    240.62145 
   12150    92.859646   -1077.2466    74006.543   -17265.897     1255.551   -18521.448    40.833071    237.16855 
   12200     94.37556   -1124.3807    74028.221   -17285.226    1276.0476   -18561.273    40.846655    241.04028 
   12250    92.447792   -1219.0012    74044.388    -17267.02    1249.9824   -18517.002    41.131768    236.11666 
   12300    93.948427   -1132.2849    74056.659   -17277.385    1270.2724   -18547.658     41.51784    239.94936 
   12350    92.509065   -888.68001    74080.199   -17268.042    1250.8108   -18518.853    41.578392    236.27315 
   12400    93.167361   -1516.2006    74074.193   -17267.796    1259.7116   -18527.508    41.798165    237.95448 
   12450    93.303617   -894.78719    74080.693   -17253.976    1261.5539    -18515.53    41.929988    238.30248 
   12500    95.540662   -965.67596    74053.754   -17263.622    1291.8009   -18555.423    41.864091    244.01602 
   12550    93.211411   -1503.1339    74069.858   -17255.335    1260.3072   -18515.642    42.229906    238.06698 
   12600    94.683102   -938.60694    74047.028   -17234.223    1280.2059   -18514.429    42.243645    241.82576 
   12650    93.586019   -804.76991    74090.588   -17243.517    1265.3723   -18508.889    42.028995    239.02375 
   12700    94.773328   -1333.1634    74063.838   -17226.814    1281.4258    -18508.24    41.939869     242.0562 
   12750    93.203017   -831.68526    74051.464   -17219.592    1260.1937   -18479.786    41.772261    238.04554 
   12800    95.419813    -1033.584    74037.122   -17222.357    1290.1669   -18512.524    41.827864    243.70736 
   12850    96.218631   -704.74115    74061.311   -17246.512    1300.9677   -18547.479    41.701407    245.74758 
   12900    92.209305   -733.92869    74093.237   -17265.855    1246.7578   -18512.613    42.050823    235.50755 
   12950    96.056135   -1044.1592    74078.091   -17259.094    1298.7706   -18557.865     42.39932    245.33256 
   13000    97.026556   -887.54935    74013.481   -17260.626    1311.8916   -18572.518    42.473121    247.81107 
   13050    96.357226   -1041.9529    74068.552   -17219.741    1302.8417   -18522.583    42.614724    246.10156 
   13100    93.828456   -981.54221    74098.674   -17205.233    1268.6503   -18473.883    43.094833    239.64295 
   13150    95.342644   -996.25071    74083.936   -17186.527    1289.1235   -18475.651    43.017776    243.51027 
   13200    99.288102   -716.62474    74094.676   -17165.935    1342.4699   -18508.405     43.29834    253.58718 
   13250    94.683191   -774.00879    74086.806   -17193.416    1280.2071   -18473.623    43.378199    241.82599 
   13300    95.599997   -972.08435    74102.437   -17203.383    1292.6032   -18495.987    43.840193    244.16756 
   13350    99.797238   -1080.7675    74124.825   -17165.029    1349.3539   -18514.383    43.966832    254.88754 
   13400    99.647672   -994.38711     74161.61   -17154.938    1347.3316    -18502.27    44.074838    254.50554 
   13450    94.611809   -1022.8882    74168.832   -17182.383     1279.242   -18461.625    44.124003    241.64368 
   13500    95.791935   -755.77517     74139.29   -17197.137    1295.1984   -18492.336    44.056663    244.65778 
   13550    96.453069    -681.6865    74180.418   -17177.992    1304.1375    -18482.13    44.127453    246.34635 
   13600    97.141959   -693.67784    74238.103   -17173.285     1313.452   -18486.737    44.434161    248.10581 
   13650    92.584738   -1094.1452      74236.8   -17229.544     1251.834   -18481.378    44.713898    236.46643 
   13700    95.630337   -769.85513    74212.229   -17227.869    1293.0134   -18520.883    44.853371    244.24505 
   13750    95.784263   -900.47438    74185.412   -17216.429    1295.0947   -18511.524    45.118556    244.63819 
   13800    94.165641   -777.63009     74143.34   -17203.011    1273.2093    -18476.22    45.595186    240.50414 
   13850    96.326117   -1023.8478    74123.942   -17195.984     1302.421   -18498.405     45.84134    246.02211 
   13900    95.729593   -621.17345    74136.941   -17227.743    1294.3555   -18522.099     46.07921    244.49856 
   13950    94.266422   -608.11704    74117.163   -17230.152     1274.572   -18504.724    46.263819    240.76154 
   14000    92.132808   -877.85094    74080.658   -17226.171    1245.7235   -18471.895     46.20779    235.31217 
   14050    95.300093   -1054.0395    73980.036   -17209.153    1288.5482   -18497.701    46.488789    243.40159 
   14100    95.972616   -770.55734    73972.134   -17206.154    1297.6414   -18503.795     46.68211    245.11925 
   14150    94.294485   -615.40459    74030.804    -17248.56    1274.9514   -18523.511    46.879361    240.83321 
   14200    95.254186   -745.60675    74072.046   -17267.144    1287.9275   -18555.072    47.135743    243.28434 
   14250    95.810433   -722.47068    74134.631   -17255.137    1295.4485   -18550.586    47.311613    244.70503 
   14300    94.158465   -749.84833    74146.381    -17279.81    1273.1123   -18552.923    47.420806    240.48581 
   14350    94.956292   -929.92592    74174.035   -17258.556    1283.8997   -18542.455    47.714087     242.5235 
   14400    94.374371    -810.3533    74202.465   -17230.564    1276.0316   -18506.595    47.694417    241.03724 
   14450    96.306702   -1086.6092      74157.5    -17224.16    1302.1585   -18526.318    47.985684    245.97252 
   14500     95.03892   -775.98228    74174.139   -17228.422    1285.0169   -18513.439    47.933406    242.73454 
   14550    93.847276   -1058.0648    74221.826   -17205.647    1268.9047   -18474.552    48.177611    239.69102 
   14600    92.124636    -949.9624    74207.123   -17248.248     1245.613   -18493.861    48.327401     235.2913 
   14650    92.857604   -734.89363    74249.358   -17235.993    1255.5234   -18491.516    48.404817    237.16334 
   14700    93.133436   -564.44895    74278.782    -17225.42    1259.2529   -18484.672    48.783631    237.86783 
   14750    94.284677   -1189.7335     74321.25   -17197.139    1274.8188   -18471.958    49.109581    240.80816 
   14800    94.637476   -995.89498    74248.712   -17208.943     1279.589   -18488.532    49.300948    241.70923 
   14850    92.829597   -947.21098    74221.283   -17196.374    1255.1447   -18451.519    49.774018    237.09181 
   14900    93.037451   -957.80974    74187.106   -17179.732    1257.9551   -18437.687    50.271318    237.62268 
   14950    94.537297   -1195.2132    74204.899   -17192.706    1278.2345    -18470.94    50.342653    241.45337 
   15000    94.128402   -894.50162    74179.562   -17187.207    1272.7058   -18459.913    50.429242    240.40903 
   15050     92.72737    -892.9233    74228.224   -17223.345    1253.7625   -18477.107    50.432454    236.83071 
   15100    91.668056   -1026.4892    74223.162   -17228.029    1239.4396   -18467.469    50.856525    234.12517 
   15150    96.970289   -1097.3675    74254.174   -17183.761    1311.1308   -18494.892    51.151991    247.66736 
   15200    93.951401   -958.27515    74240.588   -17185.526    1270.3126   -18455.838    51.471196    239.95696 
   15250    93.199556   -789.24371    74292.626   -17200.323    1260.1469    -18460.47    52.025757     238.0367 
   15300    96.569733    -823.1044     74276.66   -17173.331     1305.715   -18479.046    52.188478    246.64432 
   15350    92.938939   -651.84785    74314.989   -17198.857    1256.6232    -18455.48    52.619435    237.37107 
   15400    96.486453   -587.12171    74386.698   -17190.049    1304.5889   -18494.638    53.007925    246.43162 
   15450     91.96703   -595.65134    74462.551   -17220.881     1243.482   -18464.363    53.420194    234.88877 
   15500    90.133538   -911.69528    74443.229   -17197.071    1218.6915   -18415.763    53.737209    230.20593 
   15550    93.583835   -1169.8917    74431.036    -17171.12    1265.3428   -18436.462      54.1632    239.01817 
   15600    91.614531   -1171.6865    74398.327   -17170.456    1238.7159   -18409.172    54.304717    233.98846 
   15650    93.468312   -1142.4696     74368.09   -17163.338    1263.7808   -18427.119    54.523011    238.72312 
   15700    95.017834   -1146.4173    74320.708   -17168.413    1284.7318   -18453.145    54.740644    242.68068 
   15750    94.111717   -871.92683    74277.407    -17178.89    1272.4802    -18451.37    55.163223    240.36641 
   15800    94.904969   -873.12152    74289.639   -17223.678    1283.2058   -18506.884    55.809365    242.39242 
   15850     91.56486   -580.58471    74300.223   -17248.856    1238.0443   -18486.901    55.839791     233.8616 
   15900    94.121444   -723.04389    74356.479   -17245.845    1272.6118   -18518.456    56.237067    240.39126 
   15950    94.400901   -1015.9483    74426.579   -17182.228    1276.3903   -18458.618    56.943688      241.105 
   16000    94.530574   -707.52725    74489.218   -17161.001    1278.1436   -18439.145     57.40856    241.43619 
   16050    98.295604   -1085.8682    74491.658   -17151.694    1329.0504   -18480.744    57.037379    251.05228 
   16100    100.00121   -902.74998    74506.681   -17131.461    1352.1119   -18483.573    57.132985    255.40851 
   16150    98.058601   -876.80991    74522.415   -17119.337    1325.8459   -18445.183    57.166801    250.44697 
   16200    96.160126   -551.04884    74616.698   -17137.365    1300.1767   -18437.542    57.047229    245.59816 
   16250     94.87714   -1019.3396    74589.193       -17177    1282.8295   -18459.829    57.067756    242.32134 
   16300    94.516047   -1012.1029    74547.297   -17178.301    1277.9472   -18456.248    56.853267    241.39909 
   16350    96.002148   -947.07246     74493.37   -17197.874    1298.0407   -18495.915    57.046072    245.19467 
   16400    94.681483   -910.61866    74435.791   -17216.511     1280.184   -18496.695    57.330805    241.82162 
   16450    94.558402   -1202.7194    74411.401   -17229.523    1278.5198   -18508.043    57.695942    241.50727 
   16500    93.301723   -1155.2866    74385.676    -17241.44    1261.5283   -18502.968    58.310718    238.29764 
   16550    95.081363   -930.43062    74327.235   -17214.029    1285.5908    -18499.62    58.795969    242.84294 
   16600    91.677337   -884.82972    74315.815   -17224.185    1239.5651    -18463.75    58.855786    234.14888 
   16650    92.432072   -950.01284    74270.391   -17259.209    1249.7698   -18508.979    58.829191    236.07651 
   16700    90.357138   -1281.6601    74191.304   -17236.587    1221.7147   -18458.301    58.495114    230.77701 
   16750     92.15692   -896.11898    74113.379    -17216.04    1246.0495   -18462.089    58.208321    235.37376 
   16800    93.716931    -1042.848    74096.253   -17238.126    1267.1424   -18505.268    58.179658    239.35811 
   16850    95.850797   -1114.2971    74036.714   -17236.582    1295.9943   -18532.577    58.205553    244.80812 
   16900    93.109872   -1073.9114    74032.201    -17228.12    1258.9343   -18487.055    58.077359    237.80765 
   16950       93.454   -1053.9806    74007.643   -17241.054    1263.5873   -18504.642    58.266038    238.68657 
   17000    90.814378   -1328.8211    73947.122    -17236.44    1227.8971   -18464.337    58.755168    231.94483 
   17050     91.22968   -1078.5278    73906.924   -17277.186    1233.5123   -18510.699    58.971164    233.00553 
   17100    89.948904   -1053.2853    73901.481   -17288.545     1216.195    -18504.74    58.797397    229.73436 
   17150    91.645462   -881.87681    73902.334   -17291.832    1239.1341   -18530.966    59.119667    234.06746 
   17200    92.492716    -959.6864    73893.941   -17285.505    1250.5898   -18536.095    59.373097     236.2314 
   17250    90.986746   -1102.1582    73885.579   -17264.813    1230.2276    -18495.04    59.587623    232.38507 
   17300    92.154191   -815.81652     73847.53     -17276.7    1246.0126   -18522.713    59.909977    235.36678 
   17350    92.569548    -905.4451    73896.232   -17246.674    1251.6286   -18498.302    60.075253    236.42763 
   17400    92.742485   -837.44454    73894.622    -17274.78    1253.9669   -18528.747    59.949892    236.86932 
   17450    92.369469   -974.61595    73893.143   -17255.181    1248.9234   -18504.105    59.946439    235.91662 
   17500    92.352844   -779.06384    73912.188   -17253.906    1248.6986   -18502.605    60.098444    235.87416 
   17550    92.971359   -1103.3067    73873.322   -17230.629    1257.0615    -18487.69     60.12243    237.45388 
   17600    93.709599   -959.05416    73851.187   -17241.017    1267.0432    -18508.06    60.126794    239.33938 
   17650      94.0208   -985.31366      73814.5   -17243.676    1271.2509   -18514.927    60.288092    240.13421 
   17700      92.3793   -971.05638    73771.674   -17255.652    1249.0563   -18504.709    60.474614    235.94172 
   17750    94.734879   -687.22263    73770.946   -17244.144     1280.906    -18525.05    60.715984      241.958 
   17800    92.740891   -789.91744    73802.696     -17210.9    1253.9454   -18464.845    61.139425    236.86525 
   17850     94.53129    -1015.778    73782.951   -17198.226    1278.1533   -18476.379     61.29734    241.43803 
   17900    96.223637   -1069.0563    73767.142   -17197.575    1301.0354    -18498.61    61.374779    245.76037 
   17950    94.342689   -576.87747     73848.78   -17207.396    1275.6032   -18482.999    61.330696    240.95633 
   18000    94.965272   -1092.8151    73876.246   -17222.776    1284.0211   -18506.797     61.32582    242.54644 
   18050    94.227318   -1116.7886    73837.546   -17240.682    1274.0433   -18514.725    61.533009    240.66166 
   18100    93.807495    -1078.137    73813.603   -17221.257    1268.3669   -18489.624    61.948144    239.58941 
   18150    91.780561   -980.53705    73786.242   -17241.991    1240.9608   -18482.952    62.478513    234.41251 
   18200    93.606838   -1225.2341    73739.431    -17236.64    1265.6538   -18502.294     62.66336    239.07692 
   18250    93.513624   -1115.5566    73755.993   -17203.076    1264.3934    -18467.47    62.735188    238.83885 
   18300    94.438554   -983.30057     73769.21    -17230.89    1276.8994    -18507.79     63.01374    241.20117 
   18350    93.145041   -979.53003    73790.303   -17235.241    1259.4098   -18494.651    63.079991    237.89747 
   18400    93.540667   -692.17773    73819.473   -17193.408    1264.7591   -18458.167    63.250083    238.90792 
   18450    96.373248   -481.06075    73817.645   -17174.533    1303.0583   -18477.591     63.37224    246.14248 
   18500     92.46067   -1003.2815    73836.669   -17196.312    1250.1565   -18446.468     63.58285    236.14955 
   18550    91.029827   -492.00637      73846.1   -17218.233    1230.8101   -18449.043    63.895745     232.4951 
   18600    93.604002   -1003.3526    73896.871   -17238.759    1265.6154   -18504.375    63.822119    239.06968 
   18650    94.046147   -808.75751    73935.268   -17233.474    1271.5937   -18505.068    64.300082    240.19894 
   18700    92.794762   -1229.7321    73871.397   -17231.275    1254.6737   -18485.949    64.690593    237.00284 
   18750    92.077732   -476.77412    73807.346   -17252.841    1244.9788   -18497.819    64.973101     235.1715 
   18800    92.661898   -791.86069    73784.878   -17243.915    1252.8773   -18496.793    65.266151     236.6635 
   18850    93.568132   -690.12259    73727.441   -17245.746    1265.1304   -18510.876    65.727297    238.97807 
   18900     91.66995   -779.19104    73737.712   -17262.873    1239.4652   -18502.338    66.300746    234.13001 
   18950    91.989943   -926.72341     73728.17   -17258.226    1243.7918   -18502.018    66.381618    234.94729 
   19000    90.778378   -971.77898    73777.558   -17254.817    1227.4103   -18482.227    66.630152    231.85288 
   19050    92.207185   -643.58786     73804.14   -17255.547    1246.7291   -18502.276    67.167387    235.50213 
   19100    92.202687   -796.78936    73835.732   -17248.981    1246.6683   -18495.649    67.179241    235.49065 
   19150    94.468457   -896.16406    73848.179   -17209.075    1277.3037   -18486.379    67.203562    241.27755 
   19200     93.38101   -874.78203    73764.949   -17217.731    1262.6004   -18480.332    67.273684    238.50015 
   19250    92.909419   -821.72782    73716.408   -17238.042     1256.224   -18494.266    67.592753    237.29568 
   19300    92.880691   -803.66697    73712.579   -17258.708    1255.8356   -18514.543    67.366584    237.22231 
   19350    94.365173   -1107.3848    73762.922   -17263.161    1275.9072   -18539.068    67.530251    241.01375 
   19400    92.540197     -1122.82    73796.806   -17264.518    1251.2318    -18515.75    67.462519    236.35267 
   19450    95.959038   -1077.6257    73827.378   -17274.331    1297.4578   -18571.789    67.641142    245.08457 
   19500    92.836195   -1186.9677    73803.259   -17285.537     1255.234   -18540.771    67.577691    237.10866 
   19550    91.953918   -561.50503    73805.085   -17268.843    1243.3047   -18512.148    67.857422    234.85528 
   19600    93.034226   -684.43945    73835.941   -17272.404    1257.9115   -18530.315    67.813168    237.61444 
   19650    97.104471   -595.36976    73876.047   -17251.544    1312.9451   -18564.489    68.106623    248.01007 
   19700    94.983716   -916.15242    73903.899   -17229.689    1284.2705   -18513.959    68.423523    242.59354 
   19750    97.343245   -871.88503    73922.073   -17230.718    1316.1736   -18546.892    68.435039    248.61991 
   19800    94.084491   -626.59521    73938.669   -17218.708    1272.1121    -18490.82     68.80352    240.29688 
   19850    93.090348   -1056.8848    73949.013   -17219.972    1258.6703   -18478.642    69.547124    237.75778 
   19900    92.513689   -741.00604    73883.912   -17203.204    1250.8734   -18454.078    69.539435    236.28496 
   19950    93.719239   -702.74216    73903.943    -17212.31    1267.1736   -18479.484    69.602933      239.364 
   20000    93.076579   -830.96745    73925.706   -17253.615    1258.4842   -18512.099    69.603703    237.72261 
   20050    89.360209   -1020.4229    73953.042   -17284.642    1208.2353   -18492.877    69.592789     228.2308 
   20100    92.560175   -1136.5959    73956.297   -17277.647    1251.5019   -18529.149    69.785732    236.40369 
   20150    95.020111   -1013.3811    73906.308   -17244.936    1284.7626   -18529.699    69.684318     242.6865 
   20200    93.509918   -1314.4264    73832.278   -17246.519    1264.3433   -18510.863    69.714152    238.82938 
   20250    93.905408   -875.97255    73762.713   -17269.395    1269.6907   -18539.086    69.680584    239.83949 
   20300     94.33539   -943.79884     73760.38   -17276.194    1275.5045   -18551.699    69.785498    240.93769 
   20350    94.875769   -969.10635    73677.319   -17265.655    1282.8109   -18548.466    69.971507    242.31784 
   20400    93.484633   -869.38708    73657.601   -17284.791    1264.0015   -18548.792    69.932095     238.7648 
   20450    91.258484   -862.01607    73607.931   -17264.794    1233.9018   -18498.695    69.908949     233.0791 
   20500    92.147721    -910.4834    73612.128   -17260.403    1245.9251   -18506.328    70.188695    235.35026 
   20550    96.575377   -554.68062    73555.794   -17210.034    1305.7913   -18515.826    70.528011    246.65873 
   20600     96.10122   -504.78914    73569.347   -17209.029    1299.3802   -18508.409    70.640554    245.44771 
   20650     92.81201    -1124.688    73617.951   -17180.094     1254.907   -18435.001      70.9818    237.04689 
   20700    95.497692   -580.08618    73569.065    -17185.73    1291.2199    -18476.95    71.188449    243.90627 
   20750    94.338555   -921.90232    73549.725   -17250.666    1275.5473   -18526.213    71.144935    240.94577 
   20800    95.590126   -1001.8899    73562.535   -17228.694    1292.4697   -18521.164    71.625322    244.14235 
   20850    92.039879   -1117.0431    73506.709   -17222.425     1244.467   -18466.893    71.688129    235.07483 
   20900      97.8583    -1188.536    73474.872   -17208.692    1323.1376    -18531.83    71.799946    249.93539 
   20950    93.483994   -694.70306    73489.899    -17204.41    1263.9928   -18468.403    72.104441    238.76317 
   21000    93.422797   -745.21889    73571.408   -17209.378    1263.1654   -18472.544    72.272688    238.60687 
   21050    95.940495   -1214.4579    73599.244   -17207.808    1297.2071   -18505.015    72.398562    245.03721 
   21100    94.237361   -736.31885    73585.499   -17240.077    1274.1791   -18514.256    72.644332    240.68731 
   21150    92.394003   -617.51915    73603.621   -17261.229    1249.2551   -18510.485    72.543764    235.97928 
   21200    93.080354   -681.79386    73682.698   -17256.726    1258.5352   -18515.261    72.601597    237.73226 
   21250    91.371718   -576.79267    73783.066   -17259.815    1235.4328   -18495.248    72.569993    233.36831 
   21300    93.109384   -922.22466     73840.75   -17254.483    1258.9277   -18513.411    72.997486     237.8064 
   21350     92.06747   -814.29777    73865.946    -17296.01    1244.8401    -18540.85    73.219684    235.14529 
   21400    93.381201   -677.65687    73888.292   -17287.843     1262.603   -18550.446    73.244208    238.50064 
   21450     91.65989   -1092.5395    73889.698   -17257.663    1239.3292   -18496.992    73.415447    234.10431 
   21500    91.771821    -864.1205    73927.727   -17247.078    1240.8426    -18487.92    73.462562    234.39019 
   21550    93.561034   -1069.6524    73871.192   -17224.383    1265.0345   -18489.417    73.545835    238.95994 
   21600    91.880939   -1080.9095    73866.793   -17197.312     1242.318    -18439.63    73.834108    234.66889 
   21650    94.182694   -730.76471    73859.472   -17195.746    1273.4399   -18469.186    73.971518    240.54769 
   21700    94.479898   -654.38026    73848.515   -17174.904    1277.4584   -18452.363     74.10266    241.30677 
   21750    97.086115   -864.67432    73826.843   -17168.623    1312.6969    -18481.32    74.335404    247.96319 
   21800    94.072375   -1176.6852    73835.193   -17203.012    1271.9483    -18474.96    74.646065    240.26593 
   21850     93.76171   -914.02493    73857.929   -17197.156    1267.7478   -18464.903    74.731036    239.47248 
   21900    93.430807   -1025.5591    73831.691   -17190.293    1263.2737   -18453.567    74.861598    238.62733 
   21950    94.317879   -1043.5606    73801.197   -17182.195    1275.2677   -18457.463    75.042183    240.89296 
   22000    93.108818    -883.1133    73781.289   -17177.347    1258.9201   -18436.267     75.28153    237.80496 
   22050    95.277641    -1035.094    73800.637   -17165.894    1288.2446   -18454.139    75.177116    243.34425 
   22100    95.894533   -1353.4426    73733.637   -17151.442    1296.5856   -18448.027    75.215408    244.91982 
   22150    94.192542   -864.75243    73686.965   -17188.586    1273.5731   -18462.159    75.009223    240.57284 
   22200     95.26825   -795.28461    73655.043   -17165.723    1288.1177   -18453.841    75.540752    243.32026 
   22250    92.244441   -892.81759    73654.113   -17152.645    1247.2329   -18399.878    75.715561    235.59729 
   22300    95.800011   -1130.2709    73655.262   -17155.664    1295.3076   -18450.972     75.52412    244.67841 
   22350    96.232549   -957.83701    73601.568   -17176.304    1301.1559    -18477.46    76.123258    245.78313 
   22400    93.646615   -1031.6464     73595.63   -17180.268    1266.1916    -18446.46    76.311716    239.17852 
   22450    95.323599   -926.83387    73549.757   -17199.579     1288.866   -18488.445    76.237299    243.46162 
   22500    93.283189   -732.30485    73501.297   -17245.837    1261.2777   -18507.115    76.467694    238.25031 
   22550    89.480639   -868.88321    73498.614   -17269.312    1209.8636   -18479.176    76.437823    228.53839 
   22600    89.876087    -803.7597     73541.76   -17233.322    1215.2105   -18448.532    76.325097    229.54839 
   22650    92.666294    -1136.803    73534.331   -17218.058    1252.9367   -18470.995    76.531213    236.67472 
   22700     93.46958   -1215.5718    73454.242   -17230.077    1263.7979   -18493.875    76.919031    238.72636 
   22750    95.575531   -642.54648    73455.308   -17211.864    1292.2724   -18504.136    77.122642    244.10507 
   22800    96.015871   -1063.6165     73451.13   -17214.244    1298.2262    -18512.47    77.171485    245.22973 
   22850    93.977197    -627.6561    73437.405   -17215.783    1270.6614   -18486.444    77.598783    240.02284 
   22900    95.846354   -634.29531    73459.151   -17193.156    1295.9342    -18489.09    77.604765    244.79677 
   22950    95.684904    -367.4879    73551.175   -17180.374    1293.7512   -18474.125    77.478117    244.38442 
   23000    94.500001   -736.81386    73640.724   -17195.609    1277.7302   -18473.339    78.070786    241.35811 
   23050    99.048184   -747.03246    73668.016   -17202.257     1339.226   -18541.483    78.389926    252.97442 
   23100    93.065571    -812.4853    73724.731   -17202.334    1258.3353    -18460.67    78.608458     237.6945 
   23150    93.478192   -602.24708    73788.417   -17158.757    1263.9144   -18422.671    78.530656    238.74835 
   23200    97.231056   -679.98978    73778.785   -17148.672    1314.6567   -18463.329    78.470717    248.33337 
   23250    95.965839   -803.19538    73783.871   -17149.589    1297.5497   -18447.138    78.491166    245.10194 
   23300    95.963374   -915.84056    73738.463   -17164.058    1297.5164   -18461.574    78.636322    245.09564 
   23350    93.628972    -858.6455     73732.35   -17183.338    1265.9531   -18449.291    78.576142    239.13346 
   23400    93.851584   -854.41928    73709.934    -17197.17     1268.963   -18466.133    78.681531    239.70202 
   23450    92.799696   -788.53953    73658.953   -17215.026    1254.7405   -18469.767    78.535366    237.01544 
   23500    94.145218   -491.63715    73688.482   -17214.148    1272.9332   -18487.081    78.718136    240.45197 
   23550    92.751033   -950.03319    73722.421    -17249.36    1254.0825   -18503.443    78.965192    236.89115 
   23600    93.091662   -1013.9646    73729.811   -17262.857    1258.6881   -18521.545    79.214663    237.76114 
   23650    91.294566   -1070.9166    73702.985     -17235.9    1234.3897    -18470.29    79.395712    233.17126 
   23700    91.736808   -1263.7749    73667.522   -17207.824    1240.3692   -18448.193    79.797443    234.30077 
   23750    91.661251   -1156.8189    73640.141   -17200.194    1239.3476   -18439.542    80.095527    234.10779 
   23800    91.486472   -1103.3094    73565.612   -17180.563    1236.9844   -18417.547    80.737059     233.6614 
   23850     96.88873   -956.03579    73567.184   -17165.851    1310.0281   -18475.879    80.536501    247.45905 
   23900    97.267241   -1016.7629    73546.635    -17129.93    1315.1459   -18445.076    80.605767    248.42579 
   23950    94.397734   -608.19212     73571.36   -17134.551    1276.3475   -18410.898    80.696372    241.09692 
   24000    93.866643   -857.49155    73643.443   -17163.619    1269.1666   -18432.785    80.742405    239.74048 
   24050    93.195263    -867.4837    73643.915   -17166.887    1260.0889   -18426.976    80.926996    238.02574 
   24100    94.315722   -681.04482    73654.657   -17162.208    1275.2386   -18437.446    81.229412    240.88745 
   24150    92.143245   -912.76978    73642.101   -17179.666    1245.8646    -18425.53    81.462712    235.33883 
   24200    96.382349   -837.52121    73616.395   -17169.959    1303.1813    -18473.14    81.868867    246.16573 
   24250    92.924904    -857.5507    73600.377   -17170.702    1256.4334   -18427.135    82.058431    237.33523 
   24300    95.106105   -993.25825    73577.748   -17190.368    1285.9253   -18476.294    82.017932    242.90613 
   24350    91.419382   -1128.8344      73570.2   -17208.346    1236.0773   -18444.423    82.242495    233.49004 
   24400    91.970947   -907.85868    73598.129   -17201.493     1243.535   -18445.028    82.529118    234.89877 
   24450    93.264874   -811.81737    73610.585   -17190.341    1261.0301   -18451.371    82.887848    238.20353 
   24500    91.413601    -956.5772    73629.719   -17200.791    1235.9991    -18436.79    82.478532    233.47528 
   24550    93.072959   -967.26578    73632.504   -17183.188    1258.4352   -18441.623     82.29237    237.71337 
   24600     92.09943   -928.42931    73691.434   -17224.069    1245.2722   -18469.341    82.332633    235.22692 
   24650    93.171454   -710.47714    73736.877   -17221.385     1259.767   -18481.152    82.053913    237.96493 
   24700     94.01515   -1135.5652    73728.021    -17232.66    1271.1746   -18503.834    81.937188    240.11977 
   24750    92.553474   -701.55599    73687.711   -17252.689    1251.4113     -18504.1    81.691388    236.38657 
   24800    91.886893   -806.11555    73706.218   -17232.716    1242.3985   -18475.115    81.730241    234.68409 
   24850    94.895056   -752.82319    73786.455     -17267.8    1283.0717   -18550.872    81.450874     242.3671 
   24900    92.880898   -486.95446    73816.416   -17249.298    1255.8384   -18505.137     81.73797    237.22283 
   24950    93.728477    -932.1597     73869.03   -17256.395    1267.2985   -18523.693    81.876667     239.3876 
   25000     97.83695   -1015.7831    73893.923    -17207.44    1322.8489   -18530.289    82.214373    249.88086 
   25050    94.932033   -1173.2397     73866.39   -17233.429    1283.5717       -18517    82.678953    242.46154 
   25100    91.239037        -1136    73794.983   -17254.395    1233.6389   -18488.034    82.823787    233.02943 
   25150    94.286109   -889.93868    73769.075   -17233.314    1274.8382   -18508.153    83.191971    240.81182 
   25200    91.827262   -1032.5071     73726.88   -17227.983    1241.5922   -18469.575    83.456595    234.53179 
   25250    91.377279   -1021.1674    73704.615   -17249.815     1235.508   -18485.324    83.743523    233.38251 
   25300    90.144881   -1055.0857    73689.694   -17240.886    1218.8448    -18459.73     83.89966     230.2349 
   25350    94.784274   -1012.5022    73730.107    -17203.37    1281.5739   -18484.944    84.273986    242.08416 
   25400    93.284386   -955.85126    73763.061   -17211.363    1261.2939   -18472.657    84.461369    238.25336 
   25450    93.724439   -849.86693    73834.141   -17223.625    1267.2439   -18490.869    84.482769    239.37728 
   25500     93.40449   -1017.4599    73855.817   -17236.672    1262.9178    -18499.59    84.555612    238.56012 
   25550     91.84102   -886.14477    73881.894   -17222.005    1241.7782   -18463.783    84.585387    234.56693 
   25600    95.022887   -1115.4521    73892.015   -17216.457    1284.8001   -18501.257    84.491695    242.69359 
   25650    92.170223   -1145.7065    73902.131   -17219.334    1246.2294   -18465.563     84.41571    235.40773 
   25700    92.626173   -1121.5724    73909.357   -17235.487    1252.3943   -18487.881    85.047308    236.57225 
   25750     94.93008   -790.69048    73936.654   -17248.524    1283.5453    -18532.07     85.26551    242.45656 
   25800    94.305975   -924.93646    73876.296   -17209.703    1275.1068    -18484.81    85.375364    240.86256 
   25850    95.832206   -904.07609    73823.853   -17233.292    1295.7429   -18529.035    85.343923    244.76063 
   25900    91.659452   -954.37294    73850.855   -17273.286    1239.3233   -18512.609    85.621214     234.1032 
   25950    93.699807   -1147.7459    73810.768   -17242.431    1266.9108   -18509.342    85.388611    239.31437 
   26000    95.402248   -875.88801    73757.892   -17243.133    1289.9294   -18533.063    85.784126     243.6625 
   26050    95.296137   -587.49404    73757.672   -17244.978    1288.4947   -18533.473    85.762654    243.39148 
   26100    94.025789   -1048.8629    73844.736   -17229.819    1271.3184   -18501.138    86.280517    240.14695 
   26150    94.178507   -719.62885    73872.986   -17235.622    1273.3833   -18509.006    86.454748      240.537 
   26200    90.487709   -992.99131     73905.79    -17272.27    1223.4802    -18495.75    86.934526     231.1105 
   26250     93.07047   -1217.3112    73861.195   -17242.325    1258.4016   -18500.726    87.503621    237.70701 
   26300    93.591985   -1137.7305    73859.229   -17227.832     1265.453   -18493.284     87.58552    239.03899 
   26350     90.84167   -1316.0558    73841.507   -17291.547    1228.2661   -18519.813    88.145263    232.01453 
   26400    92.377119   -807.22849    73748.014   -17276.893    1249.0268   -18525.919    87.928061    235.93615 
   26450    92.486004   -476.55705    73758.961   -17251.918     1250.499   -18502.417    87.891565    236.21425 
   26500    93.439018   -470.47096    73807.883   -17250.793    1263.3847   -18514.178    87.893812     238.6483 
   26550    93.445057   -777.00295    73883.424    -17244.71    1263.4663   -18508.176    87.992686    238.66373 
   26600    90.171798   -985.40205    73889.998   -17248.875    1219.2088   -18468.084      88.5246    230.30364 
   26650     90.08034   -757.43632    73856.143   -17269.314    1217.9722   -18487.286    88.644733    230.07006 
   26700    93.927678   -622.89053    73891.515   -17219.094    1269.9918   -18489.086    88.618939    239.89637 
   26750    92.878568   -633.54639    73913.095   -17256.477    1255.8069   -18512.284    88.585474    237.21688 
   26800    90.918532   -1138.4647    73927.118   -17273.299    1229.3053   -18502.605    88.672806    232.21085 
   26850    93.985117   -835.08876    73937.998   -17238.124    1270.7685   -18508.893    88.850718    240.04307 
   26900    91.334335    -841.3831    73932.283   -17270.525    1234.9274   -18505.453    88.613375    233.27283 
   26950    93.863309   -513.97998    73973.157   -17208.169    1269.1215   -18477.291    88.889771    239.73197 
   27000    93.983934   -1030.8497    74015.492   -17222.979    1270.7525   -18493.732    89.292419    240.04005 
   27050    94.781123   -1048.5809    74048.604   -17224.011    1281.5312   -18505.542    89.165999    242.07611 
   27100    95.198375   -652.60874    74090.485   -17188.241    1287.1729   -18475.414    89.061792     243.1418 
   27150    94.909666   -869.79633    74063.474   -17172.403    1283.2693   -18455.672    89.656318    242.40442 
   27200    96.090816   -789.23112    74096.305    -17158.26    1299.2395   -18457.499    90.076838    245.42114 
   27250    94.038569   -749.35933    74071.907    -17155.51    1271.4912   -18427.001    90.726159    240.17959 
   27300      98.2035   -879.55386    74038.637   -17182.417     1327.805   -18510.222    90.973201    250.81705 
   27350    97.877705    -943.6525     74029.49    -17171.45       1323.4    -18494.85    91.109381    249.98495 
   27400    93.180539   -789.93859    74033.174   -17204.346    1259.8898   -18464.236    91.190893    237.98813 
   27450     94.09248   -1029.1545    73946.554   -17245.447    1272.2201   -18517.667    91.540456    240.31728 
   27500    93.324778   -993.97329    73908.312   -17236.939    1261.8401   -18498.779    91.160897    238.35653 
   27550    93.947306   -1020.3966    73903.429   -17210.967    1270.2572   -18481.224    91.511787     239.9465 
   27600    91.294684   -703.95538    73914.957   -17236.906    1234.3913   -18471.297    91.833607    233.17156 
   27650     93.17097   -838.59036     73960.96   -17237.926    1259.7604   -18497.687    91.704725    237.96369 
   27700    95.196306    -1293.971    73943.026   -17225.198    1287.1449   -18512.343    91.760484    243.13651 
   27750    93.720677   -1062.3177    73910.059   -17245.369     1267.193   -18512.562    91.971772    239.36768 
   27800    94.357332   -928.55338    73907.345   -17233.894    1275.8012   -18509.695    92.276863    240.99373 
   27850    93.342179    -878.6279    73915.204   -17257.117    1262.0754   -18519.192    92.322071    238.40097 
   27900    93.769823   -596.21925    73935.817   -17242.615    1267.8575   -18510.472    92.202494     239.4932 
   27950    93.162417   -1001.8339    74003.156   -17239.315    1259.6448    -18498.96    92.211168    237.94185 
   28000    94.781011   -1010.3508    74025.868   -17233.489    1281.5297   -18515.018    92.269839    242.07582 
   28050    93.192766   -1021.3895    74071.419   -17254.947    1260.0551   -18515.002     92.30455    238.01936 
   28100    93.458884   -883.94686    74098.147    -17246.74    1263.6533   -18510.394    92.329957    238.69904 
   28150    93.900895   -833.39157    74128.677   -17259.798    1269.6297   -18529.427    92.481852    239.82796 
   28200    93.667786   -908.22398    74184.035    -17237.16    1266.4779   -18503.638    92.462972    239.23259 
   28250    96.194203   -1146.5162    74180.152   -17219.236    1300.6374   -18519.873    92.829747    245.68519 
   28300    92.288092   -1034.2819    74178.024   -17219.289    1247.8231   -18467.112    92.571944    235.70877 
   28350    95.134271   -806.74576    74161.182   -17212.591    1286.3061   -18498.897    92.842001    242.97807 
   28400    94.441093   -1095.9923    74133.853   -17228.062    1276.9337   -18504.995    92.719087    241.20766 
   28450    93.922083   -624.64463    74122.865   -17220.174    1269.9162    -18490.09    92.747636    239.88208 
   28500    96.359378   -771.35746    74150.919   -17204.779    1302.8708   -18507.649    92.990306    246.10706 
   28550    94.238281   -912.98974    74133.277   -17217.239    1274.1915   -18491.431    93.354596    240.68966 
   28600     94.83138   -835.68725    74095.543    -17220.44    1282.2108   -18502.651     93.55127    242.20447 
   28650    93.571709   -1303.1266    74022.696   -17233.555    1265.1788   -18498.734     93.55587     238.9872 
   28700    94.156202   -1154.3153    73931.656   -17223.347    1273.0817   -18496.429    93.768832    240.48003 
   28750    93.131656   -963.40649    73920.383   -17246.434    1259.2289   -18505.662    93.620736    237.86328 
   28800    92.358022   -1118.4931    73901.893   -17258.585    1248.7686   -18507.354    93.870554    235.88738 
   28850    93.081418   -980.61695    73814.525   -17251.231    1258.5496    -18509.78     93.79163    237.73497 
   28900    92.054473   -1227.3484    73719.265   -17300.286    1244.6643    -18544.95    93.489222     235.1121 
   28950    90.713516   -1127.3692    73689.783   -17297.967    1226.5333   -18524.501    93.771637    231.68722 
   29000    95.531727   -951.20995    73661.285   -17262.343    1291.6801   -18554.024    94.017345    243.99319 
   29050    94.788465   -1119.0702    73666.765   -17231.582    1281.6305   -18513.212    94.306255    242.09486 
   29100    94.143907   -749.74254    73673.723   -17246.216    1272.9155   -18519.131    94.712008    240.44863 
   29150    92.118828   -1062.9729    73680.997   -17260.533    1245.5345   -18506.068    94.629964    235.27647 
   29200    94.388314   -975.75086    73707.623   -17287.071    1276.2201   -18563.291    94.717643    241.07286 
   29250    94.329391    -1096.868    73692.772   -17217.601    1275.4234   -18493.024    94.910764    240.92236 
   29300    91.323291   -891.51124    73631.796   -17207.707    1234.7781   -18442.485    95.255141    233.24462 
   29350    92.999579   -1177.0577    73664.295   -17218.601    1257.4431   -18476.044    95.525314    237.52595 
   29400    94.145003   -1220.7477    73592.217   -17238.469    1272.9303   -18511.399    95.685328    240.45143 
   29450    93.578908   -1143.7614     73588.01   -17229.166    1265.2761   -18494.442    95.684186    239.00559 
   29500    94.725721   -888.41589    73532.245   -17254.816    1280.7822   -18535.598    96.031324    241.93461 
   29550    95.467261   -1066.6867    73552.344   -17231.017    1290.8085   -18521.825     96.16076    243.82854 
   29600    93.564718   -844.23976     73531.72   -17222.204    1265.0843   -18487.288    96.210909    238.96935 
   29650    94.131126    -938.6808    73462.757   -17240.709    1272.7427   -18513.451    95.750765    240.41598 
   29700    94.945588    -1394.611    73435.528   -17221.838     1283.755   -18505.593    95.880227    242.49617 
   29750    93.404652   -866.82287    73385.858   -17246.091      1262.92   -18509.012    95.645634    238.56053 
   29800    91.603155   -1093.8384    73423.319   -17252.559    1238.5621   -18491.121    95.904175    233.95941 
   29850      95.8683   -929.77208     73392.77     -17229.2    1296.2309   -18525.431    95.775182    244.85282 
   29900    93.394203   -1080.5949    73369.693   -17217.581    1262.7788    -18480.36    95.708026    238.53384 
   29950    95.028204   -911.69814    73359.442   -17211.948     1284.872    -18496.82    95.922796    242.70717 
   30000    93.784637   -920.09765    73405.253   -17199.482    1268.0578    -18467.54    96.276135    239.53103 
   30050     89.21378   -930.93402    73440.714   -17225.893    1206.2554   -18432.148    96.498954    227.85682 
   30100    93.448509   -1052.5906    73438.857   -17239.391     1263.513   -18502.904     96.79189    238.67254 
   30150    94.677338   -814.75255    73450.511   -17185.559     1280.128   -18465.686    97.147134    241.81104 
   30200    97.605656   -1064.3574    73497.513   -17210.027    1319.7216   -18529.749    97.473993    249.29012 
   30250    96.085552   -861.45427    73493.647   -17228.318    1299.1684   -18527.486    97.573934    245.40769 
   30300    93.513287   -970.13013     73552.75   -17195.538    1264.3889   -18459.927    97.528386    238.83799 
   30350    93.409512   -824.13891     73551.07    -17225.23    1262.9858   -18488.216    97.596067    238.57294 
   30400    94.060082   -910.45905    73529.765   -17204.292    1271.7821   -18476.074    97.475378    240.23453 
   30450    91.818528   -625.42381    73569.838   -17201.394    1241.4741   -18442.868    97.653941    234.50948 
   30500    97.194056   -872.54258    73601.499    -17195.54    1314.1564   -18509.696    97.949067    248.23887 
   30550    94.392749   -953.81471    73663.404   -17170.254    1276.2801   -18446.534    97.991372    241.08418 
   30600    96.401054   -589.76909    73647.876   -17176.143    1303.4343   -18479.577    98.277656     246.2135 
   30650    93.489069   -449.22081    73715.452     -17212.2    1264.0614   -18476.261    98.565275    238.77614 
   30700    93.741426   -817.54748    73725.986   -17219.317    1267.4735    -18486.79    98.733184    239.42067 
   30750     94.88261   -1119.5504    73718.036   -17193.956    1282.9034   -18476.859    99.009158    242.33532 
   30800    95.461146   -821.80258    73705.736   -17210.203    1290.7258   -18500.929    99.437385    243.81293 
   30850    95.083721    -912.9246    73690.646   -17208.548    1285.6227   -18494.171    99.754119    242.84896 
   30900    97.531609   -962.39623    73706.028   -17213.013    1318.7204   -18531.733    100.13362      249.101 
   30950    92.638784   -1147.6949    73726.468   -17247.827    1252.5648   -18500.392    100.49899    236.60446 
   31000    94.267026   -1185.9255    73718.772   -17219.861    1274.5802   -18494.441    100.75095    240.76308 
   31050     93.13596   -970.28963    73690.031   -17206.771    1259.2871   -18466.058    100.80347    237.87428 
   31100    92.639523   -924.17853    73682.752   -17231.724    1252.5748   -18484.299    101.26672    236.60635 
   31150    94.598632    -751.7105    73768.329   -17262.319    1279.0638   -18541.383     101.3653    241.61002 
   31200     91.78685   -672.87857    73849.805   -17264.077    1241.0458   -18505.123    101.59881    234.42858 
   31250    92.449007   -1001.7233     73896.95    -17261.04    1249.9988   -18511.039    101.87438    236.11976 
   31300    91.500389   -890.49705     73894.43   -17238.602    1237.1726   -18475.774    101.55372    233.69694 
   31350    90.333881    -978.1284    73914.003   -17242.541    1221.4003   -18463.942    101.45451    230.71761 
   31400    93.169942   -1024.0231    73839.071   -17226.168    1259.7465   -18485.914    101.80054    237.96107 
   31450    95.275547   -1034.1137    73840.197   -17188.521    1288.2163   -18476.737    101.81022     243.3389 
   31500    93.406158   -851.69877    73848.359   -17191.858    1262.9404   -18454.799    101.80696    238.56438 
   31550    92.079886   -813.98921    73899.351   -17207.032    1245.0079    -18452.04    102.11374    235.17701 
   31600    95.214672   -821.35841    73890.241   -17204.891    1287.3932   -18492.285    102.37847    243.18342 
   31650    90.977606   -878.49898    73877.132   -17205.187    1230.1041   -18435.291    102.76408    232.36172 
   31700    93.605912   -858.09251    73923.731   -17212.883    1265.6413   -18478.524    102.64148    239.07456 
   31750    94.196803   -892.13134    73908.584   -17256.148    1273.6307   -18529.779    102.85828    240.58373 
   31800    92.925871    -1236.842     73878.09   -17273.049    1256.4465   -18529.495    102.83073     237.3377 
   31850     93.53064    -798.9761    73827.563   -17237.279    1264.6235   -18501.902    102.99286    238.88231 
   31900    93.806044   -846.35555    73780.026   -17248.126    1268.3472   -18516.473    103.13817    239.58571 
   31950     96.00712    -753.8593    73813.485    -17196.55    1298.1079   -18494.658    103.13561    245.20737 
   32000    94.901059   -1181.0382    73772.609   -17211.253    1283.1529   -18494.406    103.00866    242.38243 
   32050    94.560898   -957.92925    73706.927   -17226.635    1278.5536   -18505.189    102.98174    241.51365 
   32100     94.57555   -619.75884    73733.253   -17206.345    1278.7517   -18485.097    102.66001    241.55107 
   32150    95.170381   -993.03235    73757.603   -17257.768    1286.7944   -18544.563    102.75466     243.0703 
   32200    90.692116   -681.53125    73788.008   -17299.248     1226.244   -18525.492    102.85059    231.63257 
   32250    93.166722   -730.21602     73828.66   -17284.074     1259.703   -18543.777    103.52234    237.95284 
   32300    95.768946   -1161.2904    73853.368   -17265.191    1294.8875   -18560.078    103.73626    244.59906 
   32350    95.886568   -706.26377     73885.66   -17272.597    1296.4779   -18569.075    103.40936    244.89948 
   32400    94.575564   -614.06767    73967.512   -17237.727    1278.7519   -18516.479    104.03559     241.5511 
   32450    95.977911   -1073.0606    73984.912   -17195.612     1297.713   -18493.325    104.36809    245.13277 
   32500    92.637632   -911.08627    74026.253   -17243.138    1252.5492   -18495.687    104.43269    236.60152 
   32550    95.322662   -1153.5547    74022.158    -17239.45    1288.8534   -18528.304    104.38025    243.45923 
   32600    91.384915   -995.46885    73972.385   -17278.976    1235.6113   -18514.587     104.6814    233.40201 
   32650    90.323203    -1246.874    73970.598   -17271.359    1221.2559   -18492.615    104.70481    230.69034 
   32700    97.298306    -919.5883    73938.162   -17244.943     1315.566   -18560.509    104.44879    248.50513 
   32750    94.334449   -1040.8897    73962.322   -17239.679    1275.4918   -18515.171     104.7964    240.93528 
   32800    92.980507   -1136.8597    74014.666   -17248.594    1257.1852   -18505.779    104.95202    237.47724 
   32850     93.03842   -991.05306    73984.038    -17255.23    1257.9682   -18513.198    105.15623    237.62515 
   32900     94.39006   -1282.2831    73976.088     -17243.2    1276.2437   -18519.444    105.39559    241.07732 
   32950    93.590571   -860.46059     73941.39   -17197.497    1265.4338    -18462.93     105.8521    239.03538 
   33000    97.546966   -921.85475    73976.839   -17209.429    1318.9281   -18528.357    106.48253    249.14022 
   33050    92.806509   -1017.0613    73956.126   -17209.318    1254.8326    -18464.15    106.64517    237.03284 
   33100    94.025297   -1072.3046    73911.051   -17198.017    1271.3118   -18469.329    106.82956    240.14569 
   33150    96.140473   -1032.2747    73949.924     -17183.4    1299.9109   -18483.311    106.60845    245.54796 
   33200    95.527465   -1042.3186    73970.766   -17206.572    1291.6225   -18498.195    107.02298    243.98231 
   33250    94.186442   -1334.5879    73983.584   -17217.048    1273.4906   -18490.539    107.22728    240.55726 
   33300    96.012636     -1139.07    73964.969   -17238.254    1298.1825   -18536.436    107.10498    245.22146 
   33350    94.463916   -1195.3933    73953.298   -17179.761    1277.2423   -18457.003    106.97707    241.26595 
   33400    94.189382   -1023.3781    73949.259    -17198.73    1273.5303    -18472.26    106.97899    240.56477 
   33450     95.67346   -860.50122    73913.629   -17209.411    1293.5965   -18503.008    106.97543    244.35519 
   33500    93.261582   -1217.6922    73917.701   -17203.517    1260.9856   -18464.503    106.81446    238.19512 
   33550    93.853593   -1048.0495    73904.751   -17214.858    1268.9901   -18483.848    107.08228    239.70715 
   33600    94.474706   -960.65037    73906.722   -17204.218    1277.3882   -18481.607    107.36717    241.29351 
   33650    94.386986   -722.17651    73906.054   -17187.755    1276.2021   -18463.957    107.92311    241.06946 
   33700    95.090078   -937.61199    73920.573   -17165.691    1285.7086     -18451.4    108.03943     242.8652 
   33750    96.308121   -1043.9633     73927.39   -17184.785    1302.1777   -18486.963    108.63505    245.97615 
   33800    93.394312   -963.09547    73876.191   -17220.819    1262.7802   -18483.599    109.15411    238.53412 
   33850    93.322494   -997.69387    73862.567   -17206.537    1261.8092   -18468.346    109.47204    238.35069 
   33900     93.81504   -1345.9982    73814.965   -17209.594    1268.4689   -18478.063    109.55532    239.60868 
   33950    93.413062   -1011.1571    73766.703   -17243.933    1263.0338   -18506.966    109.86297    238.58201 
[...]
   92000      93.5112   -885.58652    73696.466   -17275.023    1264.3607   -18539.383    271.09129    238.83266 
   92050    92.781045   -834.46282    73651.976   -17269.713    1254.4883   -18524.202    272.00967     236.9678 
   92100    90.917259   -867.23515    73633.422   -17253.096    1229.2881   -18482.384    271.94519    232.20759 
   92150    92.415365   -1020.5332    73585.402   -17265.046    1249.5439    -18514.59    272.57619    236.03384 
   92200    91.672245   -825.40482    73558.165   -17258.162    1239.4962   -18497.658    272.62979    234.13587 
   92250    93.002822   -874.76976    73592.843   -17246.139    1257.4869   -18503.625    273.43114    237.53423 
   92300    92.866193   -982.43049    73638.799   -17262.585    1255.6396   -18518.225    273.13581    237.18528 
   92350    91.560289   -695.35367    73674.054   -17263.984    1237.9825   -18501.966    272.98028    233.84993 
   92400    90.765077   -1107.7027    73719.997    -17271.37    1227.2305   -18498.601    273.41377    231.81891 
   92450    93.267948   -1224.7426    73666.811   -17262.126    1261.0717   -18523.197    273.51188    238.21138 
   92500    93.732861   -782.10395    73690.123   -17231.216    1267.3577   -18498.574     273.5114    239.39879 
   92550    94.651595   -479.38948    73683.074   -17235.586    1279.7799   -18515.366    273.41123    241.74529 
   92600    92.517308   -563.74068    73734.976   -17226.454    1250.9223   -18477.376      273.608    236.29421 
   92650    92.203415   -805.44518    73716.992   -17253.034    1246.6782   -18499.712       273.67    235.49251 
   92700    92.549817   -685.18923    73716.078   -17255.176    1251.3619   -18506.538    273.36624    236.37724 
   92750    95.806106   -612.87438    73769.737   -17201.071      1295.39   -18496.461    273.60957    244.69397 
   92800    93.341531   -948.85886    73790.847   -17204.421    1262.0666   -18466.488    273.85792    238.39932 
   92850    96.715857   -728.93962    73796.906   -17190.486    1307.6907   -18498.177    273.95803    247.01753 
   92900    93.679561   -703.75473    73839.938   -17176.407    1266.6371   -18443.044    274.34975    239.26266 
   92950    92.736985   -634.69944    73869.989   -17218.413    1253.8925   -18472.305     274.0353    236.85527 
   93000    93.764766    -1020.511    73845.317    -17231.29    1267.7891   -18499.079    273.76572    239.48028 
   93050    93.108858   -715.53605    73825.199    -17229.22    1258.9206    -18488.14     273.5369    237.80506 
   93100     91.63461   -958.78094    73776.076    -17259.75    1238.9874   -18498.737     273.9427    234.03975 
   93150    92.560284   -555.23241    73783.413   -17282.185    1251.5034   -18533.688    274.02941    236.40397 
   93200    91.301917   -970.94809    73818.098   -17245.148     1234.489   -18479.637    274.00599    233.19003 
   93250    93.589625   -522.57171    73872.058   -17229.195    1265.4211   -18494.616    274.52487    239.03296 
   93300    96.196676   -617.07649    73945.019   -17217.167    1300.6709   -18517.838    275.06988    245.69151 
   93350    96.417278   -695.39129    74011.397   -17220.412    1303.6536   -18524.065    275.79326    246.25494 
   93400    92.341968   -590.53451    74067.131   -17209.636    1248.5515   -18458.187    276.84314    235.84638 
   93450    91.993595   -590.28214    74104.686    -17235.06    1243.8412   -18478.901    276.71943    234.95661 
   93500    92.319303   -988.05441    74061.517   -17238.977    1248.2451   -18487.222    277.14108    235.78849 
   93550    92.922406   -843.32166    74066.297    -17279.31    1256.3996   -18535.709    277.10022    237.32885 
   93600    91.843783   -767.22932    74114.571   -17280.165    1241.8156    -18521.98     277.3865    234.57399 
   93650    93.052967   -820.76086    74089.227   -17235.918    1258.1649   -18494.083    277.37859    237.66231 
   93700    93.294018   -686.56698    74136.777   -17232.369    1261.4242   -18493.794     277.3484    238.27796 
   93750    93.413208   -641.43466    74172.548   -17222.448    1263.0357   -18485.484    277.16723    238.58238 
   93800    90.716037   -729.57461    74194.551   -17221.091    1226.5674   -18447.658    276.75476    231.69366 
   93850    94.990627   -750.67096     74167.49   -17229.602    1284.3639   -18513.966    277.33061    242.61119 
   93900    93.368798   -1015.4719    74170.848   -17261.995    1262.4353    -18524.43    276.88706    238.46896 
   93950    93.930074   -976.70152    74111.471   -17260.518    1270.0243   -18530.542    277.60667    239.90249 
   94000    95.424966   -658.70959    74063.164   -17226.862    1290.2366   -18517.098    277.39654    243.72052 
   94050    93.755855   -639.61869    74109.219   -17242.338    1267.6686   -18510.007    277.93564    239.45752 
   94100    97.423111   -1049.3627    74141.189   -17218.543    1317.2534   -18535.796    277.99159    248.82389 
   94150    95.714283   -1171.1031    74157.595   -17195.321    1294.1485    -18489.47    277.96259    244.45945 
   94200    95.502643   -815.87638    74210.823    -17189.78    1291.2869   -18481.066    277.71253    243.91891 
   94250    94.580012    -1067.103    74196.107   -17189.541     1278.812   -18468.353     277.7436    241.56246 
   94300    95.690872   -534.68672    74174.389    -17222.91    1293.8319   -18516.742    277.60946    244.39966 
   94350    93.316208   -758.98291    74247.847   -17250.784    1261.7242   -18512.508    277.99856    238.33464 
   94400    93.094872   -1120.7325    74191.015   -17250.164    1258.7315   -18508.895    278.43489    237.76933 
   94450    93.324226   -892.32485    74191.342   -17257.316    1261.8326   -18519.148    278.68606    238.35512 
   94500    92.847393   -907.89367    74231.757   -17282.417    1255.3854   -18537.802    278.44769    237.13726 
   94550    94.767938   -923.74052    74238.239   -17237.838     1281.353   -18519.191    278.85444    242.04244 
   94600    96.785535   -1095.3465    74283.482   -17239.647    1308.6328    -18548.28    279.17322    247.19549 
   94650    91.707152   -1105.1782    74286.783   -17262.145    1239.9682   -18502.113    279.13037    234.22502 
   94700     92.57742   -950.74059     74296.27   -17267.774    1251.7351    -18519.51    278.99224    236.44774 
   94750    94.447088    -695.8413    74292.686   -17255.006    1277.0148   -18532.021    279.45569    241.22297 
   94800    93.430831   -734.91522    74315.908   -17263.526     1263.274     -18526.8    280.23913    238.62739 
   94850    92.518547   -902.16003     74316.93   -17294.945    1250.9391   -18545.884    280.00621    236.29737 
   94900    92.707984   -798.03343    74336.147   -17297.644    1253.5004   -18551.144    279.97903     236.7812 
   94950    93.178393   -497.82431    74322.882   -17328.449    1259.8608   -18588.309    279.78151    237.98265 
   95000    93.231885   -723.00942    74396.507    -17319.83    1260.5841   -18580.414    279.84919    238.11927 
   95050     92.41266   -613.75422    74453.558   -17314.138    1249.5074   -18563.646    279.81303    236.02693 
   95100    91.882702   -865.08694    74511.987   -17274.722    1242.3418   -18517.064    279.86776    234.67339 
   95150    93.553285   -1019.1541    74522.276   -17252.542    1264.9297   -18517.472    279.92826    238.94015 
   95200    95.618718   -1048.2694    74583.649   -17256.149    1292.8563   -18549.006    280.19722    244.21537 
   95250    93.906355   -509.45812    74583.844   -17262.907    1269.7035   -18532.611    280.17299    239.84191 
   95300    94.252232   -889.12525    74594.792   -17265.372    1274.3801   -18539.752    280.68215    240.72529 
   95350    90.823073   -715.35288    74653.081   -17265.622    1228.0146   -18493.637     281.8656    231.96704 
   95400     92.91179    -1051.867    74727.012   -17244.901    1256.2561   -18501.157    282.47417    237.30173 
   95450    94.724072   -915.76431    74719.013   -17217.357    1280.7599   -18498.116    283.25582     241.9304 
   95500    94.536801   -1098.1519    74734.786   -17227.741    1278.2278   -18505.969    283.51908     241.4521 
   95550    92.946645   -1106.6975    74719.445    -17245.34    1256.7274   -18502.067    283.93691    237.39076 
   95600    94.939711   -1038.3083    74709.149   -17239.239    1283.6755   -18522.914    283.67371    242.48115 
   95650    95.140029   -973.92085    74693.395   -17239.867     1286.384   -18526.251    284.02413    242.99278 
   95700    97.839489   -1025.6337     74659.79   -17253.877    1322.8833   -18576.761    283.85427    249.88734 
   95750    97.621205   -940.47596    74737.348   -17251.621    1319.9319   -18571.553     283.4477    249.32983 
   95800    95.627098   -764.50313    74781.494   -17225.296    1292.9696   -18518.266    282.99381    244.23678 
   95850    95.097349   -1108.9019    74824.368   -17192.323    1285.8069    -18478.13    283.25578    242.88377 
   95900    94.645309   -1206.3644      74853.1   -17206.384    1279.6949   -18486.079    283.13331    241.72923 
   95950     95.36395   -1302.6817     74878.81   -17193.736    1289.4116   -18483.147    283.09759    243.56468 
   96000     96.71767   -840.19225    74861.583   -17173.287    1307.7152   -18481.002     282.6724    247.02216 
   96050    96.069452   -1136.7408    74842.839   -17174.033    1298.9507   -18472.984    282.97092    245.36657 
   96100    95.785663   -944.49322    74770.925   -17206.173    1295.1136   -18501.287    282.54866    244.64176 
   96150     93.58329   -842.11407    74730.337   -17222.091    1265.3354   -18487.426    282.41056    239.01678 
   96200    95.108826    -782.0869    74691.587   -17200.587    1285.9621   -18486.549    282.65443    242.91308 
   96250    93.247983   -1060.4392    74691.203   -17188.823    1260.8017   -18449.625    283.01983    238.16039 
   96300    95.869798    -1336.322    74701.247    -17195.71    1296.2512   -18491.961    283.46877    244.85665 
   96350    95.891156   -1099.1556    74672.105   -17221.554      1296.54   -18518.094    284.54198     244.9112 
   96400     94.30833   -901.22756    74652.679   -17250.373    1275.1386   -18525.512    284.49166    240.86857 
   96450    91.910134   -1100.0647    74688.599   -17298.966    1242.7127   -18541.679    285.18691    234.74345 
   96500    95.439485   -1022.9325    74641.301   -17261.562    1290.4329   -18551.995    285.18692     243.7576 
   96550    93.408574   -948.68868    74646.796   -17271.043    1262.9731   -18534.016    285.36947    238.57055 
   96600    91.300636   -1023.0879    74720.637   -17269.357    1234.4717   -18503.828    285.29811    233.18676 
   96650     97.52301   -1075.3765    74719.331   -17220.327    1318.6042   -18538.931    285.90044    249.07904 
   96700    95.881308   -787.86504    74791.291   -17214.753    1296.4068    -18511.16    285.34947    244.88604 
   96750    93.186014   -1036.3212    74727.308   -17223.894    1259.9638   -18483.858    285.32303    238.00212 
   96800    96.510142   -1021.4207    74755.373   -17241.934    1304.9092   -18546.843    285.97557    246.49212 
   96850    92.118085   -1439.7801    74680.449   -17260.475    1245.5244   -18505.999    286.22807    235.27457 
   96900    94.579624   -1104.3645    74625.248   -17292.817    1278.8068   -18571.624    286.19111    241.56147 
   96950    95.812002   -830.36208    74589.081   -17296.467    1295.4697   -18591.937    286.86489    244.70903 
   97000    94.955792   -914.32505    74523.853   -17292.211    1283.8929   -18576.104     286.7061    242.52223 
   97050     92.61929   -1019.8804    74541.573   -17266.343    1252.3012   -18518.644    286.79492    236.55467 
   97100    93.224272   -1189.3841    74529.616   -17243.558    1260.4811   -18504.039    286.90504    238.09983 
   97150    92.587915   -980.99517    74502.222   -17257.388     1251.877   -18509.265    287.24307    236.47454 
   97200    95.402485   -1310.6896    74397.338   -17266.121    1289.9327   -18556.054    287.50117     243.6631 
   97250    93.885247   -1079.1503     74350.57   -17263.771    1269.4181   -18533.189    287.55154    239.78799 
   97300    93.534262   -859.22611    74391.868     -17264.1    1264.6725   -18528.773    287.35147    238.89156 
   97350    93.427341    -1081.195    74450.765   -17262.735    1263.2268   -18525.962    288.41272    238.61848 
   97400    94.661246   -658.12776    74405.024   -17258.711    1279.9104   -18538.621    289.01205    241.76994 
   97450    91.048233   -869.52608    74410.881    -17278.01     1231.059   -18509.069    289.53333    232.54211 
   97500    93.037593   -1040.1825     74446.65   -17255.005    1257.9571   -18512.962    289.65519    237.62304 
   97550     93.99793   -788.37609    74474.831   -17198.105    1270.9417   -18469.046    289.98324    240.07579 
   97600    94.326998   -938.19006    74505.665    -17222.24     1275.391   -18497.631    289.43995    240.91625 
   97650    94.231661   -946.88598    74521.929   -17218.847     1274.102   -18492.949    289.85664    240.67276 
   97700    94.234048   -947.24286      74588.3   -17202.751    1274.1343   -18476.885    290.63584    240.67885 
   97750    92.315807   -754.96834    74696.188   -17236.072    1248.1978   -18484.269    290.54278    235.77956 
   97800    93.245931    -905.9541     74726.09   -17209.786     1260.774    -18470.56    291.33915    238.15515 
   97850    96.806316   -998.32329    74711.237   -17250.508    1308.9138   -18559.421     291.4231    247.24856 
   97900    91.344068    -1074.789     74674.91   -17255.227     1235.059   -18490.286    290.78573    233.29769 
   97950    92.900434   -1177.4435    74656.267   -17266.126    1256.1025   -18522.229    290.96473    237.27273 
   98000    94.053148   -1126.0768    74599.576   -17289.104    1271.6883   -18560.792    290.38038    240.21682 
   98050    92.927866   -1228.0313    74566.747   -17255.964    1256.4734   -18512.437    290.47492    237.34279 
   98100    94.539228   -1186.2678    74481.926   -17231.862    1278.2606   -18510.123     290.3807     241.4583 
   98150    91.811215   -1088.0165     74439.78   -17224.471    1241.3753   -18465.846    290.61608    234.49081 
   98200    94.180867   -1012.0496    74434.783   -17231.781    1273.4152   -18505.197    291.08356    240.54303 
   98250    95.114944   -1063.5996    74475.742   -17194.051    1286.0448   -18480.095    291.26862    242.92871 
   98300    94.685203   -1141.6064    74476.652   -17168.231    1280.2343   -18448.465     291.7461    241.83113 
   98350    94.076869   -1008.8965    74485.512   -17199.461     1272.009   -18471.471    291.78154    240.27741 
   98400    93.716268   -993.89087    74491.534   -17253.412    1267.1334   -18520.546    292.17917    239.35641 
   98450     94.45301    -837.4528    74480.832   -17233.236    1277.0948   -18510.331    292.28564    241.23809 
   98500    93.278856   -1053.5878    74503.034   -17213.805    1261.2192   -18475.025    293.56118    238.23924 
   98550    97.497229   -605.27583    74526.811   -17198.017    1318.2556   -18516.273    292.99134    249.01319 
   98600    95.377657   -732.21703    74579.998   -17195.726     1289.597   -18485.323    292.85458    243.59969 
   98650    95.531416   -1027.9606    74600.826   -17157.393    1291.6759   -18449.069    292.85665     243.9924 
   98700    91.693987   -1154.0902    74611.128   -17190.432    1239.7902   -18430.223    292.80381     234.1914 
   98750    95.442803   -1221.9675    74576.271   -17186.559    1290.4778   -18477.037     292.8713    243.76608 
   98800    93.114075   -891.84029    74493.572   -17188.261    1258.9912   -18447.253    292.50554    237.81838 
   98850    97.392713   -1140.6008    74497.489    -17157.05    1316.8424   -18473.892    292.77963    248.74625 
   98900    96.423071   -1080.9561     74489.82   -17161.372    1303.7319   -18465.104    292.85904    246.26974 
   98950    90.796079   -1036.0087    74464.926   -17172.176    1227.6496   -18399.826    292.73568    231.89809 
   99000     95.94334   -857.77183     74456.98   -17202.438    1297.2455   -18499.684    293.01604    245.04448 
   99050     93.48989   -675.84526    74508.744   -17205.843    1264.0725   -18469.915    292.97963    238.77823 
   99100    94.543779   -893.33208    74564.529   -17194.506    1278.3221   -18472.828    292.65921    241.46992 
   99150    93.425181   -813.93729    74620.226   -17194.658    1263.1976   -18457.855    292.69465    238.61296 
   99200    93.452043   -1162.9295    74595.227   -17246.184    1263.5608   -18509.745    292.39363    238.68157 
   99250    92.593698   -1095.0837    74516.756   -17234.199    1251.9552   -18486.155    293.26122    236.48931 
   99300    92.727267   -747.65698    74506.348   -17229.339    1253.7611   -18483.101    294.11609    236.83045 
   99350    94.550625   -1067.2373    74460.035   -17252.235    1278.4147    -18530.65     294.6753    241.48741 
   99400     90.99241   -1107.4484      74394.4   -17247.737    1230.3042   -18478.041      295.048    232.39953 
   99450    90.256809   -886.12475    74421.427   -17253.172    1220.3582    -18473.53    294.90079    230.52077 
   99500    94.186235   -1110.0297    74395.506   -17253.613    1273.4878     -18527.1    294.96795    240.55674 
   99550    94.466748   -885.23464    74382.871   -17223.622    1277.2806   -18500.902    294.37865    241.27318 
   99600     95.24171    -1115.218    74370.126   -17235.608    1287.7588   -18523.367    295.12528    243.25247 
   99650     92.36422   -709.25382    74404.278   -17254.185    1248.8524   -18503.037    295.12524    235.90321 
   99700     90.86302   -1039.5915    74404.518   -17255.379    1228.5548   -18483.934    295.13246    232.06906 
   99750    92.839035   -664.97712    74427.655   -17211.216    1255.2724   -18466.489    294.88924    237.11591 
   99800    96.107791   -976.24039    74483.181   -17244.621    1299.4691    -18544.09    295.28459    245.46449 
   99850    92.317307   -469.05699    74511.927   -17270.702    1248.2181    -18518.92    295.11999    235.78339 
   99900    94.634141    -1024.433     74445.71   -17252.454    1279.5439   -18531.998    295.48424    241.70071 
   99950    96.346381   -874.46059    74453.818   -17230.889     1302.695   -18533.584     295.1477    246.07387 
  100000    92.858081   -846.74479    74525.905   -17236.065    1255.5299   -18491.595    295.38061    237.16456 
Loop time of 67.5422 on 64 procs for 100000 steps with 4537 atoms

Performance: 639.600 ns/day, 0.038 hours/ns, 1480.555 timesteps/s
100.0% CPU use with 64 MPI tasks x no OpenMP threads

MPI task timing breakdown:
Section |  min time  |  avg time  |  max time  |%varavg| %total
---------------------------------------------------------------
Pair    | 9.2192     | 30.249     | 44.516     | 250.4 | 44.79
Neigh   | 0.49675    | 1.423      | 4.039      | 113.0 |  2.11
Comm    | 14.863     | 28.095     | 48.868     | 256.1 | 41.60
Output  | 0.1275     | 0.13278    | 0.14368    |   0.5 |  0.20
Modify  | 4.628      | 6.8479     | 8.3595     |  50.7 | 10.14
Other   |            | 0.7943     |            |       |  1.18

Nlocal:    70.8906 ave 183 max 29 min
Histogram: 46 2 0 0 0 0 0 0 4 12
Nghost:    765.672 ave 1016 max 401 min
Histogram: 16 0 0 0 0 0 16 16 0 16
Neighs:    0 ave 0 max 0 min
Histogram: 64 0 0 0 0 0 0 0 0 0
FullNghs:  7125.56 ave 23712 max 1219 min
Histogram: 48 0 0 0 0 0 0 0 2 14

Total # of neighbors = 456036
Ave neighs/atom = 100.515
Neighbor list builds = 5639
Dangerous builds = 0

write_data		${DIR}/data.eq-${NAME}-${TEMP}
write_data		run_9/data.eq-${NAME}-${TEMP}
write_data		run_9/data.eq-het_freeze_9-${TEMP}
write_data		run_9/data.eq-het_freeze_9-240
undump          1

reset_timestep  0

unfix           2
unfix           3
unfix           4


################################################
#######         Run Simulation         #########
################################################

log				${DIR}/log.run_${NAME}
log				run_9/log.run_${NAME}
log				run_9/log.run_het_freeze_9
