LAMMPS data file via write_data, version 16 Mar 2018, timestep = 100000

6489 atoms
2 atom types

0.0000000000000000e+00 4.9219999999999999e+01 xlo xhi
0.0000000000000000e+00 4.9019635930410494e+01 ylo yhi
1.9951200352232128e+00 5.8066879964777215e+01 zlo zhi

Masses

1 18.015
2 12.01

Atoms # atomic

313 1 2.0304771383099780e+00 2.6262054879235244e+00 7.2156299428564088e+00 2 -1 0
3661 1 6.3158557569002136e+00 7.3341384602843829e-01 2.0370101094390130e+00 1 -1 0
2921 1 4.4723924452410317e+00 2.8109326872790907e+00 2.7579907205066405e+00 -1 0 1
3578 1 8.3519368490692667e+00 3.7191560267848395e-01 4.5020844760560879e+00 1 0 0
6160 1 1.0784501032250059e+01 1.6078329546794121e+00 3.3611303491953874e+00 1 0 1
2000 1 1.1461701622115463e+01 4.1898905021108961e+00 2.8907709181769574e+00 0 1 0
1266 1 8.2596393654808775e+00 1.3739112536215652e+00 7.0599362806120229e+00 0 0 1
5341 1 3.4067807321322978e+00 7.0427902444917310e+00 3.2174252180662934e+00 0 0 0
3056 1 1.0791926262699212e+01 1.1456850204325567e+01 7.0376859495454287e+00 0 0 1
5169 1 7.1539283089109444e+00 6.9094436186812276e+00 5.5722622664054970e+00 -1 0 0
3280 1 1.0564670777580233e+01 9.0700605791865172e+00 2.8639499506325166e+00 0 0 1
6137 1 8.1250161443958042e+00 1.0104403229395727e+01 3.3508017681050122e+00 1 1 1
3428 1 1.0552768596863389e+01 7.1242292180712132e+00 8.8537703390329199e+00 1 -1 0
1465 1 7.3715489086708068e+00 9.5766379959357888e+00 5.9822309190845182e+00 0 0 1
2897 1 1.1041862607343498e+01 7.2255808731805402e+00 4.8267025317126659e+00 1 1 1
1355 1 2.6936206544788949e-01 3.6024358561002212e+00 5.3294122174968397e+00 0 1 0
1753 1 6.1911211116721967e+00 6.8865827507388069e+00 2.7804655054603398e+00 -1 -1 0
4665 1 7.1499390898616779e+00 3.2761712288863896e+00 4.6309117802570388e+00 1 0 1
1576 1 2.7403345846649030e-01 5.7951912673250332e+00 3.4123683024477280e+00 0 1 0
4914 1 9.9352603665263555e+00 8.8642685611208343e+00 6.8496792323082856e+00 0 0 1
4775 1 4.0768486812702980e+00 6.3698793306508295e+00 5.9439856129001178e+00 1 1 1
3284 1 4.3480285165001051e+00 3.5419425725586260e+00 5.7625024557394742e+00 0 1 1
5017 1 5.3041133338641062e+00 2.0971905270360836e+00 8.0133631778820504e+00 0 0 0
3306 1 1.9767322185863849e+00 7.3232097366274349e+00 7.6572813055069151e+00 -1 0 0
1399 1 9.5521011350614522e+00 4.6232067059541047e+00 5.1864577940070014e+00 0 2 1
4892 1 9.6748737275921961e+00 4.6904329473251085e+00 7.9470929723400179e+00 1 1 0
5178 1 1.6857792951854655e+00 9.7515822581054472e+00 5.9859217785503542e+00 1 1 0
1943 1 6.0365449308031023e+00 6.4092357591446838e+00 8.2720954031775698e+00 0 0 0
417 1 2.4129154139384998e+00 9.5932129396799013e+00 3.1621042661539995e+00 1 1 0
3804 1 6.0925987531063708e+00 9.0648902846084933e+00 8.7191540699525198e+00 0 0 0
3133 1 3.0446551760203606e+00 1.1693699903605550e+01 7.5513302268639508e+00 1 0 1
2988 1 3.5504859836041636e+00 1.2067077388329869e+01 3.7230319253222897e+00 0 -1 0
5038 1 3.1540393233613910e+00 2.4783918143636224e-01 3.4591434156828376e+00 -1 0 1
3469 1 2.5815675562029128e-02 3.3785843290467227e-01 4.6062520406921044e+00 2 0 1
4761 1 5.4760662625380299e+00 1.2064197599299064e+01 5.8509650195218672e+00 1 0 0
2050 1 6.7066787793215763e+00 3.2518450855907290e+00 1.1587178506752940e+01 0 1 0
63 1 1.2213835137433806e+01 1.1654703286158382e+01 1.1084143881715072e+01 1 0 1
5140 1 4.1417898352687663e+00 7.3660271995525131e+00 1.2670340553322710e+01 1 0 0
202 1 1.2134005737768206e+01 4.6357874606386460e+00 1.5580062219498872e+01 0 1 0
1686 1 1.1135872741628674e+01 3.1920485970709920e+00 9.8010150968736021e+00 0 2 1
2116 1 2.3874218403655698e+00 1.2253342189526572e+01 1.5262242751576093e+01 1 0 1
5004 1 3.7330969372446714e+00 3.0624155907463582e+00 1.0106021262746989e+01 1 0 1
392 1 3.5806588056991835e+00 6.0957316416977569e+00 9.9243862231957145e+00 1 1 0
5010 1 1.0564208296897158e+01 3.6643437280617841e-01 9.5887199830463388e+00 0 0 1
4692 1 8.2371793807864595e+00 5.9911439198640721e+00 1.2093936052370630e+01 0 1 1
4737 1 8.1021358733800692e+00 7.6396672612058469e-01 1.1814331006801968e+01 1 2 1
5080 1 7.9347011187895200e+00 1.0468450722417328e+01 1.0396021185628049e+01 0 1 0
1559 1 7.2746017725214660e+00 3.9884567059217360e+00 9.0291020650971134e+00 0 1 1
465 1 6.2454912655961725e-01 2.4509555888394052e+00 1.5648134527127008e+01 0 -1 0
2001 1 9.8147026849921186e+00 8.3364127965458170e+00 1.1189978755094517e+01 1 0 0
397 1 6.4684519600043955e-01 4.9279923809075150e+00 9.9889012931243890e+00 1 1 0
6476 1 8.0804032978389628e+00 1.1627612591978076e+01 1.2915187777981025e+01 0 0 1
1796 1 3.4729506803126204e+00 9.8309326667546628e+00 1.2086082614076627e+01 2 0 0
1385 1 9.3416002406748397e+00 5.3144193838816101e+00 1.5143838747532532e+01 1 0 1
134 1 3.9677203412175208e+00 2.6623204982283832e+00 1.2882971375310607e+01 1 0 1
5185 1 9.6070201275085942e+00 1.0090036662642220e+01 1.4785353722556572e+01 1 0 1
355 1 9.4988590860080180e+00 2.2523806666454056e+00 1.4036057491206249e+01 0 0 0
171 1 7.0010906992445354e-01 9.8855540117558061e+00 1.2338767907317727e+01 0 0 1
6267 1 1.5264150118521340e+00 3.8785961689338442e+00 1.3594966471772667e+01 0 0 1
153 1 2.2528898826662278e+00 6.3786048513807723e+00 1.4578761206049808e+01 1 0 1
2983 1 5.5441128106303719e+00 4.1131662204002284e+00 1.4988392919616567e+01 0 1 1
3097 1 6.4816716409027171e+00 6.6337130416007044e+00 1.4073238224174359e+01 1 -1 1
408 1 1.0262011479712010e+01 4.3265878322151989e+00 1.2215824753417749e+01 0 2 0
453 1 6.6210919921026008e+00 1.0710066769157535e+01 1.5524127821980187e+01 0 0 0
2122 1 4.6633999045684273e+00 1.1652511586287227e+01 1.3584374154576972e+01 0 0 1
1391 1 1.1759374474514603e+01 9.7059224997148572e+00 1.2903913827672630e+01 -1 1 1
2913 1 5.5805943143232666e-02 8.1697061411656158e+00 1.4471388827518849e+01 1 1 1
5317 1 7.7249991003706109e-01 2.3273820372280865e+00 9.6019092611348213e+00 0 1 0
3412 1 1.1912470614496073e+01 1.9629276292357398e+00 1.5308572826889710e+01 0 1 0
547 1 3.4450618153165733e+00 9.4940764382024980e+00 9.2855372287267066e+00 0 1 1
432 1 6.0629649256039508e+00 1.6284927647296048e+00 1.9158497070135404e+01 1 0 0
388 1 8.0245676859893802e+00 3.2012960207210304e+00 1.6363558709613649e+01 1 -1 0
3522 1 8.1852786369124928e+00 4.9285322230186962e-01 2.1220830054737032e+01 1 0 0
191 1 4.8950152159749312e+00 5.8824578566022367e+00 2.0277722051509020e+01 1 0 0
1681 1 4.4429539829019342e+00 3.9302190769341503e+00 1.7846180135249483e+01 0 0 0
5222 1 9.9311017963182746e-01 6.0837600412898496e+00 1.8133926018742073e+01 0 0 0
1887 1 9.5965209378305243e+00 7.0307825478278314e+00 1.8798787115820669e+01 0 1 0
4927 1 5.8022940429615177e+00 7.4701394159339953e+00 2.2532690376990324e+01 0 0 1
109 1 1.7303039763690831e+00 9.7320647652240222e+00 1.6594778154070728e+01 1 2 1
518 1 3.5119435375151933e+00 6.5646316962890223e+00 1.6870119935071642e+01 2 0 1
3458 1 8.5160736347283166e+00 1.1450849017051523e+01 2.1215816957370066e+01 0 0 0
2036 1 2.5304722170408303e+00 1.1049627024642376e+01 1.9035146995996882e+01 0 0 0
4554 1 6.1338516308021731e+00 1.0244145968102266e+01 2.2064466320297910e+01 0 0 0
5014 1 2.2238068905841373e+00 9.6040327473981986e+00 2.1516935312012155e+01 0 0 0
5068 1 5.6150580194363737e+00 1.0935101313720590e+01 1.9248473961864541e+01 1 -1 0
3048 1 1.2118726627622260e+01 9.9902968806267669e+00 2.1400594280745544e+01 1 1 1
3106 1 9.9413139839550873e+00 9.9753548772905560e+00 1.9410566150424685e+01 1 -1 1
3667 1 1.0823117720358701e+01 1.1146172107834259e+01 1.7088533320317783e+01 0 0 0
3094 1 3.8639435534900821e+00 4.3579951611467749e-01 2.0988083249221500e+01 0 0 1
3604 1 1.8014223391289446e+00 3.3194127103334363e+00 1.8240925333831754e+01 1 0 0
3557 1 7.3691312623349878e+00 3.4368201490040633e+00 2.1460776072639234e+01 1 0 0
1480 1 6.5834424927441511e+00 7.8879094826180287e+00 1.9282173351013203e+01 1 0 1
1833 1 1.1894558580973024e+01 2.3177933838753644e+00 2.1552381103540707e+01 0 0 0
4852 1 4.8548271638396496e+00 9.1337299568365697e+00 1.7127201954223374e+01 1 0 0
3694 1 2.1105347865207995e+00 6.9294689881191447e+00 2.0554602289937854e+01 1 0 0
551 1 3.9457315399137816e+00 3.3452021312345286e+00 2.1509502374375092e+01 0 0 1
443 1 7.5253491735511941e+00 4.6878366566966605e+00 1.8924225653737913e+01 1 0 0
4917 1 9.6530682169616036e+00 5.7655541376798070e+00 2.1303932256484462e+01 1 0 1
2039 1 1.2878231449969249e+00 3.9834011512649541e+00 2.1150468888815389e+01 1 1 0
71 1 9.8395598854399378e+00 9.3348563752797675e-01 1.7248081351173781e+01 0 0 0
3151 1 1.7312857977988010e+00 1.5924705645138237e-01 1.8172016158552669e+01 0 0 1
1441 1 8.1207439461726878e+00 7.7856994209149812e+00 1.6271422109710727e+01 0 0 1
1774 1 1.0633790203888013e+01 4.7837979464939340e-01 1.9968497321823996e+01 0 0 1
2966 1 1.0075820048038300e+00 2.7571564612799007e+00 2.4275347881142725e+01 -1 1 1
6416 1 5.9481882237232426e+00 2.1574034074299866e+00 2.4175549036529368e+01 1 1 0
2936 1 3.9074553996271022e+00 7.0168735158087010e+00 2.4408780511000675e+01 0 0 0
5136 1 1.0887980044052624e+01 2.3835328587537292e+00 2.4336652769406317e+01 1 0 0
793 2 1.1074500000000002e+01 1.0656442593567498e+01 2.6873259978764143e+01 0 0 0
3470 1 8.2794914386386225e+00 6.6219110433959303e+00 2.3504043542635930e+01 1 -1 0
5232 1 1.0124431262473406e+01 8.6150820352527724e+00 2.4360177597784741e+01 1 -1 0
5327 1 1.2182614029125075e+01 1.2020913357679476e+01 2.3786897665146046e+01 1 -1 0
752 2 1.1074500000000002e+01 9.2355835810918343e+00 2.6873259978764143e+01 0 0 0
746 2 8.6134999999999984e+00 1.0656442593567498e+01 2.6873259978764143e+01 0 0 0
705 2 8.6134999999999984e+00 9.2355835810918343e+00 2.6873259978764143e+01 0 0 0
4650 1 8.3139496456503625e+00 3.8652062377042711e+00 2.4147171995033098e+01 0 0 1
1964 1 1.3272719371187218e+00 6.9521490555777934e+00 2.3550099671248887e+01 0 0 0
1767 1 1.3877512048589162e+00 1.1170260635702752e+01 2.4175546596822162e+01 0 0 1
1998 1 3.8072838096358534e+00 9.8627295979022218e+00 2.4057841152948509e+01 1 0 0
4729 1 9.2328535287183051e+00 1.1118301339084230e+01 2.3774776627777310e+01 0 1 0
572 2 0.0000000000000000e+00 2.8417180249513345e+00 2.6873259978764143e+01 0 0 0
574 2 0.0000000000000000e+00 0.0000000000000000e+00 2.6873259978764143e+01 0 0 0
576 2 1.2305000000000001e+00 7.1042950623783474e-01 2.6873259978764143e+01 0 0 0
583 2 1.2305000000000001e+00 2.1312885187134998e+00 2.6873259978764143e+01 0 0 0
585 2 2.4610000000000003e+00 2.8417180249513345e+00 2.6873259978764143e+01 0 0 0
587 2 2.4610000000000003e+00 0.0000000000000000e+00 2.6873259978764143e+01 0 0 0
589 2 3.6915000000000004e+00 7.1042950623783474e-01 2.6873259978764143e+01 0 0 0
604 2 3.6914999999999996e+00 2.1312885187134998e+00 2.6873259978764143e+01 0 0 0
606 2 4.9220000000000006e+00 2.8417180249513332e+00 2.6873259978764143e+01 0 0 0
608 2 4.9220000000000006e+00 0.0000000000000000e+00 2.6873259978764143e+01 0 0 0
610 2 6.1524999999999999e+00 7.1042950623783407e-01 2.6873259978764143e+01 0 0 0
633 2 6.1524999999999999e+00 2.1312885187134989e+00 2.6873259978764143e+01 0 0 0
635 2 7.3829999999999991e+00 2.8417180249513345e+00 2.6873259978764143e+01 0 0 0
637 2 7.3829999999999991e+00 0.0000000000000000e+00 2.6873259978764143e+01 0 0 0
639 2 8.6134999999999984e+00 7.1042950623783407e-01 2.6873259978764143e+01 0 0 0
670 2 8.6134999999999984e+00 2.1312885187135002e+00 2.6873259978764143e+01 0 0 0
672 2 9.8440000000000012e+00 2.8417180249513332e+00 2.6873259978764143e+01 0 0 0
674 2 9.8440000000000012e+00 0.0000000000000000e+00 2.6873259978764143e+01 0 0 0
676 2 1.1074500000000002e+01 7.1042950623783330e-01 2.6873259978764143e+01 0 0 0
715 2 1.1074500000000002e+01 2.1312885187135002e+00 2.6873259978764143e+01 0 0 0
579 2 0.0000000000000000e+00 4.2625770374269996e+00 2.6873259978764143e+01 0 0 0
581 2 1.2305000000000001e+00 4.9730065436648339e+00 2.6873259978764143e+01 0 0 0
596 2 1.2305000000000001e+00 6.3938655561404980e+00 2.6873259978764143e+01 0 0 0
600 2 2.4610000000000003e+00 4.2625770374269996e+00 2.6873259978764143e+01 0 0 0
602 2 3.6914999999999996e+00 4.9730065436648339e+00 2.6873259978764143e+01 0 0 0
625 2 3.6914999999999996e+00 6.3938655561404980e+00 2.6873259978764143e+01 0 0 0
577 2 0.0000000000000000e+00 7.1042950623783341e+00 2.6873259978764143e+01 0 0 0
598 2 2.4610000000000003e+00 7.1042950623783341e+00 2.6873259978764143e+01 0 0 0
629 2 4.9220000000000006e+00 4.2625770374269978e+00 2.6873259978764143e+01 0 0 0
631 2 6.1524999999999999e+00 4.9730065436648339e+00 2.6873259978764143e+01 0 0 0
662 2 6.1524999999999999e+00 6.3938655561404980e+00 2.6873259978764143e+01 0 0 0
666 2 7.3829999999999991e+00 4.2625770374269996e+00 2.6873259978764143e+01 0 0 0
627 2 4.9220000000000006e+00 7.1042950623783341e+00 2.6873259978764143e+01 0 0 0
664 2 7.3830000000000009e+00 7.1042950623783341e+00 2.6873259978764143e+01 0 0 0
668 2 8.6135000000000002e+00 4.9730065436648339e+00 2.6873259978764143e+01 0 0 0
707 2 8.6135000000000002e+00 6.3938655561404980e+00 2.6873259978764143e+01 0 0 0
711 2 9.8440000000000012e+00 4.2625770374270004e+00 2.6873259978764143e+01 0 0 0
713 2 1.1074500000000002e+01 4.9730065436648339e+00 2.6873259978764143e+01 0 0 0
754 2 1.1074500000000002e+01 6.3938655561404980e+00 2.6873259978764143e+01 0 0 0
709 2 9.8440000000000012e+00 7.1042950623783341e+00 2.6873259978764143e+01 0 0 0
592 2 0.0000000000000000e+00 8.5251540748539991e+00 2.6873259978764143e+01 0 0 0
594 2 1.2305000000000001e+00 9.2355835810918343e+00 2.6873259978764143e+01 0 0 0
621 2 2.4610000000000003e+00 8.5251540748539991e+00 2.6873259978764143e+01 0 0 0
623 2 3.6915000000000004e+00 9.2355835810918343e+00 2.6873259978764143e+01 0 0 0
590 2 0.0000000000000000e+00 1.1366872099805333e+01 2.6873259978764143e+01 0 0 0
617 2 1.2305000000000001e+00 1.0656442593567498e+01 2.6873259978764143e+01 0 0 0
619 2 2.4610000000000003e+00 1.1366872099805333e+01 2.6873259978764143e+01 0 0 0
654 2 3.6914999999999996e+00 1.0656442593567499e+01 2.6873259978764143e+01 0 0 0
658 2 4.9220000000000006e+00 8.5251540748539991e+00 2.6873259978764143e+01 0 0 0
660 2 6.1524999999999999e+00 9.2355835810918343e+00 2.6873259978764143e+01 0 0 0
703 2 7.3830000000000009e+00 8.5251540748539991e+00 2.6873259978764143e+01 0 0 0
656 2 4.9220000000000006e+00 1.1366872099805333e+01 2.6873259978764143e+01 0 0 0
699 2 6.1524999999999999e+00 1.0656442593567499e+01 2.6873259978764143e+01 0 0 0
701 2 7.3829999999999991e+00 1.1366872099805333e+01 2.6873259978764143e+01 0 0 0
748 2 9.8440000000000012e+00 1.1366872099805333e+01 2.6873259978764143e+01 0 0 0
750 2 9.8440000000000012e+00 8.5251540748539956e+00 2.6873259978764143e+01 0 0 0
795 2 1.2304999999999998e+01 1.1366872099805333e+01 2.6873259978764143e+01 0 0 0
2063 1 3.7920953341342805e+00 3.9304489260276463e+00 2.4244141744150028e+01 1 0 0
4987 1 8.4466972926745587e+00 4.2119588030717662e-03 2.4088652729984798e+01 0 0 1
2025 1 3.5701076070203053e+00 1.0764186595720472e-01 2.3783011090942743e+01 0 1 0
1660 1 6.1439288292564580e+00 1.1896603558630392e+01 2.4249073070922808e+01 1 0 0
573 2 0.0000000000000000e+00 1.4208590124756650e+00 3.0031000000000528e+01 0 0 0
575 2 0.0000000000000000e+00 0.0000000000000000e+00 3.0031000000000528e+01 0 0 0
584 2 1.2305000000000001e+00 2.1312885187134998e+00 3.0031000000000528e+01 0 0 0
586 2 2.4610000000000003e+00 1.4208590124756650e+00 3.0031000000000528e+01 0 0 0
588 2 2.4610000000000003e+00 0.0000000000000000e+00 3.0031000000000528e+01 0 0 0
605 2 3.6914999999999996e+00 2.1312885187134998e+00 3.0031000000000528e+01 0 0 0
582 2 1.2305000000000001e+00 3.5521475311891644e+00 3.0031000000000528e+01 0 0 0
603 2 3.6914999999999996e+00 3.5521475311891644e+00 3.0031000000000528e+01 0 0 0
901 2 0.0000000000000000e+00 2.8417180249513345e+00 3.3188740021237734e+01 0 0 0
902 2 0.0000000000000000e+00 0.0000000000000000e+00 3.3188740021237734e+01 0 0 0
903 2 1.2305000000000001e+00 7.1042950623783474e-01 3.3188740021237734e+01 0 0 0
907 2 1.2305000000000001e+00 2.1312885187134998e+00 3.3188740021237734e+01 0 0 0
908 2 2.4610000000000003e+00 2.8417180249513345e+00 3.3188740021237734e+01 0 0 0
909 2 2.4610000000000003e+00 0.0000000000000000e+00 3.3188740021237734e+01 0 0 0
910 2 3.6915000000000004e+00 7.1042950623783474e-01 3.3188740021237734e+01 0 0 0
918 2 3.6914999999999996e+00 2.1312885187134998e+00 3.3188740021237734e+01 0 0 0
607 2 4.9220000000000006e+00 1.4208590124756650e+00 3.0031000000000528e+01 0 0 0
609 2 4.9220000000000006e+00 0.0000000000000000e+00 3.0031000000000528e+01 0 0 0
634 2 6.1524999999999999e+00 2.1312885187134989e+00 3.0031000000000528e+01 0 0 0
636 2 7.3829999999999991e+00 1.4208590124756659e+00 3.0031000000000528e+01 0 0 0
638 2 7.3829999999999991e+00 0.0000000000000000e+00 3.0031000000000528e+01 0 0 0
632 2 6.1524999999999999e+00 3.5521475311891644e+00 3.0031000000000528e+01 0 0 0
919 2 4.9220000000000006e+00 2.8417180249513332e+00 3.3188740021237734e+01 0 0 0
920 2 4.9220000000000006e+00 0.0000000000000000e+00 3.3188740021237734e+01 0 0 0
921 2 6.1524999999999999e+00 7.1042950623783407e-01 3.3188740021237734e+01 0 0 0
933 2 6.1524999999999999e+00 2.1312885187134989e+00 3.3188740021237734e+01 0 0 0
934 2 7.3829999999999991e+00 2.8417180249513345e+00 3.3188740021237734e+01 0 0 0
935 2 7.3829999999999991e+00 0.0000000000000000e+00 3.3188740021237734e+01 0 0 0
671 2 8.6134999999999984e+00 2.1312885187135002e+00 3.0031000000000528e+01 0 0 0
673 2 9.8440000000000012e+00 1.4208590124756659e+00 3.0031000000000528e+01 0 0 0
675 2 9.8440000000000012e+00 0.0000000000000000e+00 3.0031000000000528e+01 0 0 0
716 2 1.1074500000000002e+01 2.1312885187135002e+00 3.0031000000000528e+01 0 0 0
669 2 8.6134999999999984e+00 3.5521475311891657e+00 3.0031000000000528e+01 0 0 0
714 2 1.1074500000000002e+01 3.5521475311891644e+00 3.0031000000000528e+01 0 0 0
936 2 8.6134999999999984e+00 7.1042950623783407e-01 3.3188740021237734e+01 0 0 0
952 2 8.6134999999999984e+00 2.1312885187135002e+00 3.3188740021237734e+01 0 0 0
953 2 9.8440000000000012e+00 2.8417180249513332e+00 3.3188740021237734e+01 0 0 0
954 2 9.8440000000000012e+00 0.0000000000000000e+00 3.3188740021237734e+01 0 0 0
955 2 1.1074500000000002e+01 7.1042950623783330e-01 3.3188740021237734e+01 0 0 0
975 2 1.1074500000000002e+01 2.1312885187135002e+00 3.3188740021237734e+01 0 0 0
578 2 0.0000000000000000e+00 5.6834360499026637e+00 3.0031000000000528e+01 0 0 0
580 2 0.0000000000000000e+00 4.2625770374269996e+00 3.0031000000000528e+01 0 0 0
597 2 1.2305000000000001e+00 6.3938655561404980e+00 3.0031000000000528e+01 0 0 0
599 2 2.4610000000000003e+00 5.6834360499026637e+00 3.0031000000000528e+01 0 0 0
601 2 2.4610000000000003e+00 4.2625770374269996e+00 3.0031000000000528e+01 0 0 0
626 2 3.6914999999999996e+00 6.3938655561404980e+00 3.0031000000000528e+01 0 0 0
595 2 1.2305000000000001e+00 7.8147245686161639e+00 3.0031000000000528e+01 0 0 0
624 2 3.6914999999999996e+00 7.8147245686161639e+00 3.0031000000000528e+01 0 0 0
905 2 0.0000000000000000e+00 4.2625770374269996e+00 3.3188740021237734e+01 0 0 0
906 2 1.2305000000000001e+00 4.9730065436648339e+00 3.3188740021237734e+01 0 0 0
914 2 1.2305000000000001e+00 6.3938655561404980e+00 3.3188740021237734e+01 0 0 0
916 2 2.4610000000000003e+00 4.2625770374269996e+00 3.3188740021237734e+01 0 0 0
917 2 3.6914999999999996e+00 4.9730065436648339e+00 3.3188740021237734e+01 0 0 0
929 2 3.6914999999999996e+00 6.3938655561404980e+00 3.3188740021237734e+01 0 0 0
904 2 0.0000000000000000e+00 7.1042950623783341e+00 3.3188740021237734e+01 0 0 0
915 2 2.4610000000000003e+00 7.1042950623783341e+00 3.3188740021237734e+01 0 0 0
628 2 4.9220000000000006e+00 5.6834360499026637e+00 3.0031000000000528e+01 0 0 0
630 2 4.9220000000000006e+00 4.2625770374269978e+00 3.0031000000000528e+01 0 0 0
663 2 6.1524999999999999e+00 6.3938655561404980e+00 3.0031000000000528e+01 0 0 0
665 2 7.3829999999999991e+00 5.6834360499026637e+00 3.0031000000000528e+01 0 0 0
667 2 7.3829999999999991e+00 4.2625770374269996e+00 3.0031000000000528e+01 0 0 0
661 2 6.1524999999999999e+00 7.8147245686161639e+00 3.0031000000000528e+01 0 0 0
931 2 4.9220000000000006e+00 4.2625770374269978e+00 3.3188740021237734e+01 0 0 0
932 2 6.1524999999999999e+00 4.9730065436648339e+00 3.3188740021237734e+01 0 0 0
948 2 6.1524999999999999e+00 6.3938655561404980e+00 3.3188740021237734e+01 0 0 0
950 2 7.3829999999999991e+00 4.2625770374269996e+00 3.3188740021237734e+01 0 0 0
930 2 4.9220000000000006e+00 7.1042950623783341e+00 3.3188740021237734e+01 0 0 0
949 2 7.3830000000000009e+00 7.1042950623783341e+00 3.3188740021237734e+01 0 0 0
708 2 8.6135000000000002e+00 6.3938655561404980e+00 3.0031000000000528e+01 0 0 0
710 2 9.8440000000000012e+00 5.6834360499026637e+00 3.0031000000000528e+01 0 0 0
712 2 9.8440000000000012e+00 4.2625770374270004e+00 3.0031000000000528e+01 0 0 0
755 2 1.1074500000000002e+01 6.3938655561404980e+00 3.0031000000000528e+01 0 0 0
706 2 8.6135000000000002e+00 7.8147245686161639e+00 3.0031000000000528e+01 0 0 0
753 2 1.1074500000000002e+01 7.8147245686161639e+00 3.0031000000000528e+01 0 0 0
951 2 8.6135000000000002e+00 4.9730065436648339e+00 3.3188740021237734e+01 0 0 0
971 2 8.6135000000000002e+00 6.3938655561404980e+00 3.3188740021237734e+01 0 0 0
973 2 9.8440000000000012e+00 4.2625770374270004e+00 3.3188740021237734e+01 0 0 0
974 2 1.1074500000000002e+01 4.9730065436648339e+00 3.3188740021237734e+01 0 0 0
995 2 1.1074500000000002e+01 6.3938655561404980e+00 3.3188740021237734e+01 0 0 0
972 2 9.8440000000000012e+00 7.1042950623783341e+00 3.3188740021237734e+01 0 0 0
591 2 0.0000000000000000e+00 9.9460130873296642e+00 3.0031000000000528e+01 0 0 0
593 2 0.0000000000000000e+00 8.5251540748539991e+00 3.0031000000000528e+01 0 0 0
620 2 2.4610000000000003e+00 9.9460130873296642e+00 3.0031000000000528e+01 0 0 0
622 2 2.4610000000000003e+00 8.5251540748539991e+00 3.0031000000000528e+01 0 0 0
616 2 1.2305000000000001e+00 1.2077301606043163e+01 3.0031000000000528e+01 0 0 0
618 2 1.2305000000000001e+00 1.0656442593567498e+01 3.0031000000000528e+01 0 0 0
653 2 3.6914999999999996e+00 1.2077301606043163e+01 3.0031000000000528e+01 0 0 0
655 2 3.6914999999999996e+00 1.0656442593567499e+01 3.0031000000000528e+01 0 0 0
912 2 0.0000000000000000e+00 8.5251540748539991e+00 3.3188740021237734e+01 0 0 0
913 2 1.2305000000000001e+00 9.2355835810918343e+00 3.3188740021237734e+01 0 0 0
927 2 2.4610000000000003e+00 8.5251540748539991e+00 3.3188740021237734e+01 0 0 0
928 2 3.6915000000000004e+00 9.2355835810918343e+00 3.3188740021237734e+01 0 0 0
911 2 0.0000000000000000e+00 1.1366872099805333e+01 3.3188740021237734e+01 0 0 0
925 2 1.2305000000000001e+00 1.0656442593567498e+01 3.3188740021237734e+01 0 0 0
926 2 2.4610000000000003e+00 1.1366872099805333e+01 3.3188740021237734e+01 0 0 0
944 2 3.6914999999999996e+00 1.0656442593567499e+01 3.3188740021237734e+01 0 0 0
657 2 4.9220000000000006e+00 9.9460130873296642e+00 3.0031000000000528e+01 0 0 0
659 2 4.9220000000000006e+00 8.5251540748539991e+00 3.0031000000000528e+01 0 0 0
702 2 7.3830000000000009e+00 9.9460130873296642e+00 3.0031000000000528e+01 0 0 0
704 2 7.3830000000000009e+00 8.5251540748539991e+00 3.0031000000000528e+01 0 0 0
698 2 6.1524999999999999e+00 1.2077301606043163e+01 3.0031000000000528e+01 0 0 0
700 2 6.1524999999999999e+00 1.0656442593567499e+01 3.0031000000000528e+01 0 0 0
946 2 4.9220000000000006e+00 8.5251540748539991e+00 3.3188740021237734e+01 0 0 0
947 2 6.1524999999999999e+00 9.2355835810918343e+00 3.3188740021237734e+01 0 0 0
969 2 7.3830000000000009e+00 8.5251540748539991e+00 3.3188740021237734e+01 0 0 0
945 2 4.9220000000000006e+00 1.1366872099805333e+01 3.3188740021237734e+01 0 0 0
967 2 6.1524999999999999e+00 1.0656442593567499e+01 3.3188740021237734e+01 0 0 0
968 2 7.3829999999999991e+00 1.1366872099805333e+01 3.3188740021237734e+01 0 0 0
749 2 9.8440000000000012e+00 9.9460130873296642e+00 3.0031000000000528e+01 0 0 0
751 2 9.8440000000000012e+00 8.5251540748539956e+00 3.0031000000000528e+01 0 0 0
745 2 8.6135000000000002e+00 1.2077301606043163e+01 3.0031000000000528e+01 0 0 0
747 2 8.6134999999999984e+00 1.0656442593567498e+01 3.0031000000000528e+01 0 0 0
792 2 1.1074500000000002e+01 1.2077301606043163e+01 3.0031000000000528e+01 0 0 0
794 2 1.1074500000000002e+01 1.0656442593567498e+01 3.0031000000000528e+01 0 0 0
970 2 8.6134999999999984e+00 9.2355835810918343e+00 3.3188740021237734e+01 0 0 0
993 2 9.8440000000000012e+00 8.5251540748539956e+00 3.3188740021237734e+01 0 0 0
994 2 1.1074500000000002e+01 9.2355835810918343e+00 3.3188740021237734e+01 0 0 0
991 2 8.6134999999999984e+00 1.0656442593567498e+01 3.3188740021237734e+01 0 0 0
992 2 9.8440000000000012e+00 1.1366872099805333e+01 3.3188740021237734e+01 0 0 0
1015 2 1.1074500000000002e+01 1.0656442593567498e+01 3.3188740021237734e+01 0 0 0
1016 2 1.2304999999999998e+01 1.1366872099805333e+01 3.3188740021237734e+01 0 0 0
4527 1 4.2112757771671303e+00 2.9966863371187977e+00 3.5934565326859968e+01 0 1 0
1406 1 6.1763246045007314e+00 2.9099259792086135e-01 3.5463206200881089e+01 0 0 0
6256 1 7.2183594356064491e+00 3.3793563804986340e+00 3.5469603575424458e+01 1 0 -1
1552 1 1.0485442805991038e+01 3.0505814165966165e+00 3.5890963223233570e+01 0 0 0
5424 1 2.5770287967277787e+00 5.2791499995357762e+00 3.5385261939473963e+01 1 1 0
1873 1 3.8789504642063464e+00 7.3452318998417150e+00 3.6580487145359982e+01 0 1 -1
1861 1 6.6221680689071283e+00 6.3896042293395592e+00 3.6072677755533476e+01 2 1 -1
1287 1 3.9733596377763760e+00 1.1699478416043256e+01 3.6608604318762943e+01 1 0 0
3334 1 2.8154039541347173e+00 9.6920587448094437e+00 3.5689901370147012e+01 1 0 -1
2875 1 6.9344664716644475e+00 1.1195949079239540e+01 3.6440130504933364e+01 0 1 0
1543 1 1.2122475188932469e+00 6.3828805834226943e-01 3.5568672409273077e+01 0 0 -1
6166 1 1.0779225556792609e+01 8.1870078702913869e+00 3.6167610894312105e+01 0 0 0
2956 1 8.0306499518001413e+00 8.7642698897606568e+00 3.5805077449755231e+01 0 1 0
330 1 1.5509408526453616e-01 9.4898110840893164e+00 3.6050890459368247e+01 1 0 -1
6460 1 1.1735890552053419e+01 5.3762469448863719e+00 3.6649661772384320e+01 1 0 -1
487 1 1.2015339662713043e+01 1.0818642787837886e+01 3.6191226213931458e+01 0 1 0
3063 1 1.1604807353807356e+00 2.2673977751496741e+00 3.8336556839438401e+01 0 1 -1
6117 1 3.6105513550706847e-01 9.6025357666400648e+00 3.8756100636597708e+01 1 1 0
84 1 2.9499146956477449e+00 1.1238846853017030e+01 4.2967199331623860e+01 0 1 -1
4629 1 7.9971216786357084e+00 3.0473553894119569e+00 4.0829370395932784e+01 1 0 0
3061 1 1.0552873819107168e+01 1.6053590922053335e-01 4.0793893207065636e+01 0 1 -1
188 1 6.8281378058770317e+00 4.1997496330122508e-01 3.8425635989924743e+01 0 0 0
4647 1 1.1975520718951522e+01 9.2830764397820698e+00 3.9955164519239119e+01 1 0 0
2104 1 3.2510868651895790e+00 6.5434308973375348e+00 3.9003213316207535e+01 0 1 -1
4669 1 3.7030859425513324e-01 7.0760861429936108e+00 4.0294117122539674e+01 0 0 0
1339 1 3.6472000274325138e+00 3.7197394158358503e+00 3.9124415357814399e+01 0 0 0
4962 1 7.1283428926896013e+00 6.2661409039026008e+00 3.8945651990913518e+01 1 -1 0
1612 1 5.3718169772878577e+00 7.5960892315642994e+00 4.0537680960367723e+01 0 1 0
1807 1 9.8115860723509449e+00 5.6928639874138245e+00 3.9843386480380147e+01 0 0 -1
6100 1 2.4029672378524549e+00 9.1309174217268527e+00 4.1286784435663307e+01 0 1 0
1939 1 7.6627824967746738e+00 3.2337756395704004e-01 4.1347385474797662e+01 -1 1 -1
4694 1 1.1606779010605759e+00 1.1975091538924111e+01 4.0023349492996601e+01 -1 0 0
5410 1 5.9276401033490993e+00 1.0619296993433782e+01 4.0474723481443988e+01 1 1 0
4599 1 8.1205995499133845e+00 1.0948270743835328e+01 3.9028742380337377e+01 0 0 0
3490 1 1.0747030608464547e+01 9.1027981702925977e+00 4.2670222140519769e+01 1 0 0
1387 1 9.7460140516497962e+00 8.4762737363992233e+00 3.8835624238715624e+01 0 -1 0
1926 1 3.7521610788082831e+00 1.1877604724048233e+01 3.9415503835352155e+01 1 1 0
3656 1 5.9089509739283281e+00 1.1395453384872992e+01 4.3181592049074069e+01 1 0 0
1507 1 4.0538037583810524e+00 5.7087544797818501e-01 3.8313446585263804e+01 0 1 -1
3611 1 6.3328476368525202e+00 3.7504802490929530e+00 4.2895708989279242e+01 0 1 0
5006 1 3.0579399552404749e+00 1.2809015822115444e+00 4.2319442047190861e+01 1 1 -1
325 1 1.0440034694663902e+01 3.1000261777814613e+00 4.2491479824471796e+01 0 0 -1
8 1 3.7450583848393122e+00 4.0052963690120151e+00 4.1877082410226024e+01 1 0 0
1284 1 2.5627132590734472e+00 6.7403116893024064e+00 4.2756402576157612e+01 1 1 0
1440 1 6.7824062655410309e+00 6.4580875543301426e+00 4.2860758270362595e+01 0 0 0
3488 1 9.6036597069781990e+00 5.6736236891737137e+00 4.2872430863437998e+01 0 0 -1
5074 1 6.3322305302840096e+00 3.3668277853464321e+00 3.8568191610844067e+01 1 0 -1
5060 1 1.2005698851169084e+01 6.7945378313718132e+00 4.4247736091487042e+01 0 1 -1
5182 1 8.5890702964974999e+00 1.2705295338714023e-01 4.8869266992693980e+01 1 -1 -1
3794 1 8.6577485667514609e-01 2.2148573253670203e+00 4.4324878036195173e+01 0 -1 -1
1725 1 1.1595877729536776e+01 1.0776791844034976e+01 4.7550854662250387e+01 0 1 0
1624 1 5.1382964444021111e+00 1.7664780099552517e+00 4.5304976514502826e+01 0 1 -1
6436 1 9.2759877094801730e+00 3.9378616657576355e+00 4.7138010361120578e+01 1 0 -1
5426 1 1.0614629411193867e+01 6.9057959375035987e+00 4.9477401723190482e+01 0 1 0
6151 1 3.2677302488101927e+00 3.8214849204540191e+00 4.4835174193816684e+01 0 1 0
4552 1 1.0576448581983726e+00 1.1775616269735817e+01 4.6687757756014264e+01 1 0 0
1730 1 3.2405835787844928e+00 1.1793037982847890e+01 4.9945268746936179e+01 0 1 0
1540 1 8.0871907539924308e+00 7.6303294113153166e+00 5.0358526000309041e+01 0 0 -1
1528 1 9.9448111490925459e+00 6.5660317038347795e+00 4.6618996505415524e+01 1 0 0
4511 1 1.5284229181545814e+00 7.7669810008123417e+00 4.6047822881018845e+01 0 0 0
1834 1 7.4821774798803342e-01 8.7334036970545981e+00 4.8795033545684262e+01 2 0 0
3274 1 3.2622072233869694e+00 9.8869548932811000e+00 4.5666862696606103e+01 0 0 -1
2914 1 7.8154164120642511e+00 7.9297480843361665e+00 4.5186795195022455e+01 0 1 0