LAMMPS data file via write_data, version 16 Mar 2018, timestep = 100000

4537 atoms
2 atom types

0.0000000000000000e+00 4.9219999999999999e+01 xlo xhi
0.0000000000000000e+00 4.9019635930410494e+01 ylo yhi
1.7631318041006008e+00 3.2176868195900425e+01 zlo zhi

Masses

1 18.015
2 12.01

Atoms # atomic

96 2 0.0000000000000000e+00 2.8417180249513345e+00 3.4000903294355149e+00 0 0 0
98 2 0.0000000000000000e+00 0.0000000000000000e+00 3.4000903294355149e+00 0 0 0
100 2 1.2305000000000001e+00 7.1042950623783474e-01 3.4000903294355149e+00 0 0 0
107 2 1.2305000000000001e+00 2.1312885187134998e+00 3.4000903294355149e+00 0 0 0
109 2 2.4610000000000003e+00 2.8417180249513345e+00 3.4000903294355149e+00 0 0 0
111 2 2.4610000000000003e+00 0.0000000000000000e+00 3.4000903294355149e+00 0 0 0
113 2 3.6915000000000004e+00 7.1042950623783474e-01 3.4000903294355149e+00 0 0 0
128 2 3.6914999999999996e+00 2.1312885187134998e+00 3.4000903294355149e+00 0 0 0
130 2 4.9220000000000006e+00 2.8417180249513332e+00 3.4000903294355149e+00 0 0 0
132 2 4.9220000000000006e+00 0.0000000000000000e+00 3.4000903294355149e+00 0 0 0
134 2 6.1524999999999999e+00 7.1042950623783407e-01 3.4000903294355149e+00 0 0 0
157 2 6.1524999999999999e+00 2.1312885187134989e+00 3.4000903294355149e+00 0 0 0
159 2 7.3829999999999991e+00 2.8417180249513345e+00 3.4000903294355149e+00 0 0 0
161 2 7.3829999999999991e+00 0.0000000000000000e+00 3.4000903294355149e+00 0 0 0
163 2 8.6134999999999984e+00 7.1042950623783407e-01 3.4000903294355149e+00 0 0 0
194 2 8.6134999999999984e+00 2.1312885187135002e+00 3.4000903294355149e+00 0 0 0
196 2 9.8440000000000012e+00 2.8417180249513332e+00 3.4000903294355149e+00 0 0 0
198 2 9.8440000000000012e+00 0.0000000000000000e+00 3.4000903294355149e+00 0 0 0
200 2 1.1074500000000002e+01 7.1042950623783330e-01 3.4000903294355149e+00 0 0 0
239 2 1.1074500000000002e+01 2.1312885187135002e+00 3.4000903294355149e+00 0 0 0
103 2 0.0000000000000000e+00 4.2625770374269996e+00 3.4000903294355149e+00 0 0 0
105 2 1.2305000000000001e+00 4.9730065436648339e+00 3.4000903294355149e+00 0 0 0
120 2 1.2305000000000001e+00 6.3938655561404980e+00 3.4000903294355149e+00 0 0 0
124 2 2.4610000000000003e+00 4.2625770374269996e+00 3.4000903294355149e+00 0 0 0
126 2 3.6914999999999996e+00 4.9730065436648339e+00 3.4000903294355149e+00 0 0 0
149 2 3.6914999999999996e+00 6.3938655561404980e+00 3.4000903294355149e+00 0 0 0
101 2 0.0000000000000000e+00 7.1042950623783341e+00 3.4000903294355149e+00 0 0 0
122 2 2.4610000000000003e+00 7.1042950623783341e+00 3.4000903294355149e+00 0 0 0
153 2 4.9220000000000006e+00 4.2625770374269978e+00 3.4000903294355149e+00 0 0 0
155 2 6.1524999999999999e+00 4.9730065436648339e+00 3.4000903294355149e+00 0 0 0
186 2 6.1524999999999999e+00 6.3938655561404980e+00 3.4000903294355149e+00 0 0 0
190 2 7.3829999999999991e+00 4.2625770374269996e+00 3.4000903294355149e+00 0 0 0
151 2 4.9220000000000006e+00 7.1042950623783341e+00 3.4000903294355149e+00 0 0 0
188 2 7.3830000000000009e+00 7.1042950623783341e+00 3.4000903294355149e+00 0 0 0
192 2 8.6135000000000002e+00 4.9730065436648339e+00 3.4000903294355149e+00 0 0 0
231 2 8.6135000000000002e+00 6.3938655561404980e+00 3.4000903294355149e+00 0 0 0
235 2 9.8440000000000012e+00 4.2625770374270004e+00 3.4000903294355149e+00 0 0 0
237 2 1.1074500000000002e+01 4.9730065436648339e+00 3.4000903294355149e+00 0 0 0
278 2 1.1074500000000002e+01 6.3938655561404980e+00 3.4000903294355149e+00 0 0 0
233 2 9.8440000000000012e+00 7.1042950623783341e+00 3.4000903294355149e+00 0 0 0
116 2 0.0000000000000000e+00 8.5251540748539991e+00 3.4000903294355149e+00 0 0 0
118 2 1.2305000000000001e+00 9.2355835810918343e+00 3.4000903294355149e+00 0 0 0
145 2 2.4610000000000003e+00 8.5251540748539991e+00 3.4000903294355149e+00 0 0 0
147 2 3.6915000000000004e+00 9.2355835810918343e+00 3.4000903294355149e+00 0 0 0
114 2 0.0000000000000000e+00 1.1366872099805333e+01 3.4000903294355149e+00 0 0 0
141 2 1.2305000000000001e+00 1.0656442593567498e+01 3.4000903294355149e+00 0 0 0
143 2 2.4610000000000003e+00 1.1366872099805333e+01 3.4000903294355149e+00 0 0 0
178 2 3.6914999999999996e+00 1.0656442593567499e+01 3.4000903294355149e+00 0 0 0
182 2 4.9220000000000006e+00 8.5251540748539991e+00 3.4000903294355149e+00 0 0 0
184 2 6.1524999999999999e+00 9.2355835810918343e+00 3.4000903294355149e+00 0 0 0
227 2 7.3830000000000009e+00 8.5251540748539991e+00 3.4000903294355149e+00 0 0 0
180 2 4.9220000000000006e+00 1.1366872099805333e+01 3.4000903294355149e+00 0 0 0
223 2 6.1524999999999999e+00 1.0656442593567499e+01 3.4000903294355149e+00 0 0 0
225 2 7.3829999999999991e+00 1.1366872099805333e+01 3.4000903294355149e+00 0 0 0
229 2 8.6134999999999984e+00 9.2355835810918343e+00 3.4000903294355149e+00 0 0 0
274 2 9.8440000000000012e+00 8.5251540748539956e+00 3.4000903294355149e+00 0 0 0
276 2 1.1074500000000002e+01 9.2355835810918343e+00 3.4000903294355149e+00 0 0 0
270 2 8.6134999999999984e+00 1.0656442593567498e+01 3.4000903294355149e+00 0 0 0
272 2 9.8440000000000012e+00 1.1366872099805333e+01 3.4000903294355149e+00 0 0 0
317 2 1.1074500000000002e+01 1.0656442593567498e+01 3.4000903294355149e+00 0 0 0
319 2 1.2304999999999998e+01 1.1366872099805333e+01 3.4000903294355149e+00 0 0 0
97 2 0.0000000000000000e+00 1.4208590124756650e+00 6.3761890043245364e+00 0 0 0
99 2 0.0000000000000000e+00 0.0000000000000000e+00 6.3761890043245364e+00 0 0 0
108 2 1.2305000000000001e+00 2.1312885187134998e+00 6.3761890043245364e+00 0 0 0
110 2 2.4610000000000003e+00 1.4208590124756650e+00 6.3761890043245364e+00 0 0 0
112 2 2.4610000000000003e+00 0.0000000000000000e+00 6.3761890043245364e+00 0 0 0
129 2 3.6914999999999996e+00 2.1312885187134998e+00 6.3761890043245364e+00 0 0 0
425 2 0.0000000000000000e+00 2.8417180249513345e+00 9.3522876792134912e+00 0 0 0
426 2 0.0000000000000000e+00 0.0000000000000000e+00 9.3522876792134912e+00 0 0 0
427 2 1.2305000000000001e+00 7.1042950623783474e-01 9.3522876792134912e+00 0 0 0
431 2 1.2305000000000001e+00 2.1312885187134998e+00 9.3522876792134912e+00 0 0 0
432 2 2.4610000000000003e+00 2.8417180249513345e+00 9.3522876792134912e+00 0 0 0
433 2 2.4610000000000003e+00 0.0000000000000000e+00 9.3522876792134912e+00 0 0 0
434 2 3.6915000000000004e+00 7.1042950623783474e-01 9.3522876792134912e+00 0 0 0
442 2 3.6914999999999996e+00 2.1312885187134998e+00 9.3522876792134912e+00 0 0 0
106 2 1.2305000000000001e+00 3.5521475311891644e+00 6.3761890043245364e+00 0 0 0
127 2 3.6914999999999996e+00 3.5521475311891644e+00 6.3761890043245364e+00 0 0 0
131 2 4.9220000000000006e+00 1.4208590124756650e+00 6.3761890043245364e+00 0 0 0
133 2 4.9220000000000006e+00 0.0000000000000000e+00 6.3761890043245364e+00 0 0 0
158 2 6.1524999999999999e+00 2.1312885187134989e+00 6.3761890043245364e+00 0 0 0
160 2 7.3829999999999991e+00 1.4208590124756659e+00 6.3761890043245364e+00 0 0 0
162 2 7.3829999999999991e+00 0.0000000000000000e+00 6.3761890043245364e+00 0 0 0
443 2 4.9220000000000006e+00 2.8417180249513332e+00 9.3522876792134912e+00 0 0 0
444 2 4.9220000000000006e+00 0.0000000000000000e+00 9.3522876792134912e+00 0 0 0
445 2 6.1524999999999999e+00 7.1042950623783407e-01 9.3522876792134912e+00 0 0 0
457 2 6.1524999999999999e+00 2.1312885187134989e+00 9.3522876792134912e+00 0 0 0
458 2 7.3829999999999991e+00 2.8417180249513345e+00 9.3522876792134912e+00 0 0 0
459 2 7.3829999999999991e+00 0.0000000000000000e+00 9.3522876792134912e+00 0 0 0
156 2 6.1524999999999999e+00 3.5521475311891644e+00 6.3761890043245364e+00 0 0 0
195 2 8.6134999999999984e+00 2.1312885187135002e+00 6.3761890043245364e+00 0 0 0
197 2 9.8440000000000012e+00 1.4208590124756659e+00 6.3761890043245364e+00 0 0 0
199 2 9.8440000000000012e+00 0.0000000000000000e+00 6.3761890043245364e+00 0 0 0
240 2 1.1074500000000002e+01 2.1312885187135002e+00 6.3761890043245364e+00 0 0 0
460 2 8.6134999999999984e+00 7.1042950623783407e-01 9.3522876792134912e+00 0 0 0
476 2 8.6134999999999984e+00 2.1312885187135002e+00 9.3522876792134912e+00 0 0 0
477 2 9.8440000000000012e+00 2.8417180249513332e+00 9.3522876792134912e+00 0 0 0
478 2 9.8440000000000012e+00 0.0000000000000000e+00 9.3522876792134912e+00 0 0 0
479 2 1.1074500000000002e+01 7.1042950623783330e-01 9.3522876792134912e+00 0 0 0
499 2 1.1074500000000002e+01 2.1312885187135002e+00 9.3522876792134912e+00 0 0 0
193 2 8.6134999999999984e+00 3.5521475311891657e+00 6.3761890043245364e+00 0 0 0
238 2 1.1074500000000002e+01 3.5521475311891644e+00 6.3761890043245364e+00 0 0 0
102 2 0.0000000000000000e+00 5.6834360499026637e+00 6.3761890043245364e+00 0 0 0
104 2 0.0000000000000000e+00 4.2625770374269996e+00 6.3761890043245364e+00 0 0 0
121 2 1.2305000000000001e+00 6.3938655561404980e+00 6.3761890043245364e+00 0 0 0
123 2 2.4610000000000003e+00 5.6834360499026637e+00 6.3761890043245364e+00 0 0 0
125 2 2.4610000000000003e+00 4.2625770374269996e+00 6.3761890043245364e+00 0 0 0
150 2 3.6914999999999996e+00 6.3938655561404980e+00 6.3761890043245364e+00 0 0 0
429 2 0.0000000000000000e+00 4.2625770374269996e+00 9.3522876792134912e+00 0 0 0
430 2 1.2305000000000001e+00 4.9730065436648339e+00 9.3522876792134912e+00 0 0 0
438 2 1.2305000000000001e+00 6.3938655561404980e+00 9.3522876792134912e+00 0 0 0
440 2 2.4610000000000003e+00 4.2625770374269996e+00 9.3522876792134912e+00 0 0 0
441 2 3.6914999999999996e+00 4.9730065436648339e+00 9.3522876792134912e+00 0 0 0
453 2 3.6914999999999996e+00 6.3938655561404980e+00 9.3522876792134912e+00 0 0 0
119 2 1.2305000000000001e+00 7.8147245686161639e+00 6.3761890043245364e+00 0 0 0
148 2 3.6914999999999996e+00 7.8147245686161639e+00 6.3761890043245364e+00 0 0 0
428 2 0.0000000000000000e+00 7.1042950623783341e+00 9.3522876792134912e+00 0 0 0
439 2 2.4610000000000003e+00 7.1042950623783341e+00 9.3522876792134912e+00 0 0 0
152 2 4.9220000000000006e+00 5.6834360499026637e+00 6.3761890043245364e+00 0 0 0
154 2 4.9220000000000006e+00 4.2625770374269978e+00 6.3761890043245364e+00 0 0 0
187 2 6.1524999999999999e+00 6.3938655561404980e+00 6.3761890043245364e+00 0 0 0
189 2 7.3829999999999991e+00 5.6834360499026637e+00 6.3761890043245364e+00 0 0 0
191 2 7.3829999999999991e+00 4.2625770374269996e+00 6.3761890043245364e+00 0 0 0
455 2 4.9220000000000006e+00 4.2625770374269978e+00 9.3522876792134912e+00 0 0 0
456 2 6.1524999999999999e+00 4.9730065436648339e+00 9.3522876792134912e+00 0 0 0
472 2 6.1524999999999999e+00 6.3938655561404980e+00 9.3522876792134912e+00 0 0 0
474 2 7.3829999999999991e+00 4.2625770374269996e+00 9.3522876792134912e+00 0 0 0
185 2 6.1524999999999999e+00 7.8147245686161639e+00 6.3761890043245364e+00 0 0 0
454 2 4.9220000000000006e+00 7.1042950623783341e+00 9.3522876792134912e+00 0 0 0
473 2 7.3830000000000009e+00 7.1042950623783341e+00 9.3522876792134912e+00 0 0 0
232 2 8.6135000000000002e+00 6.3938655561404980e+00 6.3761890043245364e+00 0 0 0
234 2 9.8440000000000012e+00 5.6834360499026637e+00 6.3761890043245364e+00 0 0 0
236 2 9.8440000000000012e+00 4.2625770374270004e+00 6.3761890043245364e+00 0 0 0
279 2 1.1074500000000002e+01 6.3938655561404980e+00 6.3761890043245364e+00 0 0 0
475 2 8.6135000000000002e+00 4.9730065436648339e+00 9.3522876792134912e+00 0 0 0
495 2 8.6135000000000002e+00 6.3938655561404980e+00 9.3522876792134912e+00 0 0 0
497 2 9.8440000000000012e+00 4.2625770374270004e+00 9.3522876792134912e+00 0 0 0
498 2 1.1074500000000002e+01 4.9730065436648339e+00 9.3522876792134912e+00 0 0 0
519 2 1.1074500000000002e+01 6.3938655561404980e+00 9.3522876792134912e+00 0 0 0
230 2 8.6135000000000002e+00 7.8147245686161639e+00 6.3761890043245364e+00 0 0 0
277 2 1.1074500000000002e+01 7.8147245686161639e+00 6.3761890043245364e+00 0 0 0
496 2 9.8440000000000012e+00 7.1042950623783341e+00 9.3522876792134912e+00 0 0 0
115 2 0.0000000000000000e+00 9.9460130873296642e+00 6.3761890043245364e+00 0 0 0
117 2 0.0000000000000000e+00 8.5251540748539991e+00 6.3761890043245364e+00 0 0 0
144 2 2.4610000000000003e+00 9.9460130873296642e+00 6.3761890043245364e+00 0 0 0
146 2 2.4610000000000003e+00 8.5251540748539991e+00 6.3761890043245364e+00 0 0 0
436 2 0.0000000000000000e+00 8.5251540748539991e+00 9.3522876792134912e+00 0 0 0
437 2 1.2305000000000001e+00 9.2355835810918343e+00 9.3522876792134912e+00 0 0 0
451 2 2.4610000000000003e+00 8.5251540748539991e+00 9.3522876792134912e+00 0 0 0
452 2 3.6915000000000004e+00 9.2355835810918343e+00 9.3522876792134912e+00 0 0 0
140 2 1.2305000000000001e+00 1.2077301606043163e+01 6.3761890043245364e+00 0 0 0
142 2 1.2305000000000001e+00 1.0656442593567498e+01 6.3761890043245364e+00 0 0 0
177 2 3.6914999999999996e+00 1.2077301606043163e+01 6.3761890043245364e+00 0 0 0
179 2 3.6914999999999996e+00 1.0656442593567499e+01 6.3761890043245364e+00 0 0 0
435 2 0.0000000000000000e+00 1.1366872099805333e+01 9.3522876792134912e+00 0 0 0
449 2 1.2305000000000001e+00 1.0656442593567498e+01 9.3522876792134912e+00 0 0 0
450 2 2.4610000000000003e+00 1.1366872099805333e+01 9.3522876792134912e+00 0 0 0
468 2 3.6914999999999996e+00 1.0656442593567499e+01 9.3522876792134912e+00 0 0 0
181 2 4.9220000000000006e+00 9.9460130873296642e+00 6.3761890043245364e+00 0 0 0
183 2 4.9220000000000006e+00 8.5251540748539991e+00 6.3761890043245364e+00 0 0 0
226 2 7.3830000000000009e+00 9.9460130873296642e+00 6.3761890043245364e+00 0 0 0
228 2 7.3830000000000009e+00 8.5251540748539991e+00 6.3761890043245364e+00 0 0 0
470 2 4.9220000000000006e+00 8.5251540748539991e+00 9.3522876792134912e+00 0 0 0
471 2 6.1524999999999999e+00 9.2355835810918343e+00 9.3522876792134912e+00 0 0 0
493 2 7.3830000000000009e+00 8.5251540748539991e+00 9.3522876792134912e+00 0 0 0
222 2 6.1524999999999999e+00 1.2077301606043163e+01 6.3761890043245364e+00 0 0 0
224 2 6.1524999999999999e+00 1.0656442593567499e+01 6.3761890043245364e+00 0 0 0
469 2 4.9220000000000006e+00 1.1366872099805333e+01 9.3522876792134912e+00 0 0 0
491 2 6.1524999999999999e+00 1.0656442593567499e+01 9.3522876792134912e+00 0 0 0
492 2 7.3829999999999991e+00 1.1366872099805333e+01 9.3522876792134912e+00 0 0 0
273 2 9.8440000000000012e+00 9.9460130873296642e+00 6.3761890043245364e+00 0 0 0
275 2 9.8440000000000012e+00 8.5251540748539956e+00 6.3761890043245364e+00 0 0 0
494 2 8.6134999999999984e+00 9.2355835810918343e+00 9.3522876792134912e+00 0 0 0
517 2 9.8440000000000012e+00 8.5251540748539956e+00 9.3522876792134912e+00 0 0 0
518 2 1.1074500000000002e+01 9.2355835810918343e+00 9.3522876792134912e+00 0 0 0
269 2 8.6135000000000002e+00 1.2077301606043163e+01 6.3761890043245364e+00 0 0 0
271 2 8.6134999999999984e+00 1.0656442593567498e+01 6.3761890043245364e+00 0 0 0
316 2 1.1074500000000002e+01 1.2077301606043163e+01 6.3761890043245364e+00 0 0 0
318 2 1.1074500000000002e+01 1.0656442593567498e+01 6.3761890043245364e+00 0 0 0
515 2 8.6134999999999984e+00 1.0656442593567498e+01 9.3522876792134912e+00 0 0 0
516 2 9.8440000000000012e+00 1.1366872099805333e+01 9.3522876792134912e+00 0 0 0
539 2 1.1074500000000002e+01 1.0656442593567498e+01 9.3522876792134912e+00 0 0 0
540 2 1.2304999999999998e+01 1.1366872099805333e+01 9.3522876792134912e+00 0 0 0
4336 1 2.6193358091002006e+00 1.1900302990673925e+00 1.1610100606060795e+01 0 1 0
2346 1 9.1904666481696431e+00 8.4568953533498004e+00 1.5626371214623603e+01 1 1 0
3712 1 6.7345632248127965e+00 2.5029512247178674e+00 1.1774770101922378e+01 0 0 0
3770 1 9.4942330068286616e+00 1.6486322016828094e+00 1.2340408898958284e+01 1 0 0
4469 1 1.1891222655466816e+01 4.5801281514395127e+00 1.5771121617746624e+01 -1 0 -1
2158 1 3.7740895285188283e+00 3.7341492054477810e+00 1.2091196749034584e+01 1 1 0
2879 1 2.1165620009395476e+00 5.8066882717438819e+00 1.1634390613858384e+01 1 1 0
3086 1 6.1382842337572718e+00 5.5044000993324236e+00 1.2154377797973771e+01 -1 0 0
789 1 5.9119811768127795e+00 8.3218218832698074e+00 1.2099231387536452e+01 0 1 0
56 1 9.0437430298081090e+00 5.7083699260430327e+00 1.1923058644200761e+01 1 1 0
596 1 3.1526757683950741e+00 8.1838737106462141e+00 1.1641922706067099e+01 0 1 0
1512 1 8.5652270900985759e+00 1.0792341497775762e+01 1.1660364660164049e+01 0 0 0
47 1 8.7843242799635846e+00 8.3148281814218308e+00 1.3103819946220002e+01 0 1 0
2121 1 8.3570758743941198e-01 2.1482175301134472e+00 1.3571229116645659e+01 1 0 -1
2967 1 4.2014370302280639e+00 1.1316978461826828e+01 1.4697784793765006e+01 0 0 -1
856 1 6.2484069392360748e+00 9.4800830461375640e-01 1.4179357736539735e+01 0 1 0
3767 1 1.1447781016337300e+01 8.0823784531902216e+00 1.1915975277387329e+01 1 0 -1
4480 1 9.6278373276350546e+00 3.8334475562727133e+00 1.4257395413215249e+01 0 0 1
769 1 8.6444184415944356e+00 1.1580371965294611e-01 1.6472579833822827e+01 0 0 -1
4440 1 2.9020694015306825e+00 3.9415333860956450e+00 1.4796994647990722e+01 0 1 0
632 1 4.4841915195200190e+00 1.1804273865000544e+01 1.2036732555821482e+01 1 1 -1
4325 1 6.5575486948029686e+00 4.9464045762770201e+00 1.4950901928365598e+01 1 0 0
2958 1 8.9656629556270691e+00 1.0860406152899227e+01 1.6393337211193067e+01 0 -1 0
2132 1 4.8334110091348723e+00 8.4796075312299521e+00 1.4655063331196006e+01 0 0 1
4341 1 2.6141469560059520e+00 6.6393003082668125e+00 1.4762551245833706e+01 0 1 0
3748 1 8.5939328590930097e-01 9.3301286087038484e+00 1.4934428571195927e+01 0 0 -1
731 1 1.4685062851272188e+00 1.2151751210259638e+01 1.4342021027554663e+01 0 1 0
3046 1 6.7084274641914030e+00 7.3191110529299594e+00 1.6147906429848469e+01 1 0 0
707 1 1.1950809292740789e+01 2.9600987551374449e+00 1.1701610173198503e+01 -1 0 0
68 1 1.1178609736261965e+01 1.1901314465610552e+01 1.2369430335282972e+01 0 1 0
681 1 1.8901891295168287e+00 1.3238261778294229e+00 1.6406114199364701e+01 0 0 0
2150 1 1.1097765775802245e+01 1.2166990502593800e+01 1.5391679770850164e+01 -1 -1 0
2339 1 3.9073321397245714e-01 9.2980608347430227e+00 1.2136908307252000e+01 0 0 1
2395 1 1.1991716833100510e+01 7.2639182731406464e+00 1.4805170766294090e+01 1 0 0
2904 1 8.3073558501469993e+00 2.8234582922542075e+00 1.6898477761619123e+01 0 1 0
1489 1 4.9366533374080976e+00 3.8159924595567962e+00 1.6998759320126396e+01 0 1 -1
1365 1 5.6935233121919748e-01 2.7728239414919260e+00 2.1952745536022903e+01 0 1 0
1410 1 8.5310395385543891e-01 4.8995462209112342e+00 1.7186932475773247e+01 1 0 0
2853 1 9.2873377760299523e+00 9.6758441258194079e+00 2.2244731801199372e+01 1 0 0
2331 1 6.9187152183459490e+00 3.5122267315423255e+00 1.9310787850122459e+01 0 0 0
16 1 7.5731461682704415e+00 1.1769159854928660e+01 2.2218028222273979e+01 0 1 0
3087 1 4.0714617622988296e+00 1.1049309272567372e+01 1.7765167020478479e+01 0 1 1
4 1 1.1999247412669279e+01 9.2749990413430394e-01 1.9072088480482471e+01 0 0 0
2235 1 4.5973233828827711e+00 8.7104014225058457e-01 1.7194364196203406e+01 1 0 -1
2830 1 6.8465897318269651e+00 7.6466303801631836e+00 1.8974126311143536e+01 2 1 0
2272 1 4.3164005768334670e+00 5.7139492936096179e+00 1.9389291588413869e+01 1 1 0
1518 1 1.0815293724092498e+01 5.6382521640097005e+00 2.0093346487819744e+01 0 0 -1
2245 1 1.9698608569021698e+00 9.7212026283207624e+00 1.8797463106939347e+01 1 0 -1
3654 1 8.4521863149298788e+00 1.1437348253673859e+01 1.8876758959483212e+01 1 0 0
3132 1 9.4326462401635158e+00 8.6043258956726678e+00 1.9414432317102218e+01 0 1 0
2321 1 5.1028476736284318e+00 6.1192047007515793e-01 2.1814521451002413e+01 1 0 0
2307 1 1.1794008176526486e+01 8.5069496036498418e+00 1.7374925568894731e+01 0 0 0
1621 1 3.9250954912430904e+00 2.8581915009994998e+00 2.2858534539296286e+01 1 1 1
1360 1 7.5444123728998624e+00 1.6834247803550617e+00 2.1055295195828151e+01 -1 1 0
3064 1 1.1200527538168490e+00 9.9981552343598723e-01 1.9799929168607825e+01 1 0 -1
2938 1 1.2040112926778678e+01 4.3549489756750939e+00 2.2259860421084170e+01 2 2 0
4487 1 1.0029139816377317e+01 4.3646266266853644e+00 2.4219228423670792e+01 0 2 -1
1638 1 9.1880996831732862e+00 1.5901653932989634e+00 2.3163810384432317e+01 0 2 1
1564 1 5.4587789924632002e+00 4.4816181664202803e+00 2.4396501571111742e+01 0 1 0
2914 1 7.4336428427154477e-01 7.4030685697617127e+00 2.2613960321964001e+01 1 0 -1
2318 1 1.0711967830801409e+01 3.6075174177885723e+00 1.8341871867197824e+01 2 1 0
3110 1 7.7756127200449505e+00 5.6181721152106050e+00 2.3230736678528153e+01 1 0 0
3749 1 8.0791522289600568e+00 5.6519216259311227e+00 2.0560625878354664e+01 0 0 -1
810 1 4.9913125506570157e+00 7.9091277630970493e+00 2.1289971389759913e+01 0 0 0
1367 1 3.8623617035204298e+00 6.5590861586469096e+00 2.3525117569416579e+01 1 0 1
4418 1 2.3267244314840725e+00 9.3410130154559976e+00 2.1614992393520374e+01 0 -1 0
1593 1 5.7820872408423662e+00 1.0489635179033247e+01 2.0152933856487877e+01 0 0 1
1546 1 7.3191564239764819e+00 8.3444244340318505e+00 2.4140314810160881e+01 0 0 0
1544 1 2.6246875138546311e+00 1.1854143891359291e+01 2.2823964424887599e+01 1 1 0
73 1 2.4293391422559614e+00 4.9180627673154724e+00 2.1307105093545125e+01 0 0 -1
2999 1 2.8129783131980908e+00 7.2796951521041802e+00 1.7576096577632644e+01 0 2 0
602 1 1.2020446954288381e+01 1.0020773628195149e+01 2.1137181660379504e+01 1 0 -1
2142 1 1.1360110888158594e+01 1.0702789157416055e+01 2.4222645293064737e+01 1 1 -1
13 1 4.2883585371800717e+00 8.2579267070072948e-01 2.5903565026587550e+01 0 0 0
2167 1 1.2025822816382226e+00 2.9925956906658078e+00 2.9303558069152167e+01 0 1 0
3119 1 8.6216741142489663e+00 1.0981103553127660e+01 3.1601052708183985e+01 1 0 0
4364 1 4.6070611552605776e+00 4.8379569862191731e+00 2.7114731003267110e+01 -1 0 0
1420 1 6.9952670052278840e+00 1.9637304092415755e+00 2.5170933074189868e+01 -1 -1 0
3737 1 1.0172946797503432e+01 2.5212108271835101e+00 2.6442547817887998e+01 0 0 -1
1422 1 5.1400476193785991e+00 8.1956565936071950e+00 3.1356222249264107e+01 -1 1 -1
3716 1 1.0276917239909375e+01 1.1552722958632218e+01 2.6715560602997002e+01 1 -1 0
827 1 1.9178440229025926e+00 4.9982865520157951e+00 2.7527693324797028e+01 0 1 -1
3065 1 1.9440025831882253e+00 7.8630642707865377e+00 2.7965326416973518e+01 0 -1 0
15 1 5.9917799827227780e+00 1.0983787686911851e+01 3.0925904042165058e+01 1 0 0
4478 1 8.2478330491692891e+00 3.6539133508385224e+00 2.8157954975527218e+01 0 0 0
2265 1 7.3368009916220451e+00 6.2348157449656929e+00 2.7873317054174159e+01 1 1 -1
3114 1 8.9112409323190391e+00 7.8465212325834122e+00 2.6174836074305958e+01 0 -1 -1
3607 1 2.4028659033711945e+00 8.4088476382969546e+00 3.0637603636824437e+01 2 0 -1
626 1 5.7896382259090606e-01 1.2023396798245216e+01 2.7979829194627939e+01 0 0 0
811 1 4.7750890198195064e+00 8.6745716273685201e+00 2.5408672910458485e+01 0 0 0
583 1 1.0333228858191357e+00 9.9186572450410448e+00 2.6399334870783477e+01 2 0 0
4492 1 3.8489129270211792e-01 2.5826656451686075e-01 2.8774720040998979e+01 1 1 0
1528 1 4.9152611304460843e+00 7.7086041336960580e+00 2.8361436799962398e+01 0 0 0
4448 1 1.1655185098546676e+01 1.1218840539347868e+01 3.1055170131798413e+01 1 0 0
1507 1 8.9885315847050116e+00 9.6206713598578588e+00 2.8463981787605668e+01 -1 -1 0
1556 1 5.9643593538112949e+00 1.0409624794124483e+01 2.8079365168345589e+01 2 0 -1
2915 1 1.0769581402418265e+01 5.8755331545912659e+00 2.6320518515756504e+01 0 1 0
1494 1 5.6203826904731553e+00 2.3255163794102152e+00 2.8253637831266104e+01 0 1 0
754 1 8.0620181983858750e+00 4.3015708630308715e+00 3.1405076347279341e+01 0 2 0
2145 1 1.0641172402950188e+01 3.2533064204765885e+00 3.0456256247408938e+01 1 0 0
4493 1 3.3592527138784050e+00 1.1145305620872907e+01 2.5345948622325920e+01 0 0 0
1582 1 1.5321060341686232e+00 6.0051345172987611e+00 3.1580445881537962e+01 0 0 0
2874 1 3.1626037702127077e+00 3.7998917128311547e+00 3.1155150397232468e+01 0 0 0
636 1 5.8685737067914250e+00 2.8701602352128637e+00 3.1071933149325091e+01 0 1 0
2275 1 7.7255670196900299e+00 6.8519222513078217e+00 3.0850435774938596e+01 0 0 0
709 1 9.5979402751808092e+00 8.5910928635070025e+00 3.1064753173436998e+01 0 0 -1
2232 1 2.0307520308745390e+00 1.0977701057175727e+01 3.1759839087194678e+01 1 1 -1
2115 1 6.7333059521209204e+00 1.9133183595567021e-02 3.1101193025755691e+01 0 0 0
3673 1 1.2267235216378433e+01 1.0842682053366214e+01 2.8315863975910240e+01 0 1 -1
1553 1 1.8482750493036897e+00 2.1586993076035341e+00 2.4702590614886198e+01 0 0 -1
2861 1 1.3111908059221313e+00 4.7629092522420651e+00 2.4618419977315071e+01 1 0 0
137 2 0.0000000000000000e+00 1.2787731112280996e+01 3.4000903294355149e+00 0 0 0
139 2 1.2305000000000001e+00 1.3498160618518829e+01 3.4000903294355149e+00 0 0 0
174 2 2.4610000000000003e+00 1.2787731112280996e+01 3.4000903294355149e+00 0 0 0
176 2 3.6915000000000004e+00 1.3498160618518829e+01 3.4000903294355149e+00 0 0 0
135 2 0.0000000000000000e+00 1.5629449137232333e+01 3.4000903294355149e+00 0 0 0
170 2 1.2305000000000001e+00 1.4919019630994494e+01 3.4000903294355149e+00 0 0 0
172 2 2.4610000000000003e+00 1.5629449137232328e+01 3.4000903294355149e+00 0 0 0
215 2 3.6915000000000004e+00 1.4919019630994494e+01 3.4000903294355149e+00 0 0 0
219 2 4.9220000000000006e+00 1.2787731112280996e+01 3.4000903294355149e+00 0 0 0
221 2 6.1524999999999990e+00 1.3498160618518829e+01 3.4000903294355149e+00 0 0 0
266 2 7.3829999999999991e+00 1.2787731112280996e+01 3.4000903294355149e+00 0 0 0
217 2 4.9220000000000006e+00 1.5629449137232333e+01 3.4000903294355149e+00 0 0 0
262 2 6.1524999999999990e+00 1.4919019630994494e+01 3.4000903294355149e+00 0 0 0
264 2 7.3829999999999991e+00 1.5629449137232333e+01 3.4000903294355149e+00 0 0 0
268 2 8.6135000000000002e+00 1.3498160618518835e+01 3.4000903294355149e+00 0 0 0
313 2 9.8440000000000012e+00 1.2787731112280996e+01 3.4000903294355149e+00 0 0 0
315 2 1.1074500000000002e+01 1.3498160618518829e+01 3.4000903294355149e+00 0 0 0
309 2 8.6135000000000002e+00 1.4919019630994494e+01 3.4000903294355149e+00 0 0 0
311 2 9.8440000000000012e+00 1.5629449137232328e+01 3.4000903294355149e+00 0 0 0
351 2 1.1074500000000002e+01 1.4919019630994494e+01 3.4000903294355149e+00 0 0 0
166 2 0.0000000000000000e+00 1.7050308149707998e+01 3.4000903294355149e+00 0 0 0
211 2 2.4610000000000003e+00 1.7050308149707998e+01 3.4000903294355149e+00 0 0 0
164 2 0.0000000000000000e+00 1.9892026174659328e+01 3.4000903294355149e+00 0 0 0
168 2 1.2305000000000001e+00 1.7760737655945832e+01 3.4000903294355149e+00 0 0 0
207 2 1.2305000000000001e+00 1.9181596668421495e+01 3.4000903294355149e+00 0 0 0
209 2 2.4610000000000003e+00 1.9892026174659328e+01 3.4000903294355149e+00 0 0 0
213 2 3.6914999999999996e+00 1.7760737655945832e+01 3.4000903294355149e+00 0 0 0
254 2 3.6914999999999996e+00 1.9181596668421495e+01 3.4000903294355149e+00 0 0 0
258 2 4.9220000000000006e+00 1.7050308149707998e+01 3.4000903294355149e+00 0 0 0
305 2 7.3830000000000009e+00 1.7050308149707998e+01 3.4000903294355149e+00 0 0 0
256 2 4.9220000000000006e+00 1.9892026174659328e+01 3.4000903294355149e+00 0 0 0
260 2 6.1524999999999999e+00 1.7760737655945832e+01 3.4000903294355149e+00 0 0 0
301 2 6.1524999999999999e+00 1.9181596668421495e+01 3.4000903294355149e+00 0 0 0
303 2 7.3829999999999991e+00 1.9892026174659328e+01 3.4000903294355149e+00 0 0 0
347 2 9.8440000000000012e+00 1.7050308149707998e+01 3.4000903294355149e+00 0 0 0
381 2 1.2304999999999998e+01 1.7050308149707998e+01 3.4000903294355149e+00 0 0 0
307 2 8.6134999999999984e+00 1.7760737655945832e+01 3.4000903294355149e+00 0 0 0
343 2 8.6135000000000002e+00 1.9181596668421495e+01 3.4000903294355149e+00 0 0 0
345 2 9.8440000000000012e+00 1.9892026174659335e+01 3.4000903294355149e+00 0 0 0
349 2 1.1074500000000002e+01 1.7760737655945835e+01 3.4000903294355149e+00 0 0 0
377 2 1.1074500000000002e+01 1.9181596668421495e+01 3.4000903294355149e+00 0 0 0
201 2 0.0000000000000000e+00 2.4154603212086325e+01 3.4000903294355149e+00 0 0 0
203 2 0.0000000000000000e+00 2.1312885187134999e+01 3.4000903294355149e+00 0 0 0
205 2 1.2304999999999993e+00 2.2023314693372832e+01 3.4000903294355149e+00 0 0 0
246 2 1.2304999999999993e+00 2.3444173705848499e+01 3.4000903294355149e+00 0 0 0
248 2 2.4610000000000003e+00 2.4154603212086325e+01 3.4000903294355149e+00 0 0 0
250 2 2.4610000000000003e+00 2.1312885187134995e+01 3.4000903294355149e+00 0 0 0
252 2 3.6914999999999996e+00 2.2023314693372832e+01 3.4000903294355149e+00 0 0 0
293 2 3.6915000000000004e+00 2.3444173705848499e+01 3.4000903294355149e+00 0 0 0
295 2 4.9220000000000006e+00 2.4154603212086325e+01 3.4000903294355149e+00 0 0 0
297 2 4.9220000000000006e+00 2.1312885187134995e+01 3.4000903294355149e+00 0 0 0
299 2 6.1524999999999990e+00 2.2023314693372832e+01 3.4000903294355149e+00 0 0 0
335 2 6.1524999999999999e+00 2.3444173705848499e+01 3.4000903294355149e+00 0 0 0
337 2 7.3830000000000009e+00 2.4154603212086336e+01 3.4000903294355149e+00 0 0 0
339 2 7.3829999999999991e+00 2.1312885187134999e+01 3.4000903294355149e+00 0 0 0
341 2 8.6135000000000002e+00 2.2023314693372832e+01 3.4000903294355149e+00 0 0 0
369 2 8.6134999999999984e+00 2.3444173705848499e+01 3.4000903294355149e+00 0 0 0
371 2 9.8440000000000012e+00 2.4154603212086336e+01 3.4000903294355149e+00 0 0 0
373 2 9.8440000000000012e+00 2.1312885187134999e+01 3.4000903294355149e+00 0 0 0
375 2 1.1074500000000002e+01 2.2023314693372832e+01 3.4000903294355149e+00 0 0 0
395 2 1.1074500000000002e+01 2.3444173705848499e+01 3.4000903294355149e+00 0 0 0
138 2 0.0000000000000000e+00 1.2787731112280996e+01 6.3761890043245364e+00 0 0 0
175 2 2.4610000000000003e+00 1.2787731112280996e+01 6.3761890043245364e+00 0 0 0
447 2 0.0000000000000000e+00 1.2787731112280996e+01 9.3522876792134912e+00 0 0 0
448 2 1.2305000000000001e+00 1.3498160618518829e+01 9.3522876792134912e+00 0 0 0
466 2 2.4610000000000003e+00 1.2787731112280996e+01 9.3522876792134912e+00 0 0 0
467 2 3.6915000000000004e+00 1.3498160618518829e+01 9.3522876792134912e+00 0 0 0
136 2 0.0000000000000000e+00 1.4208590124756663e+01 6.3761890043245364e+00 0 0 0
171 2 1.2305000000000001e+00 1.4919019630994494e+01 6.3761890043245364e+00 0 0 0
173 2 2.4610000000000003e+00 1.4208590124756663e+01 6.3761890043245364e+00 0 0 0
216 2 3.6915000000000004e+00 1.4919019630994494e+01 6.3761890043245364e+00 0 0 0
446 2 0.0000000000000000e+00 1.5629449137232333e+01 9.3522876792134912e+00 0 0 0