LAMMPS data file via write_data, version 16 Mar 2018, timestep = 8000000

4078 atoms
2 atom types

0.0000000000000000e+00 4.9219999999999999e+01 xlo xhi
0.0000000000000000e+00 4.9019635930410494e+01 ylo yhi
9.2576316375609125e-01 2.7014236836238698e+01 zlo zhi

Masses

1 18.015
2 12.01

Atoms # atomic

52 2 0.0000000000000000e+00 2.8417180249513345e+00 2.7342296150093972e+00 0 0 0
54 2 0.0000000000000000e+00 0.0000000000000000e+00 2.7342296150093972e+00 0 0 0
56 2 1.2305000000000001e+00 7.1042950623783474e-01 2.7342296150093972e+00 0 0 0
63 2 1.2305000000000001e+00 2.1312885187134998e+00 2.7342296150093972e+00 0 0 0
65 2 2.4610000000000003e+00 2.8417180249513345e+00 2.7342296150093972e+00 0 0 0
67 2 2.4610000000000003e+00 0.0000000000000000e+00 2.7342296150093972e+00 0 0 0
69 2 3.6915000000000004e+00 7.1042950623783474e-01 2.7342296150093972e+00 0 0 0
84 2 3.6914999999999996e+00 2.1312885187134998e+00 2.7342296150093972e+00 0 0 0
86 2 4.9220000000000006e+00 2.8417180249513332e+00 2.7342296150093972e+00 0 0 0
88 2 4.9220000000000006e+00 0.0000000000000000e+00 2.7342296150093972e+00 0 0 0
90 2 6.1524999999999999e+00 7.1042950623783407e-01 2.7342296150093972e+00 0 0 0
113 2 6.1524999999999999e+00 2.1312885187134989e+00 2.7342296150093972e+00 0 0 0
115 2 7.3829999999999991e+00 2.8417180249513345e+00 2.7342296150093972e+00 0 0 0
117 2 7.3829999999999991e+00 0.0000000000000000e+00 2.7342296150093972e+00 0 0 0
119 2 8.6134999999999984e+00 7.1042950623783407e-01 2.7342296150093972e+00 0 0 0
150 2 8.6134999999999984e+00 2.1312885187135002e+00 2.7342296150093972e+00 0 0 0
152 2 9.8440000000000012e+00 2.8417180249513332e+00 2.7342296150093972e+00 0 0 0
154 2 9.8440000000000012e+00 0.0000000000000000e+00 2.7342296150093972e+00 0 0 0
156 2 1.1074500000000002e+01 7.1042950623783330e-01 2.7342296150093972e+00 0 0 0
195 2 1.1074500000000002e+01 2.1312885187135002e+00 2.7342296150093972e+00 0 0 0
59 2 0.0000000000000000e+00 4.2625770374269996e+00 2.7342296150093972e+00 0 0 0
61 2 1.2305000000000001e+00 4.9730065436648339e+00 2.7342296150093972e+00 0 0 0
76 2 1.2305000000000001e+00 6.3938655561404980e+00 2.7342296150093972e+00 0 0 0
80 2 2.4610000000000003e+00 4.2625770374269996e+00 2.7342296150093972e+00 0 0 0
82 2 3.6914999999999996e+00 4.9730065436648339e+00 2.7342296150093972e+00 0 0 0
105 2 3.6914999999999996e+00 6.3938655561404980e+00 2.7342296150093972e+00 0 0 0
57 2 0.0000000000000000e+00 7.1042950623783341e+00 2.7342296150093972e+00 0 0 0
78 2 2.4610000000000003e+00 7.1042950623783341e+00 2.7342296150093972e+00 0 0 0
109 2 4.9220000000000006e+00 4.2625770374269978e+00 2.7342296150093972e+00 0 0 0
111 2 6.1524999999999999e+00 4.9730065436648339e+00 2.7342296150093972e+00 0 0 0
142 2 6.1524999999999999e+00 6.3938655561404980e+00 2.7342296150093972e+00 0 0 0
146 2 7.3829999999999991e+00 4.2625770374269996e+00 2.7342296150093972e+00 0 0 0
107 2 4.9220000000000006e+00 7.1042950623783341e+00 2.7342296150093972e+00 0 0 0
144 2 7.3830000000000009e+00 7.1042950623783341e+00 2.7342296150093972e+00 0 0 0
148 2 8.6135000000000002e+00 4.9730065436648339e+00 2.7342296150093972e+00 0 0 0
187 2 8.6135000000000002e+00 6.3938655561404980e+00 2.7342296150093972e+00 0 0 0
191 2 9.8440000000000012e+00 4.2625770374270004e+00 2.7342296150093972e+00 0 0 0
193 2 1.1074500000000002e+01 4.9730065436648339e+00 2.7342296150093972e+00 0 0 0
234 2 1.1074500000000002e+01 6.3938655561404980e+00 2.7342296150093972e+00 0 0 0
189 2 9.8440000000000012e+00 7.1042950623783341e+00 2.7342296150093972e+00 0 0 0
72 2 0.0000000000000000e+00 8.5251540748539991e+00 2.7342296150093972e+00 0 0 0
74 2 1.2305000000000001e+00 9.2355835810918343e+00 2.7342296150093972e+00 0 0 0
101 2 2.4610000000000003e+00 8.5251540748539991e+00 2.7342296150093972e+00 0 0 0
103 2 3.6915000000000004e+00 9.2355835810918343e+00 2.7342296150093972e+00 0 0 0
70 2 0.0000000000000000e+00 1.1366872099805333e+01 2.7342296150093972e+00 0 0 0
97 2 1.2305000000000001e+00 1.0656442593567498e+01 2.7342296150093972e+00 0 0 0
99 2 2.4610000000000003e+00 1.1366872099805333e+01 2.7342296150093972e+00 0 0 0
134 2 3.6914999999999996e+00 1.0656442593567499e+01 2.7342296150093972e+00 0 0 0
138 2 4.9220000000000006e+00 8.5251540748539991e+00 2.7342296150093972e+00 0 0 0
140 2 6.1524999999999999e+00 9.2355835810918343e+00 2.7342296150093972e+00 0 0 0
183 2 7.3830000000000009e+00 8.5251540748539991e+00 2.7342296150093972e+00 0 0 0
136 2 4.9220000000000006e+00 1.1366872099805333e+01 2.7342296150093972e+00 0 0 0
179 2 6.1524999999999999e+00 1.0656442593567499e+01 2.7342296150093972e+00 0 0 0
181 2 7.3829999999999991e+00 1.1366872099805333e+01 2.7342296150093972e+00 0 0 0
185 2 8.6134999999999984e+00 9.2355835810918343e+00 2.7342296150093972e+00 0 0 0
230 2 9.8440000000000012e+00 8.5251540748539956e+00 2.7342296150093972e+00 0 0 0
232 2 1.1074500000000002e+01 9.2355835810918343e+00 2.7342296150093972e+00 0 0 0
226 2 8.6134999999999984e+00 1.0656442593567498e+01 2.7342296150093972e+00 0 0 0
228 2 9.8440000000000012e+00 1.1366872099805333e+01 2.7342296150093972e+00 0 0 0
273 2 1.1074500000000002e+01 1.0656442593567498e+01 2.7342296150093972e+00 0 0 0
275 2 1.2304999999999998e+01 1.1366872099805333e+01 2.7342296150093972e+00 0 0 0
53 2 0.0000000000000000e+00 1.4208590124756650e+00 5.7997769892277873e+00 0 0 0
55 2 0.0000000000000000e+00 0.0000000000000000e+00 5.7997769892277873e+00 0 0 0
64 2 1.2305000000000001e+00 2.1312885187134998e+00 5.7997769892277873e+00 0 0 0
66 2 2.4610000000000003e+00 1.4208590124756650e+00 5.7997769892277873e+00 0 0 0
68 2 2.4610000000000003e+00 0.0000000000000000e+00 5.7997769892277873e+00 0 0 0
85 2 3.6914999999999996e+00 2.1312885187134998e+00 5.7997769892277873e+00 0 0 0
381 2 0.0000000000000000e+00 2.8417180249513345e+00 8.8653243634486252e+00 0 0 0
382 2 0.0000000000000000e+00 0.0000000000000000e+00 8.8653243634486252e+00 0 0 0
383 2 1.2305000000000001e+00 7.1042950623783474e-01 8.8653243634486252e+00 0 0 0
387 2 1.2305000000000001e+00 2.1312885187134998e+00 8.8653243634486252e+00 0 0 0
388 2 2.4610000000000003e+00 2.8417180249513345e+00 8.8653243634486252e+00 0 0 0
389 2 2.4610000000000003e+00 0.0000000000000000e+00 8.8653243634486252e+00 0 0 0
390 2 3.6915000000000004e+00 7.1042950623783474e-01 8.8653243634486252e+00 0 0 0
398 2 3.6914999999999996e+00 2.1312885187134998e+00 8.8653243634486252e+00 0 0 0
62 2 1.2305000000000001e+00 3.5521475311891644e+00 5.7997769892277873e+00 0 0 0
83 2 3.6914999999999996e+00 3.5521475311891644e+00 5.7997769892277873e+00 0 0 0
87 2 4.9220000000000006e+00 1.4208590124756650e+00 5.7997769892277873e+00 0 0 0
89 2 4.9220000000000006e+00 0.0000000000000000e+00 5.7997769892277873e+00 0 0 0
114 2 6.1524999999999999e+00 2.1312885187134989e+00 5.7997769892277873e+00 0 0 0
116 2 7.3829999999999991e+00 1.4208590124756659e+00 5.7997769892277873e+00 0 0 0
118 2 7.3829999999999991e+00 0.0000000000000000e+00 5.7997769892277873e+00 0 0 0
399 2 4.9220000000000006e+00 2.8417180249513332e+00 8.8653243634486252e+00 0 0 0
400 2 4.9220000000000006e+00 0.0000000000000000e+00 8.8653243634486252e+00 0 0 0
401 2 6.1524999999999999e+00 7.1042950623783407e-01 8.8653243634486252e+00 0 0 0
413 2 6.1524999999999999e+00 2.1312885187134989e+00 8.8653243634486252e+00 0 0 0
414 2 7.3829999999999991e+00 2.8417180249513345e+00 8.8653243634486252e+00 0 0 0
415 2 7.3829999999999991e+00 0.0000000000000000e+00 8.8653243634486252e+00 0 0 0
112 2 6.1524999999999999e+00 3.5521475311891644e+00 5.7997769892277873e+00 0 0 0
151 2 8.6134999999999984e+00 2.1312885187135002e+00 5.7997769892277873e+00 0 0 0
153 2 9.8440000000000012e+00 1.4208590124756659e+00 5.7997769892277873e+00 0 0 0
155 2 9.8440000000000012e+00 0.0000000000000000e+00 5.7997769892277873e+00 0 0 0
196 2 1.1074500000000002e+01 2.1312885187135002e+00 5.7997769892277873e+00 0 0 0
416 2 8.6134999999999984e+00 7.1042950623783407e-01 8.8653243634486252e+00 0 0 0
432 2 8.6134999999999984e+00 2.1312885187135002e+00 8.8653243634486252e+00 0 0 0
433 2 9.8440000000000012e+00 2.8417180249513332e+00 8.8653243634486252e+00 0 0 0
434 2 9.8440000000000012e+00 0.0000000000000000e+00 8.8653243634486252e+00 0 0 0
435 2 1.1074500000000002e+01 7.1042950623783330e-01 8.8653243634486252e+00 0 0 0
455 2 1.1074500000000002e+01 2.1312885187135002e+00 8.8653243634486252e+00 0 0 0
149 2 8.6134999999999984e+00 3.5521475311891657e+00 5.7997769892277873e+00 0 0 0
194 2 1.1074500000000002e+01 3.5521475311891644e+00 5.7997769892277873e+00 0 0 0
58 2 0.0000000000000000e+00 5.6834360499026637e+00 5.7997769892277873e+00 0 0 0
60 2 0.0000000000000000e+00 4.2625770374269996e+00 5.7997769892277873e+00 0 0 0
77 2 1.2305000000000001e+00 6.3938655561404980e+00 5.7997769892277873e+00 0 0 0
79 2 2.4610000000000003e+00 5.6834360499026637e+00 5.7997769892277873e+00 0 0 0
81 2 2.4610000000000003e+00 4.2625770374269996e+00 5.7997769892277873e+00 0 0 0
106 2 3.6914999999999996e+00 6.3938655561404980e+00 5.7997769892277873e+00 0 0 0
385 2 0.0000000000000000e+00 4.2625770374269996e+00 8.8653243634486252e+00 0 0 0
386 2 1.2305000000000001e+00 4.9730065436648339e+00 8.8653243634486252e+00 0 0 0
394 2 1.2305000000000001e+00 6.3938655561404980e+00 8.8653243634486252e+00 0 0 0
396 2 2.4610000000000003e+00 4.2625770374269996e+00 8.8653243634486252e+00 0 0 0
397 2 3.6914999999999996e+00 4.9730065436648339e+00 8.8653243634486252e+00 0 0 0
409 2 3.6914999999999996e+00 6.3938655561404980e+00 8.8653243634486252e+00 0 0 0
75 2 1.2305000000000001e+00 7.8147245686161639e+00 5.7997769892277873e+00 0 0 0
104 2 3.6914999999999996e+00 7.8147245686161639e+00 5.7997769892277873e+00 0 0 0
384 2 0.0000000000000000e+00 7.1042950623783341e+00 8.8653243634486252e+00 0 0 0
395 2 2.4610000000000003e+00 7.1042950623783341e+00 8.8653243634486252e+00 0 0 0
108 2 4.9220000000000006e+00 5.6834360499026637e+00 5.7997769892277873e+00 0 0 0
110 2 4.9220000000000006e+00 4.2625770374269978e+00 5.7997769892277873e+00 0 0 0
143 2 6.1524999999999999e+00 6.3938655561404980e+00 5.7997769892277873e+00 0 0 0
145 2 7.3829999999999991e+00 5.6834360499026637e+00 5.7997769892277873e+00 0 0 0
147 2 7.3829999999999991e+00 4.2625770374269996e+00 5.7997769892277873e+00 0 0 0
411 2 4.9220000000000006e+00 4.2625770374269978e+00 8.8653243634486252e+00 0 0 0
412 2 6.1524999999999999e+00 4.9730065436648339e+00 8.8653243634486252e+00 0 0 0
428 2 6.1524999999999999e+00 6.3938655561404980e+00 8.8653243634486252e+00 0 0 0
430 2 7.3829999999999991e+00 4.2625770374269996e+00 8.8653243634486252e+00 0 0 0
141 2 6.1524999999999999e+00 7.8147245686161639e+00 5.7997769892277873e+00 0 0 0
410 2 4.9220000000000006e+00 7.1042950623783341e+00 8.8653243634486252e+00 0 0 0
429 2 7.3830000000000009e+00 7.1042950623783341e+00 8.8653243634486252e+00 0 0 0
188 2 8.6135000000000002e+00 6.3938655561404980e+00 5.7997769892277873e+00 0 0 0
190 2 9.8440000000000012e+00 5.6834360499026637e+00 5.7997769892277873e+00 0 0 0
192 2 9.8440000000000012e+00 4.2625770374270004e+00 5.7997769892277873e+00 0 0 0
235 2 1.1074500000000002e+01 6.3938655561404980e+00 5.7997769892277873e+00 0 0 0
431 2 8.6135000000000002e+00 4.9730065436648339e+00 8.8653243634486252e+00 0 0 0
451 2 8.6135000000000002e+00 6.3938655561404980e+00 8.8653243634486252e+00 0 0 0
453 2 9.8440000000000012e+00 4.2625770374270004e+00 8.8653243634486252e+00 0 0 0
454 2 1.1074500000000002e+01 4.9730065436648339e+00 8.8653243634486252e+00 0 0 0
475 2 1.1074500000000002e+01 6.3938655561404980e+00 8.8653243634486252e+00 0 0 0
186 2 8.6135000000000002e+00 7.8147245686161639e+00 5.7997769892277873e+00 0 0 0
233 2 1.1074500000000002e+01 7.8147245686161639e+00 5.7997769892277873e+00 0 0 0
452 2 9.8440000000000012e+00 7.1042950623783341e+00 8.8653243634486252e+00 0 0 0
71 2 0.0000000000000000e+00 9.9460130873296642e+00 5.7997769892277873e+00 0 0 0
73 2 0.0000000000000000e+00 8.5251540748539991e+00 5.7997769892277873e+00 0 0 0
100 2 2.4610000000000003e+00 9.9460130873296642e+00 5.7997769892277873e+00 0 0 0
102 2 2.4610000000000003e+00 8.5251540748539991e+00 5.7997769892277873e+00 0 0 0
392 2 0.0000000000000000e+00 8.5251540748539991e+00 8.8653243634486252e+00 0 0 0
393 2 1.2305000000000001e+00 9.2355835810918343e+00 8.8653243634486252e+00 0 0 0
407 2 2.4610000000000003e+00 8.5251540748539991e+00 8.8653243634486252e+00 0 0 0
408 2 3.6915000000000004e+00 9.2355835810918343e+00 8.8653243634486252e+00 0 0 0
96 2 1.2305000000000001e+00 1.2077301606043163e+01 5.7997769892277873e+00 0 0 0
98 2 1.2305000000000001e+00 1.0656442593567498e+01 5.7997769892277873e+00 0 0 0
133 2 3.6914999999999996e+00 1.2077301606043163e+01 5.7997769892277873e+00 0 0 0
135 2 3.6914999999999996e+00 1.0656442593567499e+01 5.7997769892277873e+00 0 0 0
391 2 0.0000000000000000e+00 1.1366872099805333e+01 8.8653243634486252e+00 0 0 0
405 2 1.2305000000000001e+00 1.0656442593567498e+01 8.8653243634486252e+00 0 0 0
406 2 2.4610000000000003e+00 1.1366872099805333e+01 8.8653243634486252e+00 0 0 0
424 2 3.6914999999999996e+00 1.0656442593567499e+01 8.8653243634486252e+00 0 0 0
137 2 4.9220000000000006e+00 9.9460130873296642e+00 5.7997769892277873e+00 0 0 0
139 2 4.9220000000000006e+00 8.5251540748539991e+00 5.7997769892277873e+00 0 0 0
182 2 7.3830000000000009e+00 9.9460130873296642e+00 5.7997769892277873e+00 0 0 0
184 2 7.3830000000000009e+00 8.5251540748539991e+00 5.7997769892277873e+00 0 0 0
426 2 4.9220000000000006e+00 8.5251540748539991e+00 8.8653243634486252e+00 0 0 0
427 2 6.1524999999999999e+00 9.2355835810918343e+00 8.8653243634486252e+00 0 0 0
449 2 7.3830000000000009e+00 8.5251540748539991e+00 8.8653243634486252e+00 0 0 0
178 2 6.1524999999999999e+00 1.2077301606043163e+01 5.7997769892277873e+00 0 0 0
180 2 6.1524999999999999e+00 1.0656442593567499e+01 5.7997769892277873e+00 0 0 0
425 2 4.9220000000000006e+00 1.1366872099805333e+01 8.8653243634486252e+00 0 0 0
447 2 6.1524999999999999e+00 1.0656442593567499e+01 8.8653243634486252e+00 0 0 0
448 2 7.3829999999999991e+00 1.1366872099805333e+01 8.8653243634486252e+00 0 0 0
229 2 9.8440000000000012e+00 9.9460130873296642e+00 5.7997769892277873e+00 0 0 0
231 2 9.8440000000000012e+00 8.5251540748539956e+00 5.7997769892277873e+00 0 0 0
450 2 8.6134999999999984e+00 9.2355835810918343e+00 8.8653243634486252e+00 0 0 0
473 2 9.8440000000000012e+00 8.5251540748539956e+00 8.8653243634486252e+00 0 0 0
474 2 1.1074500000000002e+01 9.2355835810918343e+00 8.8653243634486252e+00 0 0 0
225 2 8.6135000000000002e+00 1.2077301606043163e+01 5.7997769892277873e+00 0 0 0
227 2 8.6134999999999984e+00 1.0656442593567498e+01 5.7997769892277873e+00 0 0 0
272 2 1.1074500000000002e+01 1.2077301606043163e+01 5.7997769892277873e+00 0 0 0
274 2 1.1074500000000002e+01 1.0656442593567498e+01 5.7997769892277873e+00 0 0 0
471 2 8.6134999999999984e+00 1.0656442593567498e+01 8.8653243634486252e+00 0 0 0
472 2 9.8440000000000012e+00 1.1366872099805333e+01 8.8653243634486252e+00 0 0 0
495 2 1.1074500000000002e+01 1.0656442593567498e+01 8.8653243634486252e+00 0 0 0
496 2 1.2304999999999998e+01 1.1366872099805333e+01 8.8653243634486252e+00 0 0 0
1392 1 2.1443771792793629e+00 1.5783970988617304e+00 1.1714559318788492e+01 -1 2 1
2572 1 4.8944112460792670e+00 1.5103825205191150e+00 1.1434494357035343e+01 -1 3 -1
3995 1 5.7867284620265140e+00 3.8548339062372263e+00 1.1981091335779404e+01 0 1 -1
2002 1 8.4558929358816304e+00 3.5247593056082178e+00 1.1131356988516703e+01 0 2 0
613 1 9.4702456814920737e+00 8.5462734738513912e-01 1.2043137409017440e+01 1 0 0
1954 1 1.2240380474591680e+01 8.0030855145134749e-01 1.1473904597585934e+01 -1 0 0
2122 1 1.0594638802906864e+00 4.0962563635563507e+00 1.1256652539605637e+01 0 2 0
3266 1 2.3072554496197784e+00 6.3087298282382260e+00 1.2311138855552681e+01 -1 0 0
2013 1 4.6655248007448016e+00 6.1514045797664210e+00 1.1198217132115339e+01 2 -1 0
2018 1 9.8508474236065879e+00 5.6809380071359179e+00 1.1908764096053591e+01 0 -1 0
2109 1 8.6674303585001606e+00 8.0861473523668526e+00 1.1183224605570693e+01 -2 -2 0
4024 1 1.5886819984680727e+00 8.7418978858148755e+00 1.1248397658743363e+01 -3 -2 0
1950 1 2.8796753030145896e+00 1.0919196297415317e+01 1.1950552010115432e+01 5 2 0
3986 1 6.1580893727252501e+00 8.4155301409324785e+00 1.2061974644450505e+01 1 1 -1
2773 1 5.3767781133830708e+00 1.0779513900379122e+01 1.1179503349907755e+01 1 2 1
4061 1 1.0289582908503290e+01 1.0084903337129544e+01 1.2091643066691827e+01 0 -3 0
2592 1 2.1454657399865789e+00 1.4176715714430250e+00 1.4618434756911851e+01 2 -4 1
4000 1 8.7615110568753496e-01 3.8721187426019208e+00 1.5566821445815629e+01 -1 2 1
727 1 1.0678913646427541e+00 3.8580858374729159e+00 1.8303839220889135e+01 1 -2 -1
1445 1 4.5418762611671166e+00 1.2168867553407292e+00 1.5665905191056924e+01 -1 -2 1
557 1 6.0175195486896991e+00 3.2738837795299167e+00 1.4649644794093238e+01 -1 4 0
2087 1 8.7067254835049379e+00 3.2818278256624458e+00 1.5728074579186215e+01 1 3 0
2037 1 9.6152670831634417e+00 9.2667327564640478e-01 1.4862446203504506e+01 0 0 1
1328 1 1.2033225422573606e+01 6.0659264156204673e-01 1.5996149596168008e+01 2 0 0
642 1 2.5691248970047291e+00 5.9622959033686129e+00 1.5002695987795397e+01 -2 0 0
2604 1 5.2776724882699302e+00 5.9154765868447479e+00 1.5857850397607322e+01 0 3 1
1245 1 1.0102726015694282e+01 5.4862794082128161e+00 1.4653034105762146e+01 2 4 -2
3274 1 9.1773424668282360e+00 7.9236283197798327e+00 1.5703268276992477e+01 2 0 0
2633 1 1.5512957043034792e+00 8.5911304682579672e+00 1.5891892264558727e+01 -1 1 -1
1236 1 3.0442193559498620e+00 1.0832502489205858e+01 1.4986686662694630e+01 -2 -1 0
3326 1 6.6189088937581220e+00 8.2743855310379555e+00 1.4817751489597445e+01 0 3 0
1423 1 5.8331388733487355e+00 1.0703763306520580e+01 1.5557261668270169e+01 -1 1 0
1988 1 5.4917098143941088e+00 1.0757125251667089e+01 1.8266728592022830e+01 -1 0 0
2649 1 1.0498409031434907e+01 1.0343813375889274e+01 1.4770217920234394e+01 0 0 0
3441 1 2.0210453040679477e+00 1.3552268524557729e+00 1.9418249048242682e+01 2 1 1
1231 1 2.2795785744471115e+00 1.5618158073492101e+00 2.2255694355972913e+01 -2 -1 0
1970 1 4.5461554338746168e+00 1.5240274399449465e+00 1.8641646754277680e+01 0 1 0
693 1 5.9276914166982220e+00 3.4938264803251502e+00 2.2420379933625618e+01 -2 1 -1
1241 1 6.3153622913078982e+00 3.6185955062201440e+00 1.9399035713735106e+01 3 -1 -1
21 1 8.7864526053543539e+00 3.4808514870449629e+00 1.8458481641769851e+01 -1 0 -1
4017 1 9.8802662926990923e+00 9.6573374711079529e-01 2.2064881514239115e+01 -1 -1 0
2128 1 1.0054181752030987e+01 7.9733399080206235e-01 1.9142044414134489e+01 0 1 0
1261 1 2.4797159772999926e+00 6.2869578416820007e+00 1.9395844233947685e+01 2 -1 0
2102 1 2.4358703305553231e+00 6.4785514273963623e+00 2.2013844957895003e+01 -2 0 1
3926 1 5.5496634841761656e+00 6.1278237831126336e+00 1.8589265396248322e+01 -1 0 -1
611 1 9.2708328533758468e+00 8.0489753508688331e+00 1.8488603502445820e+01 1 1 1
762 1 1.0374667134293786e+01 5.4826780597287446e+00 1.9335058007231218e+01 3 3 0
4067 1 1.0190288606467384e+01 5.4535850146777953e+00 2.2113339629666761e+01 0 1 0
3963 1 1.3418603091999375e+00 8.7108074607192680e+00 1.8782448543948796e+01 0 4 0
713 1 2.8980468900982372e+00 1.1052406530108804e+01 1.9206587624360175e+01 1 1 1
3966 1 2.9574930471432830e+00 1.1064356037525677e+01 2.1967880966387554e+01 1 1 -1
617 1 6.7763464051813989e+00 8.3461088238480663e+00 2.2174173245713867e+01 0 -3 -2
3412 1 6.6324297467587421e+00 8.3746250690406150e+00 1.9409623332139034e+01 -1 -2 0
2745 1 1.0648486939855614e+01 1.0678187411642476e+01 1.9448889390376351e+01 0 -1 0
1969 1 1.0789713099946143e+01 1.0697982538255628e+01 2.2052349341782630e+01 0 -2 0
2759 1 1.9496215988639816e+00 1.6147817533499096e+00 2.6310398508841882e+01 -3 0 0
2006 1 3.3060087646434027e+00 3.8835257304293589e+00 2.3182954611534743e+01 1 4 0
2602 1 3.2804017573937174e+00 4.0163145478416453e+00 2.6069056183925831e+01 4 -1 0
4055 1 7.2928037622385551e+00 1.1422171205823000e+00 2.3230426847926626e+01 -1 0 -1
1359 1 7.1188735461874391e+00 1.5858613251577984e+00 2.6000449953834988e+01 0 1 -2
1338 1 5.8928174688739654e+00 4.0338364606170236e+00 2.6492785554125490e+01 1 0 0
701 1 1.1692723204861347e+01 3.3508395660153734e+00 2.2719299115307091e+01 0 0 -1
2631 1 9.7322203227920721e+00 9.9173335775148819e-01 2.6193225893652738e+01 -1 0 0
3444 1 1.1349801824933403e+01 2.9747447461878402e+00 2.5548267914153151e+01 0 1 -1
3342 1 2.3736720543886292e+00 6.5311767670701837e+00 2.6396748700960135e+01 -2 -1 0
562 1 7.4822684209240604e+00 5.5977434144801750e+00 2.2975261291860356e+01 -3 0 0
2654 1 7.5892090188037340e+00 5.8782056428571288e+00 2.5797333425803238e+01 3 -2 -1
1315 1 1.0337290262605459e+01 5.3807056952850347e+00 2.6240144153152105e+01 -1 -2 0
1254 1 1.1457880780293687e+01 7.9806456054365125e+00 2.2900092266322318e+01 -1 -3 0
3430 1 1.1677303558131063e+01 7.6209448644177673e+00 2.5607785747641739e+01 1 2 1
2007 1 2.6708322109231464e+00 1.1071685434013878e+01 2.6493099632948141e+01 1 1 -1
3992 1 3.7353532165346759e+00 8.4872194878253406e+00 2.5547350460530744e+01 0 0 0
3439 1 7.6125987822557514e-02 1.1380913775798629e+01 2.5383741644355538e+01 0 3 1
1292 1 4.2100943185017812e+00 8.6362468724514034e+00 2.2697243370449986e+01 -2 -3 0
4025 1 6.4469988299936158e+00 8.5634772596441380e+00 2.6174969158509512e+01 -1 2 -1
2699 1 8.2268888086738237e+00 1.0737333902104366e+01 2.3102420577484303e+01 1 -1 0
3288 1 1.1092913863583014e+01 1.0203294331895940e+01 2.6447755199141376e+01 -2 1 -1
1979 1 8.2449571430530249e+00 1.0612677268925379e+01 2.5863009071057416e+01 -2 -2 1
93 2 0.0000000000000000e+00 1.2787731112280996e+01 2.7342296150093972e+00 0 0 0
95 2 1.2305000000000001e+00 1.3498160618518829e+01 2.7342296150093972e+00 0 0 0
130 2 2.4610000000000003e+00 1.2787731112280996e+01 2.7342296150093972e+00 0 0 0
132 2 3.6915000000000004e+00 1.3498160618518829e+01 2.7342296150093972e+00 0 0 0
91 2 0.0000000000000000e+00 1.5629449137232333e+01 2.7342296150093972e+00 0 0 0
126 2 1.2305000000000001e+00 1.4919019630994494e+01 2.7342296150093972e+00 0 0 0
128 2 2.4610000000000003e+00 1.5629449137232328e+01 2.7342296150093972e+00 0 0 0
171 2 3.6915000000000004e+00 1.4919019630994494e+01 2.7342296150093972e+00 0 0 0
175 2 4.9220000000000006e+00 1.2787731112280996e+01 2.7342296150093972e+00 0 0 0
177 2 6.1524999999999990e+00 1.3498160618518829e+01 2.7342296150093972e+00 0 0 0
222 2 7.3829999999999991e+00 1.2787731112280996e+01 2.7342296150093972e+00 0 0 0
173 2 4.9220000000000006e+00 1.5629449137232333e+01 2.7342296150093972e+00 0 0 0
218 2 6.1524999999999990e+00 1.4919019630994494e+01 2.7342296150093972e+00 0 0 0
220 2 7.3829999999999991e+00 1.5629449137232333e+01 2.7342296150093972e+00 0 0 0
224 2 8.6135000000000002e+00 1.3498160618518835e+01 2.7342296150093972e+00 0 0 0
269 2 9.8440000000000012e+00 1.2787731112280996e+01 2.7342296150093972e+00 0 0 0
271 2 1.1074500000000002e+01 1.3498160618518829e+01 2.7342296150093972e+00 0 0 0
265 2 8.6135000000000002e+00 1.4919019630994494e+01 2.7342296150093972e+00 0 0 0
267 2 9.8440000000000012e+00 1.5629449137232328e+01 2.7342296150093972e+00 0 0 0
307 2 1.1074500000000002e+01 1.4919019630994494e+01 2.7342296150093972e+00 0 0 0
122 2 0.0000000000000000e+00 1.7050308149707998e+01 2.7342296150093972e+00 0 0 0
167 2 2.4610000000000003e+00 1.7050308149707998e+01 2.7342296150093972e+00 0 0 0
120 2 0.0000000000000000e+00 1.9892026174659328e+01 2.7342296150093972e+00 0 0 0
124 2 1.2305000000000001e+00 1.7760737655945832e+01 2.7342296150093972e+00 0 0 0
163 2 1.2305000000000001e+00 1.9181596668421495e+01 2.7342296150093972e+00 0 0 0
165 2 2.4610000000000003e+00 1.9892026174659328e+01 2.7342296150093972e+00 0 0 0
169 2 3.6914999999999996e+00 1.7760737655945832e+01 2.7342296150093972e+00 0 0 0
210 2 3.6914999999999996e+00 1.9181596668421495e+01 2.7342296150093972e+00 0 0 0
214 2 4.9220000000000006e+00 1.7050308149707998e+01 2.7342296150093972e+00 0 0 0
261 2 7.3830000000000009e+00 1.7050308149707998e+01 2.7342296150093972e+00 0 0 0
212 2 4.9220000000000006e+00 1.9892026174659328e+01 2.7342296150093972e+00 0 0 0
216 2 6.1524999999999999e+00 1.7760737655945832e+01 2.7342296150093972e+00 0 0 0
257 2 6.1524999999999999e+00 1.9181596668421495e+01 2.7342296150093972e+00 0 0 0
259 2 7.3829999999999991e+00 1.9892026174659328e+01 2.7342296150093972e+00 0 0 0
303 2 9.8440000000000012e+00 1.7050308149707998e+01 2.7342296150093972e+00 0 0 0
337 2 1.2304999999999998e+01 1.7050308149707998e+01 2.7342296150093972e+00 0 0 0
263 2 8.6134999999999984e+00 1.7760737655945832e+01 2.7342296150093972e+00 0 0 0
299 2 8.6135000000000002e+00 1.9181596668421495e+01 2.7342296150093972e+00 0 0 0
301 2 9.8440000000000012e+00 1.9892026174659335e+01 2.7342296150093972e+00 0 0 0
305 2 1.1074500000000002e+01 1.7760737655945835e+01 2.7342296150093972e+00 0 0 0
333 2 1.1074500000000002e+01 1.9181596668421495e+01 2.7342296150093972e+00 0 0 0
157 2 0.0000000000000000e+00 2.4154603212086325e+01 2.7342296150093972e+00 0 0 0
159 2 0.0000000000000000e+00 2.1312885187134999e+01 2.7342296150093972e+00 0 0 0
161 2 1.2304999999999993e+00 2.2023314693372832e+01 2.7342296150093972e+00 0 0 0
202 2 1.2304999999999993e+00 2.3444173705848499e+01 2.7342296150093972e+00 0 0 0
204 2 2.4610000000000003e+00 2.4154603212086325e+01 2.7342296150093972e+00 0 0 0
206 2 2.4610000000000003e+00 2.1312885187134995e+01 2.7342296150093972e+00 0 0 0
208 2 3.6914999999999996e+00 2.2023314693372832e+01 2.7342296150093972e+00 0 0 0
249 2 3.6915000000000004e+00 2.3444173705848499e+01 2.7342296150093972e+00 0 0 0
251 2 4.9220000000000006e+00 2.4154603212086325e+01 2.7342296150093972e+00 0 0 0
253 2 4.9220000000000006e+00 2.1312885187134995e+01 2.7342296150093972e+00 0 0 0
255 2 6.1524999999999990e+00 2.2023314693372832e+01 2.7342296150093972e+00 0 0 0
291 2 6.1524999999999999e+00 2.3444173705848499e+01 2.7342296150093972e+00 0 0 0
293 2 7.3830000000000009e+00 2.4154603212086336e+01 2.7342296150093972e+00 0 0 0
295 2 7.3829999999999991e+00 2.1312885187134999e+01 2.7342296150093972e+00 0 0 0
297 2 8.6135000000000002e+00 2.2023314693372832e+01 2.7342296150093972e+00 0 0 0
325 2 8.6134999999999984e+00 2.3444173705848499e+01 2.7342296150093972e+00 0 0 0
327 2 9.8440000000000012e+00 2.4154603212086336e+01 2.7342296150093972e+00 0 0 0
329 2 9.8440000000000012e+00 2.1312885187134999e+01 2.7342296150093972e+00 0 0 0
331 2 1.1074500000000002e+01 2.2023314693372832e+01 2.7342296150093972e+00 0 0 0
351 2 1.1074500000000002e+01 2.3444173705848499e+01 2.7342296150093972e+00 0 0 0
94 2 0.0000000000000000e+00 1.2787731112280996e+01 5.7997769892277873e+00 0 0 0
131 2 2.4610000000000003e+00 1.2787731112280996e+01 5.7997769892277873e+00 0 0 0
403 2 0.0000000000000000e+00 1.2787731112280996e+01 8.8653243634486252e+00 0 0 0
404 2 1.2305000000000001e+00 1.3498160618518829e+01 8.8653243634486252e+00 0 0 0
422 2 2.4610000000000003e+00 1.2787731112280996e+01 8.8653243634486252e+00 0 0 0
423 2 3.6915000000000004e+00 1.3498160618518829e+01 8.8653243634486252e+00 0 0 0
92 2 0.0000000000000000e+00 1.4208590124756663e+01 5.7997769892277873e+00 0 0 0
127 2 1.2305000000000001e+00 1.4919019630994494e+01 5.7997769892277873e+00 0 0 0
129 2 2.4610000000000003e+00 1.4208590124756663e+01 5.7997769892277873e+00 0 0 0
172 2 3.6915000000000004e+00 1.4919019630994494e+01 5.7997769892277873e+00 0 0 0
402 2 0.0000000000000000e+00 1.5629449137232333e+01 8.8653243634486252e+00 0 0 0
420 2 1.2305000000000001e+00 1.4919019630994494e+01 8.8653243634486252e+00 0 0 0
421 2 2.4610000000000003e+00 1.5629449137232328e+01 8.8653243634486252e+00 0 0 0
443 2 3.6915000000000004e+00 1.4919019630994494e+01 8.8653243634486252e+00 0 0 0
176 2 4.9220000000000006e+00 1.2787731112280996e+01 5.7997769892277873e+00 0 0 0
223 2 7.3829999999999991e+00 1.2787731112280996e+01 5.7997769892277873e+00 0 0 0
445 2 4.9220000000000006e+00 1.2787731112280996e+01 8.8653243634486252e+00 0 0 0
446 2 6.1524999999999990e+00 1.3498160618518829e+01 8.8653243634486252e+00 0 0 0
469 2 7.3829999999999991e+00 1.2787731112280996e+01 8.8653243634486252e+00 0 0 0
174 2 4.9220000000000006e+00 1.4208590124756663e+01 5.7997769892277873e+00 0 0 0
219 2 6.1524999999999990e+00 1.4919019630994494e+01 5.7997769892277873e+00 0 0 0
221 2 7.3830000000000009e+00 1.4208590124756663e+01 5.7997769892277873e+00 0 0 0
444 2 4.9220000000000006e+00 1.5629449137232333e+01 8.8653243634486252e+00 0 0 0
467 2 6.1524999999999990e+00 1.4919019630994494e+01 8.8653243634486252e+00 0 0 0
468 2 7.3829999999999991e+00 1.5629449137232333e+01 8.8653243634486252e+00 0 0 0
270 2 9.8440000000000012e+00 1.2787731112280996e+01 5.7997769892277873e+00 0 0 0
470 2 8.6135000000000002e+00 1.3498160618518835e+01 8.8653243634486252e+00 0 0 0
493 2 9.8440000000000012e+00 1.2787731112280996e+01 8.8653243634486252e+00 0 0 0
494 2 1.1074500000000002e+01 1.3498160618518829e+01 8.8653243634486252e+00 0 0 0
266 2 8.6135000000000002e+00 1.4919019630994494e+01 5.7997769892277873e+00 0 0 0
268 2 9.8440000000000012e+00 1.4208590124756663e+01 5.7997769892277873e+00 0 0 0
306 2 1.1074500000000002e+01 1.6339878643470161e+01 5.7997769892277873e+00 0 0 0
308 2 1.1074500000000002e+01 1.4919019630994494e+01 5.7997769892277873e+00 0 0 0
310 2 1.2304999999999998e+01 1.4208590124756658e+01 5.7997769892277873e+00 0 0 0
491 2 8.6135000000000002e+00 1.4919019630994494e+01 8.8653243634486252e+00 0 0 0
492 2 9.8440000000000012e+00 1.5629449137232328e+01 8.8653243634486252e+00 0 0 0
512 2 1.1074500000000002e+01 1.4919019630994494e+01 8.8653243634486252e+00 0 0 0
123 2 0.0000000000000000e+00 1.7050308149707998e+01 5.7997769892277873e+00 0 0 0
125 2 1.2305000000000001e+00 1.6339878643470165e+01 5.7997769892277873e+00 0 0 0
168 2 2.4610000000000003e+00 1.7050308149707998e+01 5.7997769892277873e+00 0 0 0
170 2 3.6915000000000004e+00 1.6339878643470165e+01 5.7997769892277873e+00 0 0 0
418 2 0.0000000000000000e+00 1.7050308149707998e+01 8.8653243634486252e+00 0 0 0
441 2 2.4610000000000003e+00 1.7050308149707998e+01 8.8653243634486252e+00 0 0 0
121 2 0.0000000000000000e+00 1.8471167162183658e+01 5.7997769892277873e+00 0 0 0