
# Create simulation box and atoms

read_data data.ML_graphite_m1000atm_255K
  orthogonal box = (0 0 1.44492) to (49.22 49.0196 26.4951)
  4 by 4 by 2 MPI processor grid
  reading atoms ...
  4078 atoms
  reading velocities ...
  4078 velocities
group water type 1
1318 atoms in group water
group graphite type 2
2760 atoms in group graphite

# Define potential

pair_style sw
pair_coeff * * MLC_e.sw mW C


# Fix graphite atoms in place

fix 5 graphite setforce 0.0 0.0 0.0
velocity graphite set 0.0 0.0 0.0


# Equilibration of molecular water

# Add velocity/set timestep

velocity	    water create ${TEMP} ${SEED} rot yes dist gaussian
velocity	    water create 255 ${SEED} rot yes dist gaussian
velocity	    water create 255 19672 rot yes dist gaussian
timestep	    5.0

# Define output

compute			1 water msd
compute			3 water temp
thermo	    	50
thermo_style	custom step temp press vol etotal ke pe c_1[4] c_3

# Neighbor lists

neigh_modify    delay 0 every 1 check yes

# Set fixes

fix             1 water momentum 10 linear 1 1 1 rescale
fix             2 water nve
fix             3 water temp/csvr ${TEMP} ${TEMP} 500.0 ${SEED}
fix             3 water temp/csvr 255 ${TEMP} 500.0 ${SEED}
fix             3 water temp/csvr 255 255 500.0 ${SEED}
fix             3 water temp/csvr 255 255 500.0 19672
fix             4 water press/berendsen z ${PRES} ${PRES} 1000.0 modulus 20000
fix             4 water press/berendsen z -1000 ${PRES} 1000.0 modulus 20000
fix             4 water press/berendsen z -1000 -1000 1000.0 modulus 20000

# Run 0.5 ns equilibration

dump		    1 all atom 2000 ${DIR}/eq.${NAME}-${TEMP}.dump
dump		    1 all atom 2000 run_9/eq.${NAME}-${TEMP}.dump
dump		    1 all atom 2000 run_9/eq.het_freeze_9-${TEMP}.dump
dump		    1 all atom 2000 run_9/eq.het_freeze_9-255.dump

reset_timestep  0

run	            100000
Neighbor list info ...
  update every 1 steps, delay 0 steps, check yes
  max neighbors/atom: 2000, page size: 100000
  master list distance cutoff = 6.67472
  ghost atom cutoff = 6.67472
  binsize = 3.33736, bins = 15 15 8
  1 neighbor lists, perpetual/occasional/extra = 1 0 0
  (1) pair sw, perpetual
      attributes: full, newton on
      pair build: full/bin/atomonly
      stencil: full/bin/3d
      bin: standard
Per MPI rank memory allocation (min/avg/max) = 4.115 | 4.3 | 4.486 Mbytes
Step Temp Press Volume TotEng KinEng PotEng c_1[4] c_3 
       0    82.373068   -1477.0276    60439.688   -12684.867    1001.0603   -13685.928            0          255 
      50    81.922149   -1831.4436    60436.177    -12723.87    995.58043   -13719.451   0.54759181     253.6041 
     100    82.135108   -1121.6581     60478.49   -12714.783    998.16847   -13712.952   0.85840177    254.26335 
     150    80.124497   -1341.7516    60560.446    -12730.19    973.73399   -13703.924     1.022551    248.03916 
     200    80.663593   -1335.8385    60529.051   -12758.816     980.2855   -13739.101    1.1795402    249.70803 
     250     81.52566   -1176.1092    60547.223   -12741.999      990.762   -13732.761     1.381845     252.3767 
     300    84.027722   -1559.6982    60538.303    -12749.23     1021.169   -13770.399     1.617375    260.12227 
     350    81.791757   -1359.9318    60517.418   -12739.945     993.9958   -13733.941    1.8673653    253.20045 
     400     82.13587   -1553.5377    60510.486   -12711.245    998.17773   -13709.422    2.1316663    254.26571 
     450    82.208375   -1193.2512    60512.248   -12709.175    999.05887   -13708.234    2.2578341    254.49016 
     500    79.884481   -1569.3415    60443.226   -12736.677    970.81714   -13707.494    2.5075351    247.29615 
     550    82.547211   -1536.2627    60444.143   -12743.365    1003.1767   -13746.541    2.7306479    255.53909 
     600    78.283325   -1636.2545    60432.052   -12744.766    951.35866   -13696.125    2.9309515     242.3395 
     650    79.028417   -1728.9621    60391.767   -12772.713    960.41358   -13733.127    3.0842804    244.64606 
     700    79.590794   -1525.0666    60386.402   -12762.887    967.24803   -13730.135     3.249632    246.38699 
     750    81.453891   -1531.0183    60407.734   -12769.302     989.8898   -13759.192    3.4133611    252.15453 
     800    79.214371   -1436.5162    60426.871   -12764.784    962.67344   -13727.458    3.5897453    245.22171 
     850    80.891398   -1611.5034    60336.401   -12777.253    983.05395   -13760.306    3.6748252    250.41323 
     900    80.302573   -1616.9741    60343.341   -12761.694     975.8981   -13737.592    3.8492744    248.59042 
     950    80.442727   -1248.7957     60346.36   -12741.252    977.60136   -13718.853    4.0489823     249.0243 
    1000    84.037089    -1557.693    60293.227   -12718.701    1021.2828   -13739.984    4.2275082    260.15126 
    1050    80.943951   -1411.0758     60246.27   -12726.739    983.69262   -13710.432    4.3501029    250.57592 
    1100    78.195391   -1241.6966      60246.9   -12751.109    950.29003   -13701.399    4.4667789    242.06728 
    1150    79.422966    -1009.457     60263.84   -12738.274    965.20845   -13703.482    4.6528668    245.86745 
    1200    83.263768    -1246.993    60236.149   -12700.086    1011.8848   -13711.971    4.8603513    257.75731 
    1250    82.613846   -1025.3953    60235.578   -12672.589    1003.9865   -13676.575    5.1140216    255.74537 
    1300    80.853168   -1418.2203     60234.73    -12687.07    982.58935    -13669.66    5.3899017    250.29489 
    1350    82.318314   -1392.4919    60247.276   -12685.792    1000.3949   -13686.187    5.8689761     254.8305 
    1400    80.883121   -1538.3012    60241.334   -12723.692    982.95336   -13706.645    6.1520482    250.38761 
    1450    80.109632   -1501.4421    60225.895   -12717.078    973.55334   -13690.632    6.3148369    247.99314 
    1500    80.539606    -1210.097    60216.908   -12721.858    978.77871   -13700.637    6.4069054     249.3242 
    1550    78.125958   -1171.0585    60187.576   -12690.445    949.44622   -13639.892     6.672257    241.85234 
    1600     81.78967   -1479.1173    60234.155   -12679.625    993.97045   -13673.595    6.7497551    253.19399 
    1650     81.36643   -1275.5443    60255.182   -12656.833    988.82691    -13645.66    6.9019849    251.88378 
    1700    81.001676   -1351.9886    60251.674   -12669.585    984.39414   -13653.979    6.9001714    250.75462 
    1750    79.812258   -1346.4287    60237.949     -12671.5    969.93943   -13641.439    7.0266647    247.07257 
    1800    81.328279   -1008.9863    60196.999   -12696.369    988.36326   -13684.732    7.1689824    251.76567 
    1850    81.634127   -1118.8972    60266.415   -12667.395    992.08016   -13659.476    7.3423461    252.71248 
    1900    80.886836   -1499.9136    60276.668   -12702.612    982.99851    -13685.61    7.4154473    250.39911 
    1950    80.989322   -1270.6057    60256.251   -12702.162      984.244   -13686.406    7.5233537    250.71637 
    2000    83.480753    -1030.888    60268.189   -12697.214    1014.5218   -13711.736    7.6121567    258.42903 
    2050    84.052538   -1358.6054    60270.052   -12691.399    1021.4705   -13712.869    7.7280197    260.19909 
    2100    84.376675   -1546.4486    60283.553   -12690.779    1025.4097   -13716.189    7.8518063    261.20251 
    2150     81.93036   -1682.8359    60272.347    -12695.68    995.68021    -13691.36    7.9648556    253.62952 
    2200    79.113787   -1983.7808    60252.905    -12715.84    961.45107   -13677.291     8.179025    244.91033 
    2250    82.068414   -1553.7372    60242.622   -12695.443    997.35795   -13692.801    8.4147801    254.05689 
    2300    82.197916   -1556.9395    60236.039   -12681.456    998.93176   -13680.388    8.7029288    254.45779 
    2350     79.88762   -1674.2293    60241.129   -12684.327    970.85528   -13655.183    8.9899642    247.30587 
    2400    81.999375   -1197.1067     60215.42   -12679.756    996.51894   -13676.275     9.233177    253.84317 
    2450    80.923655   -1219.4821    60166.267   -12704.312    983.44597   -13687.758    9.4763753    250.51309 
    2500    80.480926   -1383.9051    60168.194   -12723.866    978.06558   -13701.932     9.869321    249.14255 
    2550    80.984354   -1591.7853    60158.346   -12724.529    984.18363   -13708.713    10.191874      250.701 
    2600    80.177963   -1393.2355    60107.585   -12711.724    974.38374   -13686.107    10.248981    248.20467 
    2650    81.010256   -1400.6706    60125.211   -12725.364    984.49841   -13709.863    10.433251    250.78118 
    2700    79.737649   -1491.6636    60102.997   -12735.225    969.03272   -13704.258    10.625776    246.84161 
    2750    82.434452   -1386.1638    60089.169    -12723.17    1001.8063   -13724.976      10.9745    255.19002 
    2800    82.971082   -1929.1042    60039.032   -12698.129    1008.3279   -13706.457    11.355855    256.85125 
    2850    80.255438   -1476.9166    59931.053   -12694.042    975.32529   -13669.367    11.624632    248.44451 
    2900    82.534553   -1323.5751      59929.3   -12688.609    1003.0228   -13691.632    12.067315     255.4999 
    2950    81.511421   -1640.9215    59901.527   -12683.564    990.58894   -13674.153    12.320424    252.33262 
    3000     82.53026   -1264.8917    59901.883   -12681.094    1002.9707   -13684.065    12.808673    255.48661 
    3050    81.506831   -1232.9812    59970.516   -12700.302    990.53317   -13690.836    13.209466    252.31841 
    3100    80.109128   -1100.0579    59988.466   -12699.711    973.54721   -13673.258    13.447958    247.99158 
    3150    82.441172   -1288.8503    60006.597    -12717.34     1001.888   -13719.228    13.556363    255.21082 
    3200    79.713863   -1573.6467    60046.144   -12721.323    968.74365   -13690.066    13.997235    246.76797 
    3250    79.360086   -1512.1481    60036.064   -12706.995    964.44428   -13671.439    14.137172    245.67279 
    3300    80.271103   -1439.3597    60064.981    -12723.13    975.51566   -13698.645     14.36293      248.493 
    3350    82.778534   -1642.1527     60100.53    -12720.76    1005.9879   -13726.748    14.492692    256.25519 
    3400    82.534091   -1214.8141    60048.125   -12739.983    1003.0172       -13743    14.836933    255.49847 
    3450    81.939762   -1294.4667    60022.222   -12720.473    995.79447   -13716.268    14.944174    253.65863 
    3500    85.922934   -1379.5689    60012.317   -12672.663     1044.201   -13716.864    14.965342    265.98922 
    3550    83.925389     -1536.15    60038.153   -12671.445    1019.9253   -13691.371    15.063829    259.80548 
    3600    83.805285   -1439.6624    60061.516   -12683.874    1018.4657    -13702.34    15.415456    259.43367 
    3650    82.599106   -1358.7172    60047.746   -12642.377    1003.8073   -13646.185    15.690218    255.69974 
    3700    82.650279   -1368.2064    59998.377   -12663.336    1004.4292   -13667.766    15.640818    255.85815 
    3750    85.868047   -1629.5984    60068.306   -12635.182     1043.534   -13678.716    15.724947    265.81931 
    3800    83.098936   -1581.8419    60118.294    -12629.05    1009.8816   -13638.931    16.147995    257.24705 
    3850    83.034798    -1688.332    60127.379   -12639.049    1009.1022   -13648.151    16.267163     257.0485 
    3900    83.841405   -1804.2634    60133.096   -12647.578    1018.9047   -13666.483    16.590973    259.54549 
    3950    85.701565   -1267.7934    60159.127   -12621.372    1041.5108   -13662.883    16.744681    265.30393 
    4000    85.341884   -1192.6179    60217.028   -12632.243    1037.1396   -13669.382    16.708943    264.19048 
    4050    82.400746   -1353.5526    60278.989   -12651.817    1001.3967   -13653.214    16.892476    255.08568 
    4100    81.520728   -1821.3921    60331.244   -12626.131    990.70205   -13616.833    17.004023    252.36143 
    4150    82.828669   -1663.8773    60328.222    -12600.82    1006.5971   -13607.417    17.207721    256.41039 
    4200    85.699855   -1310.9045    60289.591   -12581.575      1041.49   -13623.065    17.347783    265.29864 
    4250     85.99668   -1024.4184    60348.292   -12601.238    1045.0972   -13646.335    17.503407    266.21751 
    4300    86.291115   -1299.1741    60392.903   -12600.768    1048.6754   -13649.444    17.879823    267.12899 
    4350    82.627572   -1421.9933    60385.472   -12621.586    1004.1533   -13625.739    18.088257    255.78786 
    4400    82.611632   -1488.7366     60376.06   -12651.968    1003.9595   -13655.928    18.221834    255.73851 
    4450    84.117421   -1479.1808    60350.649   -12648.924     1022.259   -13671.183    18.494231    260.39994 
    4500    81.240915   -1653.6906    60342.424   -12662.689    987.30155    -13649.99    18.914354    251.49522 
    4550    80.078159   -839.99249    60350.894   -12657.116    973.17085   -13630.287    19.171949    247.89571 
    4600    82.586011   -1376.8873    60342.006   -12652.478    1003.6482   -13656.126     19.29235     255.6592 
    4650    81.548455   -1180.3321    60379.484    -12641.54    991.03902   -13632.579    19.374379    252.44727 
    4700    81.205614   -1271.3457    60365.013   -12667.138    986.87255    -13654.01    19.639547    251.38594 
    4750    82.501766   -1682.0184    60357.653   -12656.761    1002.6244   -13659.385    19.735268    255.39841 
    4800    84.575708     -1773.82     60266.44   -12630.952    1027.8285   -13658.781    19.812154    261.81865 
    4850     85.23907   -1784.8037    60243.615   -12645.712    1035.8902   -13681.602    20.047712     263.8722 
    4900    82.792256   -1583.6225    60183.732   -12646.047    1006.1546   -13652.202    20.363333    256.29767 
    4950    84.009741   -1231.7523    60192.802   -12619.704    1020.9504   -13640.655     20.64718     260.0666 
    5000    80.364669   -1127.3997    60233.934   -12629.058    976.65274   -13605.711    20.997221    248.78265 
    5050    82.905386   -1837.3721    60222.411   -12658.002    1007.5295   -13665.531    21.056172    256.64788 
    5100    82.999778   -1449.5303    60232.607   -12650.443    1008.6766    -13659.12    21.356602    256.94009 
    5150    85.826093   -1514.1432    60245.463   -12655.764    1043.0241   -13698.789    21.676359    265.68943 
    5200    83.686219   -1597.7507    60176.607   -12643.404    1017.0188   -13660.423    22.169592    259.06508 
    5250    81.909927   -1618.3557    60139.572   -12645.231    995.43189   -13640.663    22.383418    253.56627 
    5300    82.706281   -1184.4147    60121.182   -12662.328    1005.1098   -13667.438    22.759389    256.03152 
    5350    83.269607   -1144.8085    60117.267   -12665.619    1011.9558   -13677.574    22.923144    257.77539 
    5400    81.443839   -1503.7682    60083.152   -12673.536    989.76764   -13663.303    23.340751    252.12341 
    5450    83.157747   -1090.3441    60086.353   -12647.248    1010.5964   -13657.844    23.383278    257.42911 
    5500    80.365867   -1081.3356    60077.915   -12692.107     976.6673   -13668.774    23.736567    248.78636 
    5550    82.596945   -1440.8171    60095.643   -12691.187    1003.7811   -13694.968    23.884889    255.69305 
    5600    85.602986   -1543.1717     60119.74   -12661.559    1040.3128   -13701.872     23.73694    264.99876 
    5650    83.599803   -1298.9271    60133.429   -12655.076    1015.9686   -13671.044    23.759129    258.79757 
    5700     82.86048   -1017.5369    60124.676   -12668.202    1006.9837   -13675.186    23.830618    256.50887 
    5750    84.571086   -929.74895    60154.992   -12657.924    1027.7723   -13685.696    23.982218    261.80434 
    5800    85.049409   -1158.8835    60170.842   -12682.433    1033.5853   -13716.018    24.221436    263.28507 
    5850    85.643263   -1237.9372     60236.41   -12677.962    1040.8022   -13718.764    24.532927    265.12345 
    5900    81.911324   -1312.7462     60308.09   -12675.069    995.44888   -13670.518    24.974384    253.57059 
    5950     83.66299   -1471.5223    60323.541   -12686.853    1016.7365   -13703.589    25.138654    258.99317 
    6000    84.635151   -1438.4359    60372.417   -12683.451    1028.5509   -13712.002    25.248181    262.00267 
    6050    81.844982   -1509.8714    60382.741   -12668.461    994.64264   -13663.103    25.440865    253.36522 
    6100    79.757017   -1369.5554    60347.621   -12662.504    969.26809   -13631.772    25.753316    246.90156 
    6150    81.048169   -1656.7746    60284.828   -12665.212    984.95915   -13650.171    26.095624    250.89854 
    6200    80.878375   -1675.1365    60254.788   -12673.092    982.89569   -13655.988    26.533609    250.37292 
    6250    83.306732   -1489.9298    60220.873    -12652.65    1012.4069   -13665.057    26.790768    257.89032 
    6300    82.630748   -1687.2633    60197.351   -12662.394    1004.1919   -13666.586    27.347049    255.79769 
    6350    81.814847   -1379.6938    60188.252   -12623.858    994.27641   -13618.134    27.533909    253.27193 
    6400    82.217139   -1574.6179    60156.553   -12631.036    999.16537   -13630.201    27.606069    254.51729 
    6450    81.678853   -1276.4705    60215.368   -12616.474    992.62371   -13609.097    27.792169    252.85094 
    6500    84.300141   -1337.3857    60249.777   -12605.814    1024.4796   -13630.294    27.883312    260.96559 
    6550    81.319755   -1680.5077    60281.104   -12628.768    988.25968   -13617.027    28.041623    251.73929 
    6600    83.600093   -1098.8194    60247.254   -12628.171    1015.9721   -13644.143    28.519576    258.79847 
    6650    84.258597   -1098.7797      60288.1   -12602.769    1023.9747   -13626.744    28.644857    260.83698 
    6700    85.913437   -1532.2066    60290.839   -12633.237    1044.0856   -13677.323    28.458116    265.95982 
    6750    82.338757   -1248.0178    60313.657   -12676.907    1000.6434    -13677.55    28.719372    254.89378 
    6800    80.498494   -1500.6847    60334.113   -12673.399    978.27908   -13651.678    28.835298    249.19693 
    6850    84.368186   -1017.4243    60365.544   -12652.465    1025.3065   -13677.772    28.947395    261.17623 
    6900    87.061688   -1172.9534    60389.895   -12626.257      1058.04   -13684.297    29.308485    269.51443 
    6950    84.879536   -1250.4547    60458.811   -12618.405    1031.5209   -13649.926    29.772104     262.7592 
    7000    83.881254   -1379.5764     60479.72   -12628.534     1019.389   -13647.923    29.773643    259.66885 
    7050    82.420752   -1747.0877    60530.836   -12648.548    1001.6398   -13650.188    30.049771    255.14761 
    7100    81.810779   -1409.4893    60555.365   -12651.399    994.22697   -13645.626    30.208556    253.25934 
    7150    82.893836   -1633.3893    60538.095   -12628.652    1007.3891   -13636.041    30.300636    256.61213 
    7200    81.593232   -1141.4558     60573.01   -12649.447    991.58317   -13641.031    30.451308    252.58588 
    7250       83.478   -1556.7391    60580.387   -12648.127    1014.4883   -13662.615    30.784685    258.42051 
    7300    83.093401   -1286.4806    60592.232   -12649.478    1009.8144   -13659.293    30.981642    257.22991 
    7350    83.951947   -1390.6189    60604.585   -12639.973    1020.2481   -13660.221     31.11099    259.88769 
    7400    82.153953   -1158.2934    60610.362   -12664.899    998.39748   -13663.297    31.145802    254.32169 
    7450    82.402838   -1173.0987    60588.522    -12656.57    1001.4221   -13657.992    31.151607    255.09216 
    7500    80.048656   -1459.9318    60634.785   -12678.057    972.81232   -13650.869    31.065442    247.80438 
    7550    81.292142    -1530.524    60653.563   -12650.063    987.92411   -13637.987    30.933521    251.65381 
    7600    82.318558   -1549.8155    60660.868   -12639.067    1000.3979   -13639.465     30.97624    254.83125 
    7650    85.857162   -1481.8686    60565.732   -12628.412    1043.4017   -13671.814    30.811048    265.78561 
    7700    83.809387   -1510.3201    60579.236   -12640.578    1018.5156   -13659.094    30.940468    259.44637 
    7750    82.969166   -1216.7038    60639.615   -12634.306    1008.3046    -13642.61     31.18479    256.84532 
    7800    85.426638   -1512.3575    60601.894   -12649.016    1038.1696   -13687.186    31.109745    264.45285 
    7850    80.161668   -1222.6337     60584.02     -12678.4    974.18572   -13652.585    31.346285    248.15423 
    7900    81.454465   -1415.6549    60576.635   -12692.724    989.89678   -13682.621    31.486521    252.15631 
    7950    81.391176   -1672.1842    60505.456   -12712.389    989.12763   -13701.516    31.946813    251.96038 
    8000    81.594883   -1250.1907    60503.462   -12675.811    991.60324   -13667.414    31.943276    252.59099 
    8050    82.355169   -1438.9799    60507.853     -12712.6    1000.8428   -13713.443    31.989064    254.94459 
    8100    80.598997     -1251.67    60458.102   -12684.815    979.50047   -13664.316    32.317449    249.50806 
    8150     80.27632   -1337.9595    60487.383   -12656.512    975.57905   -13632.092    32.649463    248.50915 
    8200    83.132362   -1740.9397    60486.991   -12695.446    1010.2879   -13705.734    32.665257    257.35052 
    8250    81.022578   -1392.4398    60496.707   -12727.246    984.64815   -13711.895    32.765785    250.81932 
    8300    77.844218   -1510.0544    60482.039   -12709.969     946.0223   -13655.991    32.958119    240.98017 
    8350    80.860832   -1267.7405    60461.962   -12705.802    982.68249   -13688.484    33.090576    250.31861 
    8400    81.925377    -1748.173    60438.067   -12694.633    995.61965   -13690.253    33.415426    253.61409 
    8450     82.34686    -1407.156    60417.991   -12716.752    1000.7418   -13717.494    33.606809    254.91887 
    8500     82.14421   -1420.9469    60510.173   -12704.118    998.27908   -13702.397    33.959505    254.29153 
    8550    84.100287   -1143.0871    60568.926   -12674.713    1022.0508   -13696.763    34.193495     260.3469 
    8600    82.092307   -1577.2723    60611.523   -12642.641    997.64831    -13640.29    34.420607    254.13085 
    8650    83.271472   -1123.0731    60593.436   -12624.602    1011.9784   -13636.581    34.346091    257.78116 
    8700    83.639447   -1245.3985    60594.923   -12642.312    1016.4503   -13658.763    34.395234    258.92029 
    8750    84.621714   -1349.5239    60560.499   -12611.952    1028.3876    -13640.34    34.673347    261.96107 
    8800    83.966643   -1481.0514    60537.561   -12634.755    1020.4267   -13655.182    34.588144    259.93318 
    8850    82.126245   -1363.9142    60506.872   -12673.622    998.06075   -13671.682    34.598328    254.23591 
    8900     80.98666   -1309.8698    60454.489    -12684.49    984.21165   -13668.702    34.689428    250.70813 
    8950     79.69458   -1315.5158    60434.291   -12673.468    968.50931   -13641.977    35.002764    246.70828 
    9000    81.640585   -1682.9061    60472.287   -12686.125    992.15865   -13678.284    35.322952    252.73247 
    9050    83.657685    -1472.612    60437.737   -12701.848     1016.672    -13718.52    35.728578    258.97675 
    9100    82.820811   -1748.9069    60432.498   -12701.583    1006.5017   -13708.085    36.066531    256.38606 
    9150    84.094553    -1380.243    60452.315   -12671.816    1021.9811   -13693.797    36.478141    260.32915 
    9200    83.772473   -1542.6527    60435.017   -12655.092     1018.067   -13673.159    37.085938     259.3321 
    9250     82.70732   -1527.5637    60409.465   -12639.705    1005.1224   -13644.828    37.558605    256.03473 
    9300    85.901469   -1516.9356    60398.393   -12600.646    1043.9402   -13644.587    37.666947    265.92277 
    9350    84.397311   -1280.7811    60397.685   -12580.014    1025.6605   -13605.675    37.745906    261.26639 
    9400    79.905372     -1694.28    60380.989   -12629.228    971.07102   -13600.299    37.791024    247.36082 
    9450    84.396835   -1485.8731    60348.106    -12603.63    1025.6547   -13629.285    38.080757    261.26492 
    9500     84.92468   -1980.9822    60343.922   -12612.246    1032.0695   -13644.315    38.439187    262.89895 
    9550    83.215992   -1069.8649    60275.863   -12595.633    1011.3042   -13606.938    38.497606    257.60941 
    9600    82.002561   -1672.1367    60225.439   -12618.714    996.55765   -13615.272    38.735105    253.85303 
    9650    82.192567   -1559.7229    60197.284   -12628.681    998.86675   -13627.548    38.947147    254.44123 
    9700    83.255733   -1387.9516    60203.019   -12643.018    1011.7872   -13654.805    39.282357    257.73244 
    9750    83.909672   -1374.0401    60184.057   -12618.735    1019.7343    -13638.47    39.587012    259.75682 
    9800    84.760108   -1299.2308    60149.664    -12638.02    1030.0695    -13668.09    39.774443    262.38949 
    9850    81.940988     -1591.57     60166.66   -12603.963    995.80937   -13599.773    40.087638    253.66242 
    9900    83.287278   -1795.0826     60059.79   -12626.669    1012.1705    -13638.84    40.389643    257.83009 
    9950    79.339152    -1405.925    60003.506   -12617.855    964.18987   -13582.045    40.615488    245.60799 
   10000    84.311734   -1238.2516    60040.707   -12633.558    1024.6205   -13658.179    40.900515    261.00147 
   10050    81.030676   -1831.8163     60037.75   -12657.336    984.74656   -13642.083    41.009907    250.84439 
   10100    80.747596   -1664.8652    60008.402   -12699.462    981.30636   -13680.768    41.246112    249.96807 
   10150    80.325814   -1648.2353    59949.437   -12672.488    976.18054   -13648.668    41.437929    248.66237 
   10200    81.114655   -1379.9356    59906.578   -12660.205    985.76714   -13645.972    41.861954    251.10436 
   10250    80.670534   -1575.8794      59860.6   -12640.286    980.36985   -13620.656    42.262377    249.72951 
   10300     84.33146   -1490.3799    59864.448   -12641.275    1024.8602   -13666.135    42.620359    261.06254 
   10350    84.044473   -931.46968    59852.431   -12637.495    1021.3725   -13658.867    43.149771    260.17412 
   10400    82.145234   -1263.5256    59856.098   -12665.071    998.29152   -13663.362    43.873092     254.2947 
   10450    83.389237   -1361.4611    59900.842   -12656.261    1013.4096   -13669.671    44.225187    258.14572 
   10500    83.545399   -1380.9338    59903.105   -12659.704    1015.3074   -13675.011    44.657956    258.62915 
   10550    81.455278   -1324.7875    59922.188    -12695.84    989.90666   -13685.746    44.843949    252.15882 
   10600    80.760231   -1539.9331    59944.426   -12714.949    981.45991   -13696.409    44.701652    250.00718 
   10650    81.220125   -1391.9516    60008.939   -12708.034    987.04889   -13695.082     44.60403    251.43086 
   10700    80.359296   -1192.5911    60071.351    -12714.19    976.58745   -13690.777    44.772884    248.76602 
   10750    80.908915   -1486.5141     60118.03   -12715.063    983.26683    -13698.33    44.521898    250.46746 
   10800    82.694421   -844.68048     60181.28   -12690.131    1004.9657   -13695.096    44.457709     255.9948 
   10850    82.131518   -1342.9704    60207.729   -12695.118    998.12484   -13693.242    44.490944    254.25224 
   10900    81.212405   -1338.6199    60242.373   -12698.303    986.95508   -13685.258    44.858966    251.40697 
   10950    82.258148   -1107.3542    60290.884   -12700.046    999.66375    -13699.71    44.768987    254.64425 
   11000    81.024611   -1246.0649    60279.871   -12651.462    984.67286   -13636.135    45.087857    250.82562 
   11050    80.967093   -1340.3437    60313.153   -12688.048    983.97385   -13672.022    45.174736    250.64756 
   11100    82.519044   -1534.6164    60309.526   -12682.052    1002.8343   -13684.887    45.381039    255.45189 
   11150    82.648174   -1582.8747    60323.793   -12695.973    1004.4036   -13700.376    45.770654    255.85164 
   11200    82.383896   -1393.6751    60343.502   -12682.294    1001.1919   -13683.486     45.82182    255.03352 
   11250    79.824661    -1727.818    60303.157   -12718.607    970.09016   -13688.697    46.167645    247.11097 
   11300    79.893312   -1523.4146    60256.278   -12742.631    970.92445   -13713.555    46.249616    247.32349 
   11350    79.198154   -1484.0269    60254.229   -12747.888    962.47637   -13710.364    46.253855    245.17151 
   11400    77.838248   -1329.9182    60237.955   -12778.185    945.94975   -13724.135    46.817877    240.96168 
   11450    82.092655   -1450.1331    60229.972   -12770.398    997.65255   -13768.051    46.571627    254.13193 
   11500    79.992833   -1724.4195    60163.453    -12752.53     972.1339   -13724.664    46.960723    247.63157 
   11550    79.811781   -1468.3644    60156.719   -12713.068    969.93362   -13683.001    47.294531    247.07109 
   11600      82.1271   -1539.9244    60200.602   -12696.411    998.07115   -13694.482    47.357562    254.23856 
   11650    81.649881   -1262.1327    60255.185   -12704.842    992.27162   -13697.114    47.817216    252.76125 
   11700    83.262789   -1258.5372    60234.216   -12709.857    1011.8729    -13721.73    47.782333    257.75428 
   11750    81.755609   -1306.3611    60291.871   -12714.655     993.5565   -13708.212    48.154544    253.08855 
   11800    78.852503   -1383.8554    60310.884   -12715.647    958.27575   -13673.922    48.715586    244.10149 
   11850    81.028498   -1438.3037    60317.784   -12730.287    984.72009   -13715.007    48.612018    250.83765 
   11900    82.606893   -1456.3679    60335.702    -12729.15     1003.902   -13733.052    48.768085    255.72384 
   11950     84.73192   -1316.1127    60333.975   -12699.216    1029.7269   -13728.943    49.220496    262.30223 
   12000    86.338478   -1395.4367    60356.667   -12691.087     1049.251   -13740.338    49.464721    267.27561 
   12050    81.760353   -1373.6545     60394.67    -12704.81    993.61416   -13698.424    50.023577    253.10323 
   12100    80.400578   -1250.3253    60394.683   -12730.726    977.08913   -13707.815    49.908752    248.89382 
   12150    82.213096   -1667.6176     60344.33   -12740.513    999.11623   -13739.629    50.192096    254.50478 
   12200    80.149003   -1491.6133    60395.064   -12746.509     974.0318   -13720.541    50.330435    248.11502 
   12250    81.645434   -1189.5546    60428.865   -12737.773    992.21757    -13729.99    50.410192    252.74748 
   12300    82.605696   -1144.5659     60463.25   -12750.843    1003.8874   -13754.731    50.694668    255.72014 
   12350    81.110164   -1164.0036    60585.983   -12770.962    985.71256   -13756.674    50.871451    251.09046 
   12400    81.434637   -1141.7457     60693.41   -12753.661    989.65581   -13743.317     51.27651    252.09492 
   12450    82.920071    -1325.991    60758.623   -12730.988    1007.7079   -13738.696    51.369619    256.69334 
   12500    81.265871   -1448.5791     60774.34   -12743.113    987.60484   -13730.718    51.287102    251.57248 
   12550    78.952049   -1321.7704    60770.975    -12742.21    959.48551   -13701.696    51.289624    244.40965 
   12600    80.755846   -1742.7828    60667.863   -12740.861    981.40662   -13722.268    51.291703    249.99361 
   12650    79.567775    -1518.305    60686.999   -12782.589    966.96828   -13749.557    51.036361    246.31573 
   12700    78.821238   -1717.9181    60641.092   -12760.164     957.8958   -13718.059    50.828899     244.0047 
   12750    81.763902   -1400.2854    60638.175   -12725.841    993.65729   -13719.498    50.694177    253.11422 
   12800    81.475531    -2130.837    60610.056   -12714.839    990.15278   -13704.992    50.740973    252.22152 
   12850    82.486114   -1802.0548    60577.261   -12705.656    1002.4342    -13708.09    50.773434    255.34995 
   12900    81.890676   -1585.8093    60479.423   -12692.485    995.19795   -13687.683    50.831586    253.50667 
   12950    80.240239   -1539.9078    60443.074   -12701.311    975.14058   -13676.451     51.26857    248.39746 
   13000    83.238593   -1323.8538    60409.471   -12687.814    1011.5789   -13699.393    51.306722    257.67938 
   13050    84.698258   -1469.8446    60422.253   -12694.448    1029.3178   -13723.766    51.330351    262.19802 
   13100    83.083921   -1577.4334    60398.718   -12703.404    1009.6992   -13713.103    51.649349    257.20057 
   13150    84.919924    -1736.494    60366.551   -12719.139    1032.0117   -13751.151    51.964008    262.88423 
   13200    79.599354   -1443.2895    60313.112   -12714.502    967.35205   -13681.854    52.202491    246.41349 
   13250    82.691863   -1414.2941    60324.856   -12716.356    1004.9346    -13721.29    52.522695    255.98688 
   13300     79.98565   -1222.4262    60333.394   -12743.359    972.04661   -13715.405    52.357134    247.60934 
   13350    80.599036   -906.14827    60429.907     -12749.9    979.50095   -13729.401    52.400652    249.50818 
   13400    80.498581   -1057.9807    60526.395   -12736.909    978.28014   -13715.189    52.198373     249.1972 
   13450    81.613747   -1123.4169    60580.181   -12725.279    991.83249   -13717.112    52.286876    252.64939 
   13500    82.095456   -1423.5392    60613.283   -12760.155    997.68658   -13757.842    52.618333     254.1406 
   13550    82.092247   -1572.3869    60651.653   -12726.708    997.64758   -13724.355    52.593799    254.13067 
   13600    81.604273   -1329.9268    60643.427    -12722.32    991.71735   -13714.038    52.986128    252.62006 
   13650    85.359404     -1183.24     60729.36   -12680.758    1037.3526    -13718.11    53.186118    264.24472 
   13700    85.181301   -1382.3424    60766.032   -12668.405    1035.1881   -13703.593    53.467603    263.69337 
   13750    81.828456   -1578.2871    60786.817    -12683.95     994.4418   -13678.392    53.736454    253.31406 
   13800    85.362502   -1941.4682    60789.226   -12674.151    1037.3902   -13711.541    54.077331    264.25431 
   13850      87.2854   -1787.0026    60781.045   -12669.678    1060.7587   -13730.437    54.600394    270.20697 
   13900    82.197518   -1379.9986    60777.889   -12694.335    998.92693   -13693.261     54.83654    254.45655 
   13950    82.499922    -1807.642    60801.297    -12678.81     1002.602   -13681.412    55.156268     255.3927 
   14000    83.672182   -1249.4568    60855.386   -12674.526    1016.8482   -13691.374    55.543043    259.02163 
   14050    81.424702   -1540.1356    60821.169   -12670.374    989.53507   -13659.909    55.979069    252.06417 
   14100    81.600574   -1561.4139    60842.077   -12703.678     991.6724   -13695.351    56.081738    252.60861 
   14150    83.082702    -1557.762    60812.719   -12700.275    1009.6844   -13709.959    55.893823    257.19679 
   14200    78.993028   -1409.4285    60745.571   -12699.167    959.98351   -13659.151    55.856369     244.5365 
   14250    80.972006   -1754.7789    60767.334   -12710.948    984.03356   -13694.981    55.903285    250.66277 
   14300    81.831384   -1565.2916    60734.715   -12693.489    994.47738   -13687.966     56.22626    253.32312 
   14350    82.547306   -1752.5688    60747.827   -12701.596    1003.1778   -13704.774    56.213665    255.53938 
   14400    81.719382   -1357.1364    60743.054   -12699.133    993.11625   -13692.249    56.114371     252.9764 
   14450    79.775604    -1646.271    60768.775   -12709.041    969.49397   -13678.535    56.296391     246.9591 
   14500    83.694612   -1367.2541      60783.8   -12742.678    1017.1207   -13759.799    56.845509    259.09107 
   14550    79.180883   -1579.1828    60752.092   -12755.416    962.26647   -13717.683    57.319126    245.11804 
   14600    82.647886   -1203.5873    60731.522   -12737.085    1004.4001   -13741.485    57.103996    255.85074 
   14650    81.964753    -1615.968    60741.023   -12722.854    996.09819   -13718.953    57.467747    253.73599 
   14700     80.77317   -1495.3638    60768.552   -12736.082    981.61715   -13717.699    57.755623    250.04724 
   14750     83.04026   -1242.4415    60779.753   -12688.107    1009.1686   -13697.275    57.630929    257.06541 
   14800    84.692492   -1394.9646    60764.107    -12687.64    1029.2477   -13716.887    57.660709    262.18017 
   14850    80.786335   -1323.8916    60798.404   -12705.876    981.77714   -13687.653    57.894532    250.08799 
   14900    83.423515   -1316.8897    60778.669   -12676.586    1013.8262   -13690.412    57.890226    258.25184 
   14950    81.794167   -1454.1457     60727.55   -12678.232    994.02509   -13672.257    57.955792    253.20791 
   15000    85.601524   -1308.8349    60748.095   -12681.887     1040.295   -13722.182    57.749839    264.99424 
   15050    81.696384   -1455.8514    60781.444   -12694.132    992.83676   -13686.969     57.63371    252.90521 
   15100    80.858554   -1619.4442    60759.806   -12691.687    982.65481   -13674.341    57.910427    250.31156 
   15150    81.208465   -1587.6545    60742.345   -12673.808     986.9072   -13660.715    58.454438    251.39477 
   15200    86.284149   -1376.0304    60779.368   -12606.444    1048.5908   -13655.034    58.726452    267.10742 
   15250     84.32876   -1341.5276    60730.705   -12591.994    1024.8274   -13616.821    58.930542    261.05418 
   15300    84.651811   -1403.1588    60732.491   -12614.599    1028.7534   -13643.352    58.882632    262.05424 
   15350    79.916308   -1146.6179    60778.621   -12636.553    971.20391   -13607.757    59.360319    247.39467 
   15400    82.315853    -1418.499    60777.718   -12658.048     1000.365   -13658.413    59.630327    254.82288 
   15450    78.908024   -1614.7702     60814.19   -12685.271    958.95048   -13644.221    59.780166    244.27336 
   15500     81.86321   -1408.6021    60803.721   -12689.206    994.86416   -13684.071    59.935256    253.42165 
   15550    83.926064   -1887.5879    60751.057   -12666.654    1019.9335   -13686.588    60.254024    259.80757 
   15600    83.651851   -1175.8491    60675.924   -12701.705    1016.6011   -13718.307     60.23503    258.95869 
   15650    81.999687   -1815.9532    60664.482   -12721.071    996.52273   -13717.594    60.028687    253.84413 
   15700    82.348387   -1640.2861    60564.091   -12723.083    1000.7604   -13723.843    60.261967    254.92359 
   15750    81.769883   -1691.6046    60528.521   -12702.764    993.72997   -13696.494    60.672823    253.13273 
   15800    80.802851    -1276.149    60536.781   -12720.502    981.97787    -13702.48     60.82232    250.13912 
   15850    79.938739   -1314.1666    60515.738    -12735.23    971.47652   -13706.707    60.742845    247.46411 
   15900    81.052591   -1224.2248    60554.154   -12757.864    985.01289   -13742.877    61.059349    250.91224 
   15950     81.56595   -1179.2458    60600.589   -12728.978    991.25162    -13720.23    61.346644    252.50143 
   16000    83.403285   -1194.0713    60635.344   -12695.833    1013.5803   -13709.413    61.301391    258.18921 
   16050     81.74539   -1585.6538    60616.489   -12715.423    993.43231   -13708.855    61.629809    253.05691 
   16100    83.100428   -1400.5605    60573.692   -12716.645    1009.8998   -13726.544    61.746598    257.25167 
   16150    83.599372   -1425.0026    60541.204    -12696.12    1015.9633   -13712.084    61.782064    258.79623 
   16200    80.782343   -1292.6651    60524.844   -12702.411    981.72863   -13684.139    62.145389    250.07563 
   16250    81.346332   -1610.3506    60485.256   -12714.801    988.58266   -13703.383    62.174635    251.82156 
   16300    82.246435   -1340.7075    60458.811   -12727.246     999.5214   -13726.767    62.404662    254.60798 
   16350    81.136443   -1482.2537    60454.373   -12734.762    986.03192   -13720.794    62.251997    251.17181 
   16400    85.692591   -1089.3003    60469.505   -12685.145    1041.4017   -13726.547     62.21768    265.27615 
   16450    81.637672   -1314.3594    60491.445   -12689.839    992.12325   -13681.962    62.513646    252.72345 
   16500    81.777942   -1140.7886    60474.637   -12719.723    993.82791   -13713.551    62.776583    253.15768 
   16550    81.029985   -1604.4179    60507.552   -12738.342    984.73817    -13723.08    63.389694    250.84226 
   16600    79.148986    -1458.672    60485.812   -12739.289    961.87883   -13701.168    63.372588     245.0193 
   16650    78.293177   -1243.5073    60512.342    -12735.86    951.47839   -13687.338    63.541578    242.36999 
   16700    80.221902   -1396.1049    60554.342   -12720.724    974.91772   -13695.642    64.406362    248.34069 
   16750    81.638736   -1417.8354    60495.443   -12691.401    992.13618   -13683.537    64.829792    252.72675 
   16800    82.670085   -1406.5644    60521.238   -12632.748    1004.6699   -13637.417    65.135247    255.91946 
   16850    86.272878   -1279.2494    60509.232   -12637.574    1048.4538   -13686.027    65.159886    267.07253 
   16900     86.12938   -1581.2233    60492.798   -12632.998    1046.7099   -13679.708    65.704944    266.62831 
   16950    81.457867   -1495.9551    60482.751   -12660.925    989.93811   -13650.863    65.803759    252.16684 
   17000    82.499162   -1895.9962    60451.334   -12663.066    1002.5927   -13665.659     65.98239    255.39034 
   17050    81.925492   -1344.2849     60449.58   -12644.863    995.62106   -13640.484    66.212956    253.61445 
   17100    82.204291   -1074.1296    60508.526    -12662.94    999.00923   -13661.949    66.404986    254.47752 
   17150    78.663139   -1402.6228    60544.596   -12681.173    955.97446   -13637.148     66.70654    243.51528 
   17200    83.053408   -1532.9991    60515.338   -12676.617    1009.3283   -13685.945    67.018137    257.10611 
   17250    82.765379   -1319.9709     60520.87   -12670.076     1005.828   -13675.904    67.357172    256.21447 
   17300    84.489401   -1530.4934     60574.59   -12667.694    1026.7796   -13694.474    67.392958    261.55147 
   17350    84.016428   -1428.6655    60572.903   -12671.528    1021.0317   -13692.559    67.641446     260.0873 
   17400    82.317526   -1844.1528    60544.658    -12695.44    1000.3854   -13695.825    68.032691    254.82806 
   17450    83.735845   -1296.3205    60565.453   -12678.331    1017.6218   -13695.953    68.286644    259.21871 
   17500    83.930974   -1832.9484    60564.826   -12699.136    1019.9932   -13719.129    68.393452    259.82276 
   17550    82.979428   -1754.1859    60508.705     -12709.5    1008.4293    -13717.93    68.380282    256.87709 
   17600    83.330998   -1743.8916    60473.856   -12684.316    1012.7018   -13697.018    68.710225    257.96544 
   17650    81.125877   -1567.5345    60494.329   -12691.385    985.90352   -13677.288    69.088534     251.1391 
   17700    82.931678   -1566.8819    60477.468   -12718.658     1007.849   -13726.507    69.320835    256.72927 
   17750    80.108038   -1371.6546    60497.889   -12728.616    973.53396    -13702.15    69.442984    247.98821 
   17800    82.795731   -1659.0879    60492.359   -12717.205    1006.1969   -13723.402    69.934724    256.30843 
   17850    82.059804   -1143.4842      60583.7   -12732.357    997.25331   -13729.611    70.443912    254.03024 
   17900    84.259959   -1538.5232     60632.23   -12690.527    1023.9913   -13714.518    70.743377     260.8412 
   17950    83.044251    -1561.878    60538.213   -12720.423    1009.2171    -13729.64    70.960134    257.07776 
   18000    82.545801   -1563.7484    60494.277   -12750.699    1003.1595   -13753.858    71.028232    255.53472 
   18050    80.417803    -1415.921    60535.196   -12781.303    977.29847   -13758.602    71.594191    248.94714 
   18100    80.358476     -1809.74    60459.516   -12778.286    976.57748   -13754.863    71.877121    248.76348 
   18150    77.810398   -1351.6107    60370.553    -12784.13     945.6113   -13729.742    71.975888    240.87547 
   18200    80.960337   -1472.5548    60310.329   -12774.343    983.89176   -13758.234    71.892848    250.62665 
   18250    81.493666   -1287.5625    60329.975   -12774.114    990.37317   -13764.487     72.04479    252.27766 
   18300    81.288864   -1202.2095    60300.399   -12752.081    987.88426   -13739.965    71.928915    251.64366 
   18350    82.539927   -1363.7437    60330.599   -12780.377    1003.0881   -13783.465    71.890018    255.51654 
   18400    82.834332   -1339.7272    60304.003   -12765.795     1006.666   -13772.461    72.103744    256.42792 
   18450    82.538828   -1481.7769    60320.117   -12744.418    1003.0748   -13747.493     72.12408    255.51314 
   18500    82.531056   -1327.9239     60338.03   -12735.912    1002.9803   -13738.893    72.453034    255.48908 
   18550    80.785532   -1553.8109    60309.225    -12751.43    981.76739   -13733.197    73.005224    250.08551 
   18600    82.291442   -1529.6901    60234.705   -12768.366    1000.0684   -13768.435    73.382327    254.74731 
   18650     81.50017   -974.79085    60220.535    -12737.38    990.45221   -13727.832    73.241507    252.29779 
   18700    82.307515   -1492.1975    60248.632   -12722.267    1000.2637   -13722.531    73.253872    254.79707 
   18750    84.524523   -1195.5048    60253.125   -12715.991    1027.2065   -13743.198     73.33223     261.6602 
   18800    83.479783   -1440.4237    60265.466   -12715.273      1014.51   -13729.783    73.290298    258.42603 
   18850     82.02629   -988.79719    60323.124   -12731.917    996.84602   -13728.763    73.356758    253.92649 
   18900    83.726268    -1196.258    60355.644   -12733.075    1017.5055   -13750.581    73.633002    259.18906 
   18950    84.243889   -1381.4313    60408.703   -12712.388     1023.796   -13736.184    73.188638    260.79145 
   19000    83.209989   -1604.8824     60448.84   -12684.177    1011.2312   -13695.408    73.078888    257.59083 
   19050    81.170394   -1253.6591    60430.868   -12696.982    986.44452   -13683.427     73.01267    251.27691 
   19100    83.696966   -1488.3043    60452.404   -12675.984    1017.1494   -13693.133    73.083373    259.09835 
   19150    81.460593   -1512.6395    60463.019   -12686.221    989.97124   -13676.192     73.51471    252.17528 
   19200    81.388443   -1212.3933    60478.712   -12734.829    989.09443   -13723.923    73.583763    251.95192 
   19250    85.051274   -1423.6874    60488.162   -12712.498    1033.6079   -13746.106    73.539021    263.29085 
   19300    83.495667   -1523.3092    60512.383   -12684.879     1014.703   -13699.582    73.484372     258.4752 
   19350    81.114265   -1464.2226    60521.801   -12721.813    985.76241   -13707.575    73.576714    251.10316 
   19400    83.969895   -1781.1528    60525.228    -12707.62    1020.4662   -13728.086    74.015389    259.94325 
   19450     80.25747   -1668.4006    60546.175   -12705.469    975.34998   -13680.819    74.157105     248.4508 
   19500    81.413846   -1627.9857    60550.073   -12746.117    989.40314    -13735.52    74.313482    252.03056 
   19550    81.085426   -1446.3145    60480.165    -12729.53    985.41193   -13714.942    74.824843    251.01388 
   19600    82.553562   -1279.1348    60478.932   -12736.031    1003.2538   -13739.285    75.101972    255.55875 
   19650    81.368193   -1559.2209    60483.179   -12710.832    988.84833   -13699.681    75.602241    251.88924 
   19700     81.55486   -1381.0787    60497.608   -12694.269    991.11685   -13685.386    76.204967     252.4671 
   19750    82.424215   -1712.4556    60486.717   -12675.976    1001.6819   -13677.658    76.835657    255.15833 
   19800    82.758161    -1481.832    60462.256   -12663.597    1005.7403   -13669.337    77.068985    256.19212 
   19850    82.210588    -1470.201    60452.296   -12658.667    999.08576   -13657.753    77.191376    254.49702 
   19900    81.746622   -1448.7897    60414.901   -12630.653    993.44729     -13624.1    77.760825    253.06073 
   19950     83.41244   -1444.2266    60414.225   -12644.503    1013.6916   -13658.194     78.13609    258.21755 
   20000    82.884483   -1454.8294    60381.529   -12680.778    1007.2754   -13688.054    78.294638    256.58317 
   20050    84.137974   -1602.2164    60370.441   -12678.817    1022.5088   -13701.326      78.2669    260.46357 
   20100    81.129762   -1729.6981    60353.163    -12682.69    985.95073   -13668.641    78.547996    251.15113 
   20150    84.584084   -1604.7792    60320.283   -12661.038    1027.9303   -13688.969    78.751637    261.84458 
   20200    83.486654   -1607.9265    60282.759   -12678.862    1014.5935   -13693.455    79.276921     258.4473 
   20250    83.235583   -1567.4646    60261.295   -12701.394    1011.5423   -13712.936    79.409753    257.67006 
   20300    84.520563    -1419.379    60205.131    -12701.64    1027.1583   -13728.798    79.763277    261.64794 
   20350    82.709098   -1731.5275    60227.367   -12746.315     1005.144   -13751.459    79.796089    256.04024 
   20400     77.22774   -1634.5022    60224.095   -12789.569    938.53039   -13728.099    79.674533    239.07175 
   20450    80.901694   -1023.7857    60250.924   -12773.392    983.17908   -13756.571    80.079883    250.44511 
   20500    79.213907   -1713.5806    60328.095   -12728.305     962.6678   -13690.973    80.335421    245.22027 
   20550    82.024099   -1298.8236    60356.694   -12743.958     996.8194   -13740.778    80.202834     253.9197 
   20600    80.296574   -1638.8966    60309.065    -12709.55    975.82519   -13685.375    80.499009    248.57185 
   20650    80.149303     -1015.62    60288.401   -12709.152    974.03546   -13683.188    80.700934    248.11595 
   20700    82.892091   -1510.9628    60260.686   -12682.657    1007.3679   -13690.025    80.629618    256.60672 
   20750    83.370256   -1285.7308    60241.161   -12683.031    1013.1789    -13696.21    80.960195    258.08696 
   20800    80.620155   -1558.7312    60201.493   -12693.338    979.75761   -13673.096    80.989097    249.57356 
   20850    84.350508   -1081.7813    60242.064    -12689.78    1025.0917   -13714.872    81.093136     261.1215 
   20900    82.089342   -1433.5567    60280.866   -12700.184    997.61229   -13697.796    81.413356    254.12168 
   20950    84.600366   -1458.9861    60288.582   -12725.908    1028.1282   -13754.036     81.52667    261.89498 
   21000    82.273466   -1447.1302    60245.136   -12741.572     999.8499   -13741.422    81.857354    254.69166 
   21050    81.387248   -1561.3813    60222.306   -12730.514     989.0799   -13719.594     81.61557    251.94822 
   21100    82.289535   -1481.1414    60237.249   -12748.039    1000.0452   -13748.084    81.342459    254.74141 
   21150    83.532935   -1241.9278    60256.233   -12715.998    1015.1559   -13731.154    81.426218    258.59057 
   21200    82.113293   -1738.8442    60227.401   -12705.156    997.90335    -13703.06    81.227812    254.19582 
   21250    81.004656   -1661.0055    60179.879   -12696.104    984.43035   -13680.535     81.51528    250.76384 
   21300    81.941915   -1342.0471    60195.844   -12704.499    995.82064   -13700.319    81.896951    253.66529 
   21350    82.388638   -1626.0089    60201.255   -12745.042    1001.2496   -13746.291     82.33755     255.0482 
   21400    82.823775   -1160.2557    60190.094   -12730.386    1006.5377   -13736.924    82.255097    256.39524 
   21450    81.011571   -1238.3791    60221.305   -12737.082    984.51438   -13721.596    82.282912    250.78525 
   21500    82.481189   -1725.7731    60279.097   -12712.425    1002.3743   -13714.799     82.65686    255.33471 
   21550    83.802916    -1337.504    60306.957   -12687.841    1018.4369   -13706.277    83.154954    259.42634 
   21600    80.004252   -1453.5583    60345.265   -12720.084    972.27268   -13692.357    83.321747    247.66692 
   21650    78.722401   -1660.8127    60324.474   -12724.796    956.69465    -13681.49    83.783566    243.69873 
   21700    80.043924    -1428.133     60271.98   -12724.451     972.7548   -13697.206    83.939097    247.78973 
   21750    82.696264   -1128.0675    60329.992   -12707.024    1004.9881   -13712.012    83.918256    256.00051 
   21800    85.384419   -1710.3245     60361.09   -12659.509    1037.6566   -13697.165    83.938212    264.32215 
   21850    81.822622   -1273.6401      60358.7   -12667.185     994.3709   -13661.556    83.704142      253.296 
   21900    81.817438   -1615.1224    60373.954   -12669.958     994.3079   -13664.266    83.846565    253.27995 
   21950     83.25605   -1321.0608    60429.049   -12712.083     1011.791   -13723.874    83.724879    257.73342 
   22000    84.294839   -1410.1767    60409.287   -12711.768    1024.4152   -13736.183    83.722665    260.94917 
   22050    81.436142   -1487.0869    60422.133   -12684.947     989.6741   -13674.621    84.327465    252.09958 
   22100    82.268321   -1555.7915    60410.601   -12682.575    999.78737   -13682.363    84.267267    254.67574 
   22150    83.275884   -1547.8527    60400.508   -12672.012     1012.032   -13684.044    84.968875    257.79482 
   22200    83.847819   -1259.2902    60369.267   -12704.626    1018.9826   -13723.608    85.340363    259.56534 
   22250    81.413318   -1329.4846    60391.819   -12708.849    989.39672   -13698.245    85.612558    252.02893 
   22300    82.854737   -1411.3068    60410.187   -12667.495    1006.9139   -13674.409    85.828261    256.49109 
   22350    82.783145   -1329.0546    60421.516    -12665.61    1006.0439   -13671.654    86.261578    256.26946 
   22400     83.34823    -1622.368    60434.939   -12668.291    1012.9112   -13681.203    86.030732    258.01878 
   22450    82.425561   -1471.8902    60487.457   -12655.292    1001.6983    -13656.99    86.109999     255.1625 
   22500     82.29149   -1394.0618    60550.601   -12685.562    1000.0689   -13685.631    86.046681    254.74746 
   22550    82.703192   -1127.7161    60597.807   -12679.107    1005.0723   -13684.179    86.283671    256.02196 
   22600    82.332728   -1519.1568    60632.338   -12687.343    1000.5701   -13687.913    86.655653    254.87512 
   22650    81.157594   -1496.5044    60627.521   -12712.139    986.28897   -13698.428    86.964749    251.23729 
   22700    82.326012   -1843.3374    60630.458   -12698.882    1000.4885    -13699.37    87.515731    254.85433 
   22750    81.716605   -1284.1084    60577.409   -12721.526     993.0825   -13714.609    87.355604     252.9678 
   22800    84.781728   -1549.4624    60554.653   -12720.375    1030.3322   -13750.707    87.134556    262.45642 
   22850     79.05901   -1102.8818    60559.219   -12729.335    960.78538   -13690.121    87.353056    244.74076 
   22900    80.335717   -1215.7073    60542.305   -12702.776    976.30089   -13679.077    87.248307    248.69303 
   22950    84.443229   -1470.5748    60590.025   -12680.157    1026.2185   -13706.375    87.761687    261.40854 
   23000    81.795456   -1653.0541    60595.581   -12703.586    994.04076   -13697.627    87.803255     253.2119 
   23050     78.03838   -1830.2571    60577.458   -12720.141     948.3819   -13668.523    87.528683    241.58123 
   23100    78.563822   -1459.2262     60540.15   -12735.819    954.76748   -13690.586    87.626229    243.20782 
   23150     79.67712   -1236.0766    60631.046   -12739.983    968.29712    -13708.28    87.686656    246.65423 
   23200    80.276166   -946.51388     60682.56   -12768.094    975.57718   -13743.671     87.73779    248.50868 
   23250    83.215781    -1485.773    60723.733   -12776.549    1011.3016   -13787.851    88.270578    257.60876 
   23300    83.439864   -1464.8872    60726.592   -12715.568    1014.0249   -13729.593    88.508079    258.30245 
   23350    82.401427   -1385.6798    60734.738   -12710.302     1001.405   -13711.707     88.78446    255.08779 
   23400    83.508398   -1510.4136    60773.583   -12722.708    1014.8577   -13737.566    89.273882    258.51461 
   23450    84.449876    -1668.784      60787.6   -12718.753    1026.2993   -13745.053    89.484716    261.42911 
   23500    84.277246   -1485.3187    60784.873   -12696.574    1024.2014   -13720.775    89.477022    260.89471 
   23550    83.054086   -1236.2274     60823.43   -12690.248    1009.3366   -13699.585    89.588062    257.10821 
   23600    83.990186   -1413.8996    60814.582   -12687.064    1020.7128   -13707.777    89.736112    260.00607 
   23650    82.164649   -1289.9751    60807.449   -12719.924    998.52747   -13718.452     89.63235     254.3548 
   23700    80.334096    -1833.691    60758.338   -12731.176     976.2812   -13707.458    89.616414    248.68801 
   23750    80.525226   -1490.5134    60709.994   -12733.073    978.60395   -13711.677    89.611912    249.27968 
   23800    81.535277   -1069.3432    60669.935   -12701.722    990.87886   -13692.601    90.183206    252.40647 
   23850    83.421925   -1464.9254    60681.284   -12690.644    1013.8068   -13704.451    90.160651    258.24691 
   23900    83.146548   -1483.0878    60648.396   -12698.355    1010.4603   -13708.815    90.176167    257.39444 
   23950    84.445578   -1189.5173     60646.18   -12738.141    1026.2471   -13764.388     89.90563    261.41581 
   24000    80.581168   -1222.8506    60691.594   -12755.461     979.2838   -13734.745    90.010064    249.45286 
   24050    82.543799   -1247.7917     60719.64   -12761.697    1003.1352   -13764.833    90.266104    255.52853 
   24100    80.366989   -1545.3488    60699.048   -12745.746    976.68094   -13722.426    90.078917    248.78984 
   24150    82.006169   -1162.2093     60715.47   -12724.381     996.6015   -13720.983    90.188305     253.8642 
   24200    81.562948   -1508.8709    60718.359   -12666.771    991.21514   -13657.986    90.335361    252.49213 
   24250    83.666651   -1581.3862    60717.253   -12680.518    1016.7809   -13697.299     90.37669    259.00451 
   24300    82.256493    -1544.363    60758.707   -12687.798    999.64363   -13687.441    90.684598    254.63912 
   24350    83.386373   -1451.1394    60703.662   -12683.831    1013.3748   -13697.206    91.101511    258.13686 
   24400    84.093724   -1745.8931    60664.359   -12675.859    1021.9711    -13697.83    91.345346    260.32659 
   24450    86.139432   -1355.8735     60628.59    -12680.67    1046.8321   -13727.502    91.355001    266.65943 
   24500    84.631683   -1467.2964    60623.593   -12670.291    1028.5088     -13698.8    92.025463    261.99193 
   24550    83.655194    -1281.336     60621.54   -12651.242    1016.6417   -13667.883    92.570403    258.96904 
   24600     83.03255   -1184.8047    60657.635    -12683.53    1009.0749   -13692.605    92.985237    257.04154 
   24650    80.934327   -1457.6658    60690.354   -12746.678    983.57566   -13730.254    93.370746    250.54613 
   24700    81.350895   -1249.8591     60716.43   -12744.891    988.63811   -13733.529    92.958909    251.83569 
   24750    79.858708   -1301.9356    60689.957   -12690.408    970.50392   -13660.912    93.467489    247.21636 
   24800    83.097543   -1169.4521    60717.279   -12689.514    1009.8647   -13699.379    93.785172    257.24274 
   24850    84.151374   -1508.8778    60691.181   -12682.779    1022.6717    -13705.45    94.379898    260.50505 
   24900    83.432213   -1039.9293    60686.888   -12692.657    1013.9319   -13706.589     94.60455    258.27876 
   24950    79.658088   -1527.6173    60741.068   -12722.197    968.06583   -13690.263    94.727717    246.59531 
   25000    81.838713   -1809.8168    60676.561   -12742.556    994.56645   -13737.123    94.737945    253.34581 
   25050    81.278503   -1458.9925    60680.776   -12718.705    987.75835   -13706.464    94.874876    251.61159 
   25100    78.765212   -1311.8515    60638.736   -12725.879    957.21492   -13683.094    95.176688    243.83126 
   25150     83.81983   -1261.3777    60639.415   -12724.941    1018.6425   -13743.583    95.333333     259.4787 
   25200    79.058825   -1367.5868    60675.252   -12748.379    960.78313   -13709.163    95.311074    244.74019 
   25250    82.467647   -1769.0026    60674.855   -12758.432    1002.2097   -13760.642    95.249786    255.29278 
   25300    78.391419   -1436.2551    60669.695    -12783.73     952.6723   -13736.402    95.220452    242.67412 
   25350    81.413085   -1357.8696    60642.684   -12790.635    989.39389   -13780.028    95.920559    252.02821 
   25400    83.290283   -1452.3826    60601.388   -12748.142     1012.207   -13760.349    96.230055     257.8394 
   25450    81.802019   -1581.9566    60517.781   -12750.597    994.12051   -13744.717    96.234708    253.23222 
   25500    82.501844   -1484.8902    60458.545   -12735.731    1002.6253   -13738.356    96.558761    255.39865 
   25550    81.720186    -1457.996    60447.196   -12748.286    993.12602   -13741.412    96.714069    252.97889 
   25600     83.35992   -1376.6081    60471.658   -12768.464    1013.0533   -13781.518    96.568451    258.05497 
   25650    82.254156   -1309.3532    60482.494   -12756.652    999.61523   -13756.267    97.055681    254.63189 
   25700     81.61777   -1454.4362    60535.094   -12772.996    991.88138   -13764.877    97.529663    252.66184 
   25750    80.910099   -1937.8473    60553.009   -12758.209    983.28123    -13741.49    97.490997    250.47113 
   25800    82.625687   -1459.2996    60519.017    -12744.86    1004.1304    -13748.99     97.22781    255.78202 
   25850    80.520904    -1702.271    60541.238   -12751.049    978.55143   -13729.601    97.528275    249.26631 
   25900    81.050337   -1468.5048    60572.002   -12763.026     984.9855   -13748.012    97.585832    250.90526 
   25950    82.447611   -1298.9757    60564.849   -12771.959    1001.9662   -13773.925    97.638995    255.23076 
   26000    81.747531   -1520.4508    60646.734   -12780.477    993.45833   -13773.935    97.144887    253.06354 
   26050    82.027106   -1760.4802     60608.96   -12793.706    996.85594   -13790.562    97.195592    253.92901 
   26100    78.246028   -1517.7144    60574.206   -12778.743     950.9054   -13729.649    97.363572    242.22404 
   26150    81.632984   -1766.8849    60623.244   -12721.716    992.06627   -13713.782    97.327106    252.70894 
   26200    81.477675   -1088.7213    60671.701   -12718.525    990.17884   -13708.704    97.573946    252.22815 
   26250    80.613181   -1369.0432    60672.114   -12721.588    979.67285   -13701.261     98.32937    249.55197 
   26300    81.116964    -1553.965    60678.697   -12688.174     985.7952   -13673.969    98.485065    251.11151 
   26350    81.751626   -1414.9598    60671.951   -12720.417     993.5081   -13713.925    98.518223    253.07622 
   26400    80.705793   -1409.1297    60654.519   -12699.889    980.79835   -13680.687    98.506805    249.83866 
   26450    82.824691   -1538.5782    60632.776   -12716.894    1006.5488   -13723.443    98.585061    256.39807 
   26500    82.741923   -1603.0509    60608.194   -12715.513    1005.5429   -13721.056    98.908488    256.14185 
   26550    84.036592   -1238.0879    60651.759   -12708.214    1021.2768    -13729.49    99.453853    260.14972 
   26600    88.206667   -1363.7992    60703.031   -12644.646    1071.9547     -13716.6    99.053063    273.05891 
   26650    84.627377   -1340.6116    60714.115   -12675.217    1028.4564   -13703.674    99.281637     261.9786 
   26700    84.304659   -1428.7062     60666.95   -12654.797    1024.5345   -13679.332    99.385224    260.97957 
   26750    79.960158   -1303.7981    60683.719   -12734.346    971.73681   -13706.082    98.881343    247.53042 
   26800    82.096284   -1417.4612    60666.896   -12762.115    997.69664   -13759.811    98.834224    254.14317 
   26850    82.295751   -1834.0585    60594.119   -12754.932    1000.1207   -13755.052    98.696615    254.76065 
   26900    84.460316   -1731.9783    60545.506       -12751    1026.4262   -13777.426    99.337705    261.46143 
   26950     83.19466   -1836.1599    60468.264   -12738.453     1011.045   -13749.498    99.648447    257.54338 
   27000    83.198377    -1679.777    60391.563   -12765.769    1011.0901    -13776.86    100.24387    257.55489 
   27050    79.119061   -1926.2303    60333.289   -12761.553    961.51516   -13723.068    100.65545    244.92666 
   27100    80.584715   -1522.5786    60268.193   -12763.686    979.32691   -13743.013    100.37468    249.46384 
   27150    81.385182   -1299.0694    60332.313   -12747.298    989.05479   -13736.353    100.84263    251.94183 
   27200    84.195157   -1736.6135    60417.572    -12737.38    1023.2038   -13760.584     101.2454    260.64059 
   27250    84.623775   -1511.2563     60450.35   -12700.056    1028.4127   -13728.468    100.90816    261.96745 
   27300    80.240989   -1505.0788    60440.982   -12726.212    975.14969   -13701.362    101.19642    248.39978 
   27350     82.29114   -1579.7431    60462.409   -12666.132    1000.0647   -13666.196    100.95015    254.74638 
   27400    81.672862   -1851.8816    60485.195   -12701.176     992.5509   -13693.727    101.17162    252.83239 
   27450     80.44287   -1480.4552    60470.786   -12698.651     977.6031   -13676.254    101.76207    249.02474 
   27500    81.193547    -1694.613    60451.847   -12726.334     986.7259    -13713.06    102.54114    251.34859 
   27550    79.728152   -1459.9435    60416.266   -12757.915     968.9173   -13726.833    102.69642    246.81221 
   27600    79.770091   -1274.1476    60463.834   -12729.545    969.42697   -13698.972    102.99152    246.94203 
   27650    82.499427   -1108.7812    60542.933    -12700.75    1002.5959   -13703.346     103.4073    255.39116 
   27700    84.230044   -1124.5879    60563.902    -12700.63    1023.6277   -13724.258    103.81432    260.74859 
   27750     80.18203   -1681.9806     60572.65   -12747.004    974.43318   -13721.437    103.98337    248.21726 
   27800    81.368962   -1525.9496    60575.946   -12713.872    988.85768    -13702.73    104.24873    251.89162 
   27850    79.142203   -1560.1489    60571.206   -12720.623     961.7964   -13682.419    104.44236     244.9983 
   27900    81.313211   -1229.3374    60508.292    -12722.31    988.18014    -13710.49     104.1329    251.71903 
   27950    83.005887   -1559.3719     60536.66    -12707.25    1008.7508   -13716.001    104.11963      256.959 
   28000     82.37704   -1078.2507    60612.685   -12697.113    1001.1086   -13698.222    104.61171    255.01229 
   28050     82.00874     -1362.84    60638.655   -12707.406    996.63275   -13704.039    105.07347    253.87216 
   28100     81.96661   -1414.1303     60621.23   -12716.499    996.12075    -13712.62    105.24484    253.74174 
   28150    82.385839   -1646.0385     60624.08   -12694.515    1001.2155    -13695.73    105.07139    255.03953 
   28200    83.434857   -1507.2671    60629.263   -12676.661     1013.964   -13690.625    105.08201    258.28695 
   28250    81.895521   -1512.4098    60574.587   -12661.192    995.25683   -13656.449    105.38928    253.52167 
   28300    85.257488   -1052.2143    60575.574   -12656.372     1036.114   -13692.487    105.60731    263.92922 
   28350     85.05021   -1177.8684    60557.482   -12634.893     1033.595   -13668.488    105.71205    263.28755 
   28400    84.215641   -1594.5131    60533.357   -12619.109    1023.4527   -13642.561    105.80386      260.704 
   28450     83.56645   -1639.3586     60524.16   -12640.762    1015.5632   -13656.326    105.57143    258.69432 
   28500    83.635374   -1200.1851    60588.763   -12626.037    1016.4008   -13642.438    105.74919    258.90769 
   28550    83.763182   -1630.5365    60643.737   -12633.614    1017.9541   -13651.568    106.26904    259.30334 
   28600     83.86873   -1139.5976    60668.334   -12635.328    1019.2368   -13654.565     106.4467    259.63008 
   28650    85.827366   -1392.0796    60674.591   -12670.349    1043.0396   -13713.388    106.32025    265.69337 
   28700    83.592367   -1312.6545     60698.86   -12654.316    1015.8782   -13670.194    106.00582    258.77455 
   28750    85.273527   -1198.8872      60665.9   -12658.908    1036.3089   -13695.217    105.74375    263.97887 
   28800    84.295814   -1254.3239    60707.795   -12635.647     1024.427   -13660.074    105.42316    260.95219 
   28850    87.996294   -1283.9976    60696.825   -12614.523    1069.3981   -13683.921    105.94405    272.40766 
   28900     87.81455   -1839.8041    60660.721   -12625.322    1067.1894   -13692.512    106.70122    271.84504 
   28950    85.372851   -1397.0938     60724.22   -12635.594     1037.516    -13673.11    107.10841    264.28634 
   29000     84.19066   -1544.7555    60700.043   -12642.758    1023.1491   -13665.907     107.1257    260.62667 
   29050    82.562474   -1253.8221    60724.222   -12636.945    1003.3621   -13640.307    107.36758    255.58634 
   29100    81.358422   -1260.9114      60742.9   -12670.198    988.72959   -13658.928    107.55518    251.85899 
   29150     81.69814   -1775.1863     60727.96   -12699.491    992.85809    -13692.35    107.92956    252.91064 
   29200     84.32066   -1401.6541    60736.068   -12706.562     1024.729   -13731.291    108.34258    261.02911 
   29250     83.68877   -1501.6892    60779.198   -12685.002    1017.0498   -13702.052    108.30238    259.07298 
   29300    83.863618     -1325.11    60786.269   -12692.966    1019.1746   -13712.141    108.34962    259.61425 
   29350    78.886462   -1905.4814     60847.58   -12705.851    958.68844   -13664.539    108.49209    244.20661 
   29400    81.414906   -1581.8436    60829.888    -12729.01    989.41602   -13718.426    108.41125    252.03384 
   29450    79.847664   -1584.7207    60809.292   -12717.618     970.3697   -13687.988    108.67604    247.18218 
   29500    80.779036   -1738.2964    60792.094   -12724.704    981.68844   -13706.393    108.97164     250.0654 
   29550    79.668572   -1554.2108    60792.145   -12717.558    968.19324   -13685.752    109.25152    246.62777 
   29600     77.94823   -1590.9641    60757.472   -12746.164    947.28634   -13693.451    108.91687    241.30215 
   29650    80.682584   -1844.5045    60680.033   -12726.733    980.51629   -13707.249    108.40413    249.76681 
   29700    80.938626   -1433.8431    60627.113    -12725.27    983.62791   -13708.898    108.36143    250.55944 
   29750    78.818163    -1533.079    60592.009   -12737.952    957.85843   -13695.811    108.47618    243.99518 
   29800    82.812857    -1557.511    60563.589    -12710.13     1006.405   -13716.535     108.6229    256.36144 
   29850    84.343272   -1538.9778    60527.737   -12697.565    1025.0038   -13722.569    109.25198     261.0991 
   29900     84.14779   -1715.4718    60489.172   -12691.773    1022.6281   -13714.401    109.01211    260.49396 
   29950    83.119826   -1755.3894    60467.164   -12697.901    1010.1355   -13708.036    108.79399    257.31172 
   30000    79.608197   -1970.8135    60396.814   -12717.318    967.45952   -13684.778    109.15854    246.44087 
   30050    78.826147   -1665.7114    60370.732   -12737.049    957.95545   -13695.004     109.3733    244.01989 
   30100     84.03336   -1389.1931    60436.822   -12690.588    1021.2375   -13711.825    109.96359    260.13972 
   30150    79.345652    -1578.276    60390.214   -12704.523    964.26887   -13668.792    110.50258    245.62811 
   30200    81.389534   -1300.3098    60424.496   -12710.141    989.10769   -13699.249     110.9042     251.9553 
   30250    82.730016   -1776.5311    60412.896    -12711.85    1005.3982   -13717.248    111.03648    256.10499 
   30300    81.054337   -1690.8666    60416.253    -12717.81    985.03411   -13702.844    110.94508    250.91764 
   30350    80.703139   -1691.4063    60312.051   -12710.966    980.76609   -13691.732    111.53303    249.83045 
   30400    82.420136   -1471.4818    60296.519    -12720.57    1001.6323   -13722.202    111.68703     255.1457 
   30450     83.60435   -1447.2882    60305.418   -12693.167    1016.0238   -13709.191    112.15075    258.81164 
   30500    82.847992   -1311.3614    60362.695   -12683.497     1006.832   -13690.329    112.44412    256.47021 
   30550    78.600347   -1420.3512    60400.492   -12703.531    955.21135   -13658.743    112.90316    243.32089 
   30600    78.740641   -1389.2536    60424.088   -12719.745    956.91632   -13676.662    113.15364     243.7552 
   30650    82.118528   -1401.1024    60404.037   -12708.842    997.96698   -13706.809    113.21058    254.21203 
   30700    80.809976   -1306.6856    60407.896    -12688.47    982.06445   -13670.535    113.24049    250.16118 
   30750    83.081234   -1794.3776    60384.107   -12680.957    1009.6665   -13690.623    113.27476    257.19225 
   30800    80.662683   -1507.6394    60355.333    -12681.83    980.27443   -13662.104    113.16741    249.70521 
   30850    82.366532   -1506.8853    60380.341   -12684.057    1000.9809   -13685.038    113.40296    254.97977 
   30900    82.377939   -1529.5007    60468.782   -12651.081    1001.1195   -13652.201    113.02971    255.01508 
   30950    82.695389   -1873.4208    60450.946   -12651.926    1004.9774   -13656.904    112.75627     255.9978 
   31000    81.261923   -1261.2763     60424.58   -12678.336    987.55685   -13665.893    112.63628    251.56026 
   31050    80.825226    -1697.923    60403.455   -12684.919    982.24979   -13667.169    112.40516    250.20839 
   31100    83.711732   -1772.0343    60353.572   -12654.074    1017.3288   -13671.402    112.43691    259.14406 
   31150    81.121949   -1137.0985    60293.055   -12696.373    985.85578   -13682.229    112.60516    251.12694 
   31200    84.423477   -957.48126    60315.541   -12679.252    1025.9785    -13705.23    112.66208    261.34739 
   31250    82.703285   -1247.3517    60338.686   -12676.758    1005.0734   -13681.831    112.72682    256.02224 
   31300    82.621285   -1586.2012    60353.335   -12713.266    1004.0769   -13717.343    112.47312     255.7684 
   31350    82.016601   -1395.7845    60314.619   -12702.536    996.72827   -13699.264    112.72391    253.89649 
   31400    80.191005   -1195.7106    60341.819   -12723.273    974.54225   -13697.815      112.887    248.24505 
   31450    80.581474   -1585.3852    60368.441   -12725.652    979.28752    -13704.94    113.58281    249.45381 
   31500    77.570675   -1503.2128    60323.264   -12764.276    942.69799   -13706.974    113.73058    240.13336 
   31550     80.15414   -1532.5139    60273.511   -12783.531    974.09423   -13757.626    114.03893    248.13092 
   31600    77.310098   -1038.2109    60302.364   -12769.469    939.53127       -13709    114.15262    239.32671 
   31650    81.021863   -1044.0329     60387.16   -12728.283    984.63946   -13712.922    114.46514    250.81711 
   31700    80.886176    -1546.353    60428.362   -12719.833     982.9905   -13702.823    114.43557    250.39707 
   31750    82.382234   -1184.8755    60437.785   -12692.057    1001.1717   -13693.229    114.61961    255.02838 
   31800    81.105565   -1518.8061    60474.299   -12715.102    985.65668   -13700.758    114.29033    251.07623 
   31850    84.587868   -1353.4096    60517.828   -12680.456    1027.9763   -13708.432    114.12373    261.85629 
   31900    84.477598    -1255.102    60500.053   -12728.966    1026.6362   -13755.602    114.49965    261.51493 
   31950    82.119774   -1444.2131    60474.696   -12728.189    997.98212   -13726.171    114.73199    254.21588 
   32000      80.2022   -1616.8418    60451.657   -12691.953    974.67829   -13666.631    114.62063     248.2797 
   32050    81.881629   -1693.7418    60440.482   -12690.074      995.088   -13685.162    114.83603    253.47866 
   32100     80.31155   -1555.9866    60432.846   -12679.056    976.00719   -13655.063    115.43236    248.61821 
   32150    82.287236   -1633.7406    60353.328   -12675.477    1000.0172   -13675.495    115.70563    254.73429 
   32200    81.740437    -1347.174    60352.077   -12658.956    993.37212   -13652.328    116.12248    253.04158 
   32250     81.57305   -1493.6208    60383.597   -12647.598    991.33791   -13638.936    116.36142    252.52341 
   32300     81.99652    -1509.923    60421.419   -12646.009    996.48423   -13642.493    116.05181    253.83433 
   32350    83.997895   -1592.5196    60429.555   -12640.806    1020.8065   -13661.613    115.70523    260.02993 
   32400    81.254507   -1577.5451    60402.713   -12654.953    987.46673   -13642.419    115.61346     251.5373 
   32450    83.711421   -1770.3952    60396.905    -12665.36     1017.325   -13682.685    115.84019     259.1431 
   32500    81.434361    -1673.322    60352.491   -12656.233    989.65245   -13645.886    116.01038    252.09407 
   32550    84.823856   -1624.9323    60385.426   -12648.935    1030.8442    -13679.78    116.57326    262.58683 
   32600    81.749692   -1351.8239    60404.524   -12679.385    993.48459    -13672.87    116.62358    253.07023 
   32650    80.260666   -1757.2769    60353.295   -12684.723    975.38882   -13660.112     116.7401    248.46069 
   32700    83.725222   -1421.1164    60286.996   -12671.258    1017.4927   -13688.751    117.29394    259.18582 
   32750      81.5032   -1599.1352    60293.851   -12665.118    990.48904   -13655.607    117.27066    252.30717 
   32800    81.770326   -1522.5902    60266.912   -12706.353    993.73536   -13700.089    117.13239    253.13411 
   32850     82.32417   -1503.0696    60277.645   -12681.748    1000.4661   -13682.214    118.00637    254.84863 
   32900    81.895819    -1528.071    60269.743   -12678.006    995.26044   -13673.266    117.63523    253.52259 
   32950    82.261317   -1370.5983    60249.285   -12694.013    999.70226   -13693.715    117.17925    254.65405 
   33000    83.700611   -1484.3565    60223.677   -12686.242    1017.1936   -13703.435    117.54667    259.10963 
   33050    80.028422   -1654.6216    60196.395   -12670.788    972.56641   -13643.354     117.8966    247.74174 
   33100    84.405009   -1278.5193    60170.165   -12664.244     1025.754   -13689.998     117.4322    261.29022 
   33150    80.995309   -1600.3531    60171.643   -12674.314    984.31676   -13658.631    117.87675    250.73491 
   33200    81.857728   -1455.5005    60158.469   -12666.215    994.79753   -13661.012    118.42093    253.40467 
   33250    80.210889   -1767.1647    60178.817   -12668.888    974.78389   -13643.672    118.48855     248.3066 
   33300    81.928625   -1497.4498    60177.708   -12664.716    995.65912   -13660.375    118.87161    253.62415 
   33350    81.369284   -1165.3085    60130.021   -12675.263    988.86158   -13664.124    119.22126    251.89261 
   33400    84.718232   -1765.8899    60110.701   -12640.736    1029.5606   -13670.297    119.44299    262.25986 
   33450    80.144239   -1231.2681     60103.38   -12645.829    973.97391   -13619.803    119.76382    248.10028 
   33500    81.942966   -1495.2964    60079.752   -12656.221    995.83341   -13652.055    120.00088    253.66854 
   33550    82.932406   -1545.4363     60044.57   -12675.727    1007.8578   -13683.585    119.98834    256.73152 
   33600    82.432402   -1728.7682    59988.746   -12636.501    1001.7814   -13638.283    120.10481    255.18368 
   33650    82.154413   -1553.4214    60000.734   -12605.593    998.40307   -13603.996    120.08618    254.32311 
   33700    82.937667   -1514.5805    60004.287   -12583.298    1007.9218    -13591.22     120.2136    256.74781 
   33750    85.182598   -1547.4656    60020.028   -12610.943    1035.2039   -13646.147    120.80547    263.69738 
   33800    81.242214   -1209.0017    60013.535   -12656.627    987.31734   -13643.944    121.66806    251.49925 
   33850    81.301773    -1260.863    60029.161   -12655.311    988.04114   -13643.353    121.45824    251.68362 
   33900    83.662034   -1646.5495    60061.944   -12626.931    1016.7248   -13643.655    121.78422    258.99022 
   33950    82.457719   -1520.9899     60051.97   -12625.434    1002.0891   -13627.523    121.72033    255.26205 
[...]
   92000    84.427266   -1300.5336    60234.457   -12649.458    1026.0245   -13675.482    314.12777    261.35912 
   92050    82.531434   -1409.9434    60199.632    -12647.57    1002.9849   -13650.555     314.5012    255.49025 
   92100    83.411192   -1434.1631    60181.718    -12622.52    1013.6764   -13636.196    314.01123    258.21369 
   92150    84.296493   -1529.2394    60166.276   -12650.267    1024.4353   -13674.702    314.60516    260.95429 
   92200    84.417077   -1536.4903    60140.044   -12681.869    1025.9007    -13707.77    315.32335    261.32758 
   92250    86.038552   -1450.3316    60014.648   -12705.074    1045.6061    -13750.68    315.18988    266.34713 
   92300    85.996855   -1288.2445     60035.81    -12682.13    1045.0994    -13727.23    314.93738    266.21806 
   92350    82.877897   -1306.2519    60046.278   -12697.695    1007.1954    -13704.89     315.0684    256.56279 
   92400    82.675303   -1527.0659    60090.259   -12698.336    1004.7333   -13703.069    315.44274    255.93562 
   92450    82.740468    -1523.655    60083.496   -12714.383    1005.5253   -13719.908    316.53266    256.13735 
   92500    83.948386   -1394.9156    60070.177   -12737.887    1020.2048   -13758.092     317.2588    259.87667 
   92550    85.316888    -1181.672    60094.482   -12709.531    1036.8359   -13746.367    317.73413     264.1131 
   92600    79.134635   -1234.4724    60122.308   -12738.632    961.70443   -13700.336    318.33836    244.97487 
   92650    81.295529   -1189.5944    60123.099   -12767.528    987.96527   -13755.494    318.59106    251.66429 
   92700    82.768485   -1529.8196    60146.041   -12735.171    1005.8657   -13741.036    317.88214    256.22408 
   92750    79.884291   -1275.1468    60144.693   -12745.783    970.81482   -13716.598    316.77223    247.29556 
   92800    82.469363   -1289.1151    60125.716   -12725.901    1002.2306   -13728.131    316.79302     255.2981 
   92850    80.069408   -1396.0035     60177.81   -12726.146     973.0645    -13699.21    317.15494    247.86862 
   92900    83.529326   -1324.3708    60173.346   -12725.366    1015.1121   -13740.478    318.15677    258.57939 
   92950    82.992152   -1326.8204    60191.868   -12707.866    1008.5839    -13716.45    318.15484    256.91648 
   93000    81.056861   -1246.0234    60247.559   -12715.346    985.06478    -13700.41    318.24206    250.92545 
   93050    80.766114   -1410.4988    60274.752    -12746.03    981.53141   -13727.562    318.82127     250.0254 
   93100    83.887281   -1640.3208    60311.447   -12711.473    1019.4622   -13730.935    318.71144    259.68751 
   93150    83.657898   -1574.7049    60258.176    -12727.69    1016.6746   -13744.365    318.51549    258.97741 
   93200    83.453874   -1213.3932    60359.822   -12683.616    1014.1951   -13697.811    318.51155    258.34582 
   93250    85.158424    -1558.717    60359.403   -12726.619    1034.9101   -13761.529     318.7296    263.62255 
   93300    82.492915   -1358.3319    60332.146   -12763.937    1002.5168   -13766.454    318.78289      255.371 
   93350    79.238685   -1281.0642      60323.9   -12747.228    962.96893   -13710.197    319.15148    245.29698 
   93400    82.319025   -1077.6343    60354.361   -12756.812    1000.4036   -13757.216    318.60443     254.8327 
   93450    82.558965   -1179.7219    60394.625   -12745.665    1003.3195   -13748.985    318.84371    255.57547 
   93500    82.033205    -987.5484    60461.611   -12742.607    996.93007   -13739.537    318.23159     253.9479 
   93550    81.907781   -1549.7989    60504.665   -12738.847    995.40582   -13734.252     318.0941    253.55962 
   93600    83.156569   -1367.4271    60471.534   -12767.757     1010.582   -13778.339     317.8892    257.42546 
   93650     84.45916   -1593.7714    60398.146   -12747.866    1026.4121   -13774.278    318.36632    261.45785 
   93700    78.804508   -1559.4206    60348.981   -12779.365    957.69248   -13737.058    317.62058    243.95291 
   93750     82.44378   -1869.0844    60306.906   -12806.288    1001.9197   -13808.208    318.01698     255.2189 
   93800    81.019851   -1404.7997    60267.729   -12809.668    984.61502   -13794.283    318.68255    250.81088 
   93850    81.796931   -1711.1081    60210.137    -12823.34    994.05868   -13817.399    318.99091    253.21647 
   93900    81.655061   -1378.7629    60204.673    -12780.46    992.33457   -13772.795    319.22307    252.77729 
   93950    81.189352   -1654.3606    60174.955   -12769.846    986.67491   -13756.521    319.26313     251.3356 
   94000    83.215789    -1532.994    60148.682   -12753.878    1011.3017    -13765.18    318.55763    257.60879 
   94050    80.464729   -1886.9294    60192.619   -12773.278    977.86874   -13751.147    319.29102    249.09241 
   94100    79.557016   -1531.6445    60193.737   -12767.546    966.83753   -13734.383    319.16515    246.28243 
   94150    78.259677    -1484.157    60194.024   -12807.303    951.07127   -13758.374    319.66105    242.26629 
   94200    81.491975   -1413.1585    60157.039   -12779.183    990.35263   -13769.536    319.64936    252.27242 
   94250    78.770938   -1746.1232    60140.959     -12793.8     957.2845   -13751.084    320.32175    243.84898 
   94300    79.925646   -1695.0376    60129.955   -12799.901     971.3174   -13771.219    320.64843    247.42358 
   94350    80.433149   -1441.4265    60141.581   -12803.884    977.48496   -13781.369    321.18836    248.99464 
   94400    78.155241   -1260.7181     60139.77   -12808.646    949.80209   -13758.448    321.31063    241.94299 
   94450    78.009686   -1120.5353     60104.54   -12809.891     948.0332   -13757.925    320.92158     241.4924 
   94500    79.639878   -1389.7666    60044.355   -12829.236    967.84453   -13797.081     321.5016    246.53894 
   94550    80.391337   -1501.6968    60048.437    -12820.97    976.97684   -13797.946    321.68968    248.86521 
   94600    80.207651    -1499.299    60115.221   -12791.145    974.74454   -13765.889    322.00572    248.29658 
   94650    82.236448   -1532.7418    60102.087   -12787.598    999.40003   -13786.998    323.27136    254.57707 
   94700    82.557316   -1208.1036    60139.482   -12808.994    1003.2995   -13812.293    323.68451    255.57037 
   94750    82.718522   -1472.2263     60170.21   -12813.562    1005.2586   -13818.821    324.52389    256.06941 
   94800     79.58115   -1306.6903    60224.618   -12830.251    967.13083   -13797.382    324.93848    246.35714 
   94850    81.653611    -1248.442    60235.326   -12812.374    992.31695   -13804.691    324.32365     252.7728 
   94900    80.105137   -1867.5392    60248.332   -12787.921    973.49871    -13761.42    324.63893    247.97923 
   94950    81.957293   -1057.5052    60256.526   -12789.959    996.00752   -13785.966    324.50087    253.71289 
   95000    78.549409   -1429.8182    60305.421   -12772.709    954.59232   -13727.301    325.21375    243.16321 
   95050    81.025422   -1795.5512    60296.026   -12773.676    984.68271   -13758.359    324.86369    250.82813 
   95100    85.735467   -1877.5294    60282.816   -12742.796    1041.9228   -13784.718    324.55864    265.40888 
   95150    81.284238   -1050.6051    60271.449   -12766.499    987.82804   -13754.327    324.03878    251.62934 
   95200    81.505477   -1525.7358      60306.4   -12796.512    990.51671   -13787.028    324.46217    252.31422 
   95250    79.692538   -1654.1696    60338.257    -12789.12     968.4845   -13757.604    324.38531    246.70196 
   95300    82.420206   -1374.4258     60381.78   -12782.414    1001.6332   -13784.047    324.15475    255.14592 
   95350    83.102749   -1588.6031    60443.628   -12758.297     1009.928   -13768.225    324.18205    257.25885 
   95400    82.988486   -1515.6187    60507.864   -12765.344    1008.5394   -13773.883    323.92988    256.90513 
   95450    80.660163   -1647.7653    60512.614   -12799.891    980.24381   -13780.134    324.74973    249.69741 
   95500    82.380539   -1438.1032    60561.793   -12765.091    1001.1511   -13766.242    324.94618    255.02313 
   95550    82.299253   -1248.9919    60568.043   -12765.796    1000.1633   -13765.959    325.23739    254.77149 
   95600    82.533119   -1351.1051    60601.266   -12759.654    1003.0054   -13762.659    325.45672    255.49546 
   95650    84.590503   -1209.3289    60599.776   -12768.485    1028.0083   -13796.494    325.61314    261.86445 
   95700    80.228198   -1522.1756    60610.532   -12771.197    974.99425   -13746.191    326.41058    248.36019 
   95750    84.969328   -1557.8997    60632.959   -12748.743    1032.6121   -13781.355    326.27613    263.03717 
   95800    83.619589   -2025.6961    60616.202     -12757.5     1016.209   -13773.709     326.5488    258.85882 
   95850    81.215203   -1298.1433     60639.23   -12729.612    986.98909   -13716.602    327.05876    251.41563 
   95900    82.340443   -1422.9656    60617.917   -12727.177    1000.6639    -13727.84    326.96235      254.899 
   95950    84.181465   -1477.7036    60538.915   -12718.734    1023.0374   -13741.771    326.29065     260.5982 
   96000    81.164479   -1288.7384    60526.836   -12738.879    986.37264   -13725.252     327.3572     251.2586 
   96050    80.190704   -1431.0672    60538.468   -12731.607    974.53859   -13706.146    327.09943    248.24412 
   96100    82.530045   -1319.6347    60593.038   -12712.501     1002.968   -13715.469    327.70579    255.48595 
   96150    83.546778   -1060.4905    60668.635   -12697.972    1015.3242   -13713.296    326.87233    258.63342 
   96200    82.382839   -1633.6387    60696.114   -12685.088    1001.1791   -13686.267    327.18872    255.03025 
   96250    85.175482   -1614.4989    60670.731   -12666.611    1035.1174   -13701.728     327.8221    263.67535 
   96300    83.660275   -1554.9806    60659.786   -12672.782    1016.7035   -13689.485    326.72069    258.98477 
   96350    83.773391   -1551.2657    60614.865   -12685.548    1018.0781   -13703.626    327.23006    259.33494 
   96400    83.919646   -1424.4778    60572.135   -12676.271    1019.8555   -13696.127    327.54829     259.7877 
   96450    82.662308   -1228.1416    60607.909   -12708.439    1004.5754   -13713.014    326.46578    255.89539 
   96500    80.365267   -1288.0772    60635.065   -12729.496    976.66001   -13706.156    327.47622     248.7845 
   96550    81.113375    -1289.945    60689.011   -12718.376    985.75159   -13704.127    327.49173     251.1004 
   96600    85.201949    -1158.274    60641.478   -12731.299    1035.4391   -13766.738    326.97594    263.75729 
   96650     83.03952   -1336.6724    60617.459   -12754.361    1009.1596   -13763.521    327.09388    257.06311 
   96700    81.345678   -1013.9516    60657.181   -12765.367    988.57472   -13753.942     327.2146    251.81954 
   96750    81.251247   -1395.6818    60679.679   -12760.215    987.42711   -13747.643    327.37971    251.52721 
   96800     80.32242   -1623.0401    60622.508    -12734.85     976.1393   -13710.989    327.05669    248.65186 
   96850    81.760239    -1210.558    60601.766   -12691.862    993.61277   -13685.475    326.27119    253.10288 
   96900    80.020482   -1484.9063    60572.537   -12731.819    972.46992   -13704.289    326.79747    247.71716 
   96950    83.255794   -1558.5286    60514.329   -12693.907    1011.7879   -13705.695    326.39848    257.73263 
   97000    83.662683   -1371.6685    60519.337   -12686.151    1016.7327   -13702.884    326.63208    258.99222 
   97050    81.334993   -1568.3341    60546.648   -12703.257    988.44486   -13691.702    326.70477    251.78646 
   97100     82.50648   -1314.4973    60549.134   -12716.699    1002.6817   -13719.381    326.07561      255.413 
   97150    81.755222   -1566.6923    60499.263   -12703.345     993.5518   -13696.897    326.95794    253.08735 
   97200     81.98673   -1368.0384    60516.408   -12712.956    996.36526   -13709.321    326.54713    253.80402 
   97250    82.556537   -1821.1609    60522.036   -12748.558      1003.29   -13751.848    326.39668    255.56796 
   97300    79.994978   -1456.7518    60527.837   -12745.821    972.15998   -13717.981    326.35913    247.63821 
   97350    81.375448   -1499.0811    60574.278   -12746.858     988.9365   -13735.795    326.56403    251.91169 
   97400    81.274051   -1431.4757     60552.53   -12772.676    987.70424   -13760.381    327.16036     251.5978 
   97450    84.908362   -1361.5389    60572.543   -12720.716    1031.8712   -13752.587    326.77848    262.84844 
   97500    84.707453   -1463.0848    60573.126   -12712.859    1029.4296   -13742.288    326.58582    262.22649 
   97550    82.087584   -1414.8384    60595.151   -12749.646    997.59091   -13747.237    326.75229    254.11623 
   97600    83.489657   -1524.0341      60645.3   -12723.721      1014.63   -13738.351    326.82626    258.45659 
   97650    83.688649   -1475.7557    60657.019   -12682.749    1017.0483   -13699.797    327.19193    259.07261 
   97700    84.640915   -1571.8774    60681.025   -12688.429    1028.6209    -13717.05    326.65093    262.02051 
   97750    86.054827   -1382.1334    60628.565   -12681.162    1045.8039   -13726.965    326.46751    266.39752 
   97800    85.646545   -1723.2231     60592.13   -12666.698    1040.8421    -13707.54    326.39861    265.13361 
   97850    81.597747   -1666.7042    60542.227    -12677.98    991.63805   -13669.618     326.4704    252.59986 
   97900    83.448246   -1597.4227    60507.522   -12685.688    1014.1267   -13699.815    327.04154     258.3284 
   97950    86.327299   -1469.2049    60497.255   -12708.383    1049.1152   -13757.498    326.87963      267.241 
   98000    84.890883   -1548.8862    60503.632   -12707.359    1031.6587   -13739.018    327.22782    262.79433 
   98050    84.014304    -1537.651    60565.745    -12724.02    1021.0059   -13745.026    327.67413    260.08073 
   98100    84.030266   -1057.3118    60616.247   -12705.682    1021.1999   -13726.882    327.68101    260.13014 
   98150    82.914768   -1554.4222    60659.462   -12719.901    1007.6435   -13727.544    328.07782    256.67692 
   98200    84.605161   -1411.9487    60645.768   -12703.292    1028.1864   -13731.478    328.44124    261.90983 
   98250    81.081884   -1373.9288    60677.815   -12700.105    985.36888   -13685.474    328.34906    251.00292 
   98300     80.13549   -1542.1663    60648.475   -12725.524    973.86759   -13699.392    328.60399    248.07319 
   98350    79.658956   -1790.1361    60642.177   -12698.853    968.07638    -13666.93    328.78969      246.598 
   98400    82.109287   -1512.0901    60631.134   -12711.219    997.85467   -13709.074    328.76399    254.18342 
   98450    81.645722   -1627.6657    60612.586   -12711.506    992.22108   -13703.727    327.73072    252.74837 
   98500    83.671028    -1661.587    60578.843   -12703.931    1016.8341   -13720.765    328.05967    259.01806 
   98550    81.145129   -1393.0729    60593.694    -12730.45    986.13749   -13716.587    327.98829     251.1987 
   98600    81.603514   -1800.5465     60565.75   -12706.892    991.70813   -13698.601    328.45521    252.61771 
   98650    80.284324   -1635.8997    60465.038   -12732.106    975.67632   -13707.782      328.544    248.53393 
   98700    85.253224   -1321.3966    60522.899   -12687.431    1036.0622   -13723.493    329.53398    263.91602 
   98750    82.242292   -1125.8958    60532.825   -12699.343    999.47105   -13698.814    330.10669    254.59516 
   98800    82.164784   -1591.9792    60528.894   -12700.027    998.52911   -13698.556    330.88208    254.35522 
   98850    83.266581   -1237.0232    60513.963   -12684.956     1011.919   -13696.875    330.62571    257.76602 
   98900    85.180753   -1405.2128    60506.981   -12690.538    1035.1815    -13725.72    331.43708    263.69167 
   98950    82.558812   -1375.2341    60473.659   -12679.601    1003.3176   -13682.919    332.49955      255.575 
   99000    81.113184   -1621.5007    60440.965   -12673.953    985.74927   -13659.703    332.47869    251.09981 
   99050    83.245418   -1434.6183    60436.938   -12642.712    1011.6618   -13654.374    333.21574    257.70051 
   99100    83.298376   -1631.7973    60435.081   -12670.564    1012.3054    -13682.87    333.13185    257.86445 
   99150    82.678531   -1793.6583        60345   -12676.533    1004.7726   -13681.306     333.4657    255.94561 
   99200    85.668745   -1397.4021    60346.705   -12659.688    1041.1119   -13700.799    334.49993    265.20233 
   99250    86.405169   -1589.4808    60360.771   -12681.614    1050.0615   -13731.676    333.64165    267.48206 
   99300    82.849728   -1437.1272    60312.845   -12674.496    1006.8531   -13681.349    333.19858    256.47558 
   99350    82.633352    -1389.954    60266.889   -12660.002    1004.2235   -13664.225    334.39905    255.80575 
   99400    80.696332   -1283.9562    60257.413   -12695.434    980.68337   -13676.118    334.33301    249.80937 
   99450    82.864144   -1383.7403    60245.515   -12703.188    1007.0283   -13710.216    334.13846    256.52021 
   99500    83.883315   -1225.2641    60193.376   -12678.848     1019.414   -13698.262    334.52407    259.67523 
   99550    81.782889   -1474.6011    60203.663    -12686.32    993.88803   -13680.208    335.05523      253.173 
   99600    80.647634    -1497.873    60179.667    -12687.39    980.09155   -13667.481    334.67953    249.65862 
   99650    81.349838   -1316.4663     60218.45   -12659.363    988.62527   -13647.988    334.79656    251.83241 
   99700    83.776682   -1469.4411    60213.621   -12682.787    1018.1181   -13700.905    335.62905    259.34513 
   99750    82.554179   -1597.1436     60260.63   -12663.454    1003.2613   -13666.715    335.07265    255.56066 
   99800     83.23746   -1228.3542    60242.404   -12655.248    1011.5651   -13666.813    334.39956    257.67587 
   99850    85.783259   -1155.3757    60229.248   -12626.956    1042.5036    -13669.46    334.41537    265.55683 
   99900    81.167952    -1397.421    60279.537    -12679.06    986.41485   -13665.474    334.74387    251.26936 
   99950    82.279482   -1558.7737    60291.725   -12697.193    999.92301   -13697.116    334.76211    254.71029 
  100000    80.178866   -1712.5074    60237.408   -12705.095    974.39473   -13679.489     335.2162    248.20747 
Loop time of 84.2386 on 32 procs for 100000 steps with 4078 atoms

Performance: 512.829 ns/day, 0.047 hours/ns, 1187.105 timesteps/s
100.0% CPU use with 32 MPI tasks x no OpenMP threads

MPI task timing breakdown:
Section |  min time  |  avg time  |  max time  |%varavg| %total
---------------------------------------------------------------
Pair    | 47.913     | 54.688     | 62.104     |  75.9 | 64.92
Neigh   | 1.1833     | 2.7583     | 4.596      |  93.3 |  3.27
Comm    | 11.907     | 20.647     | 29.019     | 149.4 | 24.51
Output  | 0.10059    | 0.10285    | 0.11534    |   0.7 |  0.12
Modify  | 4.402      | 5.2757     | 6.2542     |  22.8 |  6.26
Other   |            | 0.7674     |            |       |  0.91

Nlocal:    127.438 ave 199 max 62 min
Histogram: 16 0 0 0 0 0 0 0 7 9
Nghost:    992.656 ave 1054 max 929 min
Histogram: 11 4 1 0 0 0 0 0 2 14
Neighs:    0 ave 0 max 0 min
Histogram: 32 0 0 0 0 0 0 0 0 0
FullNghs:  13881.6 ave 25610 max 3283 min
Histogram: 16 0 0 0 0 0 0 0 3 13

Total # of neighbors = 444212
Ave neighs/atom = 108.929
Neighbor list builds = 5789
Dangerous builds = 0

write_data		${DIR}/data.eq-${NAME}-${TEMP}
write_data		run_9/data.eq-${NAME}-${TEMP}
write_data		run_9/data.eq-het_freeze_9-${TEMP}
write_data		run_9/data.eq-het_freeze_9-255
undump          1

reset_timestep  0

unfix           2
unfix           3
unfix           4


################################################
#######         Run Simulation         #########
################################################

log				${DIR}/log.run_${NAME}
log				run_9/log.run_${NAME}
log				run_9/log.run_het_freeze_9
