LAMMPS data file via write_data, version 16 Mar 2018, timestep = 6000000

6489 atoms
2 atom types

0.0000000000000000e+00 4.9219999999999999e+01 xlo xhi
0.0000000000000000e+00 4.9019635930410494e+01 ylo yhi
5.2436940213398842e-01 5.9537630597877182e+01 zlo zhi

Masses

1 18.015
2 12.01

Atoms # atomic

6243 1 2.0145671190059624e+00 2.4166348621282436e+00 2.7152531245597356e+00 2 2 1
442 1 4.2044574219640838e+00 8.9272982628381325e-01 1.9337978493075649e+00 1 1 0
1416 1 6.3987721739028611e+00 1.8583620127841591e+00 2.8889103015923419e+00 -1 -1 1
185 1 8.9777859878459765e+00 7.5657940654478550e-01 1.8437954765679785e+00 1 -3 1
5414 1 2.0085720240218223e+00 7.5708179857472722e+00 1.7083905228302969e+00 -1 2 1
3620 1 4.1425315781043643e+00 8.2152140423498672e+00 3.1222924649154873e+00 3 -1 0
3679 1 6.7327739968492413e+00 6.9081885262667466e+00 7.3614411206897206e+00 -1 0 1
234 1 1.7855267767790739e+00 1.2100863043873586e+01 3.1787278810653721e+00 3 -1 0
250 1 6.5364747348089320e+00 7.1255746496773389e+00 2.1366838666664050e+00 -1 1 1
4515 1 1.6028677035357881e+00 1.1980281765728499e+01 6.0616191194270419e+00 2 0 1
4666 1 8.7089054657402070e+00 7.9693374665852375e+00 3.5327762438503831e+00 -1 1 0
5297 1 4.1436810690434349e+00 1.0928408856929055e+01 2.1765482277148140e+00 4 1 0
354 1 6.7742212290213244e+00 4.0199195298810508e+00 7.5752122057875315e+00 0 1 0
256 1 2.5582468479432516e+00 4.8201104328374553e+00 1.1582724049706252e+00 -2 -1 0
3096 1 8.5945635035058761e+00 1.0442356542050081e+01 2.5278213470658581e+00 -1 -1 1
6107 1 8.6776988251334295e+00 1.0773068774835043e+01 6.6022373806506582e+00 -1 0 1
2026 1 2.4138514907687187e+00 1.8715553105412330e+00 5.3598687951081638e+00 3 0 0
5111 1 4.4699075819249323e+00 5.6818734910854440e-01 6.4983961306873717e+00 -1 3 1
372 1 8.7124750798069961e+00 8.2412824924160635e+00 6.3498750646338307e+00 1 -1 1
1543 1 6.6267856909345531e+00 4.2839579077901515e+00 1.2487932813405873e+00 -1 -1 0
6439 1 8.9001377445778100e+00 5.0990337905395111e-01 6.4957768666658522e+00 3 1 0
1944 1 6.7408498078279084e+00 1.8153730594338831e+00 5.6280471020614806e+00 0 1 0
537 1 6.3215711523091169e+00 1.1960131552809296e+01 5.8135637089558339e+00 -1 -2 0
1844 1 2.2013799815078210e+00 7.0350614009266490e+00 7.3310967617798006e+00 1 -1 0
2004 1 4.3803580887372391e+00 7.8237462960098778e+00 6.2095454629599249e+00 0 -1 0
1360 1 4.0447778657507589e+00 1.0738014781092820e+01 6.4810679139127574e+00 -1 1 0
1964 1 6.4560151148432441e+00 1.1860352185372527e+01 3.0879085179147698e+00 -1 3 0
4674 1 2.4866768840825646e+00 4.1431717791885578e+00 7.3937280529378855e+00 0 -2 1
196 1 4.1122279572348930e-02 9.9998867359213695e-01 6.5438225051030408e+00 -3 0 1
3302 1 4.1183531462146918e+00 7.1201343108701876e-01 9.2495214297207848e+00 1 0 0
1645 1 4.7344597818765877e+00 3.5065243090195377e+00 9.4331482896334293e+00 -3 1 1
3513 1 6.4688577101021201e+00 9.9542700295727968e+00 1.2997790563487397e+01 2 2 0
4877 1 8.5828485855394945e+00 8.6171767270965571e-01 9.1459214188306923e+00 0 3 0
3579 1 8.9753225283496132e+00 3.7805915920907061e+00 9.2731384556583123e+00 1 0 0
3209 1 2.1239677092658988e+00 7.2572101795325850e+00 9.9967681517974984e+00 -1 2 1
3484 1 4.5544233001526822e+00 6.0202390674249484e+00 1.0530053837362747e+01 -1 0 0
5086 1 6.6951418029981218e+00 7.1118440051359331e+00 1.0040249322447414e+01 2 2 0
6216 1 9.0851669922688600e+00 5.9742599699138195e+00 1.0939064259273428e+01 -2 0 1
4883 1 2.4665887623244749e+00 9.8196933831453972e+00 1.1058129439382547e+01 0 -1 1
3333 1 4.5344759409649598e+00 1.0897346613267297e+01 9.1326991258741028e+00 -2 3 0
1950 1 6.7812323676727697e+00 9.7716685419302678e+00 1.0336239255361138e+01 -1 -1 1
5184 1 8.8401949174316563e+00 1.1374490665472319e+01 9.4505316006227087e+00 -2 1 0
3356 1 2.1055365755182649e+00 1.9450948635296195e+00 1.3393150653470620e+01 2 -1 1
5430 1 4.3034773474028549e+00 3.3741737058395747e+00 1.4238887248546702e+01 -2 3 1
1633 1 4.4883662396180410e+00 1.1044934509536052e+01 1.4224799489635362e+01 0 2 1
1669 1 6.8099609572515662e+00 2.1783376735764288e+00 1.3987848694182453e+01 2 2 1
3460 1 9.0965927579393551e+00 3.6411710352398861e+00 1.4878505839771208e+01 0 0 0
3806 1 4.4985968119480724e+00 5.7486860410599547e+00 1.3021480614490098e+01 0 -1 1
4595 1 2.2779049540704843e+00 6.9051965810809346e+00 1.4327782109207778e+01 0 3 0
4556 1 8.7549697547365835e+00 1.1205404954715730e+01 1.4090092907467350e+01 2 1 1
2146 1 6.6244994704727231e+00 7.4411914015234917e+00 1.3998498626932156e+01 -3 2 1
3792 1 8.9796591053906614e+00 6.1493638256148975e+00 1.3689727994569852e+01 -1 -1 0
3746 1 2.2166599244933689e+00 9.4707053587759944e+00 1.3873489875218267e+01 -1 0 1
3251 1 6.6470196638409446e-03 1.0890555150913309e+01 9.9901235830706927e+00 2 0 0
408 1 2.3972207641780549e-01 3.1557140666699617e+00 9.0553592833576975e+00 1 1 0
1680 1 2.2394930897430552e+00 1.7451995973140331e+00 1.8094797548417958e+01 0 1 1
2875 1 4.3314107274638207e+00 3.3943409501770150e+00 1.6967200740708119e+01 -1 1 1
3628 1 7.4665977849381822e+00 6.8338584495033965e+00 2.0958228916333248e+01 0 -3 0
1541 1 6.2188110326751476e+00 2.3142095574927080e+00 1.8230843083386183e+01 0 1 0
1557 1 8.3565214160758909e+00 4.0632585486435904e+00 1.7681191934754700e+01 1 3 1
162 1 7.9017146080371043e+00 9.8319883975957847e+00 2.0557113573010728e+01 -1 3 0
6266 1 2.1474333003642756e+00 7.0461673411949377e+00 1.7314899809734786e+01 -1 1 1
4767 1 4.6191091024623940e+00 5.9164711832115664e+00 1.8068077996089471e+01 0 0 1
3783 1 3.1069287567070125e+00 1.0198818259528002e+01 2.0793620209104766e+01 0 -1 1
2962 1 6.2014095352469596e+00 7.8948606449547674e+00 1.6697550279404457e+01 1 -1 1
1346 1 2.5627451191471904e+00 9.7628901819977578e+00 1.8077725349820401e+01 -1 0 1
308 1 4.8605651136198746e+00 1.0236909063905765e+01 1.6817731024372705e+01 -1 -1 0
5339 1 6.3943681941128130e+00 4.6351080337562889e-01 1.6212102998015460e+01 0 1 1
1505 1 8.3705673084047003e+00 8.5934269545579873e+00 1.8198499788935639e+01 -3 -2 1
5347 1 8.4296213022594788e+00 1.1192876106234110e+01 1.7014231821564351e+01 0 0 0
174 1 5.5353477349469298e+00 1.1386811232816720e+01 2.0661341201255269e+01 1 1 0
190 1 1.6254428469030948e+00 1.9636362574084110e+00 2.0727708715321231e+01 -3 -2 0
4715 1 4.5042275232045510e+00 3.2577721001101261e+00 2.1151766857340913e+01 2 0 1
3400 1 8.8380508518891343e+00 2.3016790580087894e+00 2.1215974146962850e+01 -1 1 1
2169 1 6.3375939257078802e+00 1.0486269319310457e+00 2.0999593527330216e+01 0 1 1
407 1 2.5494767807424608e+00 7.6651666873438122e+00 2.1154922667038878e+01 -3 2 0
90 1 4.7413262063454660e+00 6.0658138664056827e+00 2.0715137564798003e+01 3 -2 1
2102 1 9.3958730020589218e+00 4.8398759831869933e+00 2.0863697162871382e+01 0 1 1
255 1 8.3263580210731464e-02 1.1257000962744051e+01 1.7587900882038753e+01 0 0 0
1481 1 8.3372073860514928e-01 1.1989665703903654e+01 2.1067952999408632e+01 0 -3 1
209 1 1.5734302087545871e-01 3.1191288117578577e+00 1.7019465281309877e+01 1 1 0
4807 1 1.9248208442681713e+00 2.0300338239850220e+00 2.3642136232717352e+01 1 1 0
6152 1 4.3411930377932553e+00 3.3689176633897100e+00 2.4181457893094979e+01 0 2 1
6174 1 6.2120567985903259e+00 1.3651931892159777e+00 2.3794795415528160e+01 1 0 1
2192 1 9.0508202829816149e+00 2.2756592164778162e+00 2.3873626802675577e+01 2 -1 1
3053 1 4.8154900378025802e+00 6.1203544151415539e+00 2.4049925519214337e+01 0 4 0
266 1 2.7222689423793107e+00 7.7561029700534663e+00 2.3921759355914027e+01 1 0 1
6288 1 7.2892692243703801e+00 6.8342009083888628e+00 2.3671073528547577e+01 1 0 1
703 2 7.3830000000000009e+00 8.5251540748539991e+00 2.6707606247153340e+01 0 0 0
5272 1 2.9655069038574182e+00 1.0438419071554506e+01 2.3663557216108639e+01 2 2 0
705 2 8.6134999999999984e+00 9.2355835810918343e+00 2.6707606247153340e+01 0 0 0
6326 1 7.5994282750594575e+00 9.6354978204215573e+00 2.3432206911109734e+01 -1 1 0
321 1 5.6823869062143935e+00 1.1223788244371949e+01 2.4174891868609489e+01 0 -2 0
656 2 4.9220000000000006e+00 1.1366872099805333e+01 2.6707606247153340e+01 0 0 0
572 2 0.0000000000000000e+00 2.8417180249513345e+00 2.6707606247153340e+01 0 0 0
574 2 0.0000000000000000e+00 0.0000000000000000e+00 2.6707606247153340e+01 0 0 0
576 2 1.2305000000000001e+00 7.1042950623783474e-01 2.6707606247153340e+01 0 0 0
583 2 1.2305000000000001e+00 2.1312885187134998e+00 2.6707606247153340e+01 0 0 0
585 2 2.4610000000000003e+00 2.8417180249513345e+00 2.6707606247153340e+01 0 0 0
587 2 2.4610000000000003e+00 0.0000000000000000e+00 2.6707606247153340e+01 0 0 0
589 2 3.6915000000000004e+00 7.1042950623783474e-01 2.6707606247153340e+01 0 0 0
604 2 3.6914999999999996e+00 2.1312885187134998e+00 2.6707606247153340e+01 0 0 0
606 2 4.9220000000000006e+00 2.8417180249513332e+00 2.6707606247153340e+01 0 0 0
608 2 4.9220000000000006e+00 0.0000000000000000e+00 2.6707606247153340e+01 0 0 0
610 2 6.1524999999999999e+00 7.1042950623783407e-01 2.6707606247153340e+01 0 0 0
633 2 6.1524999999999999e+00 2.1312885187134989e+00 2.6707606247153340e+01 0 0 0
635 2 7.3829999999999991e+00 2.8417180249513345e+00 2.6707606247153340e+01 0 0 0
637 2 7.3829999999999991e+00 0.0000000000000000e+00 2.6707606247153340e+01 0 0 0
639 2 8.6134999999999984e+00 7.1042950623783407e-01 2.6707606247153340e+01 0 0 0
670 2 8.6134999999999984e+00 2.1312885187135002e+00 2.6707606247153340e+01 0 0 0
579 2 0.0000000000000000e+00 4.2625770374269996e+00 2.6707606247153340e+01 0 0 0
581 2 1.2305000000000001e+00 4.9730065436648339e+00 2.6707606247153340e+01 0 0 0
596 2 1.2305000000000001e+00 6.3938655561404980e+00 2.6707606247153340e+01 0 0 0
600 2 2.4610000000000003e+00 4.2625770374269996e+00 2.6707606247153340e+01 0 0 0
602 2 3.6914999999999996e+00 4.9730065436648339e+00 2.6707606247153340e+01 0 0 0
625 2 3.6914999999999996e+00 6.3938655561404980e+00 2.6707606247153340e+01 0 0 0
577 2 0.0000000000000000e+00 7.1042950623783341e+00 2.6707606247153340e+01 0 0 0
598 2 2.4610000000000003e+00 7.1042950623783341e+00 2.6707606247153340e+01 0 0 0
629 2 4.9220000000000006e+00 4.2625770374269978e+00 2.6707606247153340e+01 0 0 0
631 2 6.1524999999999999e+00 4.9730065436648339e+00 2.6707606247153340e+01 0 0 0
662 2 6.1524999999999999e+00 6.3938655561404980e+00 2.6707606247153340e+01 0 0 0
666 2 7.3829999999999991e+00 4.2625770374269996e+00 2.6707606247153340e+01 0 0 0
668 2 8.6135000000000002e+00 4.9730065436648339e+00 2.6707606247153340e+01 0 0 0
707 2 8.6135000000000002e+00 6.3938655561404980e+00 2.6707606247153340e+01 0 0 0
627 2 4.9220000000000006e+00 7.1042950623783341e+00 2.6707606247153340e+01 0 0 0
664 2 7.3830000000000009e+00 7.1042950623783341e+00 2.6707606247153340e+01 0 0 0
592 2 0.0000000000000000e+00 8.5251540748539991e+00 2.6707606247153340e+01 0 0 0
594 2 1.2305000000000001e+00 9.2355835810918343e+00 2.6707606247153340e+01 0 0 0
621 2 2.4610000000000003e+00 8.5251540748539991e+00 2.6707606247153340e+01 0 0 0
623 2 3.6915000000000004e+00 9.2355835810918343e+00 2.6707606247153340e+01 0 0 0
590 2 0.0000000000000000e+00 1.1366872099805333e+01 2.6707606247153340e+01 0 0 0
617 2 1.2305000000000001e+00 1.0656442593567498e+01 2.6707606247153340e+01 0 0 0
619 2 2.4610000000000003e+00 1.1366872099805333e+01 2.6707606247153340e+01 0 0 0
654 2 3.6914999999999996e+00 1.0656442593567499e+01 2.6707606247153340e+01 0 0 0
660 2 6.1524999999999999e+00 9.2355835810918343e+00 2.6707606247153340e+01 0 0 0
701 2 7.3829999999999991e+00 1.1366872099805333e+01 2.6707606247153340e+01 0 0 0
746 2 8.6134999999999984e+00 1.0656442593567498e+01 2.6707606247153340e+01 0 0 0
699 2 6.1524999999999999e+00 1.0656442593567499e+01 2.6707606247153340e+01 0 0 0
658 2 4.9220000000000006e+00 8.5251540748539991e+00 2.6707606247153340e+01 0 0 0
254 1 9.3931576848818619e+00 5.0890034807398878e+00 2.4284064271903851e+01 2 1 0
6112 1 6.1931014614913449e-01 1.2196085390307754e+01 2.3810233181080619e+01 1 2 1
3799 1 1.7027895634474324e-01 6.5356204495441164e+00 2.3900160683424936e+01 2 2 0
573 2 0.0000000000000000e+00 1.4208590124756650e+00 3.0031000000006152e+01 0 0 0
575 2 0.0000000000000000e+00 0.0000000000000000e+00 3.0031000000006152e+01 0 0 0
584 2 1.2305000000000001e+00 2.1312885187134998e+00 3.0031000000006152e+01 0 0 0
586 2 2.4610000000000003e+00 1.4208590124756650e+00 3.0031000000006152e+01 0 0 0
588 2 2.4610000000000003e+00 0.0000000000000000e+00 3.0031000000006152e+01 0 0 0
605 2 3.6914999999999996e+00 2.1312885187134998e+00 3.0031000000006152e+01 0 0 0
582 2 1.2305000000000001e+00 3.5521475311891644e+00 3.0031000000006152e+01 0 0 0
603 2 3.6914999999999996e+00 3.5521475311891644e+00 3.0031000000006152e+01 0 0 0
901 2 0.0000000000000000e+00 2.8417180249513345e+00 3.3354393752844700e+01 0 0 0
902 2 0.0000000000000000e+00 0.0000000000000000e+00 3.3354393752844700e+01 0 0 0
903 2 1.2305000000000001e+00 7.1042950623783474e-01 3.3354393752844700e+01 0 0 0
907 2 1.2305000000000001e+00 2.1312885187134998e+00 3.3354393752844700e+01 0 0 0
908 2 2.4610000000000003e+00 2.8417180249513345e+00 3.3354393752844700e+01 0 0 0
909 2 2.4610000000000003e+00 0.0000000000000000e+00 3.3354393752844700e+01 0 0 0
910 2 3.6915000000000004e+00 7.1042950623783474e-01 3.3354393752844700e+01 0 0 0
918 2 3.6914999999999996e+00 2.1312885187134998e+00 3.3354393752844700e+01 0 0 0
607 2 4.9220000000000006e+00 1.4208590124756650e+00 3.0031000000006152e+01 0 0 0
609 2 4.9220000000000006e+00 0.0000000000000000e+00 3.0031000000006152e+01 0 0 0
634 2 6.1524999999999999e+00 2.1312885187134989e+00 3.0031000000006152e+01 0 0 0
636 2 7.3829999999999991e+00 1.4208590124756659e+00 3.0031000000006152e+01 0 0 0
638 2 7.3829999999999991e+00 0.0000000000000000e+00 3.0031000000006152e+01 0 0 0
671 2 8.6134999999999984e+00 2.1312885187135002e+00 3.0031000000006152e+01 0 0 0
632 2 6.1524999999999999e+00 3.5521475311891644e+00 3.0031000000006152e+01 0 0 0
669 2 8.6134999999999984e+00 3.5521475311891657e+00 3.0031000000006152e+01 0 0 0
919 2 4.9220000000000006e+00 2.8417180249513332e+00 3.3354393752844700e+01 0 0 0
920 2 4.9220000000000006e+00 0.0000000000000000e+00 3.3354393752844700e+01 0 0 0
921 2 6.1524999999999999e+00 7.1042950623783407e-01 3.3354393752844700e+01 0 0 0
933 2 6.1524999999999999e+00 2.1312885187134989e+00 3.3354393752844700e+01 0 0 0
934 2 7.3829999999999991e+00 2.8417180249513345e+00 3.3354393752844700e+01 0 0 0
935 2 7.3829999999999991e+00 0.0000000000000000e+00 3.3354393752844700e+01 0 0 0
936 2 8.6134999999999984e+00 7.1042950623783407e-01 3.3354393752844700e+01 0 0 0
952 2 8.6134999999999984e+00 2.1312885187135002e+00 3.3354393752844700e+01 0 0 0
578 2 0.0000000000000000e+00 5.6834360499026637e+00 3.0031000000006152e+01 0 0 0
580 2 0.0000000000000000e+00 4.2625770374269996e+00 3.0031000000006152e+01 0 0 0
597 2 1.2305000000000001e+00 6.3938655561404980e+00 3.0031000000006152e+01 0 0 0
599 2 2.4610000000000003e+00 5.6834360499026637e+00 3.0031000000006152e+01 0 0 0
601 2 2.4610000000000003e+00 4.2625770374269996e+00 3.0031000000006152e+01 0 0 0
626 2 3.6914999999999996e+00 6.3938655561404980e+00 3.0031000000006152e+01 0 0 0
595 2 1.2305000000000001e+00 7.8147245686161639e+00 3.0031000000006152e+01 0 0 0
624 2 3.6914999999999996e+00 7.8147245686161639e+00 3.0031000000006152e+01 0 0 0
905 2 0.0000000000000000e+00 4.2625770374269996e+00 3.3354393752844700e+01 0 0 0
906 2 1.2305000000000001e+00 4.9730065436648339e+00 3.3354393752844700e+01 0 0 0
914 2 1.2305000000000001e+00 6.3938655561404980e+00 3.3354393752844700e+01 0 0 0
916 2 2.4610000000000003e+00 4.2625770374269996e+00 3.3354393752844700e+01 0 0 0
917 2 3.6914999999999996e+00 4.9730065436648339e+00 3.3354393752844700e+01 0 0 0
929 2 3.6914999999999996e+00 6.3938655561404980e+00 3.3354393752844700e+01 0 0 0
904 2 0.0000000000000000e+00 7.1042950623783341e+00 3.3354393752844700e+01 0 0 0
915 2 2.4610000000000003e+00 7.1042950623783341e+00 3.3354393752844700e+01 0 0 0
628 2 4.9220000000000006e+00 5.6834360499026637e+00 3.0031000000006152e+01 0 0 0
630 2 4.9220000000000006e+00 4.2625770374269978e+00 3.0031000000006152e+01 0 0 0
663 2 6.1524999999999999e+00 6.3938655561404980e+00 3.0031000000006152e+01 0 0 0
665 2 7.3829999999999991e+00 5.6834360499026637e+00 3.0031000000006152e+01 0 0 0
667 2 7.3829999999999991e+00 4.2625770374269996e+00 3.0031000000006152e+01 0 0 0
708 2 8.6135000000000002e+00 6.3938655561404980e+00 3.0031000000006152e+01 0 0 0
661 2 6.1524999999999999e+00 7.8147245686161639e+00 3.0031000000006152e+01 0 0 0
706 2 8.6135000000000002e+00 7.8147245686161639e+00 3.0031000000006152e+01 0 0 0
931 2 4.9220000000000006e+00 4.2625770374269978e+00 3.3354393752844700e+01 0 0 0
932 2 6.1524999999999999e+00 4.9730065436648339e+00 3.3354393752844700e+01 0 0 0
948 2 6.1524999999999999e+00 6.3938655561404980e+00 3.3354393752844700e+01 0 0 0
950 2 7.3829999999999991e+00 4.2625770374269996e+00 3.3354393752844700e+01 0 0 0
951 2 8.6135000000000002e+00 4.9730065436648339e+00 3.3354393752844700e+01 0 0 0
971 2 8.6135000000000002e+00 6.3938655561404980e+00 3.3354393752844700e+01 0 0 0
930 2 4.9220000000000006e+00 7.1042950623783341e+00 3.3354393752844700e+01 0 0 0
949 2 7.3830000000000009e+00 7.1042950623783341e+00 3.3354393752844700e+01 0 0 0
591 2 0.0000000000000000e+00 9.9460130873296642e+00 3.0031000000006152e+01 0 0 0
593 2 0.0000000000000000e+00 8.5251540748539991e+00 3.0031000000006152e+01 0 0 0
620 2 2.4610000000000003e+00 9.9460130873296642e+00 3.0031000000006152e+01 0 0 0
622 2 2.4610000000000003e+00 8.5251540748539991e+00 3.0031000000006152e+01 0 0 0
616 2 1.2305000000000001e+00 1.2077301606043163e+01 3.0031000000006152e+01 0 0 0
618 2 1.2305000000000001e+00 1.0656442593567498e+01 3.0031000000006152e+01 0 0 0
653 2 3.6914999999999996e+00 1.2077301606043163e+01 3.0031000000006152e+01 0 0 0
655 2 3.6914999999999996e+00 1.0656442593567499e+01 3.0031000000006152e+01 0 0 0
912 2 0.0000000000000000e+00 8.5251540748539991e+00 3.3354393752844700e+01 0 0 0
913 2 1.2305000000000001e+00 9.2355835810918343e+00 3.3354393752844700e+01 0 0 0
927 2 2.4610000000000003e+00 8.5251540748539991e+00 3.3354393752844700e+01 0 0 0
928 2 3.6915000000000004e+00 9.2355835810918343e+00 3.3354393752844700e+01 0 0 0
911 2 0.0000000000000000e+00 1.1366872099805333e+01 3.3354393752844700e+01 0 0 0
925 2 1.2305000000000001e+00 1.0656442593567498e+01 3.3354393752844700e+01 0 0 0
926 2 2.4610000000000003e+00 1.1366872099805333e+01 3.3354393752844700e+01 0 0 0
944 2 3.6914999999999996e+00 1.0656442593567499e+01 3.3354393752844700e+01 0 0 0
657 2 4.9220000000000006e+00 9.9460130873296642e+00 3.0031000000006152e+01 0 0 0
659 2 4.9220000000000006e+00 8.5251540748539991e+00 3.0031000000006152e+01 0 0 0
702 2 7.3830000000000009e+00 9.9460130873296642e+00 3.0031000000006152e+01 0 0 0
704 2 7.3830000000000009e+00 8.5251540748539991e+00 3.0031000000006152e+01 0 0 0
698 2 6.1524999999999999e+00 1.2077301606043163e+01 3.0031000000006152e+01 0 0 0
700 2 6.1524999999999999e+00 1.0656442593567499e+01 3.0031000000006152e+01 0 0 0
745 2 8.6135000000000002e+00 1.2077301606043163e+01 3.0031000000006152e+01 0 0 0
747 2 8.6134999999999984e+00 1.0656442593567498e+01 3.0031000000006152e+01 0 0 0
946 2 4.9220000000000006e+00 8.5251540748539991e+00 3.3354393752844700e+01 0 0 0
947 2 6.1524999999999999e+00 9.2355835810918343e+00 3.3354393752844700e+01 0 0 0
969 2 7.3830000000000009e+00 8.5251540748539991e+00 3.3354393752844700e+01 0 0 0
970 2 8.6134999999999984e+00 9.2355835810918343e+00 3.3354393752844700e+01 0 0 0
945 2 4.9220000000000006e+00 1.1366872099805333e+01 3.3354393752844700e+01 0 0 0
967 2 6.1524999999999999e+00 1.0656442593567499e+01 3.3354393752844700e+01 0 0 0
968 2 7.3829999999999991e+00 1.1366872099805333e+01 3.3354393752844700e+01 0 0 0
991 2 8.6134999999999984e+00 1.0656442593567498e+01 3.3354393752844700e+01 0 0 0
4826 1 4.1829006214694271e+00 1.6832995129023141e+00 3.5960096786838051e+01 0 0 0
5436 1 4.4738493488210223e+00 4.1984179233144792e+00 3.6815435068342381e+01 -1 2 0
4696 1 4.2659984472950416e+00 9.5630829500885444e+00 3.5780726137458572e+01 0 0 0
3063 1 9.2255318212849193e+00 2.3003118206940196e+00 3.5835476727260115e+01 0 1 -1
1390 1 8.4343014022193756e+00 9.8127969564716349e+00 3.5767774084677313e+01 -1 0 0
2954 1 2.2364932111073670e+00 5.5715840738920770e+00 3.5979397614204615e+01 0 1 0
2991 1 2.0176057171594231e+00 8.1170375274166293e+00 3.6600091007953196e+01 1 -1 0
3036 1 9.0670216336080429e+00 4.9269334372133207e+00 3.6625954730468266e+01 0 0 -1
40 1 6.5391603567397514e+00 8.4858294047383822e+00 3.7128279323308973e+01 0 -1 0
6259 1 6.6294733840447577e+00 5.7812942886805327e+00 3.5798358007093853e+01 1 0 0
96 1 6.8239649575562105e+00 8.0287603404978136e-01 3.6167555759062736e+01 -1 0 -1
3358 1 2.0470647282048815e+00 7.2198336137124952e-02 3.6580131231860321e+01 -2 0 -1
1580 1 7.9888310266623699e-02 4.0461322628992633e+00 3.6739905837416416e+01 0 -1 -1
3541 1 3.0950785436168360e-02 1.4566165489808680e+00 3.5610115054893697e+01 1 -1 0
5198 1 4.3361188427621986e+00 1.2142345327638077e+01 3.6757245996516261e+01 2 -1 -1
3564 1 4.7158316958760986e+00 1.6494906594808587e+00 4.0043798129346399e+01 -1 -1 -1
3798 1 6.5809922076353899e+00 5.6933051737486293e+00 4.3158705019444582e+01 0 1 -1
1719 1 8.9155737458849273e+00 1.8554312551354020e+00 4.0394847570170086e+01 0 -1 -1
4804 1 8.6884857957956392e+00 4.4693078038389444e+00 3.9630276279592024e+01 -1 0 0
5090 1 4.3412020460778393e+00 9.7916012096364948e+00 4.3074479145128322e+01 1 1 0
4863 1 4.2567813399012477e+00 4.4315840073119324e+00 3.9659603507545214e+01 -1 -1 0
4820 1 2.1055705999636887e+00 5.7115839823402776e+00 4.0207044899021554e+01 -1 0 -1
5250 1 2.1082644699597628e+00 8.4914727867119346e+00 3.9341294687184870e+01 1 -3 -1
79 1 6.6078979726302833e+00 5.8513899323420731e+00 4.0553052670453056e+01 1 0 -1
4532 1 6.6814982805547203e+00 8.4023187989007564e+00 3.9782878144542494e+01 0 0 0
4953 1 4.4347257322988263e+00 9.6169124020449850e+00 4.0447733098257075e+01 1 0 -1
2992 1 8.7898101062854632e+00 9.8192962029074682e+00 4.3296323046722350e+01 2 3 0
5349 1 9.2128785368122887e+00 4.8827354121177144e+00 4.4010835663395355e+01 3 0 -1
227 1 8.7888714317374887e+00 1.0193764154443462e+01 4.0452720206506498e+01 0 0 -1
3082 1 4.4420548630909922e+00 1.7637667323232085e+00 4.2864918097162118e+01 -1 -1 0
5262 1 6.5078797318537518e+00 8.3469246199436569e+00 4.3928167380433010e+01 -1 -1 0
5425 1 9.0819309934667398e+00 1.8598092126791943e+00 4.3106800302113584e+01 -3 0 0
5290 1 2.2275730409750163e+00 8.3362092937170083e+00 4.4147350633105731e+01 -1 -2 -1
1729 1 4.3147256175153075e+00 4.2537311199071546e+00 4.4144470666174868e+01 1 1 -1
3497 1 2.3352418587701140e+00 5.8161699848039321e+00 4.2948238666631411e+01 0 1 -1
2029 1 6.7685020838410184e+00 5.9120510169902563e-01 3.9154313315247194e+01 3 1 -1
4672 1 2.2896821380850496e+00 2.1646727606459518e-01 3.9412737522138514e+01 -2 -1 0
5 1 2.1819261033683630e+00 2.3372753089031981e-01 4.3707873865320209e+01 0 0 0
360 1 3.2025907234161238e-01 4.1436215617691765e+00 4.3907311174614620e+01 2 -1 0
5038 1 6.7052076590888090e+00 3.9614174315919037e-01 4.3693918880367747e+01 1 0 0
2885 1 4.4086828100797755e+00 1.2157575326574158e+01 3.9381324184360963e+01 -1 1 0
1559 1 2.3561494839392338e-01 1.2208520586240203e+01 4.3777307377983675e+01 3 1 0
3543 1 4.3362187346655006e+00 1.4750273922344839e+00 4.7264880877027267e+01 0 -1 -1
3093 1 4.1556002060776205e+00 4.1493983812867361e+00 4.6699134241275416e+01 0 -2 0
5177 1 9.1668077579425233e+00 1.0156091359413720e+01 5.0368052473877611e+01 -1 1 -1
3025 1 8.9917290793411624e+00 1.5116295810687941e+00 4.7128763937763438e+01 1 -2 0
5446 1 9.1618521018937731e+00 4.1902398490904913e+00 4.6606185110758446e+01 0 0 0
1871 1 1.9947607056459891e+00 5.4131267866875792e+00 4.7709413689528702e+01 0 1 -1
1730 1 1.9415436289621433e+00 8.2378701636327136e+00 4.6859380153355090e+01 0 3 0
3481 1 6.7929069485674320e+00 5.3766931361967227e+00 4.7706211850853762e+01 -1 1 -1
5248 1 4.4380923266357488e+00 9.5524345789140472e+00 4.7717726854435227e+01 0 -1 -1
3191 1 6.8317860281231590e+00 4.8426067047903398e+00 5.0464218268380051e+01 0 -3 0
64 1 6.6347191354142181e+00 7.9668815196490863e+00 4.6829567530219038e+01 1 -2 0
296 1 8.9232962069560386e+00 9.7796568741594410e+00 4.7512745429511796e+01 -1 1 0
3730 1 2.5346298871197908e+00 1.1542001170202898e+01 5.0840084218088435e+01 1 0 -1
6254 1 2.3464843818438466e+00 2.3478141273265760e+00 5.0541347528968871e+01 -1 2 0
470 1 4.4034868785402095e+00 9.4230900025102715e-01 4.9857559765466803e+01 -1 1 0
4959 1 7.0692809595324348e+00 1.1591256207135283e+01 5.1292653746797242e+01 -1 0 -1
1640 1 8.7492917828139785e+00 9.6538088997057869e-01 4.9672245601727866e+01 1 1 -1
2182 1 6.5807411545055752e+00 2.0407197589080135e+00 5.0970449681234513e+01 0 1 0
6400 1 4.4275570729702656e+00 5.6017506581679477e+00 5.1977756378905880e+01 3 1 -1
5422 1 2.2604672345903061e+00 5.0207397795125361e+00 5.0573547608338743e+01 1 -1 -1
3711 1 8.8182807869949205e+00 5.3403038609093736e+00 5.2131833561101942e+01 -1 1 -1
6374 1 4.8738412888659308e+00 9.9382782450016443e+00 5.0689776647240421e+01 2 3 -1
4604 1 2.0984382650841211e+00 2.6764684254533072e-01 4.6324944041231689e+01 0 1 0
5080 1 6.7499993073178066e+00 4.1033885249431407e-01 4.6303960257191164e+01 0 2 -1
6445 1 4.5124751417758207e+00 1.2036668266052825e+01 4.6581707418337899e+01 4 1 -1
1891 1 4.2788242442654223e-02 5.8462767010224930e+00 5.1627898908295791e+01 2 0 -1
6241 1 2.3868874721316757e-01 1.2201568471869052e+01 4.6412766506702553e+01 -1 1 0
1696 1 1.9608083740999398e+00 2.3710122592627823e+00 5.3269112407235440e+01 0 5 -1
4518 1 4.2859828884199800e+00 3.7532020734359639e+00 5.4074598952338064e+01 3 -1 -1
1641 1 6.6083991259668338e+00 8.7428124489480457e+00 5.8807446757060802e+01 -1 -1 0
6200 1 6.4837752192076072e+00 2.1383617853714409e+00 5.3677541473168247e+01 -1 2 0
97 1 8.5992913415292165e+00 3.6993222742697318e+00 5.4413944983254325e+01 0 0 -1
6130 1 2.3707007628144492e+00 9.0092158596342635e+00 5.4206882120640074e+01 0 -1 0
410 1 2.5409737461818356e+00 1.1785078216061478e+01 5.3713529552343687e+01 2 1 -1
1509 1 6.7107342827320267e+00 8.7410129843964270e+00 5.4411561125869582e+01 0 -1 0
1651 1 6.8360460201088378e+00 1.1592543766350024e+01 5.3961144412763488e+01 0 0 -1
4611 1 4.2307695861239809e+00 1.0349309284029722e+01 5.8433392934829669e+01 1 -1 0
2951 1 4.1075868762987220e+00 1.0521254811600349e+00 5.8117278276602704e+01 0 2 0
4909 1 4.4018400136637243e+00 3.7201988239644268e+00 5.8625638198217672e+01 0 1 -1
251 1 8.8237404414463665e+00 1.0291662639304787e+01 5.8737270529082721e+01 4 1 -1
549 1 8.8489872842932833e+00 1.1552749605696697e+00 5.8280062164160015e+01 3 -2 0
6375 1 8.9713701867161699e+00 4.0801840749524709e+00 5.8775628079594100e+01 -1 2 0
3614 1 4.3957734968995519e+00 5.3671775950739589e+00 5.6579574172303580e+01 3 -2 0
178 1 2.3004269913769924e+00 7.2534942372797717e+00 5.6378541037091793e+01 0 -1 -1
3104 1 8.6615940773186768e+00 5.4211359289953673e+00 5.6456875761928757e+01 1 -1 0
3700 1 6.6200256996190463e+00 7.1907002059428518e+00 5.6532291047621555e+01 0 3 0
356 1 1.7672673799407772e+00 8.9321415510215285e+00 5.8553308360711867e+01 0 1 -1
4946 1 4.4670310132723730e+00 8.1828796874853840e+00 5.2913366832853711e+01 2 2 -1
2898 1 8.7503342430923183e+00 8.1442020043253578e+00 5.2466065355594722e+01 1 1 -1
5378 1 3.0326960142604970e-01 8.4498283979197897e+00 5.2250300811362038e+01 1 -1 0
1517 1 1.9373796252663344e-01 4.1722149787694489e+00 5.8516601242727461e+01 -1 -2 -1
441 1 7.0208407866770739e-02 5.5446760777937403e+00 5.6081338101533419e+01 1 -2 0
1785 1 2.1748891096249645e+00 1.4645849753814058e+01 1.8222249166451192e+00 1 0 1
1710 1 4.5300790266165540e+00 1.5975872855750286e+01 2.6382251081742694e+00 -1 0 0
1268 1 6.4989833652957074e+00 2.2411553352703748e+01 6.1970822758720336e+00 1 0 1
5087 1 6.6851915189869553e+00 1.4483895024999020e+01 1.9218349841806961e+00 -2 1 1
1926 1 8.6698996518403124e+00 1.5997033335310141e+01 3.2388544343810022e+00 -1 0 1
1931 1 2.2017944938685075e+00 1.9605559999958309e+01 2.7969939498302945e+00 2 1 0
4728 1 4.2471367726251001e+00 1.8366238241145489e+01 1.7598019198397381e+00 -1 0 1
157 1 2.3234330059903474e+00 2.2431074565448196e+01 6.5707621882419058e+00 2 0 1
3313 1 6.4298034404830791e+00 1.9817577415617212e+01 2.7944758784293939e+00 2 2 0
3321 1 8.6532994938132486e+00 1.8466928575307929e+01 2.1869145175282165e+00 1 -1 0
4773 1 2.2774184210064528e+00 2.1957055483568546e+01 1.6455490883405686e+00 1 2 1
3767 1 4.4064312017836222e+00 2.3647108648493443e+01 2.4998993930824178e+00 -1 0 0
119 1 6.6383206349707864e+00 2.2393710939985453e+01 1.9003328789978233e+00 1 0 0
4855 1 9.1106847990854316e+00 2.3397627977400813e+01 2.6021879574070823e+00 -1 1 1
1934 1 1.8294406081739103e+00 1.4445213283338175e+01 6.8632345069286291e+00 2 1 0
3694 1 4.0424445972349483e+00 1.5489226914746173e+01 5.6441397958233486e+00 0 2 0
1920 1 6.1744672195695056e+00 1.4549515024349796e+01 6.7052991654466263e+00 3 -2 1
5381 1 8.6259841379617832e+00 1.5846009915598431e+01 6.0815555217789816e+00 2 1 1
219 1 8.7655270370762484e+00 2.3526011479697527e+01 5.1952711063335100e+00 -2 1 1
3489 1 2.2275244439054545e+00 1.9791946496086972e+01 5.7038779573574123e+00 0 1 1
5358 1 4.3766408404958623e+00 1.8178836438484524e+01 6.6558891289061686e+00 1 2 1
1947 1 8.8242354223891315e+00 1.8364820497294712e+01 6.6960649539653012e+00 1 -1 0
1480 1 6.5520483189621226e+00 1.9598819246264888e+01 5.6418773087722789e+00 1 1 1
3007 1 4.2111685154417557e+00 2.3823447551519038e+01 5.4667916728132839e+00 1 3 0
4710 1 4.4719078319957362e-02 1.8283431225610318e+01 1.8730039967434580e+00 -2 -1 1
5352 1 1.1639679591795016e-02 1.5930725841140976e+01 5.4561904620433852e+00 0 1 1
6321 1 2.0735528462484569e+00 1.4979415600543138e+01 9.5748040641873011e+00 2 -2 1
1435 1 4.3355998144864509e+00 1.3284684691953037e+01 1.0575207894232529e+01 -3 1 1
3370 1 6.3241955365650036e+00 1.4925110977264112e+01 9.3967246323734823e+00 3 2 0
4492 1 8.7298795018160451e+00 1.3680884803469644e+01 1.0249947170138073e+01 0 -2 0