LAMMPS data file via write_data, version 16 Mar 2018, timestep = 100000

6489 atoms
2 atom types

0.0000000000000000e+00 4.9219999999999999e+01 xlo xhi
0.0000000000000000e+00 4.9019635930410494e+01 ylo yhi
2.1434122028087650e+00 5.7918587797192352e+01 zlo zhi

Masses

1 18.015
2 12.01

Atoms # atomic

3172 1 9.3727970365037852e+00 1.0272893621699131e+01 3.5819074568936298e+00 0 0 0
5017 1 7.4338710616397963e+00 3.0075876310962615e+00 4.4933101960260284e+00 0 0 0
1585 1 5.7411223126845892e+00 8.7927438654452654e+00 8.6859952168261039e+00 0 0 0
5299 1 4.8236562974261554e+00 4.4500957249452924e-02 3.1790310499391481e+00 1 1 0
5047 1 5.0615989788830067e+00 4.4569418359788378e+00 4.0066679755224452e+00 1 0 0
5119 1 5.1374768975230445e-01 5.7320681211525395e+00 4.3667942075907611e+00 0 1 0
375 1 2.7220272370632750e+00 6.8716985328729256e+00 3.4189398817969887e+00 -1 0 0
207 1 1.0093890617623791e+00 3.0358938618856929e-01 5.4351868699239807e+00 1 1 0
1805 1 7.4030579431834900e+00 8.2183020543402421e+00 4.7084678947689369e+00 1 0 1
1878 1 4.1616835040789519e+00 1.0226008192448171e+01 6.8253062179697750e+00 0 0 0
3606 1 9.4247490006935095e+00 4.4047613139979571e+00 2.8182087466392063e+00 0 0 1
171 1 4.5418632831926180e+00 8.7061663388924391e+00 4.2990232522754219e+00 0 0 1
1333 1 1.7156187862933745e+00 9.0580697004597308e+00 6.7649744758221653e+00 0 0 1
132 1 7.7581064154584984e+00 6.7668772996129372e+00 6.9184646415377502e+00 0 -1 0
3633 1 6.8749079366563883e+00 4.4043272785887364e+00 8.3167317902646403e+00 0 1 1
415 1 3.8449300747118285e+00 8.8232992575919900e-01 5.8534072086519320e+00 -1 0 0
1654 1 5.0692228640055079e+00 1.0608088434552844e+01 2.4127654195347472e+00 0 1 0
1441 1 9.1888002351244520e+00 1.1505098308741328e+01 7.2251621846593732e+00 0 0 1
3767 1 8.7118969687067462e+00 3.2275500687226759e+00 6.8574992228327156e+00 0 0 0
3280 1 9.2501321769124500e-01 6.2077566685183099e+00 7.0254115380404611e+00 0 0 1
411 1 4.9638938422849010e+00 3.3930390966793027e+00 6.7434554060028491e+00 1 1 0
276 1 3.0577612329473647e+00 5.0828559600697920e+00 8.2134270568628587e+00 1 0 0
2917 1 8.6615614741549276e+00 9.0334098385154480e+00 8.7943354079284255e+00 -1 0 0
1664 1 7.1629311151830048e+00 6.0387798226327041e+00 2.5709519638787888e+00 1 0 0
1737 1 7.6707359586276995e+00 5.6260030221648250e-01 3.2903737220405889e+00 0 0 0
5223 1 3.0183875523980791e-01 2.9552790302214587e+00 4.1581038858481918e+00 0 0 0
3504 1 3.6966357757210755e-01 8.5112045449196327e-01 8.0449299717666332e+00 1 1 0
2168 1 2.0953783724307944e+00 1.0336816719346007e+01 2.1794579957358025e+00 0 1 1
6423 1 1.7000973768008816e+00 9.5528839373218943e+00 1.5618625677458546e+01 1 0 1
5061 1 6.3064690181224741e+00 5.2866148225146388e+00 1.1631100275011805e+01 1 0 0
3097 1 2.5210184645229483e+00 2.5560721814833185e+00 9.5681638401143356e+00 1 -1 1
5199 1 3.4721152979777048e+00 1.6361496201170975e-01 1.2585639156601552e+01 0 0 0
1572 1 4.3133254227088544e+00 6.7071728511379058e+00 1.0113108181156408e+01 1 1 1
1651 1 9.0740841353441795e+00 5.8822802746669440e+00 1.2132233801034390e+01 0 0 0
2873 1 4.8997536135030391e+00 2.5382315805532789e+00 1.1559083831806126e+01 0 -1 1
217 1 8.7306488263367079e+00 8.1571217809383647e+00 1.4007160717757023e+01 1 0 0
1665 1 3.2200880174085422e+00 1.0673132586387416e+01 1.1615692344116212e+01 0 1 1
3391 1 7.1805012515503046e+00 4.2840444622769756e+00 1.5844938220432109e+01 1 0 0
3182 1 2.4781067021295791e-01 1.0933677810728527e+01 1.1477296567763421e+01 0 0 1
5412 1 3.7965321509543815e-01 6.8821722909760901e+00 1.2450156549245841e+01 0 0 1
3018 1 8.4590687333768582e+00 1.0438223212470486e+01 1.1189879598050769e+01 0 0 1
1815 1 3.2903625640118541e+00 3.2163091044502981e+00 1.3889247804063070e+01 1 1 0
80 1 6.1246487983904254e+00 1.2328375870356879e-01 1.0030024449722205e+01 1 1 0
2070 1 4.5019904677707077e+00 1.2242977917075519e+01 1.3614995728110939e+01 0 1 0
3547 1 8.5870398028386896e-01 3.9809681213030346e+00 1.2908202768526110e+01 0 0 0
3269 1 9.7594652323085587e+00 4.3025663032596082e+00 1.4898752326336542e+01 1 0 0
5333 1 7.1927723659283336e+00 1.0890590240911735e+01 1.3971330597361840e+01 1 1 1
5008 1 3.8967250662517685e+00 7.6988965550191537e+00 1.4733452637994183e+01 0 0 0
1831 1 5.2493093327393696e+00 5.2150464742910057e+00 1.4130457649665987e+01 1 0 0
318 1 2.8117846134646953e+00 8.0194257224771306e+00 1.2030558452232496e+01 1 0 0
3437 1 2.5035402627226391e-02 2.0710025428531424e+00 1.1076025820635499e+01 1 0 0
6438 1 2.2889139620984440e+00 1.2235390541210650e+01 1.5347183829773334e+01 0 0 1
407 1 3.4208287846472918e+00 1.1739026888597060e+01 9.3277452717327947e+00 -1 0 0
5345 1 8.2458812026283130e+00 7.0005228750658404e+00 1.6319088677675197e+01 1 1 0
3481 1 9.0165993058705336e+00 3.0132334775254948e+00 1.9245103879510452e+01 -1 1 0
1917 1 3.6738939613870008e+00 4.2543165259189539e+00 1.8052882389729191e+01 1 1 0
360 1 2.6874394808486421e+00 6.4583675800511973e+00 1.6739532777381861e+01 1 1 1
3362 1 3.6574526674692226e-01 2.0122131717595919e+00 1.6566083918978631e+01 2 1 1
3048 1 6.3058353052143437e+00 4.5413331958633973e+00 1.8425581019442536e+01 1 1 1
1965 1 7.1953075854164599e+00 9.1319671672751190e-01 1.8834076779289791e+01 1 1 1
301 1 3.1434621243643130e+00 1.7843664581395251e+00 1.6712145446661545e+01 1 0 0
4987 1 6.3426928837805541e+00 6.9129594424740430e+00 1.9834907399152311e+01 0 0 1
5248 1 9.3009486657679599e+00 1.1425884287009486e+01 1.7830541985710639e+01 0 -1 0
174 1 5.8565471165420897e+00 8.0543464975235342e+00 1.7182579381999354e+01 0 -1 0
136 1 6.7096214366319131e+00 1.0563813664370185e+01 1.6645712318936937e+01 0 -1 0
25 1 6.2420381591725018e+00 1.2166614335133037e+00 1.6386751751015794e+01 0 0 0
1826 1 2.9193489490285698e+00 2.0800754152661072e+00 2.1625855646123320e+01 1 1 0
4892 1 7.3854115830518818e+00 4.3869056352060927e+00 2.2151824122892172e+01 1 1 0
1480 1 4.7487744980973536e+00 1.1072112796350249e+01 2.1547208979920281e+01 1 0 1
2052 1 5.6123172884001695e+00 2.6737208928447096e+00 2.0715124601809212e+01 0 0 0
2063 1 2.3571857648365722e+00 4.4180836579530878e+00 2.0287150227957145e+01 1 0 0
6160 1 1.4402283435959800e+00 7.4943774513127073e+00 1.8939409072989790e+01 1 0 1
6420 1 9.3885732572374145e+00 5.6183176384011571e+00 2.0519538651992178e+01 1 0 0
559 1 3.6907181860184135e+00 6.6291710032579676e+00 2.1192949756334393e+01 1 0 1
6458 1 2.1862334636387382e+00 9.5760782447254886e+00 2.1343480579496937e+01 1 0 1
3660 1 7.1549968820452197e+00 9.1420663750994784e+00 2.1620990821912656e+01 0 0 0
1670 1 5.7855688698958900e-02 9.6083812559243604e+00 1.7877185180585755e+01 0 -1 0
2085 1 9.4477290551133599e+00 9.9900559361874137e+00 2.0315139069856013e+01 1 0 0
6215 1 4.6646634127467985e+00 1.2234537727565435e+01 1.7073843384602306e+01 0 0 1
154 1 4.9215827900321613e-01 4.8638690418091226e+00 1.6115740532984447e+01 0 -1 0
117 1 1.9565864712971310e+00 2.2765240104296591e+00 2.4143173613932078e+01 0 1 0
5007 1 9.0905131203088256e+00 2.7236257795145176e+00 2.3770712910914117e+01 1 0 0
746 2 8.6134999999999984e+00 1.0656442593567498e+01 2.6889962436936056e+01 0 0 0
5018 1 7.3875407752150526e+00 4.9953188731664383e-01 2.4419286163403918e+01 1 1 0
3634 1 3.5427297991671027e+00 6.2532153976651648e+00 2.3910208126512828e+01 1 0 0
1898 1 9.9347683755757366e-01 5.0816135735876964e+00 2.4324894571662337e+01 0 0 0
5305 1 6.3622524888875898e+00 6.0376275312077503e+00 2.4263121865178910e+01 1 -1 0
3214 1 7.4565694142489587e+00 8.4359426432226776e+00 2.4189639055480505e+01 1 1 1
4953 1 2.8749133342417665e+00 8.8354057059452789e+00 2.4119566584735765e+01 1 0 0
1908 1 4.7820403435101078e+00 1.1070887891110694e+01 2.4434948144321101e+01 0 1 0
3799 1 4.7642258128535158e+00 1.4151007847110342e+00 2.4372231102662617e+01 1 0 0
5185 1 7.6848300261487399e+00 1.1688792927362510e+01 2.4409017308079395e+01 1 0 1
572 2 0.0000000000000000e+00 2.8417180249513345e+00 2.6889962436936056e+01 0 0 0
574 2 0.0000000000000000e+00 0.0000000000000000e+00 2.6889962436936056e+01 0 0 0
576 2 1.2305000000000001e+00 7.1042950623783474e-01 2.6889962436936056e+01 0 0 0
583 2 1.2305000000000001e+00 2.1312885187134998e+00 2.6889962436936056e+01 0 0 0
585 2 2.4610000000000003e+00 2.8417180249513345e+00 2.6889962436936056e+01 0 0 0
587 2 2.4610000000000003e+00 0.0000000000000000e+00 2.6889962436936056e+01 0 0 0
589 2 3.6915000000000004e+00 7.1042950623783474e-01 2.6889962436936056e+01 0 0 0
604 2 3.6914999999999996e+00 2.1312885187134998e+00 2.6889962436936056e+01 0 0 0
606 2 4.9220000000000006e+00 2.8417180249513332e+00 2.6889962436936056e+01 0 0 0
608 2 4.9220000000000006e+00 0.0000000000000000e+00 2.6889962436936056e+01 0 0 0
610 2 6.1524999999999999e+00 7.1042950623783407e-01 2.6889962436936056e+01 0 0 0
633 2 6.1524999999999999e+00 2.1312885187134989e+00 2.6889962436936056e+01 0 0 0
635 2 7.3829999999999991e+00 2.8417180249513345e+00 2.6889962436936056e+01 0 0 0
637 2 7.3829999999999991e+00 0.0000000000000000e+00 2.6889962436936056e+01 0 0 0
639 2 8.6134999999999984e+00 7.1042950623783407e-01 2.6889962436936056e+01 0 0 0
670 2 8.6134999999999984e+00 2.1312885187135002e+00 2.6889962436936056e+01 0 0 0
579 2 0.0000000000000000e+00 4.2625770374269996e+00 2.6889962436936056e+01 0 0 0
581 2 1.2305000000000001e+00 4.9730065436648339e+00 2.6889962436936056e+01 0 0 0
596 2 1.2305000000000001e+00 6.3938655561404980e+00 2.6889962436936056e+01 0 0 0
600 2 2.4610000000000003e+00 4.2625770374269996e+00 2.6889962436936056e+01 0 0 0
602 2 3.6914999999999996e+00 4.9730065436648339e+00 2.6889962436936056e+01 0 0 0
625 2 3.6914999999999996e+00 6.3938655561404980e+00 2.6889962436936056e+01 0 0 0
577 2 0.0000000000000000e+00 7.1042950623783341e+00 2.6889962436936056e+01 0 0 0
598 2 2.4610000000000003e+00 7.1042950623783341e+00 2.6889962436936056e+01 0 0 0
629 2 4.9220000000000006e+00 4.2625770374269978e+00 2.6889962436936056e+01 0 0 0
631 2 6.1524999999999999e+00 4.9730065436648339e+00 2.6889962436936056e+01 0 0 0
662 2 6.1524999999999999e+00 6.3938655561404980e+00 2.6889962436936056e+01 0 0 0
666 2 7.3829999999999991e+00 4.2625770374269996e+00 2.6889962436936056e+01 0 0 0
668 2 8.6135000000000002e+00 4.9730065436648339e+00 2.6889962436936056e+01 0 0 0
707 2 8.6135000000000002e+00 6.3938655561404980e+00 2.6889962436936056e+01 0 0 0
627 2 4.9220000000000006e+00 7.1042950623783341e+00 2.6889962436936056e+01 0 0 0
664 2 7.3830000000000009e+00 7.1042950623783341e+00 2.6889962436936056e+01 0 0 0
592 2 0.0000000000000000e+00 8.5251540748539991e+00 2.6889962436936056e+01 0 0 0
594 2 1.2305000000000001e+00 9.2355835810918343e+00 2.6889962436936056e+01 0 0 0
621 2 2.4610000000000003e+00 8.5251540748539991e+00 2.6889962436936056e+01 0 0 0
623 2 3.6915000000000004e+00 9.2355835810918343e+00 2.6889962436936056e+01 0 0 0
590 2 0.0000000000000000e+00 1.1366872099805333e+01 2.6889962436936056e+01 0 0 0
617 2 1.2305000000000001e+00 1.0656442593567498e+01 2.6889962436936056e+01 0 0 0
619 2 2.4610000000000003e+00 1.1366872099805333e+01 2.6889962436936056e+01 0 0 0
654 2 3.6914999999999996e+00 1.0656442593567499e+01 2.6889962436936056e+01 0 0 0
703 2 7.3830000000000009e+00 8.5251540748539991e+00 2.6889962436936056e+01 0 0 0
699 2 6.1524999999999999e+00 1.0656442593567499e+01 2.6889962436936056e+01 0 0 0
701 2 7.3829999999999991e+00 1.1366872099805333e+01 2.6889962436936056e+01 0 0 0
705 2 8.6134999999999984e+00 9.2355835810918343e+00 2.6889962436936056e+01 0 0 0
660 2 6.1524999999999999e+00 9.2355835810918343e+00 2.6889962436936056e+01 0 0 0
656 2 4.9220000000000006e+00 1.1366872099805333e+01 2.6889962436936056e+01 0 0 0
658 2 4.9220000000000006e+00 8.5251540748539991e+00 2.6889962436936056e+01 0 0 0
2006 1 1.8699874919272930e-01 9.8646269879057087e+00 2.4030457772333822e+01 1 1 0
573 2 0.0000000000000000e+00 1.4208590124756650e+00 3.0031000000000859e+01 0 0 0
575 2 0.0000000000000000e+00 0.0000000000000000e+00 3.0031000000000859e+01 0 0 0
584 2 1.2305000000000001e+00 2.1312885187134998e+00 3.0031000000000859e+01 0 0 0
586 2 2.4610000000000003e+00 1.4208590124756650e+00 3.0031000000000859e+01 0 0 0
588 2 2.4610000000000003e+00 0.0000000000000000e+00 3.0031000000000859e+01 0 0 0
605 2 3.6914999999999996e+00 2.1312885187134998e+00 3.0031000000000859e+01 0 0 0
582 2 1.2305000000000001e+00 3.5521475311891644e+00 3.0031000000000859e+01 0 0 0
603 2 3.6914999999999996e+00 3.5521475311891644e+00 3.0031000000000859e+01 0 0 0
901 2 0.0000000000000000e+00 2.8417180249513345e+00 3.3172037563066624e+01 0 0 0
902 2 0.0000000000000000e+00 0.0000000000000000e+00 3.3172037563066624e+01 0 0 0
903 2 1.2305000000000001e+00 7.1042950623783474e-01 3.3172037563066624e+01 0 0 0
907 2 1.2305000000000001e+00 2.1312885187134998e+00 3.3172037563066624e+01 0 0 0
908 2 2.4610000000000003e+00 2.8417180249513345e+00 3.3172037563066624e+01 0 0 0
909 2 2.4610000000000003e+00 0.0000000000000000e+00 3.3172037563066624e+01 0 0 0
910 2 3.6915000000000004e+00 7.1042950623783474e-01 3.3172037563066624e+01 0 0 0
918 2 3.6914999999999996e+00 2.1312885187134998e+00 3.3172037563066624e+01 0 0 0
607 2 4.9220000000000006e+00 1.4208590124756650e+00 3.0031000000000859e+01 0 0 0
609 2 4.9220000000000006e+00 0.0000000000000000e+00 3.0031000000000859e+01 0 0 0
634 2 6.1524999999999999e+00 2.1312885187134989e+00 3.0031000000000859e+01 0 0 0
636 2 7.3829999999999991e+00 1.4208590124756659e+00 3.0031000000000859e+01 0 0 0
638 2 7.3829999999999991e+00 0.0000000000000000e+00 3.0031000000000859e+01 0 0 0
671 2 8.6134999999999984e+00 2.1312885187135002e+00 3.0031000000000859e+01 0 0 0
632 2 6.1524999999999999e+00 3.5521475311891644e+00 3.0031000000000859e+01 0 0 0
669 2 8.6134999999999984e+00 3.5521475311891657e+00 3.0031000000000859e+01 0 0 0
919 2 4.9220000000000006e+00 2.8417180249513332e+00 3.3172037563066624e+01 0 0 0
920 2 4.9220000000000006e+00 0.0000000000000000e+00 3.3172037563066624e+01 0 0 0
921 2 6.1524999999999999e+00 7.1042950623783407e-01 3.3172037563066624e+01 0 0 0
933 2 6.1524999999999999e+00 2.1312885187134989e+00 3.3172037563066624e+01 0 0 0
934 2 7.3829999999999991e+00 2.8417180249513345e+00 3.3172037563066624e+01 0 0 0
935 2 7.3829999999999991e+00 0.0000000000000000e+00 3.3172037563066624e+01 0 0 0
936 2 8.6134999999999984e+00 7.1042950623783407e-01 3.3172037563066624e+01 0 0 0
952 2 8.6134999999999984e+00 2.1312885187135002e+00 3.3172037563066624e+01 0 0 0
578 2 0.0000000000000000e+00 5.6834360499026637e+00 3.0031000000000859e+01 0 0 0
580 2 0.0000000000000000e+00 4.2625770374269996e+00 3.0031000000000859e+01 0 0 0
597 2 1.2305000000000001e+00 6.3938655561404980e+00 3.0031000000000859e+01 0 0 0
599 2 2.4610000000000003e+00 5.6834360499026637e+00 3.0031000000000859e+01 0 0 0
601 2 2.4610000000000003e+00 4.2625770374269996e+00 3.0031000000000859e+01 0 0 0
626 2 3.6914999999999996e+00 6.3938655561404980e+00 3.0031000000000859e+01 0 0 0
595 2 1.2305000000000001e+00 7.8147245686161639e+00 3.0031000000000859e+01 0 0 0
624 2 3.6914999999999996e+00 7.8147245686161639e+00 3.0031000000000859e+01 0 0 0
905 2 0.0000000000000000e+00 4.2625770374269996e+00 3.3172037563066624e+01 0 0 0
906 2 1.2305000000000001e+00 4.9730065436648339e+00 3.3172037563066624e+01 0 0 0
914 2 1.2305000000000001e+00 6.3938655561404980e+00 3.3172037563066624e+01 0 0 0
916 2 2.4610000000000003e+00 4.2625770374269996e+00 3.3172037563066624e+01 0 0 0
917 2 3.6914999999999996e+00 4.9730065436648339e+00 3.3172037563066624e+01 0 0 0
929 2 3.6914999999999996e+00 6.3938655561404980e+00 3.3172037563066624e+01 0 0 0
904 2 0.0000000000000000e+00 7.1042950623783341e+00 3.3172037563066624e+01 0 0 0
915 2 2.4610000000000003e+00 7.1042950623783341e+00 3.3172037563066624e+01 0 0 0
628 2 4.9220000000000006e+00 5.6834360499026637e+00 3.0031000000000859e+01 0 0 0
630 2 4.9220000000000006e+00 4.2625770374269978e+00 3.0031000000000859e+01 0 0 0
663 2 6.1524999999999999e+00 6.3938655561404980e+00 3.0031000000000859e+01 0 0 0
665 2 7.3829999999999991e+00 5.6834360499026637e+00 3.0031000000000859e+01 0 0 0
667 2 7.3829999999999991e+00 4.2625770374269996e+00 3.0031000000000859e+01 0 0 0
708 2 8.6135000000000002e+00 6.3938655561404980e+00 3.0031000000000859e+01 0 0 0
661 2 6.1524999999999999e+00 7.8147245686161639e+00 3.0031000000000859e+01 0 0 0
706 2 8.6135000000000002e+00 7.8147245686161639e+00 3.0031000000000859e+01 0 0 0
931 2 4.9220000000000006e+00 4.2625770374269978e+00 3.3172037563066624e+01 0 0 0
932 2 6.1524999999999999e+00 4.9730065436648339e+00 3.3172037563066624e+01 0 0 0
948 2 6.1524999999999999e+00 6.3938655561404980e+00 3.3172037563066624e+01 0 0 0
950 2 7.3829999999999991e+00 4.2625770374269996e+00 3.3172037563066624e+01 0 0 0
951 2 8.6135000000000002e+00 4.9730065436648339e+00 3.3172037563066624e+01 0 0 0
971 2 8.6135000000000002e+00 6.3938655561404980e+00 3.3172037563066624e+01 0 0 0
930 2 4.9220000000000006e+00 7.1042950623783341e+00 3.3172037563066624e+01 0 0 0
949 2 7.3830000000000009e+00 7.1042950623783341e+00 3.3172037563066624e+01 0 0 0
591 2 0.0000000000000000e+00 9.9460130873296642e+00 3.0031000000000859e+01 0 0 0
593 2 0.0000000000000000e+00 8.5251540748539991e+00 3.0031000000000859e+01 0 0 0
620 2 2.4610000000000003e+00 9.9460130873296642e+00 3.0031000000000859e+01 0 0 0
622 2 2.4610000000000003e+00 8.5251540748539991e+00 3.0031000000000859e+01 0 0 0
616 2 1.2305000000000001e+00 1.2077301606043163e+01 3.0031000000000859e+01 0 0 0
618 2 1.2305000000000001e+00 1.0656442593567498e+01 3.0031000000000859e+01 0 0 0
653 2 3.6914999999999996e+00 1.2077301606043163e+01 3.0031000000000859e+01 0 0 0
655 2 3.6914999999999996e+00 1.0656442593567499e+01 3.0031000000000859e+01 0 0 0
912 2 0.0000000000000000e+00 8.5251540748539991e+00 3.3172037563066624e+01 0 0 0
913 2 1.2305000000000001e+00 9.2355835810918343e+00 3.3172037563066624e+01 0 0 0
927 2 2.4610000000000003e+00 8.5251540748539991e+00 3.3172037563066624e+01 0 0 0
928 2 3.6915000000000004e+00 9.2355835810918343e+00 3.3172037563066624e+01 0 0 0
911 2 0.0000000000000000e+00 1.1366872099805333e+01 3.3172037563066624e+01 0 0 0
925 2 1.2305000000000001e+00 1.0656442593567498e+01 3.3172037563066624e+01 0 0 0
926 2 2.4610000000000003e+00 1.1366872099805333e+01 3.3172037563066624e+01 0 0 0
944 2 3.6914999999999996e+00 1.0656442593567499e+01 3.3172037563066624e+01 0 0 0
657 2 4.9220000000000006e+00 9.9460130873296642e+00 3.0031000000000859e+01 0 0 0
659 2 4.9220000000000006e+00 8.5251540748539991e+00 3.0031000000000859e+01 0 0 0
702 2 7.3830000000000009e+00 9.9460130873296642e+00 3.0031000000000859e+01 0 0 0
704 2 7.3830000000000009e+00 8.5251540748539991e+00 3.0031000000000859e+01 0 0 0
698 2 6.1524999999999999e+00 1.2077301606043163e+01 3.0031000000000859e+01 0 0 0
700 2 6.1524999999999999e+00 1.0656442593567499e+01 3.0031000000000859e+01 0 0 0
745 2 8.6135000000000002e+00 1.2077301606043163e+01 3.0031000000000859e+01 0 0 0
747 2 8.6134999999999984e+00 1.0656442593567498e+01 3.0031000000000859e+01 0 0 0
946 2 4.9220000000000006e+00 8.5251540748539991e+00 3.3172037563066624e+01 0 0 0
947 2 6.1524999999999999e+00 9.2355835810918343e+00 3.3172037563066624e+01 0 0 0
969 2 7.3830000000000009e+00 8.5251540748539991e+00 3.3172037563066624e+01 0 0 0
970 2 8.6134999999999984e+00 9.2355835810918343e+00 3.3172037563066624e+01 0 0 0
945 2 4.9220000000000006e+00 1.1366872099805333e+01 3.3172037563066624e+01 0 0 0
967 2 6.1524999999999999e+00 1.0656442593567499e+01 3.3172037563066624e+01 0 0 0
968 2 7.3829999999999991e+00 1.1366872099805333e+01 3.3172037563066624e+01 0 0 0
991 2 8.6134999999999984e+00 1.0656442593567498e+01 3.3172037563066624e+01 0 0 0
1262 1 1.3684320626948407e-01 5.6123960394493828e+00 3.6353025274508184e+01 1 0 0
380 1 1.3268447663667737e+00 3.2187777428403166e+00 3.5543406133786576e+01 1 1 0
3678 1 5.5770192838014010e+00 8.2098064225368872e-01 3.5431116010412879e+01 1 1 0
490 1 2.5687546007568405e+00 1.0698684584507358e+01 3.6549453251221323e+01 1 0 0
1552 1 3.5747642704085352e+00 5.1080438253959679e+00 3.6239508703009577e+01 0 0 0
3795 1 1.3041387056963527e+00 8.1268492022782368e+00 3.5377710178328101e+01 1 0 0
39 1 2.7914857239965745e+00 6.3472092205554476e-01 3.5915957582294922e+01 0 0 -1
3759 1 5.8793616991777355e+00 3.5929537300557954e+00 3.5800777850503977e+01 -1 1 0
2978 1 8.6993551598148962e+00 3.8037622460244376e+00 3.5871822021803482e+01 0 1 0
4961 1 7.2165968237673752e+00 7.7743094485321276e+00 3.5435428227404017e+01 1 1 -1
3302 1 6.9626226645629732e+00 1.0674001736321648e+01 3.5642000583113330e+01 1 0 -1
1489 1 4.3580095028728989e+00 7.7368918024900459e+00 3.5635084775154084e+01 0 1 0
5363 1 9.5561166184208695e+00 1.1745000721871751e+01 3.5626366081324463e+01 0 0 0
2884 1 9.7903739786359729e+00 6.2153581546791621e+00 3.5786340281042314e+01 0 1 0
2898 1 2.5159896675739155e+00 4.7251656030500016e+00 3.8905569420554897e+01 1 1 -1
6455 1 5.3552543093896645e+00 3.0242187206527751e+00 3.8531501547817967e+01 1 -1 0
3401 1 9.4273529956199393e+00 4.3565530801458801e+00 3.8703409994552089e+01 0 0 0
2990 1 4.6289899307785047e+00 9.2546141466636840e+00 3.8146301661531382e+01 0 1 0
3122 1 2.1168743455826093e+00 1.8670597557966309e+00 3.8372955335443166e+01 1 1 -1
1455 1 5.8432160783495801e+00 6.9384530024824134e+00 4.0078663145360565e+01 1 0 0
3512 1 3.6522318462776715e+00 7.5641342477240947e+00 4.2952700942150983e+01 1 0 -1
4589 1 7.2257239481778113e+00 4.2859290819464340e+00 4.0219612083436573e+01 0 0 0
1502 1 7.7041554126827743e+00 7.7576105141426543e+00 3.8143543610617982e+01 0 0 0
5243 1 7.8577052282418860e+00 8.2829105301355774e+00 4.1996694852885241e+01 1 1 -1
4576 1 7.2914106097803595e+00 9.5373424949727048e-01 3.8001966138164292e+01 0 0 -1
3303 1 2.1007145033498080e+00 8.1228568203110765e+00 3.8699489706011803e+01 1 1 -1
20 1 7.4143588693052846e+00 1.1023620490372817e+01 4.1450673461930663e+01 -1 1 -1
4856 1 7.2287072373711148e+00 1.0818179209550543e+01 3.8496090051846892e+01 0 0 0
4535 1 6.2121995204154079e-01 5.2622426147830383e+00 4.3928755129468200e+01 1 0 0
1303 1 2.3889692639833701e-01 9.9869917015051222e+00 4.3684048753643467e+01 1 0 0
1490 1 2.2042314639543181e+00 3.0120386461963449e+00 4.3459464062371111e+01 0 0 0
4647 1 3.6986732679009413e+00 5.5380949000881214e+00 4.1314244829481694e+01 1 0 0
6170 1 5.2967786471682343e+00 9.4429887463873587e+00 4.3780525186658352e+01 0 0 -1
6137 1 2.1156231493443123e+00 9.2720444854113921e+00 4.1262523478468154e+01 1 1 0
4958 1 7.8667686077323085e+00 1.7205148355403510e+00 4.1709938703025671e+01 0 1 0
4885 1 4.6758778485362340e+00 3.0438754142820601e+00 4.2191136025464147e+01 0 1 -1
268 1 4.1409582379276222e-01 6.8205490841238858e-01 4.2560259928166332e+01 0 0 -1
1879 1 4.2725524002905102e+00 1.0831172270707010e+00 4.0278582700158623e+01 1 0 -1
3402 1 2.5947433324136968e+00 1.1942511422018775e+01 4.0473388566194529e+01 1 1 -1
4617 1 8.7860999605899401e+00 4.8169066659945923e+00 4.2674965386732339e+01 -1 0 0
3696 1 5.0850595927742548e+00 1.2141705511504748e+01 4.2412930875449405e+01 0 1 0
3448 1 4.5416326335361057e-01 1.1722748845137511e+01 3.8644759906392849e+01 0 0 0
4786 1 4.0071079848650974e+00 1.1990709611574707e-01 4.3409592040513502e+01 1 0 0
2866 1 9.7795743980549723e+00 9.5266279238309739e+00 3.9630410896211629e+01 0 1 0
4792 1 6.7235063142263130e-02 1.6740358622674563e+00 4.0102925451865218e+01 1 1 0
2180 1 9.5567813129258301e+00 1.1869196125190545e+01 4.2946848277392974e+01 0 1 -1
6111 1 1.4498708394280158e-01 9.6101548468709712e+00 4.8340034726588556e+01 1 1 -1
1899 1 8.1358752414592388e+00 8.3250642385995430e+00 4.4729143724087649e+01 1 0 -1
4762 1 6.5964327385601136e+00 1.6904409062723909e+00 4.4371078861942394e+01 1 0 0
4503 1 2.3078905464795079e+00 6.7250994046459489e+00 4.5016736890431389e+01 1 0 -1
1923 1 1.3896836601328051e+00 6.6141052385365393e+00 4.8275848168897923e+01 0 0 -1
3040 1 7.5031678223382405e+00 9.1502467021412102e+00 4.7836851013244754e+01 0 0 0
3287 1 5.0261532120978085e+00 8.0866752664364228e+00 4.8402770533905155e+01 1 0 -1
6152 1 8.1387163790672616e+00 1.4520526151601305e+00 4.7413508494894671e+01 0 1 0
5154 1 2.3509262518511664e+00 1.2374997090218927e+00 4.5800025361067000e+01 1 1 -1
3462 1 4.0405633678034789e+00 9.5338165883099979e+00 4.6342993541553511e+01 0 -1 -1
4962 1 4.0089781829396172e+00 1.2167576024962921e+01 4.7172895971260871e+01 1 -1 0
3196 1 1.6270312089140360e+00 1.0252131923431576e+00 5.0465755718007571e+01 0 1 -1
3783 1 1.3816784219448650e+00 9.0432188845855546e+00 4.6062450304125690e+01 0 -1 0
6264 1 4.6736327710496175e+00 3.4691771986339472e+00 4.9062751774150101e+01 -1 1 0
3065 1 8.9892877326624241e+00 5.7252939828210945e+00 4.5284991913778143e+01 1 1 0
6485 1 3.3864217992506753e+00 1.1274222797206818e+01 5.0166931001246667e+01 0 0 0
1344 1 7.7741172293129974e+00 1.0050046461777349e+01 5.0730576637621212e+01 1 0 0
1545 1 3.9114308307689174e+00 5.6606518447870346e+00 4.7427029190064360e+01 0 1 0
4643 1 9.0738651411277917e+00 1.2181614129469962e+01 4.6741210772428389e+01 0 0 -1
4526 1 8.2865255125921582e+00 6.6326792806750952e+00 4.8047355012098905e+01 1 1 0
1661 1 6.5518389328558779e+00 4.5723508970028979e+00 4.6374751208885243e+01 0 0 0
4498 1 4.9070570558010571e+00 1.7165594977693326e+00 4.7045814618366805e+01 0 0 0
1914 1 7.6331763177220031e+00 3.8520909679572730e+00 4.9111666896472585e+01 1 0 0
1931 1 4.5071954645781792e-01 1.2064182261603220e+01 4.9547234441275066e+01 2 1 -1
6184 1 1.8330757537736058e+00 6.8771155807889679e+00 5.0795081914634906e+01 0 0 -1
6124 1 9.8173215524557875e+00 3.8361605703728476e+00 5.5961763554048787e+01 0 1 0
4900 1 4.2978463149557253e+00 4.9257989902508941e+00 5.3538309032004491e+01 0 0 -1
4516 1 9.0578235038394546e+00 1.1830391588093985e+01 5.6805575141632659e+01 0 0 0
5381 1 9.2417245797972427e+00 1.8110950839761746e+00 5.4158475253090430e+01 0 0 0
3556 1 3.3979872683445351e+00 3.2036979778970927e+00 5.1485828593895860e+01 0 0 -1
3499 1 2.3658577154467180e+00 6.8653296478818540e+00 5.5159922459295302e+01 1 0 -1
3113 1 3.7796082418278942e+00 1.7952942227473268e-01 5.3366178089896508e+01 1 0 0
47 1 9.3051641025214522e+00 6.2674417449306290e+00 5.4715197553082575e+01 0 0 0
4681 1 5.7888255896913119e+00 7.2381453879844546e+00 5.2895087854481446e+01 1 0 0
3045 1 1.6984506819287610e+00 9.2158633574625117e+00 5.3475013632343490e+01 0 0 0
6393 1 6.7413690449010035e+00 3.9990572961196089e+00 5.3960863304121901e+01 -1 1 -1
547 1 6.3747804244896846e+00 1.0117283741631212e+01 5.3347558320745378e+01 0 1 0
2937 1 4.1747774304233864e+00 1.0407120763143322e+01 5.5283009734713048e+01 1 -1 0
3352 1 7.7120874056605482e-01 4.2747657727087738e+00 5.1578625942144598e+01 1 0 0
6434 1 8.7577852655337463e+00 1.1451454735762763e+01 5.3959235665872001e+01 1 0 0
3333 1 1.4506089360530199e+00 2.0188872560202906e+00 5.7437424015965405e+01 0 1 -1
5024 1 6.9696512401045707e+00 7.4106503988275367e+00 5.5751538932104140e+01 1 1 -1
3605 1 4.0745180648484549e+00 2.6023132370029254e+00 5.7718579997358717e+01 -1 0 -1
161 1 7.8308883941544503e+00 2.5915510654841412e+00 5.1565001635209924e+01 0 0 0
4813 1 9.3487861316771639e+00 5.2114638867247409e+00 5.1958227145338654e+01 0 0 0
2072 1 8.2595570324949674e-01 7.8974069060877659e+00 5.6993423152508385e+01 1 1 -1
2936 1 4.6669465056693475e+00 5.8091049205437892e+00 5.6806801189928734e+01 0 0 -1
451 1 5.5839687707209977e+00 1.6436203487231509e+00 5.5181524841689068e+01 0 0 -1
3803 1 7.5910214346743627e+00 3.2250827365686519e-02 5.5928673595817301e+01 1 0 0
1387 1 5.8441939211685980e+00 6.3264802490107652e-01 5.1519090518102090e+01 0 -1 0
527 1 7.1005797677674023e+00 9.8307522577630699e+00 5.6333148527558805e+01 0 0 0
1541 1 4.9376588285438550e-01 5.3789452779442035e+00 5.4040595865039535e+01 1 1 -1
5388 1 1.6896251335302146e+00 1.1968973248060701e+01 5.2353685466538266e+01 0 0 0
227 1 1.7796223517457979e-01 8.8488452430878084e+00 5.1196657775842638e+01 0 1 -1
3222 1 7.7831096992036768e+00 7.0390843895694211e+00 5.1053702326532644e+01 0 1 0
1877 1 4.0774992959146781e+00 8.4366399205634437e+00 5.1052042323202414e+01 0 1 -1
6392 1 1.9718458660543021e+00 1.4122516363669028e+01 5.0536335771867194e+00 0 1 1
210 1 2.2527362088664460e+00 2.1230963549224381e+01 8.1470857779485826e+00 0 1 0
3565 1 9.5585301933415767e+00 1.9103445323548890e+01 2.5003170778353434e+00 0 0 1
262 1 5.6830439250482749e+00 1.5629011682414886e+01 2.9560871101190416e+00 0 0 0
3528 1 5.8268724455483394e+00 1.2983828648975535e+01 3.8544374383343847e+00 1 0 0
1975 1 8.5650234961334615e-01 1.9967337744902210e+01 6.0170152440732041e+00 1 0 0
2048 1 3.0181215859895341e+00 1.6261105113497965e+01 3.4994986050285419e+00 1 0 0
4895 1 8.4459815663994231e+00 2.2676557859710350e+01 5.6699659378260687e+00 1 0 1
3120 1 9.3501688182020946e+00 1.7289103279255166e+01 4.6636679155690173e+00 0 0 1
1753 1 4.7876629632778265e+00 2.2349095072690663e+01 6.9354177693201917e+00 -1 -1 0
355 1 7.3531633132874381e+00 2.2952946556347602e+01 8.1634507959322384e+00 0 0 0
4829 1 5.1576149639285624e+00 2.0965275840150145e+01 3.0890060063641118e+00 0 0 1
1396 1 6.4454240518229717e+00 2.3157422363175819e+01 3.9816691672694873e+00 -1 0 1
3200 1 3.2353471932186832e+00 1.7128276587647871e+01 7.9540214852060087e+00 1 1 1
3720 1 6.8249004036217924e+00 1.9354996206237274e+01 8.5027346275435178e+00 1 0 1
5180 1 4.4436218273356678e+00 1.2957269552072454e+01 6.2332322331393959e+00 -1 0 0
3350 1 5.0985928300579140e+00 1.5401120598221349e+01 7.4049477887073261e+00 1 0 0
398 1 3.3417592890788588e+00 1.8392991719601469e+01 5.6502206348063844e+00 1 1 0
3189 1 5.8085586397064803e+00 1.9783450433030001e+01 5.8481248034788713e+00 0 1 0
1510 1 6.5797979343340343e+00 1.6949714318813516e+01 5.2914860798733843e+00 1 0 0
5201 1 2.8581290567128609e-01 2.1070071570879481e+01 3.3195942661973623e+00 0 1 0
5048 1 2.7752334034175998e+00 2.2114585543583942e+01 2.4831641582504447e+00 0 0 0
3393 1 2.4089996342654798e+00 2.4084726228984174e+01 8.2727700392163293e+00 1 0 0
77 1 5.5482003832996196e-01 1.2315880999268661e+01 3.3273897390123528e+00 1 2 0
3076 1 7.5461256756635011e+00 1.6469077879875051e+01 8.7234239549879966e+00 0 0 1