
# Create simulation box and atoms

read_data data.graphite_substrate_500
  orthogonal box = (0 0 -0.518223) to (49.22 49.0196 60.5802)
  4 by 2 by 4 MPI processor grid
  reading atoms ...
  6750 atoms
  reading velocities ...
  6750 velocities
group water type 1
3990 atoms in group water
group graphite type 2
2760 atoms in group graphite

# Define potential

pair_style sw
pair_coeff * * mWC.sw mW C
Reading potential file mWC.sw with DATE: 2019-02-27


# Fix graphite atoms in place

fix 5 graphite setforce 0.0 0.0 0.0
velocity graphite set 0.0 0.0 0.0


# Equilibration of molecular water

# Add velocity/set timestep

velocity	    water create ${TEMP} ${SEED} rot yes dist gaussian
velocity	    water create 225 ${SEED} rot yes dist gaussian
velocity	    water create 225 13968 rot yes dist gaussian
timestep	    5.0

# Define output

compute			1 water msd
compute			3 water temp
thermo	    	50
thermo_style	custom step temp press vol etotal ke pe c_1[4] c_3

# Neighbor lists

neigh_modify    delay 0 every 1 check yes

# Set fixes

fix             1 water momentum 10 linear 1 1 1 rescale
fix             2 water nve
fix             3 water temp/csvr ${TEMP} ${TEMP} 500.0 ${SEED}
fix             3 water temp/csvr 225 ${TEMP} 500.0 ${SEED}
fix             3 water temp/csvr 225 225 500.0 ${SEED}
fix             3 water temp/csvr 225 225 500.0 13968
fix             4 water press/berendsen z ${PRES} ${PRES} 1000.0 modulus 20000
fix             4 water press/berendsen z -500 ${PRES} 1000.0 modulus 20000
fix             4 water press/berendsen z -500 -500 1000.0 modulus 20000

# Run 0.5 ns equilibration

dump		    1 all atom 2000 ${DIR}/eq.${NAME}-${TEMP}.dump
dump		    1 all atom 2000 run_10/eq.${NAME}-${TEMP}.dump
dump		    1 all atom 2000 run_10/eq.het_freeze_10-${TEMP}.dump
dump		    1 all atom 2000 run_10/eq.het_freeze_10-225.dump

reset_timestep  0

run	            100000
Neighbor list info ...
  update every 1 steps, delay 0 steps, check yes
  max neighbors/atom: 2000, page size: 100000
  master list distance cutoff = 7.76
  ghost atom cutoff = 7.76
  binsize = 3.88, bins = 13 13 16
  1 neighbor lists, perpetual/occasional/extra = 1 0 0
  (1) pair sw, perpetual
      attributes: full, newton on
      pair build: full/bin/atomonly
      stencil: full/bin/3d
      bin: standard
Per MPI rank memory allocation (min/avg/max) = 4.108 | 4.238 | 4.553 Mbytes
Step Temp Press Volume TotEng KinEng PotEng c_1[4] c_3 
       0    132.98637   -1273.0418    147415.06    -35990.25    2675.3515   -38665.602            0          225 
      50    173.23868   -1382.4996    146911.81   -36398.607    3485.1268   -39883.734   0.84797003    293.10299 
     100    163.98297   -1348.2744    146522.29   -36812.097    3298.9252   -40111.022    1.8557014    277.44323 
     150    158.30964    -1405.234    146104.71   -37123.006    3184.7921   -40307.798    2.7022552    267.84451 
     200    160.18952   -1506.4349    145665.17   -37347.758    3222.6105   -40570.369    3.4967508    271.02508 
     250     155.4422   -1231.6985    145310.94   -37561.071    3127.1065   -40688.178     4.289834    262.99309 
     300    153.00759   -1172.7926    144944.68   -37735.133    3078.1283   -40813.261    4.9320583    258.87397 
     350    148.11261    -1219.127     144549.4    -37960.14    2979.6535   -40939.794    5.5523072    250.59213 
     400    147.80081   -1137.8598    144201.38   -38129.521    2973.3808   -41102.902    6.1867597    250.06459 
     450    146.79902   -906.41292    143968.98   -38278.718    2953.2273   -41231.945    6.6959054    248.36966 
     500    143.03028   -1124.1745    143806.34   -38399.799    2877.4099   -41277.209     7.188919    241.99333 
     550    143.90043   -1019.0111    143606.23   -38507.518    2894.9151   -41402.434    7.6775201    243.46554 
     600    139.62829    -1151.175    143510.92    -38615.07    2808.9704    -41424.04    8.1272451    236.23749 
     650    141.07204   -987.52045     143270.7   -38661.334    2838.0149   -41499.349    8.6902338    238.68017 
     700    139.69368   -993.19156    143167.79   -38751.196    2810.2859   -41561.482    9.0950999    236.34812 
     750    139.96868   -898.50481    143012.73   -38782.433    2815.8181   -41598.251     9.577231    236.81339 
     800    141.17977   -802.87777    142971.89   -38807.047    2840.1822   -41647.229    9.9496887    238.86244 
     850     137.3698   -744.40725    142922.33   -38786.083    2763.5352   -41549.618    10.427757    232.41635 
     900    138.94905   -716.97939    142830.87   -38901.414    2795.3058    -41696.72    10.902696    235.08828 
     950    137.82824   -958.06715    142782.92   -38980.537    2772.7579   -41753.295     11.27564    233.19198 
    1000     135.8942   -722.27371    142764.46   -38999.214    2733.8498   -41733.064    11.614756    229.91976 
    1050    138.40844   -859.87149    142715.66   -39029.379      2784.43   -41813.809    11.879818    234.17362 
    1100    136.12259   -840.01266    142660.15   -39071.338    2738.4445   -41809.782    12.269988    230.30619 
    1150    135.70989   -730.81933    142654.81   -39061.517     2730.142   -41791.659    12.639432    229.60793 
    1200    135.12468   -715.88693     142599.6   -39086.847     2718.369   -41805.216    12.994459    228.61781 
    1250    136.71907   -706.64925     142593.1    -39106.08    2750.4442   -41856.524    13.153816    231.31537 
    1300    136.28829    -784.0182    142612.78    -39148.96    2741.7779   -41890.738    13.386082    230.58653 
    1350    135.96524   -750.89183    142579.82   -39182.983     2735.279   -41918.262    13.720417    230.03996 
    1400    135.03411   -749.51067    142577.57    -39176.57    2716.5469   -41893.117      13.9594    228.46457 
    1450    135.96326   -815.42276    142631.32   -39225.601    2735.2391    -41960.84    14.137765    230.03661 
    1500    133.54699   -608.83958    142678.56   -39222.948    2686.6298   -41909.578    14.296421    225.94852 
    1550    134.88938   -469.80506     142807.6   -39252.028    2713.6354   -41965.663      14.4886    228.21972 
    1600    133.92828   -583.25393    142841.78   -39290.955    2694.3003   -41985.255    14.734076    226.59362 
    1650    134.05265   -735.15859     142881.9   -39284.251    2696.8025   -41981.053    14.882057    226.80405 
    1700    135.11652   -661.47004    142853.81   -39248.049    2718.2048   -41966.254    15.148974    228.60401 
    1750    136.18701   -734.61846    142869.91   -39269.037    2739.7405   -42008.778    15.382387    230.41518 
    1800    135.26367   -700.57903    142725.65   -39310.827    2721.1652   -42031.992    15.661907    228.85298 
    1850    136.98711   -471.10676    142788.12   -39299.032    2755.8364   -42054.868    15.916915    231.76887 
    1900    133.27787   -530.87501    142827.18   -39283.794    2681.2159    -41965.01    16.135008     225.4932 
    1950    135.63285   -867.41963    142808.06   -39359.884     2728.592   -42088.476    16.335393    229.47758 
    2000    131.94684   -774.40441     142837.6   -39398.764    2654.4388   -42053.202    16.510704    223.24122 
    2050    135.16591   -838.81013    142856.02    -39357.95    2719.1985   -42077.149    16.620767    228.68757 
    2100    132.26706    -779.8497    142779.08   -39377.572    2660.8808   -42038.453    16.936094    223.78299 
    2150    132.98342   -496.99125    142778.11   -39405.113    2675.2923   -42080.405    17.070184    224.99502 
    2200    133.62634   -625.10991    142707.72   -39373.311    2688.2261   -42061.537    17.319964    226.08277 
    2250    134.38237   -645.03784    142641.45   -39334.977    2703.4357   -42038.412    17.574185    227.36191 
    2300    134.69227   -506.52505       142752   -39330.391    2709.6699   -42040.061    17.751513    227.88622 
    2350    134.48209   -496.94756    142859.28   -39349.967    2705.4417   -42055.409    18.068022    227.53061 
    2400    133.82241   -768.88444    142818.62    -39319.57    2692.1706    -42011.74    18.395703     226.4145 
    2450     133.2068   -937.19415    142765.58   -39338.867     2679.786   -42018.653    18.643455    225.37294 
    2500    134.21716   -813.60301     142679.3   -39374.278    2700.1119    -42074.39    18.949433    227.08237 
    2550    132.46846   -579.75268    142691.64    -39440.44    2664.9326   -42105.373    19.116526    224.12375 
    2600    133.04625   -991.16491    142676.97   -39460.871    2676.5562   -42137.427    19.322664    225.10131 
    2650    136.16044   -828.31786    142623.18   -39416.482    2739.2058   -42155.687    19.606976    230.37022 
    2700    130.98051   -807.25262    142550.18   -39453.186    2634.9987   -42088.185    19.971565    221.60628 
    2750    133.07731   -591.27969    142478.11   -39413.704     2677.181   -42090.885    20.225375    225.15386 
    2800    133.78717   -575.74953    142526.81   -39412.546    2691.4617   -42104.008     20.38584    226.35488 
    2850    129.63338   -568.86577    142524.85   -39504.047    2607.8979   -42111.945    20.766143    219.32707 
    2900    131.92066   -704.50946     142472.8   -39489.494    2653.9121   -42143.406    20.983728    223.19692 
    2950    131.21684   -584.42428    142503.83   -39492.716    2639.7531   -42132.469    21.248977    222.00613 
    3000    134.27513   -441.60141    142566.76   -39472.526    2701.2782   -42173.804    21.501518    227.18046 
    3050    134.48568   -494.30911    142669.46   -39512.234    2705.5139   -42217.748    21.721182    227.53669 
    3100    133.29914   -704.26802    142692.79   -39576.243    2681.6437   -42257.886     21.93572    225.52918 
    3150    133.43829    -379.7991     142739.8   -39554.781    2684.4431   -42239.225     22.03075    225.76461 
    3200    132.14041   -397.96618     142834.3   -39517.224    2658.3329   -42175.557    22.120895    223.56872 
    3250    132.31663   -775.91788     142886.4   -39540.704     2661.878   -42202.582    22.336979    223.86686 
    3300    131.37517   -529.20559    142849.53   -39537.846    2642.9382   -42180.784    22.459745    222.27401 
    3350    133.51158   -562.92867    142904.39   -39538.403    2685.9175    -42224.32    22.611313    225.88861 
    3400    132.80749   -714.04903    142953.05   -39500.335     2671.753   -42172.088    22.832141    224.69736 
    3450    134.40696   -692.43072    142973.38   -39505.198    2703.9303   -42209.128    23.027081     227.4035 
    3500    129.90722   -673.39017    142946.72   -39505.012    2613.4068   -42118.419    23.299014    219.79038 
    3550    131.84588   -625.94683    142971.03   -39533.385    2652.4078   -42185.793    23.574821    223.07041 
    3600    130.82902    -689.5684    142964.83   -39575.557     2631.951   -42207.508    23.754392    221.34997 
    3650    132.33026   -625.39436    142860.06    -39542.11    2662.1522   -42204.262    23.962097    223.88992 
    3700    131.02494   -635.80017     142853.9   -39534.154    2635.8926   -42170.047    24.046284    221.68146 
    3750    133.63664   -570.04042    142962.27   -39502.127    2688.4334   -42190.561    24.232776     226.1002 
    3800    136.14714   -523.20057    142989.55   -39520.495    2738.9383   -42259.433    24.469764    230.34772 
    3850    133.68219    -554.6555    143037.74   -39517.437    2689.3497   -42206.787    24.794492    226.17726 
    3900    131.03811   -552.66661    143047.07   -39553.581    2636.1575   -42189.738    25.057917    221.70374 
    3950    131.13892   -616.71829    143121.24   -39602.111    2638.1856   -42240.297     25.20397     221.8743 
    4000    131.45309    -707.9388    143101.89   -39624.109    2644.5059   -42268.614    25.406856    222.40585 
    4050    133.41073   -556.49218    143173.87   -39579.732    2683.8887   -42263.621    25.689098    225.71798 
    4100     133.6719   -627.26398       143217   -39557.381    2689.1427   -42246.523    25.891977    226.15985 
    4150    131.80185   -654.99985    143146.91   -39577.469    2651.5219   -42228.991    26.158499     222.9959 
    4200    131.53803   -673.19872    143104.94   -39545.347    2646.2145   -42191.562    26.303803    222.54955 
    4250     132.6665   -617.44666     143093.8   -39563.982    2668.9166   -42232.899    26.503344    224.45881 
    4300     132.6115   -455.10193    143149.57   -39549.942      2667.81   -42217.752    26.565941    224.36575 
    4350    133.20035   -415.82916    143251.77   -39483.441    2679.6563   -42163.097    26.830673    225.36203 
    4400    131.92386   -445.72343    143369.54   -39522.415    2653.9765   -42176.391     26.95919    223.20234 
    4450    131.24548   -742.86158     143339.8   -39581.131    2640.3292    -42221.46     27.23067    222.05458 
    4500    134.47782   -618.11421    143413.22   -39612.515    2705.3558   -42317.871    27.382215    227.52339 
    4550    131.98594   -742.33155    143407.43   -39602.508    2655.2255   -42257.733    27.594019    223.30738 
    4600    130.48768   -806.49742    143391.45    -39621.75    2625.0843   -42246.834    27.750633    220.77247 
    4650    131.21445    -855.3132    143296.09   -39648.013     2639.705   -42287.718    27.923116    222.00208 
    4700    133.49582   -753.48111     143330.4   -39592.569    2685.6005    -42278.17    28.041693    225.86195 
    4750    136.52578   -738.19233    143348.66   -39503.271    2746.5557   -42249.826    28.287931    230.98835 
    4800    137.43374   -656.39523    143428.35   -39497.693    2764.8215   -42262.514    28.585167    232.52452 
    4850    134.62687   -427.92046    143459.64   -39527.501    2708.3543   -42235.855    28.646706    227.77557 
    4900    134.04119   -557.92417    143513.66   -39512.552    2696.5719   -42209.124    28.795325    226.78466 
    4950    133.60721   -672.96258    143514.63   -39557.526    2687.8413   -42245.367    29.004014     226.0504 
    5000    133.52811   -779.60997       143511   -39577.817    2686.2501   -42264.067    29.135704    225.91658 
    5050    134.93248   -610.90837    143599.01   -39567.291    2714.5024   -42281.794    29.260631    228.29263 
    5100    136.30872   -658.52782    143630.17   -39527.573    2742.1889   -42269.762    29.408723     230.6211 
    5150    133.58053   -596.68891    143585.71   -39550.908    2687.3046   -42238.212    29.566679    226.00526 
    5200    132.50198   -609.47754    143605.81   -39555.628    2665.6068   -42221.234    29.892582    224.18045 
    5250    132.48112   -625.00089    143670.24   -39602.611    2665.1872   -42267.798     29.92805    224.14517 
    5300    136.23461   -796.02805    143622.86   -39551.431    2740.6981   -42292.129    30.148671    230.49571 
    5350    132.93538   -744.90988    143661.18   -39550.905    2674.3257   -42225.231    30.149145    224.91373 
    5400    132.46678    -729.1316       143560   -39583.205    2664.8988   -42248.104     30.27141    224.12091 
    5450    131.78681   -485.00173    143582.97   -39590.418    2651.2195   -42241.638     30.41569    222.97047 
    5500    132.57314   -649.19692    143648.74   -39601.799    2667.0385   -42268.838    30.664242    224.30086 
    5550    133.35838   -515.19713    143615.87   -39604.476    2682.8355   -42287.311      30.7793    225.62941 
    5600    134.70452   -619.81252    143644.16   -39572.346    2709.9164   -42282.262    30.973542    227.90694 
    5650    133.04059   -654.87383    143632.23    -39559.48    2676.4423   -42235.922    31.211339    225.09173 
    5700    134.14813   -523.33863    143583.18   -39560.709    2698.7233   -42259.432    31.324792    226.96559 
    5750    134.76902   -808.27761    143579.74   -39561.829     2711.214   -42273.043    31.447292    228.01607 
    5800      133.782   -706.53179    143553.83   -39559.146    2691.3576   -42250.504    31.516936    226.34612 
    5850    134.21342   -940.49295    143520.49   -39530.081    2700.0366   -42230.118    31.831984    227.07604 
    5900    132.03231   -646.00735    143441.91   -39536.513    2656.1583   -42192.672     32.19552    223.38583 
    5950    135.37737   -700.87011    143385.65    -39524.42    2723.4525   -42247.872    32.627264    229.04534 
    6000     132.9537   -770.00508    143308.63   -39590.419    2674.6944   -42265.114    32.888378    224.94473 
    6050    131.65927   -541.60503    143338.54   -39596.313    2648.6538   -42244.967    32.962563    222.75469 
    6100    133.03486   -720.33759    143254.49   -39538.528    2676.3272   -42214.856    32.987894    225.08205 
    6150    134.90339    -769.8889    143203.28   -39576.557    2713.9173   -42290.474    33.030213    228.24342 
    6200    130.51625   -644.43285    143096.55   -39576.481    2625.6589    -42202.14    33.245368    220.82079 
    6250     131.1467   -750.77836     143015.1   -39584.518     2638.342    -42222.86    33.526968    221.88745 
    6300    132.88679   -725.37574     142903.7   -39643.551    2673.3483   -42316.899    33.860454    224.83153 
    6350    132.30697   -630.39859    142890.99    -39640.02    2661.6838   -42301.704    34.136551    223.85052 
    6400    131.25741   -602.47231    142859.28   -39673.168    2640.5692   -42313.737    34.347507    222.07477 
    6450    132.05091   -624.55449    142857.76   -39596.519    2656.5325   -42253.051     34.53801     223.4173 
    6500     133.7561   -598.80048    142892.71   -39522.956    2690.8367   -42213.792    34.678904    226.30232 
    6550    134.36484   -597.43524    142908.77   -39521.788    2703.0829   -42224.871    34.797536    227.33224 
    6600    133.77322   -454.88178    142965.83   -39594.268    2691.1811   -42285.449    34.996054    226.33128 
    6650     131.8354   -693.86176    143122.57   -39606.087     2652.197   -42258.284    35.224676    223.05268 
    6700    131.37177   -786.64012    143078.84   -39666.072    2642.8699   -42308.941     35.51741    222.26826 
    6750    131.61485   -607.24224    143037.77   -39688.457    2647.7601   -42336.217    35.793818    222.67953 
    6800    131.29885   -744.69764    143032.25   -39660.705    2641.4029   -42302.108    36.011798    222.14488 
    6850    129.28755   -688.19301    142909.43   -39664.833    2600.9406   -42265.774    36.474698    218.74196 
    6900     131.8212   -736.15331    142837.34   -39630.244    2651.9113   -42282.156    36.821885    223.02865 
    6950    130.94336    -670.4371     142790.8   -39645.495    2634.2514   -42279.746    37.089442    221.54343 
    7000    133.07359   -630.08959    142814.76   -39624.901    2677.1063   -42302.007    37.325963    225.14758 
    7050    133.28462   -570.64367    142746.27   -39608.836    2681.3516   -42290.187    37.423944    225.50461 
    7100    134.76118   -566.59357    142867.03   -39529.603    2711.0564   -42240.659    37.611654    228.00282 
    7150    136.10908   -661.47971    142864.72   -39506.327    2738.1727     -42244.5    37.912555    230.28333 
    7200    134.08603   -691.25795    142860.42   -39533.573     2697.474   -42231.047    38.006434    226.86052 
    7250    132.69944   -674.14106    142832.98   -39576.776    2669.5792   -42246.356    38.135603    224.51454 
    7300    134.89891   -538.18744    142821.97   -39563.122     2713.827   -42276.949    38.222156    228.23583 
    7350    133.40324    -498.4221    142894.41   -39547.617    2683.7379   -42231.355    38.445142    225.70531 
    7400    133.19745   -647.64648     142949.9   -39525.685     2679.598   -42205.283    38.720193    225.35714 
    7450    134.41378   -844.87227    142896.79   -39544.335    2704.0674   -42248.403     39.05981    227.41503 
    7500     133.7401   -673.40681    142870.49   -39533.966    2690.5147   -42224.481    39.449306    226.27524 
    7550    132.15434   -491.75745    142899.36   -39579.699    2658.6132   -42238.312    39.716355    223.59228 
    7600    132.50406   -646.50099    142906.41   -39613.218    2665.6488   -42278.867    39.952284    224.18399 
    7650    133.72394   -671.55041    142935.05   -39577.545    2690.1897   -42267.735    40.106814    226.24791 
    7700    135.58519   -686.09837    142922.91   -39574.501    2727.6334   -42302.134    40.302856    229.39696 
    7750    134.89416   -778.53406    142951.42   -39585.671    2713.7315   -42299.402    40.432597     228.2278 
    7800    133.56573   -658.06804    142994.44     -39627.8    2687.0069   -42314.807    40.486802    225.98023 
    7850    132.29812   -663.29992     142979.1   -39566.491    2661.5057   -42227.996    40.618762    223.83555 
    7900    133.12824   -603.44006    142995.32   -39572.865    2678.2056   -42251.071    40.777273    225.24003 
    7950    133.98943   -651.66363    143056.94   -39570.878    2695.5306   -42266.409    40.986712    226.69708 
    8000    135.33336   -770.80834    142981.86   -39573.615    2722.5672   -42296.183    41.343096    228.97089 
    8050    133.77887   -758.14076    142962.19   -39574.782    2691.2948   -42266.077    41.427672    226.34084 
    8100    132.46041    -667.7154    142892.79   -39606.586    2664.7706   -42271.357    41.628626    224.11013 
    8150    135.15619   -764.25038    142853.31    -39618.11     2719.003   -42337.113    41.926463    228.67113 
    8200    133.98343   -539.37975     142837.3   -39602.932    2695.4099   -42298.342    42.050617    226.68693 
    8250    133.63705   -539.73681    142825.57   -39588.687    2688.4417   -42277.129    42.206569     226.1009 
    8300    135.76711    -455.1799     142933.1   -39595.951    2731.2931   -42327.244      42.5415    229.70475 
    8350     132.0763   -695.85725    142947.84   -39597.078    2657.0432   -42254.121    42.899318    223.46025 
    8400    132.82824   -612.73487    142901.21   -39556.113    2672.1704   -42228.283    43.120379    224.73246 
    8450     131.4825    -752.9252    142894.98   -39604.958    2645.0975   -42250.055    43.245969     222.4556 
    8500     131.6377   -678.97769    142919.77   -39625.456    2648.2198   -42273.676    43.504936    222.71819 
    8550    133.19682   -797.90146    142875.09   -39604.794    2679.5854   -42284.379    43.865041    225.35607 
    8600    132.18976   -603.99304    142866.94   -39612.607    2659.3257   -42271.933     44.09303    223.65221 
    8650     131.8707   -574.45415    142977.13   -39613.618    2652.9072   -42266.525    44.363488     223.1124 
    8700    131.12067   -550.10511    143040.96   -39626.997    2637.8184   -42264.815    44.675023    221.84342 
    8750    131.09844    -630.2828    143068.47   -39624.704    2637.3711   -42262.075    44.983195     221.8058 
    8800    132.07827   -774.74815    142992.19    -39627.05     2657.083   -42284.133    45.300804    223.46359 
    8850    130.73644   -598.58537    143007.95   -39641.421    2630.0887   -42271.509    45.499632    221.19334 
    8900    130.07755    -717.0144    143002.86   -39647.706    2616.8335    -42264.54    45.780618    220.07857 
    8950    129.21473   -806.10741    143016.99   -39673.026    2599.4757   -42272.502    46.031801    218.61876 
    9000    129.75654   -568.34118    143094.86   -39723.478    2610.3755   -42333.853    46.052042    219.53544 
    9050    131.32777   -695.14435    143117.37   -39702.127    2641.9847   -42344.111    46.302653    222.19381 
    9100     131.3196   -537.06787    143137.55   -39672.703    2641.8203   -42314.523    46.419262    222.17999 
    9150    131.45561   -662.00648    143129.06   -39675.647    2644.5565   -42320.204    46.540131    222.41011 
    9200    133.11265    -449.0508    143197.27   -39665.585     2677.892   -42343.477    46.881634    225.21365 
    9250     129.8217   -681.82924    143301.09   -39669.975    2611.6865   -42281.662    47.108887     219.6457 
    9300    133.24203   -660.90168    143381.38   -39638.173    2680.4947   -42318.668    47.207336    225.43255 
    9350    131.01112   -710.11603    143409.03   -39626.367    2635.6144   -42261.981    47.415814    221.65807 
    9400    131.37324   -442.70287     143397.3   -39632.167    2642.8994   -42275.066    47.609114    222.27074 
    9450    131.33689   -604.06533    143452.97   -39640.316    2642.1682   -42282.485    47.886894    222.20924 
    9500    134.83134   -638.63959    143488.46   -39652.974    2712.4678   -42365.442    47.980743    228.12151 
    9550    134.44977   -615.77951     143561.6    -39669.42    2704.7914   -42374.212    48.182473    227.47593 
    9600    133.82112   -767.86485    143589.69   -39655.637    2692.1446   -42347.782    48.249895    226.41232 
    9650    134.81223   -890.38648    143584.74   -39624.054    2712.0832   -42336.137     48.06398    228.08917 
    9700    132.69515     -841.549    143480.35   -39676.744    2669.4929   -42346.237    48.451587    224.50728 
    9750    134.38969   -809.22724    143421.25   -39644.668    2703.5829   -42348.251    48.644591    227.37429 
    9800     136.1978   -601.08032    143362.63   -39603.111    2739.9574   -42343.068    48.655376    230.43342 
    9850    133.65493   -912.58205    143339.81   -39601.708    2688.8014   -42290.509    49.028203    226.13115 
    9900    134.36619   -803.06826    143331.23    -39582.39    2703.1101     -42285.5    49.269908    227.33452 
    9950    133.45175   -901.22541    143307.67    -39582.72    2684.7138   -42267.434    49.540993    225.78738 
   10000    132.77263   -792.04522    143248.58   -39553.907    2671.0517   -42224.959    49.689347    224.63838 
   10050    134.26099   -850.37763    143134.83   -39560.239    2700.9937   -42261.233    49.901184    227.15653 
   10100    134.02558   -817.30112    143131.27   -39544.112    2696.2579   -42240.369    50.292088    226.75825 
   10150    130.34705    -726.3007    143112.07   -39630.205     2622.255    -42252.46    50.498999    220.53453 
   10200    136.10486     -766.207    143166.86   -39614.508    2738.0879   -42352.596     50.52344    230.27619 
   10250    132.45159   -750.08706    143160.11   -39607.041    2664.5931   -42271.635    50.664721    224.09521 
   10300    131.92313    -756.6031    143078.44   -39594.173    2653.9619   -42248.135    50.796762    223.20111 
   10350    133.50219   -701.19555    143041.89   -39615.334    2685.7286   -42301.063    50.890709    225.87272 
   10400    132.53468   -568.59956       143026   -39663.124    2666.2648   -42329.389    50.999414    224.23579 
   10450    131.88062    -515.9635    143067.25   -39627.248    2653.1066   -42280.355    51.186347    223.12918 
   10500    133.66907   -491.10841    143219.77   -39601.412    2689.0858   -42290.498    51.249233    226.15506 
   10550    135.54989   -810.44923    143196.58   -39605.989    2726.9231   -42332.912    51.312489    229.33723 
   10600    135.91474    -515.0663    143259.45   -39566.928     2734.263   -42301.191    51.411647    229.95452 
   10650    135.65977   -780.49155    143339.15    -39594.18    2729.1336   -42323.313    51.521397    229.52313 
   10700      136.173   -625.26967    143286.03    -39584.71    2739.4586   -42324.168    51.703385    230.39148 
   10750    134.10249   -706.11202    143250.35   -39604.764    2697.8051    -42302.57    52.143718    226.88837 
   10800    135.83431   -638.13806    143227.81    -39588.94     2732.645   -42321.585    52.189486    229.81844 
   10850    137.60394   -616.82695    143198.62    -39520.28    2768.2456   -42288.525    52.210147    232.81249 
   10900    135.48568   -854.61686    143125.35   -39558.248    2725.6314    -42283.88    52.289142    229.22859 
   10950     134.9397   -802.85614    143012.36   -39554.662    2714.6476    -42269.31     52.42607    228.30484 
   11000    133.31422    -764.7469    142976.25   -39558.392    2681.9471   -42240.339    52.713609     225.5547 
   11050    135.76334   -710.37122    143015.57   -39589.164    2731.2172   -42320.381     52.75702    229.69836 
   11100    132.29246   -572.53222    143037.37   -39633.536    2661.3919   -42294.927    52.834819    223.82598 
   11150    132.57287   -341.39176    143051.05   -39617.165     2667.033   -42284.198    52.807534     224.3004 
   11200    135.85569   -447.53169    143082.81   -39610.209    2733.0751   -42343.284    52.968429    229.85461 
   11250    130.50048   -758.67661    143114.82   -39658.497    2625.3417   -42283.839    53.090084    220.79412 
   11300    131.50741   -713.49721    143052.31   -39661.527    2645.5985   -42307.125    53.128653    222.49774 
   11350    134.43676   -730.65674    143025.68    -39550.62    2704.5298    -42255.15      53.2018    227.45392 
   11400    132.77657   -733.63524    142975.08   -39604.347    2671.1309   -42275.478     53.34827    224.64504 
   11450    133.62025   -735.07973    142937.59   -39614.478    2688.1037   -42302.582    53.614648    226.07247 
   11500    134.30776    -474.7021    142937.22   -39613.583    2701.9347   -42315.518     53.83924    227.23567 
   11550    134.93769   -606.92869    143015.18   -39656.427    2714.6071   -42371.035    54.244636    228.30144 
   11600    133.61566   -753.11048    143084.16   -39630.387    2688.0113   -42318.398    54.471557     226.0647 
   11650    133.70315   -682.52644    143126.11   -39599.291    2689.7714   -42289.063    54.566185    226.21273 
   11700    132.00933   -631.28104    143128.51    -39641.95     2655.696   -42297.646    54.774273    223.34695 
   11750    133.73819   -915.04679    143095.66   -39669.311    2690.4763   -42359.787    54.890392    226.27201 
   11800     133.6629   -783.16267    143001.46   -39694.097    2688.9617   -42383.059    55.124507    226.14463 
   11850    133.18387   -551.33828    142946.41   -39689.837    2679.3249   -42369.162     55.50734    225.33416 
   11900    132.04637   -637.20706    142993.62   -39654.645    2656.4412   -42311.086    55.563704    223.40962 
   11950     134.0171   -725.65797    143001.95   -39652.843    2696.0873   -42348.931    55.610939     226.7439 
   12000    131.89983   -719.62868    142937.77   -39696.715    2653.4931   -42350.208    55.790853    223.16168 
   12050    131.80104   -656.34924     142905.9   -39723.719    2651.5057   -42375.224    55.760516    222.99453 
   12100    131.89342   -774.63794    142828.27    -39685.16    2653.3642   -42338.524    55.861412    223.15084 
   12150    131.54331   -548.29158    142802.74   -39669.437    2646.3209   -42315.758      56.0089    222.55849 
   12200    131.80528   -806.80656    142794.14   -39664.233    2651.5909   -42315.824     56.31609    223.00171 
   12250    133.04842   -743.63988       142759   -39642.856    2676.5998   -42319.455    56.532329    225.10498 
   12300    132.31815   -630.66666    142762.95   -39607.854    2661.9087   -42269.763    56.707738    223.86944 
   12350    133.38347   -756.72432    142770.36   -39563.023    2683.3403   -42246.364    56.788676    225.67186 
   12400    135.37918   -584.23661    142790.03   -39578.635    2723.4889   -42302.124     57.06925    229.04841 
   12450    133.15997   -668.52672    142783.06    -39622.66     2678.844   -42301.504    57.334324    225.29372 
   12500    132.08877   -571.43764    142767.41   -39600.076    2657.2941    -42257.37    57.493257    223.48135 
   12550    130.65919   -722.58129    142772.01   -39656.292    2628.5346   -42284.826    57.395259    221.06264 
   12600    133.52881   -494.30433    142735.97   -39601.399     2686.264   -42287.663     57.56809    225.91775 
   12650    130.57052   -651.47679    142758.66   -39577.363    2626.7508   -42204.114    57.643479    220.91263 
   12700    132.91049   -535.48405    142763.86   -39573.859    2673.8251   -42247.684    57.755364    224.87163 
   12750    133.41475   -658.50306    142759.12   -39562.177    2683.9695   -42246.146    58.176557    225.72478 
   12800    131.08008   -676.22978    142851.92   -39616.813    2637.0018   -42253.815    58.439048    221.77475 
   12850     133.2579   -762.14334     142777.8   -39591.428    2680.8141   -42272.242    58.522037    225.45941 
   12900    132.67172   -560.03483    142784.47   -39616.128    2669.0217    -42285.15     58.79644    224.46765 
   12950    131.61168    -729.7933    142750.29   -39628.118    2647.6962   -42275.814    59.146011    222.67416 
   13000    132.72744   -564.71902    142823.51   -39620.999    2670.1425   -42291.141    59.473432    224.56191 
   13050    131.71722   -713.45356    142801.51   -39603.953    2649.8194   -42253.772    59.472615    222.85272 
   13100    134.72474   -807.98932    142760.02   -39568.603    2710.3232   -42278.926    59.614812    227.94116 
   13150    132.58068   -498.00268    142782.09   -39575.507    2667.1901   -42242.698    59.680574    224.31361 
   13200     131.2618   -524.72263     142909.4   -39615.509    2640.6576   -42256.166    59.762722     222.0822 
   13250    133.23841   -633.42516    142899.22   -39553.069    2680.4219    -42233.49    59.947713    225.42642 
   13300    133.28407   -624.76983    142961.76   -39543.582    2681.3406   -42224.922    59.995371    225.50369 
   13350    135.39628   -702.69498    142964.64   -39526.863    2723.8328   -42250.695    60.133975    229.07733 
   13400    134.94189   -844.25837    142928.98   -39501.762    2714.6917   -42216.453    60.343191    228.30855 
   13450    132.40962   -786.13551    142850.28   -39536.576    2663.7488   -42200.325    60.380204    224.02419 
   13500     135.3228   -650.27222    142824.57   -39539.407    2722.3547   -42261.762    60.541341    228.95302 
   13550    133.16245   -538.72944    142868.81   -39561.324    2678.8939   -42240.218    60.751418    225.29791 
   13600     130.8475   -497.16731    142853.67   -39616.756    2632.3228   -42249.079    61.038118    221.38124 
   13650    134.54614   -574.23127    142851.51   -39578.079    2706.7302   -42284.809    61.316312    227.63898 
   13700    135.76909   -589.05826     142841.1   -39517.257    2731.3329   -42248.589    61.448913    229.70809 
   13750    138.02142   -682.61089     142904.2   -39487.027    2776.6441   -42263.671    61.624117    233.51882 
   13800    136.04677    -593.8143    142866.76   -39556.825    2736.9192   -42293.744    61.746836    230.17791 
   13850     133.2235   -553.27231    142763.37    -39563.03     2680.122   -42243.151    61.997112     225.4012 
   13900    133.85701    -625.6261    142775.03   -39589.158    2692.8666   -42282.025    62.164727    226.47303 
   13950    132.90275   -540.34205    142782.38   -39588.839    2673.6693   -42262.508    62.135332    224.85852 
   14000    134.68789   -469.74854    142900.42   -39588.753    2709.5818   -42298.335    62.248687     227.8788 
   14050    130.94594   -487.57772    142961.26   -39623.521    2634.3033   -42257.825    62.468657     221.5478 
   14100    132.82344   -651.09361    142963.95   -39596.109    2672.0738   -42268.183    62.582318    224.72434 
   14150    130.94141   -693.63536     142942.5   -39617.927    2634.2122    -42252.14    62.942406    221.54014 
   14200    129.51319   -766.19073    142914.21   -39636.346    2605.4799   -42241.826    63.158911    219.12372 
   14250    132.58294   -612.62665     142963.3   -39627.142    2667.2357   -42294.377    63.379009    224.31745 
   14300    131.45692   -712.02042    142909.19   -39623.925    2644.5829   -42268.507     63.68441    222.41232 
   14350    131.38469   -534.91134    142901.75   -39649.169    2643.1298   -42292.299    63.931989    222.29012 
   14400    132.04724   -765.17312    142882.94   -39689.588    2656.4587   -42346.046    64.013081    223.41109 
   14450    130.44385   -744.39369     142853.5   -39674.207    2624.2024   -42298.409    64.078608    220.69831 
   14500    136.14229    -597.4356    142863.97   -39646.879    2738.8407    -42385.72    64.138185    230.33951 
   14550    131.21386   -769.80762    142870.21   -39657.627    2639.6931    -42297.32    64.033054    222.00108 
   14600    133.47866   -665.44443    142899.33   -39631.929    2685.2551   -42317.184    64.305401     225.8329 
   14650    133.30124   -472.63434    142881.82   -39597.254     2681.686    -42278.94    64.344641    225.53273 
   14700    135.53852   -620.10212    142894.41   -39640.952    2726.6944   -42367.646    64.429964    229.31799 
   14750     132.7808   -607.64851    142913.76   -39623.975     2671.216   -42295.191      64.5887     224.6522 
   14800    132.42898   -696.95861    142897.83   -39609.562    2664.1382   -42273.701    64.724603    224.05695 
   14850    134.23452   -634.67755    142843.28   -39623.928    2700.4613   -42324.389    64.909732    227.11176 
   14900    130.80519     -608.031    142809.97   -39689.797    2631.4718   -42321.268      65.2202    221.30966 
   14950    131.37983   -499.20956    142835.22   -39686.214     2643.032   -42329.246    65.460138    222.28189 
   15000    131.75764   -561.06637    142889.97   -39683.223    2650.6325   -42333.856    65.685332     222.9211 
   15050    130.20157   -819.70363    142938.24   -39634.667    2619.3283   -42253.995    66.071841    220.28838 
   15100    132.74084   -667.51044    142963.04   -39607.201    2670.4121   -42277.614    66.244408    224.58458 
   15150    131.56265   -601.35444    142950.24   -39607.935    2646.7099   -42254.645    66.363846     222.5912 
   15200    134.38765   -702.25363    143009.82   -39638.132    2703.5418   -42341.674    66.509119    227.37083 
   15250    128.45909   -574.22866    142953.16   -39600.563     2584.274   -42184.837    66.868611    217.34028 
   15300    134.26577   -477.52648     142971.9   -39594.451    2701.0899   -42295.541    66.891398    227.16463 
   15350    134.48005   -668.23403    142993.96   -39610.613    2705.4007   -42316.014      66.9787    227.52717 
   15400    134.21483   -771.32555    142986.98   -39607.642    2700.0651   -42307.708    67.111888    227.07844 
   15450    134.33848   -611.13077     142979.5   -39576.891    2702.5526   -42279.443    67.165512    227.28764 
   15500    132.97511   -628.03391    142987.59   -39588.756    2675.1251   -42263.881    67.222961    224.98096 
   15550    133.92418   -769.08216    142995.18   -39622.435    2694.2179   -42316.653    67.547019    226.58668 
   15600    133.15984    -423.0673    142982.13    -39591.54    2678.8413   -42270.381    67.727878    225.29349 
   15650    130.17994   -512.96491    143024.16   -39632.076    2618.8932   -42250.969    67.935722    220.25179 
   15700    131.01644   -776.89969    143074.58   -39654.171    2635.7215   -42289.893    67.958044    221.66707 
   15750    133.24708   -581.32011    143131.22    -39649.41    2680.5963   -42330.006    68.199383    225.44109 
   15800    130.60514   -537.61626    143142.53    -39623.45    2627.4472   -42250.897    68.394505     220.9712 
   15850    131.65127   -381.33302    143178.65   -39630.868    2648.4927    -42279.36    68.397268    222.74114 
   15900    131.69606    -674.0532    143220.65   -39630.855    2649.3938   -42280.249    68.586042    222.81692 
   15950      131.662   -733.32751    143135.49   -39684.978    2648.7085   -42333.687    68.529091    222.75929 
   16000    130.58067    -774.7366    143103.74   -39698.596     2626.955   -42325.551    68.712964     220.9298 
   16050    131.29792   -770.41259    143098.15   -39701.495    2641.3841   -42342.879    68.932257     222.1433 
   16100     132.3623   -729.55739    143106.91   -39692.808    2662.7968   -42355.605    69.254806    223.94414 
   16150    133.10206   -677.99913    143061.05   -39650.965     2677.679   -42328.644    69.407822    225.19574 
   16200    132.38382   -480.71712    143064.96   -39602.912    2663.2297   -42266.141     69.50667    223.98054 
   16250    132.60844   -565.51526    143075.86    -39592.89    2667.7487   -42260.638    69.634195    224.36059 
   16300    134.55989   -739.22394    143050.95   -39617.532    2707.0069   -42324.539    69.840383    227.66225 
   16350     134.3956   -482.68376    143054.15    -39582.45    2703.7017   -42286.152     70.09605    227.38428 
   16400     130.8959   -613.18089    143074.73   -39608.262    2633.2966   -42241.558    70.274466    221.46313 
   16450    132.81729   -580.01163     143086.4   -39592.304    2671.9501   -42264.254    70.301854    224.71394 
   16500    133.93831   -780.11615    143102.05   -39611.749    2694.5023   -42306.251     70.33942     226.6106 
   16550    133.27366   -557.83703    143086.87    -39659.38    2681.1311   -42340.511    70.461973    225.48607 
   16600    131.81887   -714.31383     143095.2   -39657.263    2651.8643   -42309.128    70.711955     223.0247 
   16650    132.92515   -772.39679    143069.89   -39670.599      2674.12   -42344.719    70.774416    224.89642 
   16700    133.43703   -638.16944    143071.46   -39695.035    2684.4176   -42379.452     70.78442    225.76247 
   16750    131.78895   -434.18728    143067.34   -39724.664    2651.2625   -42375.926    71.040045    222.97408 
   16800    132.49599   -634.26353    143126.72   -39696.722    2665.4864   -42362.208    71.233995    224.17033 
   16850    133.45437   -563.56343    143115.65    -39663.37    2684.7665   -42348.137    71.470426    225.79181 
   16900      132.664   -610.80071    143137.36   -39732.651    2668.8663   -42401.517    71.794762    224.45458 
   16950    130.58015   -837.36773    143135.24   -39767.868    2626.9445   -42394.813    72.085823    220.92892 
   17000    130.34578   -630.70268    143051.85   -39740.662    2622.2295   -42362.892    72.181721    220.53238 
   17050    129.01244   -583.20362    143055.97   -39704.621    2595.4061   -42300.027    72.327072     218.2765 
   17100    129.53076   -731.42079    143079.79   -39709.259    2605.8334   -42315.092     72.41367    219.15345 
   17150    132.00191   -791.09656    143028.42   -39720.659    2655.5467   -42376.206    72.455159    223.33439 
   17200    131.19931   -486.15893    142980.34   -39670.224    2639.4005   -42309.625    72.623132    221.97648 
   17250    134.82098   -529.42272    143096.88    -39662.87    2712.2593    -42375.13    72.711275    228.10398 
   17300    132.32075   -687.61568     143119.1   -39662.869     2661.961    -42324.83     72.97496    223.87384 
   17350    132.65118   -535.74436    143088.28   -39684.574    2668.6085   -42353.183    73.153957     224.4329 
   17400    130.89576    -875.1889    143069.91   -39717.598    2633.2938   -42350.892    73.433348     221.4629 
   17450    133.25987   -881.91627    142974.02   -39715.028    2680.8536   -42395.881     73.51022    225.46273 
   17500     133.9963   -779.14881     142887.3   -39675.166    2695.6688   -42370.835    73.743317     226.7087 
   17550    132.86072   -608.08202    142929.54   -39663.081    2672.8238   -42335.905    74.144685    224.78741 
   17600    133.65983    -675.6514    142986.35    -39652.31       2688.9    -42341.21     74.33699    226.13944 
   17650    133.29251    -742.3572    143000.12   -39682.334    2681.5104   -42363.845    74.674797    225.51796 
   17700    131.75526   -915.89279    142994.55   -39686.345    2650.5848    -42336.93    74.766157    222.91709 
   17750    135.88265   -634.01653    143011.05   -39646.224    2733.6175   -42379.842    75.126102    229.90023 
   17800    134.89932   -795.91677    143011.65   -39654.663    2713.8353   -42368.498    75.523912    228.23653 
   17850    134.07655   -564.33359    143094.76   -39595.058    2697.2832   -42292.341    75.971746    226.84448 
   17900     130.9466    -543.1117    143147.87   -39701.294    2634.3166   -42335.611    76.244206    221.54891 
   17950    132.00176   -643.65795     143156.5   -39709.326    2655.5437    -42364.87    76.449024    223.33414 
   18000    132.52134   -714.37618    143197.13   -39656.541    2665.9963   -42322.538    76.792551    224.21321 
   18050    135.40757   -583.94607     143207.7   -39596.487      2724.06   -42320.547    76.829473    229.09643 
   18100    132.93613   -692.04158    143203.87   -39634.164    2674.3409   -42308.505    77.127903      224.915 
   18150    133.24033    -763.5947    143122.42   -39680.152    2680.4606   -42360.612     77.50145    225.42968 
   18200    133.32961   -671.03213    143071.37    -39686.14    2682.2568   -42368.396    77.585046    225.58074 
   18250     132.8463   -535.44568    143086.89   -39691.663    2672.5336   -42364.196     77.60281    224.76301 
   18300    131.21892   -499.31475    143071.95   -39653.712    2639.7948   -42293.507    77.672055    222.00964 
   18350    133.23061   -622.73146    143041.46   -39654.881    2680.2651   -42335.146    77.727631    225.41323 
   18400    132.50751   -707.51801    142989.63   -39690.752    2665.7181    -42356.47    77.882699    224.18981 
   18450    132.11006   -872.14176    142930.69   -39680.692    2657.7225   -42338.415    77.996422    223.51738 
   18500    131.11178   -606.06861    142876.15   -39703.878    2637.6396   -42341.517    78.212703    221.82839 
   18550    130.52908   -591.95881    142942.62   -39687.795    2625.9171   -42313.713    78.662846    220.84251 
   18600    130.89637   -433.93326    142891.35   -39678.913    2633.3061   -42312.219     79.00358    221.46393 
   18650    131.99739   -504.02673     142901.2   -39657.348    2655.4558   -42312.804    78.930885    223.32675 
   18700    132.65183   -743.12782    142916.57   -39666.073    2668.6215   -42334.694    79.065752    224.43399 
   18750    134.41213   -438.74787    142933.11   -39623.673    2704.0343   -42327.707    79.027051    227.41225 
   18800    132.08873   -836.07997    142946.84   -39595.304    2657.2933   -42252.598    79.172316    223.48128 
   18850    132.64641   -760.44831    142909.52   -39606.028    2668.5123    -42274.54    79.193783    224.42482 
   18900    133.08303   -454.46572    142975.84   -39560.969    2677.2961   -42238.265    79.473671    225.16354 
   18950    132.09003   -612.77378    142976.65   -39595.692    2657.3195   -42253.012    79.812921    223.48349 
   19000    132.67913    -564.4783    142980.04   -39567.381    2669.1706   -42236.551    79.977473    224.48018 
   19050    133.21703   -654.65454     142967.3   -39570.391    2679.9918   -42250.383    80.109062    225.39025 
   19100     134.7353   -483.97495    142931.06   -39545.639    2710.5356   -42256.174    80.392636    227.95901 
   19150    134.94304   -769.11605    142905.58   -39505.394    2714.7148   -42220.109     80.57023    228.31049 
   19200    134.11345   -834.84078    142814.52   -39549.161    2698.0256   -42247.187    80.722362    226.90691 
   19250    136.15318   -596.37087    142853.79   -39586.083    2739.0597   -42325.143    80.908649    230.35793 
   19300    133.16994   -573.96899    142859.08   -39595.385    2679.0446    -42274.43    81.193321    225.31059 
   19350    131.60737   -310.28666    142855.44   -39603.265    2647.6095   -42250.875    81.373272    222.66686 
   19400    131.91157   -679.56637    142939.04   -39580.805    2653.7294   -42234.535     81.67052    223.18155 
   19450    134.10589   -636.46554    142961.06   -39567.773    2697.8735   -42265.647    82.048031    226.89412 
   19500    134.14419   -786.11677    142890.84   -39507.858    2698.6439   -42206.502    82.287313    226.95892 
   19550    136.03877   -585.20874    142864.29   -39474.157    2736.7581   -42210.916    82.676759    230.16436 
   19600    136.04661   -655.95314    142800.03   -39496.416    2736.9159   -42233.332      83.0114    230.17763 
   19650    132.25104   -723.80337    142871.72   -39529.894    2660.5585   -42190.452    83.278472    223.75589 
   19700      133.489   -723.63936    142886.34   -39573.271    2685.4631   -42258.734    83.379145     225.8504 
   19750    133.47493    -598.8366     142910.7   -39577.213    2685.1801   -42262.393    83.462342    225.82659 
   19800    131.35124   -823.74663    142941.15   -39617.235    2642.4569   -42259.692    83.478466    222.23352 
   19850    131.53853   -740.87452    142934.99   -39559.099    2646.2246   -42205.324    83.672734    222.55039 
   19900    132.55426    -767.7275    142848.58   -39515.751    2666.6587    -42182.41    83.960013    224.26892 
   19950    135.86338   -782.44681    142853.66   -39500.416    2733.2298   -42233.646    84.143272    229.86762 
   20000    134.22773   -692.49289    142829.83   -39463.765    2700.3245   -42164.089    84.122908    227.10026 
   20050    135.11667   -890.46252    142853.39   -39499.489    2718.2079   -42217.697    84.125313    228.60427 
   20100    133.12869   -649.10298    142866.55   -39508.024    2678.2147   -42186.239    84.372597    225.24079 
   20150    132.87505   -917.30253    142812.09   -39482.347     2673.112   -42155.459    84.528432    224.81165 
   20200    134.02053   -873.82091    142760.64   -39477.985    2696.1562   -42174.141    84.649731     226.7497 
   20250    132.68702   -770.07687    142707.58   -39535.553    2669.3295   -42204.882    84.877216    224.49354 
   20300    132.95871   -978.39691     142702.9   -39516.658    2674.7952   -42191.453    85.130069    224.95321 
   20350    132.95743    -776.3041    142765.63   -39542.353    2674.7693   -42217.122    85.495699    224.95103 
   20400    133.36355   -725.60979    142779.72   -39588.296    2682.9395   -42271.236    85.562659    225.63816 
   20450    132.40485   -786.50582     142798.3     -39576.9    2663.6529   -42240.553    85.961489    224.01613 
   20500    130.89421   -909.24627       142759   -39601.582    2633.2626   -42234.845    86.125969    221.46027 
   20550    132.43345   -735.13286    142713.21   -39601.921    2664.2283   -42266.149    86.396051    224.06452 
   20600    130.27616   -793.61888    142726.55   -39647.778    2620.8289   -42268.607     86.51522    220.41458 
   20650     133.5637   -585.76574    142734.49   -39625.824     2686.966    -42312.79    86.745818    225.97679 
   20700    134.37746   -651.90961    142844.08   -39574.144    2703.3369   -42277.481    86.828529     227.3536 
   20750    133.35005   -649.66839    142923.78   -39570.742    2682.6678   -42253.409    86.850282    225.61531 
   20800    135.13309   -669.40195    142967.47   -39560.501    2718.5382   -42279.039    86.878629    228.63204 
   20850    135.99756   -861.76878    142946.81   -39548.266    2735.9292   -42284.196    86.840325    230.09465 
   20900    131.16695   -662.31429    142988.57   -39579.049    2638.7495   -42217.798    86.815179    221.92172 
   20950    132.81953   -771.50854    142971.21   -39550.476    2671.9952   -42222.472    86.946455    224.71773 
   21000    133.60381   -830.05856    142939.98   -39528.795    2687.7729   -42216.568    87.016569    226.04465 
   21050    133.30118   -690.19224    142902.93    -39481.76    2681.6847   -42163.445    87.157141    225.53263 
   21100    133.24276   -661.77286    142850.56   -39500.146    2680.5094   -42180.656    87.097694    225.43378 
   21150    131.50071   -551.90873     142874.3   -39546.346    2645.4637    -42191.81    87.455494     222.4864 
   21200    133.64669   -480.62898    142942.05    -39576.54    2688.6356   -42265.175    87.487901     226.1172 
   21250    132.22162   -793.98974    142953.68     -39542.1    2659.9666   -42202.067    87.847201    223.70611 
   21300    135.38811   -379.24252    142944.58   -39499.093    2723.6686   -42222.761    87.879141    229.06352 
   21350    131.51522   -568.18932    143072.24   -39514.111    2645.7558   -42159.867    87.987725    222.51096 
   21400    132.84375   -665.06884    143047.22   -39501.693    2672.4824   -42174.175    88.379372     224.7587 
   21450    134.33417   -762.28901    143063.68   -39516.163    2702.4659   -42218.629    88.490746    227.28035 
   21500    136.52054   -586.23973    143077.47   -39518.439    2746.4503   -42264.889    88.644888    230.97948 
   21550    136.42968   -690.48379    143046.69   -39494.459    2744.6223   -42239.082    88.853568    230.82575 
   21600     134.7213   -840.75731    143078.19   -39534.535     2710.254   -42244.789    89.112112    227.93534 
   21650    136.16445   -582.86417    143083.35   -39482.651    2739.2865   -42221.937     89.43606      230.377 
   21700    135.56428   -750.64972    143077.12   -39412.914    2727.2126   -42140.126    89.572463    229.36157 
   21750    135.54071   -693.29264    143113.78     -39433.1    2726.7385   -42159.838    89.808811     229.3217 
   21800    133.93525   -639.29581    143190.09   -39454.858    2694.4407   -42149.299    90.081395    226.60542 
   21850    137.04267   -661.37212    143196.87   -39425.959    2756.9542   -42182.913    90.245932    231.86287 
   21900    136.55144   -625.02185    143254.47   -39469.343    2747.0719   -42216.415    90.383335    231.03176 
   21950    132.88901   -744.59177    143239.35   -39520.803    2673.3929   -42194.196     90.63329    224.83527 
   22000    132.03607    -724.1305    143210.05   -39560.282     2656.234   -42216.516    90.712572    223.39219 
   22050    133.33375   -941.76503    143177.49   -39562.198      2682.34   -42244.538    90.675998    225.58774 
   22100    133.52677   -783.24708    143052.11   -39551.392     2686.223   -42237.615    90.853152     225.9143 
   22150    132.74011   -765.90802     142949.9   -39623.664    2670.3974   -42294.062    91.119767    224.58335 
   22200    132.22411    -630.1153    142907.36   -39536.201    2660.0167   -42196.218    91.140258    223.71033 
   22250    133.10083   -966.55528    142842.32   -39538.631    2677.6541   -42216.285    91.598009    225.19365 
   22300    132.89052   -759.09787    142822.36   -39510.541    2673.4234   -42183.964    91.598897    224.83784 
   22350    135.31233   -748.43633    142783.63   -39450.351     2722.144   -42172.495    91.857711     228.9353 
   22400    134.81547   -806.79636    142708.38   -39450.056    2712.1485   -42162.205    91.994693    228.09466 
   22450    133.56013    -636.3007    142634.58   -39493.263    2686.8941   -42180.157    92.319938    225.97075 
   22500    132.64934   -504.44948    142712.12    -39496.56    2668.5714   -42165.132    92.436045    224.42979 
   22550    132.40376   -738.65109    142786.09   -39509.636     2663.631   -42173.267    92.712327    224.01429 
   22600    132.30149   -551.15996    142761.46   -39541.037    2661.5734   -42202.611     92.76554    223.84124 
   22650    135.02938   -529.77652     142853.9   -39529.366    2716.4518   -42245.818    92.749432    228.45657 
   22700    132.79631   -629.18676    142876.87   -39486.873    2671.5281   -42158.401    93.013999    224.67845 
   22750    132.22303   -617.97717    142826.93   -39500.012    2659.9952   -42160.007    93.171494    223.70851 
   22800    131.15361   -496.74355    142778.53   -39509.709     2638.481    -42148.19     93.46395    221.89915 
   22850     131.5473   -720.65282    142730.98   -39556.253    2646.4011   -42202.654    93.490496    222.56524 
   22900    130.48148   -738.44045    142598.45   -39567.838    2624.9596   -42192.798     93.58346    220.76198 
   22950    131.36427    -587.4521    142610.29   -39555.634     2642.719   -42198.353     93.63204    222.25556 
   23000    131.59535   -458.70783    142654.53   -39537.272    2647.3677    -42184.64    93.792078    222.64653 
   23050    132.57423   -504.20809    142709.95   -39539.261    2667.0604   -42206.321    93.829799     224.3027 
   23100    132.48699   -682.61239     142767.3    -39567.62    2665.3052   -42232.925    93.940232    224.15509 
   23150    135.21939   -654.72667    142781.62   -39558.981    2720.2744   -42279.256    94.115752    228.77806 
   23200    134.36328   -612.99893    142736.59    -39570.01    2703.0515   -42273.061    94.488929     227.3296 
   23250    132.52758   -810.63271    142745.03   -39598.045    2666.1219   -42264.167    94.696016    224.22378 
   23300    130.06765    -503.2808    142781.05   -39619.609    2616.6343   -42236.244    94.776372    220.06182 
   23350    133.26561   -719.37589    142875.09   -39629.047    2680.9691   -42310.016    95.000797    225.47244 
   23400    134.41779   -726.24729    142914.86    -39648.78    2704.1481   -42352.928    95.185226    227.42182 
   23450    132.76711   -690.78911    142935.45   -39683.025    2670.9407   -42353.965    95.254474    224.62904 
   23500    133.53027   -450.86378    143042.77   -39662.124    2686.2934   -42348.418     95.74005    225.92022 
   23550    132.93365   -505.58982    143143.05   -39644.248     2674.291   -42318.539    96.070045    224.91081 
   23600    135.20201   -831.69347    143151.81   -39637.014    2719.9246   -42356.939    96.298319    228.74864 
   23650    132.65281   -707.61331       143082   -39659.972    2668.6411   -42328.614     96.36578    224.43565 
   23700    131.66119   -571.28742    143061.87   -39685.514    2648.6922   -42334.206    96.604253    222.75792 
   23750    132.27682   -627.43023    143090.34   -39659.999    2661.0771   -42321.077    96.824983     223.7995 
   23800    131.53192   -796.94078    143073.82   -39642.465    2646.0917   -42288.557    97.236322    222.53922 
   23850    134.81289   -735.65174    143026.24   -39623.986    2712.0967   -42336.083    97.239266     228.0903 
   23900    132.73149   -789.12949    142946.17   -39662.815    2670.2239   -42333.039    97.536662    224.56876 
   23950    131.15201   -639.12014     142918.1   -39647.769    2638.4488   -42286.218    97.673671    221.89644 
   24000    131.72949   -702.02956    142927.06   -39674.812    2650.0664   -42324.878    97.811607    222.87349 
   24050    134.71547   -456.51407    142986.11   -39646.505    2710.1367   -42356.642    98.053064    227.92547 
   24100    128.82324   -561.52239    143100.52   -39639.988    2591.5999   -42231.588    98.306365    217.95639 
   24150    132.66291   -760.74963    143120.01   -39630.532    2668.8443   -42299.376    98.629309    224.45274 
   24200    129.59026   -901.28089    143039.04    -39641.01    2607.0303    -42248.04     98.86381    219.25411 
   24250    132.02663   -659.72941     143082.4   -39621.736    2656.0439    -42277.78    99.135345    223.37621 
   24300    129.36787   -827.62793    143149.71   -39679.339    2602.5564   -42281.895    99.354745    218.87785 
   24350    130.04804   -650.07501    143127.71     -39684.5    2616.2398   -42300.739     99.58914    220.02863 
   24400    129.60219   -680.93875    143083.94   -39698.076    2607.2705   -42305.347    99.680508    219.27431 
   24450     132.9267   -595.60205    143147.01   -39661.712    2674.1511   -42335.863      99.9353    224.89904 
   24500    131.21463   -567.81976    143139.56   -39669.073    2639.7087   -42308.782    100.44616     222.0024 
   24550    130.91283   -1029.6372    143167.62    -39659.59    2633.6373   -42293.227    100.80675    221.49178 
   24600      131.933   -680.81244     143058.1   -39671.122    2654.1605   -42325.283    101.14858    223.21781 
   24650    132.04368    -640.3895    143077.17   -39664.009     2656.387   -42320.396    101.49458    223.40506 
   24700    130.32005   -716.43644    143096.75   -39637.475     2621.712   -42259.187    101.64302    220.48885 
   24750    131.95204    -740.4373    143111.64     -39648.2    2654.5435   -42302.744    101.62336    223.25002 
   24800    134.86836   -678.73194    143140.03   -39631.259    2713.2126   -42344.472    101.88109    228.18415 
   24850    132.33951   -765.24961    143129.62   -39659.097    2662.3384   -42321.436      101.817    223.90558 
   24900    130.35269   -801.14251    143112.44   -39659.203    2622.3685   -42281.571    101.87042    220.54407 
   24950    134.69544   -806.55781    143061.52   -39666.397    2709.7337   -42376.131    102.17211    227.89158 
   25000    131.57496   -896.87893    143017.38   -39655.829    2646.9575   -42302.787    102.02159    222.61203 
   25050    131.87556   -885.66532     142898.5   -39642.986    2653.0049   -42295.991    101.91623    223.12062 
   25100    129.48333   -728.21211    142838.38   -39704.472    2604.8793   -42309.351     102.2113    219.07321 
   25150    130.64198   -688.04157    142806.16   -39675.731    2628.1883   -42303.919    102.52867    221.03352 
   25200    131.26783   -661.38215    142822.03   -39637.937    2640.7788   -42278.716    102.79753     222.0924 
   25250    132.93596   -712.30593     142875.7   -39615.826    2674.3374   -42290.164    102.98658    224.91471 
   25300     133.6049   -867.12499    142846.09   -39649.257    2687.7947   -42337.052     103.3205    226.04649 
   25350    130.79459   -478.21249    142905.98   -39658.422    2631.2585    -42289.68    103.43618    221.29172 
   25400    133.63185   -733.44728    142983.05   -39595.163     2688.337     -42283.5    103.84417    226.09209 
   25450    134.38306   -845.90597    142921.23   -39585.912    2703.4495   -42289.361     104.0751    227.36307 
   25500    134.47806    -632.3243    142906.78   -39594.529    2705.3607    -42299.89    104.23586     227.5238 
   25550    134.62076   -618.12415    142971.69   -39576.756    2708.2313   -42284.987     104.3502    227.76523 
   25600    133.54038   -668.04058    143010.71   -39636.785    2686.4968   -42323.282    104.62255    225.93733 
   25650    135.09427   -631.08728    142992.75    -39626.49    2717.7573   -42344.248    104.61029    228.56637 
   25700    134.35079   -612.31896     143062.5   -39615.958    2702.8003   -42318.758    104.63813    227.30847 
   25750    132.35703   -538.97677    143117.09   -39684.034    2662.6908   -42346.725      104.831    223.93522 
   25800     135.8053   -668.00387    143066.93   -39693.538    2732.0613   -42425.599    104.85088    229.76935 
   25850    132.40882   -641.64774     142991.7   -39695.188    2663.7328   -42358.921    104.84997    224.02285 
   25900     133.5459   -568.14853    142974.21   -39686.231    2686.6079   -42372.839    105.00657    225.94668 
   25950    131.04829   -706.59991    142929.84   -39701.981    2636.3623   -42338.343    105.16725    221.72096 
   26000    131.41021   -635.82791    142867.49   -39711.849    2643.6433   -42355.492    105.63958     222.3333 
   26050    131.23548   -528.91524    142934.74   -39709.369    2640.1281   -42349.497    105.69906    222.03767 
   26100    129.88032   -736.03672    142883.31   -39729.977    2612.8656   -42342.843    105.82934    219.74486 
   26150    133.52734   -665.00516    142902.64   -39673.148    2686.2346   -42359.383    106.10378    225.91528 
   26200    131.91147   -775.13584    142801.34   -39642.967    2653.7273   -42296.694    106.31505    223.18138 
   26250    130.16803   -801.41568    142779.79   -39686.122    2618.6536   -42304.776    106.22593    220.23164 
   26300    132.37831   -557.96185    142825.97   -39677.668    2663.1189   -42340.787    106.40766    223.97122 
   26350    133.19253   -460.48929    142810.32   -39620.153    2679.4989   -42299.652    106.52885     225.3488 
   26400    131.88893   -559.57638    142815.53   -39639.508    2653.2738   -42292.782    106.70651    223.14324 
   26450    133.23005   -923.58688    142717.25    -39670.95    2680.2539   -42351.204    107.05954    225.41229 
   26500    132.32212     -692.347       142689   -39679.143    2661.9885   -42341.132     107.3544    223.87615 
   26550    131.60791   -634.96562       142726   -39711.234    2647.6205   -42358.855    107.51564    222.66779 
   26600    133.80547    -513.2567    142774.59   -39698.517    2691.8298   -42390.347     107.4551    226.38584 
   26650     133.8359   -424.43057    142910.35   -39675.137     2692.442   -42367.579    107.51039    226.43732 
   26700    130.08292   -426.54946    143034.96   -39698.949    2616.9414    -42315.89    107.81679    220.08764 
   26750    133.02976   -724.92578    143160.78   -39691.729    2676.2245   -42367.953    108.11084    225.07341 
   26800    133.88022   -932.16009    143135.23   -39648.694    2693.3336   -42342.028    108.04774    226.51231 
   26850    131.43363   -688.82235    143066.96    -39674.61    2644.1143   -42318.724    108.32023    222.37291 
   26900    134.01508   -863.54643    143064.01   -39653.838    2696.0467   -42349.885    108.55221    226.74049 
   26950    135.18861   -771.72843    143004.54   -39650.989     2719.655   -42370.644     108.9688    228.72597 
   27000    133.78967   -630.83725    142989.17   -39624.418    2691.5119    -42315.93      109.191     226.3591 
   27050    134.52689    -798.0872    142988.65   -39636.822    2706.3431   -42343.165    109.50769    227.60642 
   27100    133.94437     -622.978    142978.53   -39617.949     2694.624   -42312.573    109.74469    226.62084 
   27150    131.77787   -772.15712    142941.27   -39666.802    2651.0396   -42317.842    109.87093    222.95534 
   27200    133.67158   -708.60073    142940.27    -39651.46    2689.1363   -42340.597    110.10346    226.15931 
   27250    132.88575   -612.16571    142948.32   -39611.645    2673.3274   -42284.972    110.15542    224.82977 
   27300    134.66217   -555.64987       142984   -39606.836    2709.0646   -42315.901    110.05616     227.8353 
   27350    135.18406   -607.95325    143013.27   -39598.486    2719.5635    -42318.05    110.12024    228.71828 
   27400    133.97443   -595.79031     143068.9   -39598.762    2695.2289   -42293.991    110.51716    226.67171 
   27450    134.19448   -694.01899    143032.17   -39596.967    2699.6556   -42296.622    110.69718      227.044 
   27500    134.42249   -664.57994    143025.85   -39565.374    2704.2428   -42269.617    110.98808    227.42979 
   27550     133.7668   -775.26153     143097.5    -39576.59    2691.0519   -42267.642      111.242    226.32042 
   27600    133.60139   -587.60594     143114.2   -39552.416    2687.7242    -42240.14      111.311    226.04055 
   27650     132.5893   -597.02066    143197.72   -39595.318    2667.3635   -42262.681    111.57112     224.3282 
   27700    132.63978   -721.74312    143199.22   -39628.546     2668.379   -42296.925    111.92831     224.4136 
   27750    131.38089   -639.83055    143206.25   -39629.694    2643.0533   -42272.748    112.07717    222.28368 
   27800    131.51747     -436.881    143227.06   -39588.729     2645.801    -42234.53    112.04985    222.51477 
   27850    133.46901   -626.62337    143235.55   -39586.402    2685.0611   -42271.464    112.01018    225.81658 
   27900     134.0411   -771.49771    143210.59   -39612.933    2696.5701   -42309.503    112.39675    226.78451 
   27950    132.04456   -739.16445    143225.31   -39632.639    2656.4048   -42289.044    112.74188    223.40656 
   28000    133.43492   -646.20819    143178.73   -39617.735    2684.3754    -42302.11    113.12391    225.75891 
   28050     131.5575   -828.90944    143217.39    -39616.07    2646.6064   -42262.676    113.31685     222.5825 
   28100    133.97501   -683.36804    143157.39   -39584.693    2695.2405   -42279.933    113.32731    226.67268 
   28150    132.09019   -768.08054    143209.69   -39629.881    2657.3227   -42287.203    113.47963    223.48376 
   28200     132.6788   -781.82551    143207.06   -39608.737    2669.1641   -42277.901    113.61282    224.47963 
   28250    134.47405   -830.84255     143146.2   -39584.757      2705.28   -42290.037    113.66931    227.51701 
   28300    132.11564   -711.87497    143052.23   -39570.455    2657.8347   -42228.289    113.76103    223.52681 
   28350    134.77865   -646.69841    143020.96   -39572.124    2711.4078   -42283.532    113.88167    228.03237 
   28400    133.48616   -564.57027    143040.64   -39539.698    2685.4062   -42225.104    113.91585     225.8456 
   28450    132.86574    -709.4214    143055.01    -39551.73    2672.9248   -42224.655     114.3162    224.79591 
   28500    134.45806    -748.5779    143024.94   -39561.654    2704.9583   -42266.612    114.47259    227.48996 
   28550    134.46473   -635.12067    142988.37   -39562.233    2705.0924   -42267.326    114.69631    227.50124 
   28600     133.3372   -706.72158    143020.34   -39546.114    2682.4093   -42228.523    114.90534    225.59357 
   28650    136.50551   -563.60631    143005.11   -39489.632    2746.1478    -42235.78    115.08167    230.95405 
   28700    136.62305   -684.41914    143035.24   -39505.565    2748.5125   -42254.078     115.3732    231.15292 
   28750    133.26262    -573.3336    143099.31   -39605.533    2680.9089   -42286.442    115.36134    225.46738 
   28800    132.94415   -531.72452    143134.52   -39595.578    2674.5022    -42270.08    115.52578    224.92857 
   28850    131.90896   -604.85095    143143.45   -39648.923    2653.6768     -42302.6    115.72148    223.17713 
   28900    132.61103   -541.30569    143184.45   -39647.635    2667.8007   -42315.436    115.78259    224.36497 
   28950    129.12284   -649.30096    143169.54   -39642.198     2597.627   -42239.825    115.74633    218.46328 
   29000    133.85589    -685.2701    143170.37   -39643.873    2692.8442   -42336.717    115.80044    226.47115 
   29050    130.35211   -621.16228    143162.68   -39655.569    2622.3568   -42277.926      115.849    220.54309 
   29100    134.88841     -482.702    143220.26   -39627.263    2713.6158   -42340.879    116.29091    228.21807 
   29150    134.65611   -588.98778     143247.3   -39666.747    2708.9426   -42375.689    116.66769    227.82504 
   29200    131.51994   -650.93128    143192.99   -39719.712    2645.8508   -42365.563    117.01013    222.51895 
   29250    131.67632    -701.1158    143176.51   -39684.107    2648.9967   -42333.104    117.68197    222.78353 
   29300    132.85797   -707.73625    143241.48   -39684.212    2672.7685    -42356.98    117.72044    224.78277 
   29350    134.63697   -464.09644    143326.67   -39672.978    2708.5574   -42381.536    117.88652    227.79265 
   29400    133.72919   -570.72301    143357.96   -39646.799    2690.2953   -42337.095    117.68914    226.25679 
   29450    129.04416   -497.33999    143421.53   -39679.996    2596.0443    -42276.04    118.15083    218.33017 
   29500    132.62082    -854.2914    143404.22   -39673.911    2667.9976   -42341.908    118.36669    224.38152 
   29550    132.38026   -946.04935    143354.41   -39636.962    2663.1581   -42300.121      118.435    223.97452 
   29600    132.70046   -475.41003     143348.1   -39670.066    2669.5998   -42339.666    118.32724    224.51628 
   29650    130.19112   -639.45715    143453.37   -39701.824    2619.1183   -42320.943    118.44213    220.27072 
   29700    135.10091     -743.326     143411.4   -39664.903    2717.8908   -42382.794    118.38383     228.5776 
   29750    130.70784   -822.25628    143396.41    -39683.72    2629.5133   -42313.233     118.6187    221.14495 
   29800    132.09858   -526.28818    143362.29   -39652.893    2657.4914   -42310.385    118.91874    223.49794 
   29850    134.35874   -718.77154    143422.66   -39605.674    2702.9603   -42308.634    118.94818    227.32193 
   29900    132.55721   -530.48209    143322.23   -39592.941    2666.7179   -42259.659    119.28674     224.2739 
   29950    131.90813   -607.14314    143393.44   -39633.943    2653.6601   -42287.603    119.48908    223.17573 
   30000    132.25172   -649.10077    143398.68    -39637.54    2660.5723   -42298.112    119.49112    223.75705 
   30050    135.74389   -839.67402    143340.83   -39636.587     2730.826   -42367.413    119.69521    229.66546 
   30100    133.08532   -570.89326    143320.28   -39657.054    2677.3423   -42334.397    119.81394    225.16742 
   30150    134.20169   -585.85601    143356.55   -39660.377    2699.8007   -42360.178    119.56589     227.0562 
   30200    131.80687     -623.075    143378.69   -39669.673     2651.623   -42321.296      119.719     223.0044 
   30250    134.83741   -610.60569    143323.79    -39676.56    2712.5898    -42389.15    119.95462    228.13178 
   30300    133.04775   -855.30849    143238.99   -39672.999    2676.5863   -42349.585    120.23458    225.10385 
   30350    134.01577   -800.80103    143123.57   -39642.721    2696.0606   -42338.781    120.56156    226.74165 
   30400     131.7362   -858.50474    143146.08   -39617.662    2650.2012   -42267.863    120.79693    222.88483 
   30450    133.93769   -675.91145    143116.23   -39614.543    2694.4898   -42309.033    120.72855    226.60955 
   30500    132.76555   -677.76167    143165.88   -39593.668    2670.9093   -42264.577    121.02957     224.6264 
   30550    132.18765   -616.13341    143139.75   -39604.711    2659.2833   -42263.995    121.29693    223.64864 
   30600    134.03023   -705.78511    143190.75   -39597.502    2696.3513   -42293.853    121.23682    226.76611 
   30650     133.6669   -714.25819    143197.47   -39646.343    2689.0421   -42335.385    121.41966    226.15139 
   30700    130.28783   -720.20286    143236.18   -39669.963    2621.0637   -42291.027    121.74247    220.43433 
   30750    131.28876   -608.52076    143241.82   -39666.319    2641.1998   -42307.519    121.72983     222.1278 
   30800    136.98519   -703.59371    143311.75   -39580.803    2755.7977   -42336.601    121.74626    231.76561 
   30850    133.44374    -686.9904    143286.44   -39570.061    2684.5527   -42254.614    122.19198    225.77383 
   30900    131.91918    -793.4523     143235.7   -39602.945    2653.8823   -42256.827    122.49123    223.19441 
   30950    132.63927   -716.26127    143216.13   -39581.953    2668.3688   -42250.322     122.6286    224.41274 
   31000    134.05803   -788.95537    143202.29   -39601.449    2696.9107    -42298.36    122.79286    226.81315 
   31050    130.59531   -610.75526    143083.87    -39671.27    2627.2494   -42298.519    123.19454    220.95456 
   31100    133.93187   -613.66412    143058.24   -39660.424    2694.3727   -42354.797    123.36391     226.5997 
   31150    130.86496   -942.51633     143017.3   -39645.268    2632.6741   -42277.942    123.48669    221.41078 
   31200     130.9912   -951.01044    142851.42    -39679.82    2635.2138   -42315.034    123.91355    221.62437 
   31250    132.10149   -748.41207    142816.89   -39703.654      2657.55   -42361.204    124.29379    223.50287 
   31300    133.11707   -623.30022    142808.04   -39713.739    2677.9809    -42391.72     124.5365    225.22113 
   31350    132.47843   -494.12765    142918.34   -39664.464    2665.1331   -42329.597     124.6336    224.14062 
   31400    133.01294   -732.13614    142985.92   -39657.282     2675.886   -42333.168    124.86625    225.04495 
   31450    131.10082   -556.09005    142997.44   -39653.236     2637.419   -42290.655    124.98641    221.80983 
   31500    133.77634   -528.95047    143009.91   -39618.688    2691.2439   -42309.932    125.47462    226.33656 
   31550    136.11593   -562.75236     143045.3   -39612.001    2738.3105   -42350.312    125.69409    230.29492 
   31600    133.62268   -697.81172    143051.28   -39644.966    2688.1524   -42333.118    125.97344    226.07657 
   31650    130.96848   -732.15078    143048.35    -39715.59    2634.7568   -42350.347    125.95042    221.58594 
   31700    131.68622   -919.49508    143041.02   -39714.197    2649.1959   -42363.393     126.1615    222.80028 
   31750      131.316   -892.47218    142892.16   -39690.954    2641.7478   -42332.702    126.50833    222.17389 
   31800      130.888   -730.60588    142789.53   -39691.614    2633.1377   -42324.751    126.50693    221.44977 
   31850    131.14903    -594.9015    142747.34   -39667.705    2638.3888   -42306.094    126.86443     221.8914 
   31900    132.74363   -618.24354    142760.47   -39608.639    2670.4683   -42279.108     126.9559    224.58931 
   31950    134.72394   -452.13985    142777.02   -39645.407    2710.3071   -42355.714    127.19469     227.9398 
   32000    130.15046   -418.53918    142911.41   -39697.276    2618.3002   -42315.576    127.36792    220.20192 
   32050    130.47354   -607.73808    142985.21   -39703.902    2624.7998   -42328.702    127.32082    220.74855 
   32100     131.7987   -743.99694    142956.81    -39693.65    2651.4585   -42345.108    127.53139    222.99057 
   32150    132.78029   -523.58287     142984.9   -39623.305    2671.2057   -42294.511    127.80175    224.65133 
   32200    131.69864   -567.68879    142977.51    -39615.44    2649.4457   -42264.886    127.78528    222.82129 
   32250    132.79761   -577.59209    143035.84   -39642.162    2671.5541   -42313.717    127.96548    224.68063 
   32300     133.2477    -584.1704    143054.35   -39603.198    2680.6089   -42283.807    128.37979    225.44215 
   32350    132.18143   -331.85294    143123.11    -39600.89    2659.1582   -42260.048    128.63756    223.63813 
   32400    134.90433   -783.69348    143107.24   -39596.447    2713.9361   -42310.383    129.22416    228.24501 
   32450    132.98518   -827.87121     143045.6   -39589.902    2675.3276   -42265.229    129.61163    224.99798 
   32500    129.82325   -837.06245    143079.27   -39620.469    2611.7175   -42232.187    129.66026    219.64831 
   32550    133.21581   -669.68957    143054.21   -39609.669    2679.9674   -42289.636    130.00526     225.3882 
   32600    131.85605   -557.61369    143117.53   -39589.167    2652.6124   -42241.779    130.56619    223.08761 
   32650    134.02432   -772.83961    143190.55   -39534.894    2696.2326   -42231.127    130.93235    226.75612 
   32700      133.597   -602.45162     143238.2    -39567.23     2687.636   -42254.866     131.1316    226.03313 
   32750    134.87625   -508.04664    143230.51   -39555.024    2713.3713   -42268.396    131.30548     228.1975 
   32800    134.28119   -651.56615    143266.78   -39572.359    2701.4002   -42273.759    131.22793    227.19072 
   32850    132.92646   -846.92053    143289.93   -39560.945    2674.1463   -42235.092     131.2934    224.89863 
   32900    133.28136   -874.88262    143269.41   -39563.444    2681.2859    -42244.73    131.62811    225.49909 
   32950    133.86447   -746.03961    143198.28   -39540.316    2693.0167   -42233.333    131.77436    226.48566 
   33000    132.20488   -610.87874    143207.86    -39522.54      2659.63    -42182.17     131.5177     223.6778 
   33050    131.22871   -647.71714    143248.58   -39520.077    2639.9918   -42160.069    131.40421    222.02621 
   33100    134.77018   -652.35991    143311.89   -39497.754    2711.2374   -42208.991    131.58902    228.01804 
   33150    134.10784   -977.31919    143276.71   -39463.612    2697.9127   -42161.525    132.05853    226.89742 
   33200    133.00026   -677.57098    143275.78   -39545.849     2675.631   -42221.481    132.45677     225.0235 
   33250    133.25885   -605.65484    143370.58   -39526.367    2680.8332     -42207.2    132.70571    225.46101 
   33300    132.45341   -680.07797    143371.86   -39540.449    2664.6297   -42205.079    132.77877    224.09828 
   33350    134.74943   -736.03743    143377.59   -39588.513      2710.82   -42299.333    132.81632    227.98294 
   33400    133.27153   -700.45901    143337.68   -39561.427    2681.0883   -42242.516    132.85781    225.48247 
   33450    136.82565   -728.33821    143300.05   -39542.666    2752.5883   -42295.254    133.26511    231.49569 
   33500     134.5174   -648.39287    143263.71   -39537.899     2706.152   -42244.051    133.23449    227.59035 
   33550    132.56362   -562.50307    143278.61    -39553.38    2666.8468   -42220.227    133.49481    224.28474 
   33600    135.05124   -790.78221    143273.43     -39553.8    2716.8915   -42270.692    133.74289    228.49356 
   33650    134.87823   -834.64857    143285.66   -39534.743     2713.411   -42248.154    133.82857    228.20084 
   33700    133.95175   -782.83807    143234.35   -39536.158    2694.7727   -42230.931    133.84469    226.63334 
   33750    129.88481   -730.32831    143238.45   -39511.495    2612.9559   -42124.451    133.97157    219.75246 
   33800    133.99404   -724.99529     143179.1   -39504.036    2695.6233   -42199.659     134.0251    226.70488 
   33850    130.99405   -757.85545    143169.61   -39549.893     2635.271   -42185.164    134.27359    221.62919 
   33900    133.77951   -634.47178    143177.16   -39504.673    2691.3076   -42195.981    134.43741    226.34192 
   33950    135.90452   -933.40381    143184.65   -39547.595    2734.0575   -42281.652    134.61528    229.93723 
[...]
   92000    134.30284   -779.33578    143436.41   -39668.442    2701.8357   -42370.278    342.48993    227.22735 
   92050    131.54967   -933.32994    143308.86   -39732.769    2646.4489   -42379.218    341.80981    222.56925 
   92100    131.53584   -562.09985    143262.85   -39747.836    2646.1705   -42394.006    342.11258    222.54584 
   92150     132.6824   -757.46976    143237.51   -39745.247    2669.2365   -42414.484    342.05655    224.48572 
   92200    132.79346   -643.23842    143173.91   -39746.702    2671.4707   -42418.173    342.45091    224.67362 
   92250    131.68908   -616.32555    143213.02   -39664.483    2649.2534   -42313.737    342.89889    222.80512 
   92300    136.09621   -821.90525    143209.13   -39679.627    2737.9138   -42417.541    342.73138    230.26156 
   92350    130.96845   -809.13746    143104.11   -39696.218     2634.756   -42330.974    342.89782    221.58587 
   92400    133.26517   -715.78944    143121.55   -39671.377    2680.9602   -42352.337    343.26113     225.4717 
   92450    130.12837   -808.81806     143075.5   -39738.955    2617.8559   -42356.811    343.04423    220.16455 
   92500    131.67992   -446.25306    143111.16   -39649.093    2649.0691   -42298.162    343.37104    222.78962 
   92550    135.92617   -620.13762    143200.91   -39598.677    2734.4931    -42333.17    343.58662    229.97387 
   92600    134.32054   -542.05059    143277.88   -39632.782    2702.1917   -42334.974    343.62411    227.25729 
   92650     135.1137   -778.61551    143259.92   -39677.904    2718.1482   -42396.052    344.03241    228.59924 
   92700    132.55843    -665.8683    143301.01   -39661.983    2666.7426   -42328.726    344.36847    224.27598 
   92750    132.10242   -662.62454    143407.33   -39688.022    2657.5686   -42345.591    344.10044    223.50444 
   92800    132.18917   -915.24903    143460.19   -39638.055     2659.314   -42297.369    344.24334    223.65122 
   92850    133.73273   -619.01212    143399.49    -39667.36    2690.3664   -42357.727    344.34887    226.26277 
   92900    131.29008   -776.68515    143465.79   -39676.079    2641.2265   -42317.306    344.42185    222.13005 
   92950    135.51969   -830.66001    143534.46   -39631.684    2726.3156       -42358    344.65344    229.28613 
   93000    134.50396   -1033.0052    143513.62   -39565.247    2705.8816   -42271.128    344.66916    227.56761 
   93050    134.88577   -757.33826    143460.79    -39557.21    2713.5627   -42270.773     344.5313     228.2136 
   93100    134.74339   -718.13596    143470.48   -39633.101    2710.6984   -42343.799    344.43475    227.97271 
   93150    133.12273   -714.83649    143564.42   -39703.254    2678.0948   -42381.349     344.9135    225.23071 
   93200     133.6669   -873.70319    143534.86    -39717.09    2689.0422   -42406.132    344.63418     226.1514 
   93250    134.05968   -606.12872    143474.71   -39733.825     2696.944   -42430.769    344.90288    226.81595 
   93300    131.14756   -680.46778    143496.18    -39747.01    2638.3594   -42385.369    345.00593    221.88892 
   93350    132.91216   -755.61535     143398.9   -39768.966    2673.8587   -42442.824    345.35608    224.87445 
   93400     131.1429   -725.09078    143347.77   -39783.565    2638.2655   -42421.831    345.68324    221.88103 
   93450    131.45862   -873.24888    143277.25   -39836.252    2644.6172   -42480.869    346.06494    222.41521 
   93500    132.89938   -761.90313    143281.71   -39767.228    2673.6015   -42440.829    345.82341    224.85282 
   93550    131.46544   -643.33093    143276.82   -39785.542    2644.7543   -42430.297    346.28329    222.42674 
   93600    132.89178   -756.78115    143279.34    -39777.83    2673.4487   -42451.279    346.84757    224.83997 
   93650    131.55329   -918.11099    143186.34   -39771.095    2646.5215   -42417.616    347.07088    222.57537 
   93700    135.14217   -706.55838    143149.68   -39769.904    2718.7209   -42488.625    346.85324    228.64741 
   93750    131.22541   -702.64554    143156.65   -39784.664    2639.9254   -42424.589    347.11732    222.02062 
   93800    131.40845   -592.76808    143159.75   -39757.013    2643.6077    -42400.62    347.38556    222.33031 
   93850    134.40249   -590.23129    143143.25   -39721.581    2703.8403   -42425.421    347.37992    227.39593 
   93900    130.34534   -662.96612    143181.45   -39750.062    2622.2207   -42372.283    347.67443    220.53164 
   93950    131.14924   -701.03539    143239.16    -39756.16    2638.3932   -42394.553    348.06533    221.89177 
   94000    133.03164   -637.48144    143261.24   -39728.806    2676.2622   -42405.068    348.00661    225.07659 
   94050    132.97749   -718.81206    143302.36   -39707.999    2675.1729   -42383.172    348.44499    224.98498 
   94100    133.11087   -677.32356    143275.79   -39707.338    2677.8562   -42385.194    348.57148    225.21064 
   94150     132.5765   -776.96568    143242.66   -39751.633     2667.106   -42418.739    348.43186    224.30654 
   94200    129.78261    -782.9114    143262.65   -39777.027       2610.9   -42387.927    348.75076    219.57956 
   94250    129.16335   -849.82161    143189.29    -39751.97    2598.4421   -42350.412    348.79857    218.53183 
   94300    128.71321   -677.67041    143160.42   -39752.368    2589.3863   -42341.755    349.06404    217.77023 
   94350    129.56376   -641.15528    143139.14   -39711.873    2606.4973   -42318.371    348.88361    219.20928 
   94400    132.22377   -679.78317    143113.69   -39741.124      2660.01   -42401.134    349.44363    223.70976 
   94450    129.98214   -623.13695    143101.79   -39768.974     2614.914   -42383.888    349.99152    219.91714 
   94500    131.83093   -680.10037    143056.74   -39753.178    2652.1071   -42405.285    349.76971    223.04512 
   94550    131.17375   -739.44815    143043.59   -39761.727    2638.8862   -42400.613    349.81204    221.93322 
   94600     133.4062   -532.46199    143049.88   -39737.026    2683.7974   -42420.823    349.76702    225.71031 
   94650    134.46111   -779.74595     143142.7   -39706.425    2705.0197   -42411.445    349.61428    227.49513 
   94700    133.30351   -606.30594    143253.78   -39729.244    2681.7315   -42410.975    349.51762    225.53656 
   94750    132.43773   -576.82725     143334.8   -39679.318    2664.3142   -42343.632    350.14601    224.07175 
   94800    135.24564   -757.01722    143327.28   -39663.914    2720.8024   -42384.716    350.04372    228.82247 
   94850    130.97251   -684.02159    143301.03   -39678.045    2634.8379   -42312.883     350.3318    221.59276 
   94900    132.77804   -615.73584     143312.1   -39676.971    2671.1605   -42348.131    351.07889    224.64753 
   94950    134.32053   -692.38822    143316.43   -39652.025    2702.1916   -42354.216    350.71394    227.25728 
   95000    133.51875   -615.68912    143362.46   -39623.986    2686.0616   -42310.047    350.99777    225.90073 
   95050    133.96372   -649.89742    143373.61   -39670.749    2695.0133   -42365.763    351.30634    226.65358 
   95100    129.99302   -727.70852    143349.58    -39639.33    2615.1329   -42254.462    351.70135    219.93555 
   95150    135.21112   -676.99269    143289.75   -39610.256     2720.108   -42330.364     351.6946    228.76407 
   95200     134.6197   -730.43594    143243.99   -39586.126      2708.21   -42294.336    351.82607    227.76343 
   95250    135.10005   -542.26167     143210.6   -39591.407    2717.8735    -42309.28    351.92482    228.57615 
   95300    134.81437    -363.5248    143134.71   -39578.239    2712.1263   -42290.365    351.94062     228.0928 
   95350    132.70563   -455.51208    143229.61   -39607.569    2669.7037   -42277.273    352.12468    224.52501 
   95400    135.37776   -577.18832    143304.16   -39578.824    2723.4604   -42302.285    352.30857      229.046 
   95450    133.36589   -693.46588    143310.03   -39566.016    2682.9865   -42249.003    352.38599    225.64211 
   95500    131.96402   -605.69912    143247.06   -39624.491    2654.7845   -42279.276    352.41604    223.27029 
   95550    130.29571   -663.59096    143264.86    -39647.16    2621.2222   -42268.382    352.47404    220.44766 
   95600    133.77753   -764.06201     143254.7   -39579.723    2691.2677   -42270.991    352.56329    226.33856 
   95650    132.07106   -578.83459    143227.09   -39630.645    2656.9378   -42287.583    352.09394    223.45139 
   95700      134.035   -707.30141    143263.67   -39616.937    2696.4473   -42313.384     352.4984    226.77418 
   95750    132.82339   -670.45908    143256.86   -39623.213    2672.0728   -42295.286    352.55283    224.72426 
   95800     132.8266   -651.98122    143330.74   -39610.431    2672.1374   -42282.569    352.94462    224.72969 
   95850    135.18387   -589.16048    143326.08    -39539.47    2719.5598    -42259.03    353.36813    228.71797 
   95900    133.18969   -528.01431    143360.65   -39576.549    2679.4419   -42255.991     353.4081      225.344 
   95950    132.78872   -493.77599    143368.56   -39544.381    2671.3754   -42215.756    353.14293     224.6656 
   96000    131.64416   -609.16844    143421.12   -39604.953    2648.3496   -42253.302    352.99687    222.72911 
   96050     129.8333   -889.52786    143375.07   -39616.058    2611.9198   -42227.978    352.69789    219.66532 
   96100    132.75324   -736.31719    143363.12   -39566.283    2670.6616   -42236.945    352.90601    224.60557 
   96150    132.07945   -683.93362    143384.55   -39580.116    2657.1067   -42237.222    353.15549    223.46559 
   96200    135.68434   -794.44069     143283.1   -39587.132     2729.628    -42316.76    353.16065    229.56471 
   96250    130.25733    -582.4894    143193.93   -39625.958    2620.4501   -42246.408    353.48865    220.38273 
   96300     136.2259   -876.43427    143165.05   -39588.858    2740.5228    -42329.38    353.57623    230.48098 
   96350     133.8058   -608.69502     143197.6    -39631.81    2691.8364   -42323.647     353.2431     226.3864 
   96400    134.64991   -556.36952    143297.61   -39631.602    2708.8178    -42340.42    353.28228    227.81455 
   96450    132.84337   -492.38784    143267.65   -39614.729    2672.4748   -42287.204    353.83808    224.75807 
   96500    133.17613   -688.43432     143227.3   -39599.709     2679.169   -42278.878     353.7808    225.32106 
   96550    134.54469   -499.17329    143251.28   -39560.881     2706.701   -42267.582     353.9155    227.63652 
   96600    133.95686   -673.67591    143231.78   -39613.673    2694.8753   -42308.549    353.70296    226.64197 
   96650    135.15927   -559.30091    143228.93   -39587.348    2719.0649   -42306.413     354.5171    228.67634 
   96700    133.08359   -524.52157    143311.35   -39574.235    2677.3075   -42251.543    354.67218     225.1645 
   96750    131.76439   -618.83894     143319.6   -39608.533    2650.7685   -42259.302    355.33147    222.93254 
   96800    132.07863   -674.85002    143360.14   -39598.683    2657.0901   -42255.773    355.29276    223.46419 
   96850    134.31595    -615.0719    143364.06   -39621.334    2702.0993   -42323.433    355.96827    227.24952 
   96900    132.79108   -982.31768    143363.99   -39671.641    2671.4227   -42343.063    356.29956    224.66958 
   96950    131.21427   -910.27905     143280.2   -39636.627    2639.7014   -42276.328    356.82246    222.00179 
   97000    131.66278   -842.01638    143221.45   -39655.117    2648.7243   -42303.841    356.83973    222.76062 
   97050    131.31199   -802.03736    143214.08    -39670.65    2641.6672   -42312.317    356.57183    222.16711 
   97100    131.10482   -838.26428    143208.99   -39643.919    2637.4995   -42281.418    356.78107     221.8166 
   97150    132.30525   -537.44883    143203.67   -39630.542    2661.6491   -42292.191    356.73121    223.84761 
   97200    131.83519    -785.9935    143289.15   -39624.237    2652.1928    -42276.43    356.89851    223.05232 
   97250    132.56084   -733.40883    143291.32   -39548.977    2666.7909   -42215.768     356.9144    224.28004 
   97300    132.07181   -874.64443    143264.62   -39574.047     2656.953       -42231    357.08781    223.45266 
   97350    135.90363    -719.9432    143290.97   -39518.459    2734.0395   -42252.498    357.41199    229.93572 
   97400     135.3466   -791.47064       143305   -39554.565    2722.8334   -42277.398    357.27582    228.99327 
   97450    135.20007   -808.86763    143353.49   -39516.427    2719.8857   -42236.313     357.8098    228.74538 
   97500    133.63591    -914.7478    143313.33   -39550.654    2688.4187   -42239.073    358.19302    226.09896 
   97550    133.80134   -771.62418    143308.25   -39538.342    2691.7467   -42230.089    358.12145    226.37885 
   97600    131.83827   -807.74883    143272.73   -39616.963    2652.2547   -42269.217    358.48337    223.05753 
   97650    129.21665   -995.33252    143243.33   -39645.728    2599.5142   -42245.242    359.08356      218.622 
   97700     132.2516   -592.91029    143167.43    -39652.02    2660.5699    -42312.59    359.46494    223.75685 
   97750    133.76113   -806.91323    143213.97   -39598.865    2690.9378   -42289.803    359.60515    226.31082 
   97800    132.35313   -689.12554    143194.25   -39644.791    2662.6123   -42307.403    359.93518    223.92862 
   97850    131.01206   -728.71685     143208.1   -39675.346    2635.6334    -42310.98    360.32693    221.65966 
   97900    135.72796    -623.6768    143266.67   -39619.677    2730.5056   -42350.182    360.43647    229.63851 
   97950    134.29362   -377.88213    143399.56   -39606.651    2701.6501   -42308.302    360.36836    227.21174 
   98000    133.40719   -762.26388    143503.94   -39659.021    2683.8175   -42342.838    360.60569    225.71199 
   98050    132.47106   -663.43925    143515.43   -39678.033    2664.9847   -42343.017    360.67972    224.12814 
   98100    132.02074   -826.13062    143580.13   -39665.707    2655.9256   -42321.633     361.4488    223.36625 
   98150    132.94302   -780.94625     143593.8   -39670.714    2674.4794   -42345.193    361.71855    224.92665 
   98200    134.10303   -723.81649    143682.54   -39638.991     2697.816   -42336.807    361.82277    226.88928 
   98250    131.59795    -812.2474    143647.95   -39662.143    2647.4201   -42309.563    361.78834    222.65093 
   98300    132.20447   -927.03165    143503.57   -39605.596    2659.6217   -42265.217     362.1811    223.67711 
   98350    132.93691   -709.56158       143481   -39626.885    2674.3566   -42301.242    362.20685    224.91632 
   98400    132.24164   -820.24091    143554.36   -39633.133    2660.3696   -42293.503    362.10379       223.74 
   98450    133.55355   -856.47128     143504.8   -39658.261    2686.7617   -42345.023     362.0488    225.95961 
   98500    132.62549   -861.60934    143424.39   -39661.499    2668.0916    -42329.59    361.81545    224.38943 
   98550    131.35966   -765.78801    143397.07   -39660.981    2642.6263   -42303.607    362.50574    222.24777 
   98600    131.80894   -567.43971    143419.79   -39650.828    2651.6646   -42302.492    362.65312    223.00791 
   98650     133.4569   -989.71785    143418.53   -39627.603    2684.8174    -42312.42     362.8026    225.79609 
   98700    131.97042   -729.93556    143269.73   -39645.888    2654.9131   -42300.802    363.08156    223.28111 
   98750     132.4057   -939.84407    143279.27   -39629.689      2663.67   -42293.359    363.34715    224.01757 
   98800    129.51349   -856.56193     143184.3   -39644.169     2605.486   -42249.655    363.40128    219.12423 
   98850    130.75744   -689.12363    143164.03   -39677.093    2630.5111   -42307.604    363.46321    221.22887 
   98900    129.35946   -587.42748     143166.3   -39685.136    2602.3873   -42287.523    363.72535    218.86363 
   98950    132.51986   -696.96203    143234.31   -39650.573    2665.9665    -42316.54    363.94725    224.21071 
   99000    132.01085   -721.47829     143252.1   -39633.041    2655.7266   -42288.767    363.96699    223.34952 
   99050    134.55401   -687.09568    143214.46   -39614.811    2706.8885     -42321.7    363.97252     227.6523 
   99100    133.84408   -794.72083    143270.84   -39571.799    2692.6065   -42264.405    364.19852    226.45116 
   99150    135.19166   -677.36208    143276.28   -39565.552    2719.7165   -42285.268    364.53783    228.73114 
   99200    134.15201   -546.77519    143328.37    -39565.13    2698.8014   -42263.931    364.97535    226.97216 
   99250    130.64948   -633.87968    143370.41   -39657.161    2628.3392   -42285.501    364.63769    221.04621 
   99300    131.90347   -647.02357    143328.68   -39661.113    2653.5664   -42314.679    364.69896    223.16784 
   99350    132.18677   -904.93356    143267.79   -39666.693    2659.2656   -42325.959    364.72969    223.64716 
   99400    133.68122   -883.32405    143143.38   -39648.833    2689.3302   -42338.163    365.08075    226.17562 
   99450    133.50334   -606.91833    143104.42    -39590.86    2685.7516   -42276.611    365.13698    225.87466 
   99500    131.17914   -686.08061    143117.07   -39614.774    2638.9947   -42253.769    365.31777    221.94235 
   99550    132.75847   -607.22138    143092.68    -39600.48    2670.7668   -42271.247     365.8209    224.61442 
   99600      132.141   -770.84636    143048.84   -39592.314    2658.3448   -42250.659    366.33724    223.56971 
   99650    131.86872   -667.34812     143073.8   -39632.895    2652.8673   -42285.762     366.7217    223.10905 
   99700    130.56366   -890.03139    143082.13   -39634.886    2626.6128   -42261.499    366.80052    220.90102 
   99750    131.19363   -451.81691    143054.73   -39651.503    2639.2862   -42290.789    366.31662    221.96686 
   99800    130.81046   -663.98799    143077.06   -39611.825    2631.5778   -42243.403     366.6685    221.31858 
   99850    131.01831    -725.0156    143054.54   -39576.446    2635.7592   -42212.205    367.51254    221.67024 
   99900    133.69012   -853.37403    143053.34    -39551.45    2689.5092    -42240.96    368.28195    226.19068 
   99950    131.99567   -772.02474    142958.56   -39609.473    2655.4212   -42264.895    368.72969    223.32384 
  100000    134.12746   -678.87474    142904.44   -39605.418    2698.3075   -42303.725     368.7197    226.93062 
Loop time of 220.615 on 32 procs for 100000 steps with 6750 atoms

Performance: 195.816 ns/day, 0.123 hours/ns, 453.279 timesteps/s
98.7% CPU use with 32 MPI tasks x no OpenMP threads

MPI task timing breakdown:
Section |  min time  |  avg time  |  max time  |%varavg| %total
---------------------------------------------------------------
Pair    | 46.891     | 114.16     | 188.84     | 625.7 | 51.74
Neigh   | 2.4305     | 4.7472     | 8.769      | 116.2 |  2.15
Comm    | 17.067     | 91.889     | 164.24     | 680.6 | 41.65
Output  | 0.11654    | 0.12027    | 0.14865    |   1.5 |  0.05
Modify  | 3.9475     | 8.9897     | 21.158     | 211.7 |  4.07
Other   |            | 0.7116     |            |       |  0.32

Nlocal:    210.938 ave 350 max 141 min
Histogram: 16 0 0 6 2 0 0 0 3 5
Nghost:    1376.84 ave 1883 max 934 min
Histogram: 16 0 0 0 0 0 0 0 8 8
Neighs:    0 ave 0 max 0 min
Histogram: 32 0 0 0 0 0 0 0 0 0
FullNghs:  25180.6 ave 55186 max 8857 min
Histogram: 16 0 0 0 8 0 0 0 0 8

Total # of neighbors = 805780
Ave neighs/atom = 119.375
Neighbor list builds = 6132
Dangerous builds = 0

write_data		${DIR}/data.eq-${NAME}-${TEMP}
write_data		run_10/data.eq-${NAME}-${TEMP}
write_data		run_10/data.eq-het_freeze_10-${TEMP}
write_data		run_10/data.eq-het_freeze_10-225
undump          1

reset_timestep  0

unfix           2
unfix           3
unfix           4


################################################
#######         Run Simulation         #########
################################################

log				${DIR}/log.run_${NAME}
log				run_10/log.run_${NAME}
log				run_10/log.run_het_freeze_10
