LAMMPS data file via write_data, version 16 Mar 2018, timestep = 100000

6736 atoms
2 atom types

0.0000000000000000e+00 4.9219999999999999e+01 xlo xhi
0.0000000000000000e+00 4.9019635930410494e+01 ylo yhi
8.6200304747326228e-01 5.9199996952527485e+01 zlo zhi

Masses

1 18.015
2 12.01

Atoms # atomic

939 1 3.0048350666128294e+00 2.9890716138204847e+00 8.2368325860966571e+00 1 -1 1
5855 1 7.0539651831313623e+00 1.1051726681310216e+01 4.7208438020784085e+00 0 0 0
2058 1 1.1561980824271206e+01 1.1566013492727798e+01 4.3959564035611258e+00 0 1 0
3704 1 2.1038488490798504e-01 6.0215878235964648e-01 8.5387539630909171e+00 0 2 0
20 1 5.7486035955650943e+00 2.7017818238779787e+00 5.1311247648986757e+00 -1 0 0
4109 1 4.4054370464741288e-01 5.0376737957459650e+00 4.3822178051528136e+00 1 1 0
2128 1 8.6675902423436533e+00 1.6366385312261154e+00 4.9107284176329298e+00 0 0 0
5176 1 1.1378887971334082e+01 2.3404899043446394e+00 2.7534284833703984e+00 0 0 1
2179 1 5.5182306643069907e+00 1.7955888412293333e-01 3.8240395944927270e+00 0 1 0
4566 1 7.5338122733536830e+00 4.8881946094648621e+00 1.6207349558551711e+00 0 0 1
3807 1 5.4736453724522827e+00 6.4529503194849234e+00 4.5530377112794760e+00 1 1 0
6102 1 5.3630115941102989e+00 4.3997149029998841e+00 2.9911594747615426e+00 1 -1 1
3725 1 1.0011123565300325e+01 6.0185935929286973e+00 2.6068239580619941e+00 1 0 0
2087 1 8.5643139020941899e+00 9.5496441180294891e+00 3.1808264286549530e+00 -2 1 0
1769 1 9.6043334907705713e+00 7.4227689665127521e+00 5.1005496253987248e+00 0 0 1
2560 1 1.0757390513939189e+01 1.0571431569728921e+01 1.6937309821661686e+00 -1 0 1
3411 1 1.7003149654107295e+00 8.9381034427910766e+00 1.6461158658342563e+00 1 0 0
3816 1 1.1633122714508215e+01 1.8932279127116676e+00 1.3321957930181787e+01 1 0 0
2784 1 4.3022850004596291e+00 8.4417798934968395e+00 2.8981530061223535e+00 -1 -1 1
206 1 5.4813537714637617e+00 1.0608290896450669e+01 1.3291977630758971e+01 1 0 0
2146 1 4.3889780307828916e+00 1.0856415484040225e+01 3.9688863969789279e+00 0 0 0
5298 1 1.1679963147926554e+01 4.4970573717197881e+00 4.5279404653079531e+00 0 1 0
5204 1 1.2856667517746936e+00 1.0987989145266424e+01 1.2117921024823088e+01 1 1 0
3495 1 2.0475509232753866e+00 2.1736651978417543e+00 2.4605280481109011e+00 1 1 0
2083 1 2.0782316659940417e-01 1.0052767406050327e+00 4.0821978924026823e+00 1 0 0
1100 1 3.0342605309794002e+00 1.0315352524987039e+01 1.3897268759178205e+01 1 0 1
6160 1 2.8091207996100591e+00 4.0845661160466422e+00 5.6186951930104518e+00 1 0 1
4148 1 2.6535130128846833e+00 1.8196359880886315e+00 1.2783380742031172e+01 0 -1 1
6171 1 5.8480421434537195e+00 2.8883716257286536e+00 8.0086525463926854e+00 1 -1 1
6079 1 5.7927272270162611e+00 9.7317807181577332e-01 1.0015682644299439e+01 1 1 1
340 1 9.8357562090438648e+00 8.6653627248038223e+00 1.4704398398368669e+01 1 0 0
5153 1 8.6778345721864021e+00 2.7756360072136395e+00 7.4859361312296064e+00 -1 0 0
3417 1 9.8383669141344736e+00 1.8156085124368875e+00 9.7646954872453229e+00 1 0 0
2108 1 1.1925433931290746e+01 5.7904691929747454e+00 7.3817119706040373e+00 -1 1 0
1080 1 3.5373650315155172e+00 6.7431681902044032e+00 6.8636379568058858e+00 0 1 0
2625 1 1.1940652110722770e+01 8.6921032746591607e+00 1.2561775478730528e+01 1 1 1
322 1 5.3872220923568888e+00 5.4740912423353274e+00 8.5746851191012645e+00 0 0 0
6075 1 7.4715278066346107e+00 6.7992705849152157e+00 6.9550948794837115e+00 1 0 1
476 1 5.0521444560980058e+00 5.5783306384101321e+00 1.1934156543253849e+01 1 -1 0
2813 1 9.4255500356167090e+00 5.1078093921624417e+00 7.9319320687725003e+00 0 1 1
3696 1 1.0638421919651336e+01 8.7667735644307960e+00 1.0280139226881815e+01 0 -1 0
3580 1 9.0167635628964984e+00 6.6657064585102423e+00 1.0073031821904534e+01 0 0 0
6074 1 6.5982377742977301e+00 8.6738798629932230e+00 1.8042947360226032e+00 -1 1 1
5933 1 2.3598765093552614e+00 9.1360591893169065e+00 5.5388155352072088e+00 -1 0 1
857 1 5.2695796487223279e-01 7.4113302849172316e+00 1.0589414696377721e+01 0 0 1
4266 1 8.8865844199727189e+00 1.1947509670748584e+00 1.4328012073391427e+01 1 2 1
24 1 3.7803969187638504e+00 2.8274914700967990e-01 1.8537420831819365e+00 2 0 0
3630 1 1.1617864770088424e+01 5.9777438877662128e+00 1.3731456234429540e+01 0 0 0
5436 1 1.0028967466572844e+01 1.1997111153994421e+01 9.2143858306289061e+00 -2 0 0
970 1 9.9691194661107509e+00 1.0417284477114499e+01 6.5803325347412480e+00 -1 0 1
6089 1 6.2473137093683349e+00 9.5707525798829742e+00 7.4153692838330461e+00 1 2 1
276 1 2.6482640116386031e+00 5.4055509015928471e-01 1.0202209340168375e+01 0 1 0
6129 1 2.2656287157294139e+00 7.4935659975557156e+00 1.3884757076631836e+01 1 1 1
4472 1 3.8378142620863021e-01 6.1683208377952097e+00 1.4433238047949750e+00 1 0 1
5551 1 2.6045520085194718e+00 9.0746214350515100e+00 1.0383407772852658e+01 1 1 0
2091 1 3.0410661375385364e+00 4.9809299677835952e+00 1.7986283075320579e+00 1 1 0
5330 1 5.3890373512623322e+00 1.3605372329327365e+00 1.3446843534131078e+01 0 0 0
5475 1 8.9396995341724539e-01 5.7885497683272478e+00 8.2680902815194663e+00 0 1 0
329 1 7.7379102636662571e+00 2.0647753855873159e+00 1.1802665024624627e+01 0 1 0
5271 1 8.9359256343146161e+00 5.8865728914094415e+00 1.4336475976640576e+01 1 0 0
1155 1 9.1195026411899927e-01 5.2871467197283994e+00 1.2689776993886287e+01 0 1 1
5310 1 2.8754855931988543e+00 4.1346380091688237e+00 1.1066389235078850e+01 2 0 1
1063 1 3.3233764143438043e+00 9.9709409681443457e+00 7.9501793726366738e+00 -1 0 0
2764 1 4.5913366034462184e+00 8.1382986395204018e+00 1.1461895388266862e+01 0 1 1
6283 1 6.7323468661278776e+00 8.8911220437021239e+00 9.9408934336361643e+00 1 0 1
271 1 4.7606178141064541e+00 6.4970611044871118e+00 1.4747098365796283e+01 -1 2 0
1169 1 7.8572961755526007e+00 4.4376408091355429e-02 2.2467463858864356e+00 0 -1 1
5471 1 7.8847967039787212e+00 5.0627507255699404e+00 1.1930173115768955e+01 0 0 0
4395 1 8.4435521271291289e+00 1.0266337314104854e+01 1.1820084953258492e+01 0 1 0
307 1 1.0981597332731893e+01 3.9432456751064140e+00 1.1435811415645478e+01 0 1 0
5108 1 1.1928058956833285e+01 8.6179947214924351e+00 7.4784216419359550e+00 0 1 1
2886 1 4.1052571756459599e-02 2.4162835223605161e+00 6.5280042899988118e+00 1 2 1
5990 1 9.7536279151513927e+00 1.1786584305795335e+01 1.4529109975074624e+01 1 0 0
176 1 4.0526471742951147e+00 3.8853000102254138e+00 1.5200679924420237e+01 -1 1 0
2084 1 1.3227663963309189e+00 3.5343340857130809e+00 1.5394787854739848e+01 -1 1 0
2456 1 3.1142240183304795e+00 1.7266896208603675e+00 2.0754672927955472e+01 0 -1 0
6230 1 5.9294665537982656e+00 1.6192195016913149e+00 1.9517048490380905e+01 0 0 1
2820 1 2.5463931255697378e+00 1.0501954276318511e+01 2.4421339190458522e+01 0 1 1
1856 1 7.2756832824999567e+00 1.1791100873539202e+01 1.5593754693781674e+01 0 1 1
1016 1 1.0977262356458334e+01 4.5668143368111016e+00 1.7931490111047793e+01 0 -1 1
5480 1 2.8189961318591967e+00 4.7082732318656255e+00 2.0094673718640465e+01 1 1 0
153 1 7.2472512603776196e-01 5.1264551478595877e+00 1.7816360084901365e+01 0 0 0
5910 1 1.6016994855678308e+00 7.4672380305489536e+00 1.6792567243873457e+01 0 0 0
5488 1 4.6857314806267780e+00 4.0977448470762541e+00 1.7802447964043481e+01 1 1 0
1984 1 5.7395368304054104e+00 4.9397318511500261e+00 2.1012855598831614e+01 0 -1 0
1175 1 7.4222348740666906e+00 5.3170770347564806e+00 1.7626978552353833e+01 0 -1 1
4609 1 9.2142427462982592e+00 6.6001440921747809e+00 1.9437661650470844e+01 0 0 1
3705 1 1.0914050093987832e+01 5.7425440279384192e+00 2.1277336388512136e+01 2 1 0
3494 1 9.3982182537894179e+00 6.0357148771824176e-01 1.7807312313525259e+01 1 0 0
602 2 9.8440000000000012e+00 1.1366872099805333e+01 2.6815922684489141e+01 0 0 0
1106 1 2.9406854036678811e+00 8.8246217979078558e+00 1.8941083951465025e+01 0 0 1
5256 1 9.0296860915750461e+00 3.7508869573345431e+00 1.6165179700703874e+01 0 0 1
3715 1 5.4040943843603131e+00 9.2143424974972294e+00 1.9716310941960636e+01 0 3 0
4473 1 7.1580516775143419e+00 9.5973451321824612e+00 1.7377684984750474e+01 -1 2 0
601 2 8.6134999999999984e+00 1.0656442593567498e+01 2.6815922684489141e+01 0 0 0
444 1 1.1653272317530838e+01 2.1195703613571730e+00 1.8550745934517174e+01 0 0 1
907 1 6.6605208691792557e+00 2.1559933182451934e+00 1.5769085412303944e+01 0 1 1
604 2 1.1074500000000002e+01 9.2355835810918343e+00 2.6815922684489141e+01 0 0 0
3531 1 4.1002773264817838e-01 2.5996962355521744e+00 1.9606490214953606e+01 0 0 0
5124 1 1.1895346430318596e+00 1.7992844423203871e+00 2.4139106700605137e+01 0 1 1
1918 1 3.8423714844280044e+00 2.0053027799194445e+00 2.3325436210527311e+01 0 1 0
580 2 8.6134999999999984e+00 9.2355835810918343e+00 2.6815922684489141e+01 0 0 0
5978 1 8.4651220274083379e+00 2.5806916211605415e+00 2.4462229246117872e+01 -1 1 1
752 1 4.9510044717672743e+00 4.3107536546962502e+00 2.3572101073770465e+01 0 1 1
890 1 7.1364730660490991e+00 7.3151135447677129e+00 1.5956331814555845e+01 1 0 1
626 2 1.2304999999999998e+01 1.1366872099805333e+01 2.6815922684489141e+01 0 0 0
3667 1 9.2250793900574446e-01 1.0508221064442063e+00 1.7109054715291659e+01 1 2 0
1716 1 2.5222165548595661e+00 1.1700588451399202e+01 1.8888629918867348e+01 0 0 1
440 1 1.3224991220385227e-01 3.9068350704712485e+00 2.2367902690201298e+01 0 0 0
5547 1 2.1920957172574225e+00 5.6150501743925991e+00 2.3273028824126957e+01 1 0 0
1911 1 1.5666901248780338e+00 7.3886479793177982e+00 2.0736542605745960e+01 0 0 0
180 1 6.9919312871799306e+00 7.6935764228927663e+00 2.1152842724510485e+01 1 0 0
3658 1 8.1566720465369826e+00 3.0965017913641142e+00 2.1156474661097771e+01 0 0 0
4202 1 7.7195372983412911e+00 4.9979056590442754e+00 2.3857748218799472e+01 1 0 1
980 1 1.1024530012841259e+01 2.7670454777630265e+00 2.1545457260524877e+01 1 -1 1
3827 1 1.1328516968817235e+01 2.9693701849710092e+00 2.4277440703296865e+01 -1 0 0
1954 1 9.9854759612294810e+00 6.5629168727367491e+00 2.3413217798027649e+01 0 -1 0
1944 1 1.1431625770973147e+01 1.0785141797368858e+01 2.0982125500882930e+01 -1 1 0
5228 1 4.5277745693408766e-01 9.1504220337728324e+00 2.2438378932166522e+01 1 1 0
163 1 6.0999034035178248e+00 7.8951771761227816e+00 2.3745335141445494e+01 0 1 0
2472 1 3.4143405744767161e+00 7.9009273968888376e+00 2.3998005546551642e+01 -1 1 0
3502 1 4.6089187824963167e+00 1.2055325857362551e+01 2.3940255937761069e+01 2 -1 0
2808 1 7.0031217041997014e+00 1.0406620999455786e+01 2.4427267755146460e+01 0 3 0
262 1 5.5898873355166865e+00 1.1774652659843195e+01 2.1226878855112577e+01 0 1 1
5373 1 1.1894569833993481e+01 8.4955290868952762e+00 2.4346916501313611e+01 0 -1 0
5918 1 8.0551233842782501e+00 1.0862322294770122e+01 2.1299087548853560e+01 1 0 0
119 1 9.5448410927429830e+00 9.5062481590878001e+00 1.8870545588571041e+01 0 -1 1
283 1 1.1736372717846159e+01 1.1249617269589363e+01 2.3835440303001111e+01 0 0 0
625 2 1.1074500000000002e+01 1.0656442593567498e+01 2.6815922684489141e+01 0 0 0
511 2 0.0000000000000000e+00 2.8417180249513345e+00 2.6815922684489141e+01 0 0 0
512 2 0.0000000000000000e+00 0.0000000000000000e+00 2.6815922684489141e+01 0 0 0
513 2 1.2305000000000001e+00 7.1042950623783474e-01 2.6815922684489141e+01 0 0 0
517 2 1.2305000000000001e+00 2.1312885187134998e+00 2.6815922684489141e+01 0 0 0
518 2 2.4610000000000003e+00 2.8417180249513345e+00 2.6815922684489141e+01 0 0 0
519 2 2.4610000000000003e+00 0.0000000000000000e+00 2.6815922684489141e+01 0 0 0
520 2 3.6915000000000004e+00 7.1042950623783474e-01 2.6815922684489141e+01 0 0 0
528 2 3.6914999999999996e+00 2.1312885187134998e+00 2.6815922684489141e+01 0 0 0
529 2 4.9220000000000006e+00 2.8417180249513332e+00 2.6815922684489141e+01 0 0 0
530 2 4.9220000000000006e+00 0.0000000000000000e+00 2.6815922684489141e+01 0 0 0
531 2 6.1524999999999999e+00 7.1042950623783407e-01 2.6815922684489141e+01 0 0 0
543 2 6.1524999999999999e+00 2.1312885187134989e+00 2.6815922684489141e+01 0 0 0
544 2 7.3829999999999991e+00 2.8417180249513345e+00 2.6815922684489141e+01 0 0 0
545 2 7.3829999999999991e+00 0.0000000000000000e+00 2.6815922684489141e+01 0 0 0
546 2 8.6134999999999984e+00 7.1042950623783407e-01 2.6815922684489141e+01 0 0 0
562 2 8.6134999999999984e+00 2.1312885187135002e+00 2.6815922684489141e+01 0 0 0
563 2 9.8440000000000012e+00 2.8417180249513332e+00 2.6815922684489141e+01 0 0 0
564 2 9.8440000000000012e+00 0.0000000000000000e+00 2.6815922684489141e+01 0 0 0
565 2 1.1074500000000002e+01 7.1042950623783330e-01 2.6815922684489141e+01 0 0 0
585 2 1.1074500000000002e+01 2.1312885187135002e+00 2.6815922684489141e+01 0 0 0
514 2 0.0000000000000000e+00 7.1042950623783341e+00 2.6815922684489141e+01 0 0 0
515 2 0.0000000000000000e+00 4.2625770374269996e+00 2.6815922684489141e+01 0 0 0
516 2 1.2305000000000001e+00 4.9730065436648339e+00 2.6815922684489141e+01 0 0 0
524 2 1.2305000000000001e+00 6.3938655561404980e+00 2.6815922684489141e+01 0 0 0
525 2 2.4610000000000003e+00 7.1042950623783341e+00 2.6815922684489141e+01 0 0 0
526 2 2.4610000000000003e+00 4.2625770374269996e+00 2.6815922684489141e+01 0 0 0
527 2 3.6914999999999996e+00 4.9730065436648339e+00 2.6815922684489141e+01 0 0 0
539 2 3.6914999999999996e+00 6.3938655561404980e+00 2.6815922684489141e+01 0 0 0
540 2 4.9220000000000006e+00 7.1042950623783341e+00 2.6815922684489141e+01 0 0 0
541 2 4.9220000000000006e+00 4.2625770374269978e+00 2.6815922684489141e+01 0 0 0
542 2 6.1524999999999999e+00 4.9730065436648339e+00 2.6815922684489141e+01 0 0 0
558 2 6.1524999999999999e+00 6.3938655561404980e+00 2.6815922684489141e+01 0 0 0
559 2 7.3830000000000009e+00 7.1042950623783341e+00 2.6815922684489141e+01 0 0 0
560 2 7.3829999999999991e+00 4.2625770374269996e+00 2.6815922684489141e+01 0 0 0
561 2 8.6135000000000002e+00 4.9730065436648339e+00 2.6815922684489141e+01 0 0 0
581 2 8.6135000000000002e+00 6.3938655561404980e+00 2.6815922684489141e+01 0 0 0
582 2 9.8440000000000012e+00 7.1042950623783341e+00 2.6815922684489141e+01 0 0 0
583 2 9.8440000000000012e+00 4.2625770374270004e+00 2.6815922684489141e+01 0 0 0
584 2 1.1074500000000002e+01 4.9730065436648339e+00 2.6815922684489141e+01 0 0 0
605 2 1.1074500000000002e+01 6.3938655561404980e+00 2.6815922684489141e+01 0 0 0
521 2 0.0000000000000000e+00 1.1366872099805333e+01 2.6815922684489141e+01 0 0 0
522 2 0.0000000000000000e+00 8.5251540748539991e+00 2.6815922684489141e+01 0 0 0
523 2 1.2305000000000001e+00 9.2355835810918343e+00 2.6815922684489141e+01 0 0 0
535 2 1.2305000000000001e+00 1.0656442593567498e+01 2.6815922684489141e+01 0 0 0
536 2 2.4610000000000003e+00 1.1366872099805333e+01 2.6815922684489141e+01 0 0 0
537 2 2.4610000000000003e+00 8.5251540748539991e+00 2.6815922684489141e+01 0 0 0
538 2 3.6915000000000004e+00 9.2355835810918343e+00 2.6815922684489141e+01 0 0 0
554 2 3.6914999999999996e+00 1.0656442593567499e+01 2.6815922684489141e+01 0 0 0
555 2 4.9220000000000006e+00 1.1366872099805333e+01 2.6815922684489141e+01 0 0 0
579 2 7.3830000000000009e+00 8.5251540748539991e+00 2.6815922684489141e+01 0 0 0
578 2 7.3829999999999991e+00 1.1366872099805333e+01 2.6815922684489141e+01 0 0 0
577 2 6.1524999999999999e+00 1.0656442593567499e+01 2.6815922684489141e+01 0 0 0
556 2 4.9220000000000006e+00 8.5251540748539991e+00 2.6815922684489141e+01 0 0 0
557 2 6.1524999999999999e+00 9.2355835810918343e+00 2.6815922684489141e+01 0 0 0
603 2 9.8440000000000012e+00 8.5251540748539956e+00 2.6815922684489141e+01 0 0 0
845 1 1.1946442132161069e+01 8.8720031357361915e+00 1.6988450006766293e+01 0 1 1
6225 1 1.0095540088793495e+01 1.2091475906417923e+01 1.7882639833222182e+01 1 1 1
208 1 9.4817432387946869e+00 1.2251863253180041e+01 2.3903364611566747e+01 0 0 0
6234 1 6.3510549698604839e+00 2.1974054015915281e-01 1.7257738457081356e+01 0 1 1
5554 1 2.0019041840576022e+00 1.2249582052879425e+01 1.5496871302533588e+01 0 -1 0
1250 2 0.0000000000000000e+00 1.4208590124756650e+00 3.0031000000000535e+01 0 0 0
1251 2 0.0000000000000000e+00 0.0000000000000000e+00 3.0031000000000535e+01 0 0 0
1254 2 1.2305000000000001e+00 3.5521475311891644e+00 3.0031000000000535e+01 0 0 0
1255 2 1.2305000000000001e+00 2.1312885187134998e+00 3.0031000000000535e+01 0 0 0
1256 2 2.4610000000000003e+00 1.4208590124756650e+00 3.0031000000000535e+01 0 0 0
1257 2 2.4610000000000003e+00 0.0000000000000000e+00 3.0031000000000535e+01 0 0 0
1264 2 3.6914999999999996e+00 3.5521475311891644e+00 3.0031000000000535e+01 0 0 0
1265 2 3.6914999999999996e+00 2.1312885187134998e+00 3.0031000000000535e+01 0 0 0
1411 2 0.0000000000000000e+00 2.8417180249513345e+00 3.3246077315513986e+01 0 0 0
1412 2 0.0000000000000000e+00 0.0000000000000000e+00 3.3246077315513986e+01 0 0 0
1413 2 1.2305000000000001e+00 7.1042950623783474e-01 3.3246077315513986e+01 0 0 0
1417 2 1.2305000000000001e+00 2.1312885187134998e+00 3.3246077315513986e+01 0 0 0
1418 2 2.4610000000000003e+00 2.8417180249513345e+00 3.3246077315513986e+01 0 0 0
1419 2 2.4610000000000003e+00 0.0000000000000000e+00 3.3246077315513986e+01 0 0 0
1420 2 3.6915000000000004e+00 7.1042950623783474e-01 3.3246077315513986e+01 0 0 0
1428 2 3.6914999999999996e+00 2.1312885187134998e+00 3.3246077315513986e+01 0 0 0
1266 2 4.9220000000000006e+00 1.4208590124756650e+00 3.0031000000000535e+01 0 0 0
1267 2 4.9220000000000006e+00 0.0000000000000000e+00 3.0031000000000535e+01 0 0 0
1278 2 6.1524999999999999e+00 3.5521475311891644e+00 3.0031000000000535e+01 0 0 0
1279 2 6.1524999999999999e+00 2.1312885187134989e+00 3.0031000000000535e+01 0 0 0
1280 2 7.3829999999999991e+00 1.4208590124756659e+00 3.0031000000000535e+01 0 0 0
1281 2 7.3829999999999991e+00 0.0000000000000000e+00 3.0031000000000535e+01 0 0 0
1429 2 4.9220000000000006e+00 2.8417180249513332e+00 3.3246077315513986e+01 0 0 0
1430 2 4.9220000000000006e+00 0.0000000000000000e+00 3.3246077315513986e+01 0 0 0
1431 2 6.1524999999999999e+00 7.1042950623783407e-01 3.3246077315513986e+01 0 0 0
1443 2 6.1524999999999999e+00 2.1312885187134989e+00 3.3246077315513986e+01 0 0 0
1444 2 7.3829999999999991e+00 2.8417180249513345e+00 3.3246077315513986e+01 0 0 0
1445 2 7.3829999999999991e+00 0.0000000000000000e+00 3.3246077315513986e+01 0 0 0
1296 2 8.6134999999999984e+00 3.5521475311891657e+00 3.0031000000000535e+01 0 0 0
1297 2 8.6134999999999984e+00 2.1312885187135002e+00 3.0031000000000535e+01 0 0 0
1298 2 9.8440000000000012e+00 1.4208590124756659e+00 3.0031000000000535e+01 0 0 0
1299 2 9.8440000000000012e+00 0.0000000000000000e+00 3.0031000000000535e+01 0 0 0
1318 2 1.1074500000000002e+01 3.5521475311891644e+00 3.0031000000000535e+01 0 0 0
1319 2 1.1074500000000002e+01 2.1312885187135002e+00 3.0031000000000535e+01 0 0 0
1446 2 8.6134999999999984e+00 7.1042950623783407e-01 3.3246077315513986e+01 0 0 0
1462 2 8.6134999999999984e+00 2.1312885187135002e+00 3.3246077315513986e+01 0 0 0
1463 2 9.8440000000000012e+00 2.8417180249513332e+00 3.3246077315513986e+01 0 0 0
1464 2 9.8440000000000012e+00 0.0000000000000000e+00 3.3246077315513986e+01 0 0 0
1465 2 1.1074500000000002e+01 7.1042950623783330e-01 3.3246077315513986e+01 0 0 0
1485 2 1.1074500000000002e+01 2.1312885187135002e+00 3.3246077315513986e+01 0 0 0
1252 2 0.0000000000000000e+00 5.6834360499026637e+00 3.0031000000000535e+01 0 0 0
1253 2 0.0000000000000000e+00 4.2625770374269996e+00 3.0031000000000535e+01 0 0 0
1260 2 1.2305000000000001e+00 7.8147245686161639e+00 3.0031000000000535e+01 0 0 0
1261 2 1.2305000000000001e+00 6.3938655561404980e+00 3.0031000000000535e+01 0 0 0
1262 2 2.4610000000000003e+00 5.6834360499026637e+00 3.0031000000000535e+01 0 0 0
1263 2 2.4610000000000003e+00 4.2625770374269996e+00 3.0031000000000535e+01 0 0 0
1274 2 3.6914999999999996e+00 7.8147245686161639e+00 3.0031000000000535e+01 0 0 0
1275 2 3.6914999999999996e+00 6.3938655561404980e+00 3.0031000000000535e+01 0 0 0
1414 2 0.0000000000000000e+00 7.1042950623783341e+00 3.3246077315513986e+01 0 0 0
1415 2 0.0000000000000000e+00 4.2625770374269996e+00 3.3246077315513986e+01 0 0 0
1416 2 1.2305000000000001e+00 4.9730065436648339e+00 3.3246077315513986e+01 0 0 0
1424 2 1.2305000000000001e+00 6.3938655561404980e+00 3.3246077315513986e+01 0 0 0
1425 2 2.4610000000000003e+00 7.1042950623783341e+00 3.3246077315513986e+01 0 0 0
1426 2 2.4610000000000003e+00 4.2625770374269996e+00 3.3246077315513986e+01 0 0 0
1427 2 3.6914999999999996e+00 4.9730065436648339e+00 3.3246077315513986e+01 0 0 0
1439 2 3.6914999999999996e+00 6.3938655561404980e+00 3.3246077315513986e+01 0 0 0
1276 2 4.9220000000000006e+00 5.6834360499026637e+00 3.0031000000000535e+01 0 0 0
1277 2 4.9220000000000006e+00 4.2625770374269978e+00 3.0031000000000535e+01 0 0 0
1292 2 6.1524999999999999e+00 7.8147245686161639e+00 3.0031000000000535e+01 0 0 0
1293 2 6.1524999999999999e+00 6.3938655561404980e+00 3.0031000000000535e+01 0 0 0
1294 2 7.3829999999999991e+00 5.6834360499026637e+00 3.0031000000000535e+01 0 0 0
1295 2 7.3829999999999991e+00 4.2625770374269996e+00 3.0031000000000535e+01 0 0 0
1440 2 4.9220000000000006e+00 7.1042950623783341e+00 3.3246077315513986e+01 0 0 0
1441 2 4.9220000000000006e+00 4.2625770374269978e+00 3.3246077315513986e+01 0 0 0
1442 2 6.1524999999999999e+00 4.9730065436648339e+00 3.3246077315513986e+01 0 0 0
1458 2 6.1524999999999999e+00 6.3938655561404980e+00 3.3246077315513986e+01 0 0 0
1459 2 7.3830000000000009e+00 7.1042950623783341e+00 3.3246077315513986e+01 0 0 0
1460 2 7.3829999999999991e+00 4.2625770374269996e+00 3.3246077315513986e+01 0 0 0
1314 2 8.6135000000000002e+00 7.8147245686161639e+00 3.0031000000000535e+01 0 0 0
1315 2 8.6135000000000002e+00 6.3938655561404980e+00 3.0031000000000535e+01 0 0 0
1316 2 9.8440000000000012e+00 5.6834360499026637e+00 3.0031000000000535e+01 0 0 0
1317 2 9.8440000000000012e+00 4.2625770374270004e+00 3.0031000000000535e+01 0 0 0
1337 2 1.1074500000000002e+01 7.8147245686161639e+00 3.0031000000000535e+01 0 0 0
1338 2 1.1074500000000002e+01 6.3938655561404980e+00 3.0031000000000535e+01 0 0 0
1461 2 8.6135000000000002e+00 4.9730065436648339e+00 3.3246077315513986e+01 0 0 0
1481 2 8.6135000000000002e+00 6.3938655561404980e+00 3.3246077315513986e+01 0 0 0
1482 2 9.8440000000000012e+00 7.1042950623783341e+00 3.3246077315513986e+01 0 0 0
1483 2 9.8440000000000012e+00 4.2625770374270004e+00 3.3246077315513986e+01 0 0 0
1484 2 1.1074500000000002e+01 4.9730065436648339e+00 3.3246077315513986e+01 0 0 0
1505 2 1.1074500000000002e+01 6.3938655561404980e+00 3.3246077315513986e+01 0 0 0
1258 2 0.0000000000000000e+00 9.9460130873296642e+00 3.0031000000000535e+01 0 0 0
1259 2 0.0000000000000000e+00 8.5251540748539991e+00 3.0031000000000535e+01 0 0 0
1270 2 1.2305000000000001e+00 1.2077301606043163e+01 3.0031000000000535e+01 0 0 0
1271 2 1.2305000000000001e+00 1.0656442593567498e+01 3.0031000000000535e+01 0 0 0
1272 2 2.4610000000000003e+00 9.9460130873296642e+00 3.0031000000000535e+01 0 0 0
1273 2 2.4610000000000003e+00 8.5251540748539991e+00 3.0031000000000535e+01 0 0 0
1288 2 3.6914999999999996e+00 1.2077301606043163e+01 3.0031000000000535e+01 0 0 0
1289 2 3.6914999999999996e+00 1.0656442593567499e+01 3.0031000000000535e+01 0 0 0
1421 2 0.0000000000000000e+00 1.1366872099805333e+01 3.3246077315513986e+01 0 0 0
1422 2 0.0000000000000000e+00 8.5251540748539991e+00 3.3246077315513986e+01 0 0 0
1423 2 1.2305000000000001e+00 9.2355835810918343e+00 3.3246077315513986e+01 0 0 0
1435 2 1.2305000000000001e+00 1.0656442593567498e+01 3.3246077315513986e+01 0 0 0
1436 2 2.4610000000000003e+00 1.1366872099805333e+01 3.3246077315513986e+01 0 0 0
1437 2 2.4610000000000003e+00 8.5251540748539991e+00 3.3246077315513986e+01 0 0 0
1438 2 3.6915000000000004e+00 9.2355835810918343e+00 3.3246077315513986e+01 0 0 0
1454 2 3.6914999999999996e+00 1.0656442593567499e+01 3.3246077315513986e+01 0 0 0
1290 2 4.9220000000000006e+00 9.9460130873296642e+00 3.0031000000000535e+01 0 0 0
1291 2 4.9220000000000006e+00 8.5251540748539991e+00 3.0031000000000535e+01 0 0 0
1310 2 6.1524999999999999e+00 1.2077301606043163e+01 3.0031000000000535e+01 0 0 0
1311 2 6.1524999999999999e+00 1.0656442593567499e+01 3.0031000000000535e+01 0 0 0
1312 2 7.3830000000000009e+00 9.9460130873296642e+00 3.0031000000000535e+01 0 0 0
1313 2 7.3830000000000009e+00 8.5251540748539991e+00 3.0031000000000535e+01 0 0 0
1455 2 4.9220000000000006e+00 1.1366872099805333e+01 3.3246077315513986e+01 0 0 0
1456 2 4.9220000000000006e+00 8.5251540748539991e+00 3.3246077315513986e+01 0 0 0
1457 2 6.1524999999999999e+00 9.2355835810918343e+00 3.3246077315513986e+01 0 0 0
1477 2 6.1524999999999999e+00 1.0656442593567499e+01 3.3246077315513986e+01 0 0 0
1478 2 7.3829999999999991e+00 1.1366872099805333e+01 3.3246077315513986e+01 0 0 0
1479 2 7.3830000000000009e+00 8.5251540748539991e+00 3.3246077315513986e+01 0 0 0
1333 2 8.6135000000000002e+00 1.2077301606043163e+01 3.0031000000000535e+01 0 0 0
1334 2 8.6134999999999984e+00 1.0656442593567498e+01 3.0031000000000535e+01 0 0 0
1335 2 9.8440000000000012e+00 9.9460130873296642e+00 3.0031000000000535e+01 0 0 0
1336 2 9.8440000000000012e+00 8.5251540748539956e+00 3.0031000000000535e+01 0 0 0
1356 2 1.1074500000000002e+01 1.2077301606043163e+01 3.0031000000000535e+01 0 0 0
1357 2 1.1074500000000002e+01 1.0656442593567498e+01 3.0031000000000535e+01 0 0 0
1480 2 8.6134999999999984e+00 9.2355835810918343e+00 3.3246077315513986e+01 0 0 0
1501 2 8.6134999999999984e+00 1.0656442593567498e+01 3.3246077315513986e+01 0 0 0
1502 2 9.8440000000000012e+00 1.1366872099805333e+01 3.3246077315513986e+01 0 0 0
1503 2 9.8440000000000012e+00 8.5251540748539956e+00 3.3246077315513986e+01 0 0 0
1504 2 1.1074500000000002e+01 9.2355835810918343e+00 3.3246077315513986e+01 0 0 0
1525 2 1.1074500000000002e+01 1.0656442593567498e+01 3.3246077315513986e+01 0 0 0
1526 2 1.2304999999999998e+01 1.1366872099805333e+01 3.3246077315513986e+01 0 0 0
5215 1 3.6486515925219298e+00 9.5919124980702064e-01 3.5693904696136514e+01 2 2 0
2657 1 8.5377839031931515e+00 1.0553166305188270e+01 3.8618921714491719e+01 0 1 0
2853 1 7.9159967318974696e+00 2.6223498290287589e-01 3.5943850009493303e+01 0 1 0
244 1 8.6523073459323783e+00 2.6393599166173547e+00 3.5573950825438061e+01 1 1 -1
6159 1 9.1331167685584873e+00 9.3905097843114085e+00 4.3095271097494958e+01 1 0 0
1048 1 8.2413328343257870e+00 4.1166474001604971e+00 3.8409021480522966e+01 2 0 0
965 1 4.0063073451855180e+00 3.5744536885486711e+00 3.6281253325230281e+01 -1 1 0
4515 1 1.0971761504642089e+01 3.6630068403082396e+00 3.5813166616795883e+01 -1 2 -1
5976 1 7.4257473741134641e+00 7.1627997384827546e+00 4.2872335568149680e+01 0 0 0
6029 1 2.2936203795616663e+00 5.4171898564007783e+00 3.5755996651423601e+01 1 0 0
1178 1 1.6781847229077682e+00 6.6868463551298412e+00 4.0832698997413772e+01 0 3 0
4116 1 6.5593642494889233e+00 4.2366408230379839e+00 3.5590258602174941e+01 1 0 0
2659 1 9.5038084107948109e+00 7.9023844437111439e+00 3.8613108389045465e+01 0 -1 0
6139 1 3.8861957984402955e+00 7.4469113994994425e+00 3.6797791239148665e+01 0 1 0
2570 1 1.1170881140843720e+01 6.3038043742468748e+00 3.6653087037566479e+01 0 1 0
497 1 9.2149070179024868e+00 7.8368773880709499e+00 3.5246040301507279e+01 -1 0 -1
3379 1 2.9774110260022004e+00 1.0257315732091133e+01 3.6282614821176026e+01 1 0 0
4243 1 1.6584413117007932e-01 8.6564601449194694e+00 3.8868115833836626e+01 1 1 0
3518 1 2.2798857375123598e+00 1.0736726610036802e+01 3.9136498234007092e+01 2 0 -1
227 1 1.0514724237247342e+00 8.8082325121877136e-01 3.5913888270349403e+01 1 0 -1
1200 1 4.9461211572486654e+00 1.0370006177396341e+01 4.0737478590659109e+01 1 0 0
250 1 6.3835489360193227e+00 7.1221125553644118e+00 3.5844229052565424e+01 1 0 -1
4223 1 5.7942362001746894e-01 7.9283497616968823e+00 4.3199325446207553e+01 1 -1 -1
2673 1 9.4289293272652337e+00 1.0456827484208569e+01 3.5682920725800656e+01 0 0 0
1115 1 5.5751390066611695e+00 1.1520757331773479e+01 4.3285216065822581e+01 0 1 -1
3662 1 1.8810193889796316e+00 3.7879126670335039e+00 4.0355216593094838e+01 0 -1 -1
285 1 2.8995156592889852e+00 2.5565076416162991e+00 4.2432901962690323e+01 1 0 -1
4203 1 1.2245806901335378e+01 7.1772612267117530e+00 4.4122432056057690e+01 -1 1 0
3538 1 4.4396218965047316e+00 3.8143548030297638e+00 3.8869005266312215e+01 0 1 -1
5871 1 6.5205971889147634e+00 2.5891361819861021e+00 3.9766506454990221e+01 0 1 0
470 1 1.1693120804147025e+01 8.8436605431198920e+00 4.2277312789327524e+01 0 0 -1
414 1 7.2874245216001547e+00 3.9382500303836587e+00 4.2049327285463207e+01 0 0 -1
2618 1 4.4742733960659855e+00 1.0775585528868412e+00 4.1421845758243208e+01 -1 0 0
1101 1 5.8788470789277651e+00 1.1895157047478225e+01 3.8661355471260123e+01 1 1 0
3581 1 6.9763018583452654e+00 6.5037469346260970e+00 3.8882389146557514e+01 0 0 -1
3583 1 1.2293703656372589e+01 1.0097138344112146e+01 3.6232698547716907e+01 1 -1 -1
5804 1 4.2207798101378176e+00 6.4204344303342582e+00 3.9352233528131805e+01 1 1 0
5289 1 1.0802145972920055e+01 1.4513971219006021e+00 4.1946935491543442e+01 0 1 -1
2514 1 3.4080349807657457e+00 6.3811589543056551e+00 4.3435019634301241e+01 0 2 0
1160 1 1.1354695238131851e+00 1.0765344049835064e+00 4.4074872137431427e+01 2 2 0
5182 1 6.1355718167638456e+00 6.0694535330058808e-02 4.3602813512059186e+01 1 0 0
5382 1 4.9167113891971272e+00 4.1961523361377706e+00 4.3715237322358078e+01 1 1 -1
5837 1 9.6620276460250256e+00 3.5402390077686658e+00 4.3674270718600653e+01 1 0 0
5319 1 9.5013118700630574e+00 6.3800916221814701e+00 4.1295344588298519e+01 0 1 -1
2643 1 5.0629204086509851e+00 7.8234157161901674e+00 4.1774315977434071e+01 2 0 0
6188 1 1.0471446131503651e+01 3.8804356425401205e+00 3.9789127654734429e+01 0 1 0
5891 1 5.6264879712206894e-01 1.0753279701443844e+01 4.3565023941001968e+01 0 0 -1
4448 1 1.1637571235805598e+01 1.7449661742887710e+00 3.8349874657411078e+01 0 0 0
5396 1 4.9000197954479923e+00 5.4690876594539430e+00 4.8882904363460852e+01 1 -1 -1
5091 1 9.4276209653851026e+00 1.3248897204123886e+00 4.5241303451851422e+01 0 0 -1
2616 1 8.2207271161911013e+00 1.1835621813394610e+01 5.0305281083630675e+01 0 0 0
4320 1 6.8362975790458975e+00 1.0414077893416609e+00 4.6479910236454174e+01 2 1 -1