LAMMPS data file via write_data, version 16 Mar 2018, timestep = 6000000

6736 atoms
2 atom types

0.0000000000000000e+00 4.9219999999999999e+01 xlo xhi
0.0000000000000000e+00 4.9019635930410494e+01 ylo yhi
5.6910274472676647e-01 5.9492897255272595e+01 zlo zhi

Masses

1 18.015
2 12.01

Atoms # atomic

5201 1 3.5750503796418349e+00 1.5541245073091765e+00 1.9834181270424536e+00 1 0 0
5835 1 1.9285084079454249e+00 3.7377929163084653e+00 2.8169718910603598e+00 4 -1 1
4138 1 6.0273649159897085e+00 2.0486476533083144e+00 2.6931895034847053e+00 4 -1 1
3698 1 7.6831485322291906e+00 4.5715790876670342e-01 1.0141371346674017e+01 -2 2 0
4519 1 1.0888294528395322e+01 3.3549782981529965e+00 1.8163963564199888e+00 1 3 1
2573 1 1.0403444143930532e+01 8.0529833809617979e-01 2.6770092915727206e+00 1 1 1
3435 1 2.6046101041398408e+00 5.9397369033553185e+00 1.8797361221456661e+00 0 -2 0
49 1 8.3455425765239655e-01 8.0448287616227443e+00 2.8295970102715056e+00 4 -1 1
855 1 6.3575055789424129e+00 4.5348302720492821e+00 1.7730551317170353e+00 -1 0 1
5328 1 4.7667728447713555e+00 6.4189826337498976e+00 2.9333020506002874e+00 2 1 0
5214 1 8.9198991991692491e+00 5.2730297613075985e+00 2.6744551865345509e+00 0 3 0
5244 1 9.3078626661935076e+00 7.7910882398974328e+00 1.9216153317579336e+00 -1 1 1
751 1 1.5608933364425090e+00 1.0370469590789776e+01 2.0926952834393115e+00 0 -3 0
5578 1 3.9801979100578726e+00 1.0904230353690650e+01 3.0213482661369602e+00 3 0 0
439 1 5.7191962692865701e+00 8.8411400301115481e+00 2.0497996570958010e+00 2 -2 0
3596 1 7.9436598490255177e+00 9.6249298682635267e+00 3.2358074863897852e+00 1 0 0
2794 1 5.5798185642866862e+00 9.0422720576825277e+00 1.2793611359279154e+01 1 -1 1
5273 1 1.6669816319130981e+00 1.0547860624733156e+01 1.2670859184201706e+01 1 -2 0
1173 1 2.0511102562627483e+00 3.4094317437626067e+00 5.4685403860982280e+00 1 1 1
123 1 9.8452443697832659e-01 1.2269074783606666e+00 9.1565182082550649e+00 -1 -2 0
6090 1 1.1810452001524065e+00 1.1021917421304646e+00 6.5262894497307053e+00 2 0 1
4348 1 3.3824818143646072e+00 2.0931488954201583e+00 1.0137639371874355e+01 -5 1 1
975 1 6.8029449586001489e-02 5.3225074711957383e+00 9.3960605688533398e+00 2 0 0
6047 1 6.2778367296719475e+00 2.1889425782586622e+00 5.4075406588244004e+00 -2 2 0
1032 1 8.7442053101177368e+00 3.1482873436661882e+00 6.4303623639673742e+00 0 1 1
1712 1 8.6785803458202739e+00 3.0069184382130376e+00 9.2839331302414045e+00 0 1 1
5200 1 1.0318358895442765e+01 1.0883609926842217e+00 5.5701776858183276e+00 1 -1 0
2565 1 1.1105499783496214e+01 3.3688991406874069e+00 1.0029385059409153e+01 3 -1 1
4113 1 5.6407672084152090e+00 8.9075699725888544e+00 1.0094585599412456e+01 -1 0 0
1077 1 8.1581387777094818e+00 9.6874446945105142e+00 1.3586049862995280e+01 6 0 1
1863 1 4.3318971245708742e+00 3.9684339258900221e+00 6.4449283998690667e+00 4 2 0
3668 1 7.0512010400413838e-01 7.8989549447084135e+00 5.6012445380739830e+00 0 3 0
6112 1 2.5095919368103412e+00 5.7011184243000841e+00 1.0292376406768287e+01 1 5 0
3484 1 6.1673240187914837e+00 1.1623289800003491e+01 6.5330817101309293e+00 1 1 0
2174 1 4.5857724885131583e+00 4.4499767728584194e+00 9.1185138157853505e+00 0 -1 0
255 1 4.6032798406524087e+00 6.5789273656497382e+00 5.4587825899461446e+00 4 2 0
4595 1 7.2199866537024144e+00 7.1382125022110570e+00 6.5155670625439317e+00 1 1 0
5572 1 7.5234379585333722e+00 7.4683234964538006e+00 9.1085065665434364e+00 5 2 0
3380 1 7.1128863410702756e+00 4.8950615662209387e+00 1.0005658768073678e+01 0 0 1
157 1 9.0766695239272366e+00 5.4445269114933881e+00 5.1649481354141837e+00 -4 1 0
2658 1 1.1200701074121438e+01 6.2184251346203121e+00 6.3597780676498870e+00 0 -3 1
5411 1 1.0060612441904070e+01 7.6911493270644140e+00 1.0059919728859617e+01 1 4 0
152 1 1.1674219131744154e+01 5.7902191728473378e+00 9.0116077307347737e+00 2 2 0
5258 1 3.8328538448056242e+00 1.1064644771927624e+01 5.5759775813441257e+00 1 -2 0
909 1 3.3423798925446020e+00 8.2576137259470812e+00 9.3670372543129172e+00 2 1 1
5509 1 2.9944739510678042e+00 8.5422782500977128e+00 6.6582327397509875e+00 3 1 0
131 1 1.7478356338195136e+00 1.0365760858805547e+01 1.0149766630029802e+01 -1 0 0
6285 1 7.9910613288692769e+00 9.6453301744924644e+00 5.8653929219878069e+00 1 0 1
1221 1 8.5823379452931938e+00 1.1992282427557781e+01 1.8897588122661026e+00 1 -2 1
3819 1 6.3662412774333976e+00 1.1159176594626231e+01 9.2238434604087978e+00 0 -4 0
5820 1 1.0444373428272867e+01 1.0278776236197382e+01 6.3985470106509110e+00 0 0 1
2424 1 1.0560057058518618e+01 1.0207592202773274e+01 9.1329618304578606e+00 0 2 1
4449 1 7.7391190664039353e+00 4.4328738312546238e-02 1.2814825980986724e+01 0 2 1
5435 1 3.9266937580621497e+00 1.0767583023697926e+01 1.3794802150531410e+01 0 -2 0
2579 1 2.4830505318001159e+00 3.3222225635186997e+00 1.3706183623460573e+01 6 1 1
5146 1 3.8833638294290265e+00 1.5419289772032767e+00 1.2825023468020252e+01 2 2 0
6176 1 5.2278132027536790e+00 9.5197297643605155e-02 9.1717740286434974e+00 0 3 1
1933 1 6.1337141592574804e+00 2.0197964986230912e+00 1.3602329514523841e+01 1 0 0
2164 1 1.0132489027322748e+01 3.5467401449683850e-01 1.3668038873691211e+01 0 1 1
2789 1 1.0674238962297805e+01 3.1445572344859101e+00 1.2686203917333478e+01 0 2 1
930 1 2.8417131869161283e+00 6.0576343526097221e+00 1.2840871551959738e+01 1 -2 1
2490 1 1.2238011486249760e+00 8.1307475398438580e+00 1.3587321408715050e+01 1 -2 1
1042 1 5.2162563175939205e+00 6.5456195046605137e+00 1.3772176077928565e+01 -1 2 1
4121 1 6.5540051752504738e+00 4.2916819428927324e+00 1.2599711087383829e+01 0 0 1
2056 1 9.7344728623640115e+00 7.7838732363135437e+00 1.2824528950207331e+01 2 -2 1
4156 1 9.0979970963790571e+00 4.9820729783418285e+00 1.3418817830591891e+01 2 1 1
5173 1 1.2049920114374572e+01 8.1793051502217988e+00 2.9819471004782421e+00 5 2 1
2804 1 1.2208263887843060e+01 8.5540671508389217e+00 5.5874161328343845e+00 -2 -3 1
5078 1 8.8253699038405884e+00 1.2167445706051636e+01 1.2918646298040635e+01 0 2 0
6253 1 7.9906205343178609e+00 2.2371386115298719e-02 1.9663391430529353e+00 1 -2 1
6230 1 8.9724760324582622e+00 1.1935531805740901e+01 1.0397716822635628e+01 0 0 1
4174 1 1.0180686310812362e-01 5.5486846285383171e+00 6.5590699781718076e+00 0 3 1
342 1 2.0568921755439162e+00 3.7355708293504315e+00 1.6646415067421312e+01 -2 2 0
3740 1 3.5009645329745047e+00 1.5332489890187826e+00 2.0206181647774805e+01 0 0 0
5117 1 3.5051837652290092e+00 1.6969491185977097e+00 1.7407547296276398e+01 0 4 0
2748 1 5.7682644870484729e+00 2.2876665298959438e+00 1.6325308942934399e+01 3 -2 0
3632 1 1.1115440605083214e-01 5.4403897095081373e+00 2.1089810756651975e+01 1 -1 1
601 2 8.6134999999999984e+00 1.0656442593567498e+01 2.6783638505487275e+01 0 0 0
1903 1 9.9133699851757324e+00 5.7244467516134201e-01 1.6327525216193912e+01 1 0 0
3574 1 1.0591368447618098e+01 3.3362645949187639e+00 1.7006551045211424e+01 0 -3 0
393 1 1.0826633320579555e+01 2.9911030844491369e+00 1.9805294983497131e+01 3 0 0
6109 1 2.4002630409388930e+00 6.1923331450842305e+00 1.7393499588900980e+01 5 4 1
6251 1 3.0109525009072566e+00 6.1485015849627427e+00 2.0061791194365416e+01 -3 1 1
3863 1 6.8083883719932681e+00 4.4442158530992373e+00 1.7238518282902849e+01 0 2 0
4271 1 5.1883645957734368e+00 6.5263088355555867e+00 1.6596057978193439e+01 1 0 1
194 1 6.9975101702770655e+00 4.9805775111382173e+00 1.9909868852902065e+01 4 -2 1
12 1 9.0191161931923709e+00 5.3186761880431819e+00 1.6229805241990885e+01 0 -4 0
1789 1 9.9170142772134309e+00 7.5418698467818501e+00 1.7201224544470808e+01 1 -2 1
2081 1 9.6798592548282496e+00 7.6477714386906799e+00 1.9777988582889460e+01 0 5 0
4134 1 7.0411035583609727e-01 8.1645501681528057e+00 1.6223579352487612e+01 2 1 1
6261 1 1.3883525200804518e+00 1.0636284890862468e+01 1.7490175662675462e+01 1 1 1
2706 1 1.4209010390093519e+00 1.0555896072373848e+01 2.0252847054064283e+01 -3 -3 0
323 1 4.0233047182086290e+00 1.1002947002161875e+01 1.6578406865207480e+01 1 3 0
951 1 5.8628702194912323e+00 9.1819872571555621e+00 1.7240618172386238e+01 -2 -2 1
1219 1 8.3094420359591048e+00 9.5784070838562734e+00 1.6529549305276227e+01 1 0 0
604 2 1.1074500000000002e+01 9.2355835810918343e+00 2.6783638505487275e+01 0 0 0
625 2 1.1074500000000002e+01 1.0656442593567498e+01 2.6783638505487275e+01 0 0 0
295 1 1.0736598546996543e+00 8.6387975565461639e-01 2.1216419283823626e+01 0 1 0
1834 1 2.1101174093687050e+00 3.3681331056280395e+00 2.4507374716441849e+01 4 2 0
471 1 1.4089919258265138e+00 8.9353754666146701e-01 2.3853155118796810e+01 5 -3 0
4436 1 6.8726066431618982e+00 2.0918795075665875e+00 2.4256393802983244e+01 3 2 1
1243 1 1.1565370378418324e+01 8.0514757557042382e-01 2.3184064681178647e+01 6 -1 1
1855 1 8.3550474492110069e+00 2.8590563084692273e+00 2.1180715855947259e+01 -2 0 0
754 1 9.7158346761544827e+00 2.5100922879204575e+00 2.3873044417518106e+01 0 0 1
6277 1 6.7087372507903229e+00 1.1443527831323530e+01 2.3353738689886846e+01 4 4 1
3811 1 1.4363922298560701e+00 7.7332842476098129e+00 2.4665202230341517e+01 1 1 0
1175 1 3.6049875187441993e-01 5.3001896617638504e+00 2.3708374015404754e+01 -2 -3 1
5351 1 4.6000411725969341e+00 4.0618422506462597e+00 2.1120574138963025e+01 0 3 0
74 1 4.8005342740531818e+00 3.8310763841758866e+00 2.3751264667418582e+01 1 0 0
2443 1 7.4257475681665568e+00 7.4115682555112521e+00 2.0971384962044869e+01 -3 -1 1
5151 1 5.7710737120799527e+00 6.6227534270025563e+00 2.4113531725886105e+01 0 -5 0
134 1 8.4088392587166378e+00 6.9992430988168426e+00 2.3513709599646596e+01 -1 1 1
3753 1 1.1124940312422551e+01 5.5642119119251650e+00 2.0712194053257921e+01 0 -2 0
3458 1 1.0608469146193446e+01 5.3817591865657004e+00 2.3565589247315820e+01 3 -1 1
4614 1 3.8021250333297356e+00 8.5216550796961830e+00 2.3633016576112990e+01 -1 -1 1
1956 1 3.3590753541215577e+00 8.7607082854960652e+00 2.0884855588035389e+01 0 -1 0
1836 1 5.7328993144918954e+00 9.2354153070155167e+00 1.9735542508528926e+01 1 -1 1
324 1 3.9704129563705122e+00 1.1016301890460106e+01 2.4141698928183438e+01 -1 -5 0
4562 1 6.4810256061390410e+00 1.1645382460405981e+01 2.0768089565243528e+01 2 1 0
4513 1 1.1508822342863233e+01 1.0181698353626622e+01 2.3947233745863649e+01 5 -1 0
5095 1 8.6981443979082993e+00 9.6771764515584344e+00 2.3693585024413117e+01 2 2 1
5374 1 1.0254027426585965e+01 1.0028868728157757e+01 2.1249761055463175e+01 -2 -1 0
511 2 0.0000000000000000e+00 2.8417180249513345e+00 2.6783638505487275e+01 0 0 0
512 2 0.0000000000000000e+00 0.0000000000000000e+00 2.6783638505487275e+01 0 0 0
513 2 1.2305000000000001e+00 7.1042950623783474e-01 2.6783638505487275e+01 0 0 0
517 2 1.2305000000000001e+00 2.1312885187134998e+00 2.6783638505487275e+01 0 0 0
518 2 2.4610000000000003e+00 2.8417180249513345e+00 2.6783638505487275e+01 0 0 0
519 2 2.4610000000000003e+00 0.0000000000000000e+00 2.6783638505487275e+01 0 0 0
520 2 3.6915000000000004e+00 7.1042950623783474e-01 2.6783638505487275e+01 0 0 0
528 2 3.6914999999999996e+00 2.1312885187134998e+00 2.6783638505487275e+01 0 0 0
529 2 4.9220000000000006e+00 2.8417180249513332e+00 2.6783638505487275e+01 0 0 0
530 2 4.9220000000000006e+00 0.0000000000000000e+00 2.6783638505487275e+01 0 0 0
531 2 6.1524999999999999e+00 7.1042950623783407e-01 2.6783638505487275e+01 0 0 0
543 2 6.1524999999999999e+00 2.1312885187134989e+00 2.6783638505487275e+01 0 0 0
544 2 7.3829999999999991e+00 2.8417180249513345e+00 2.6783638505487275e+01 0 0 0
545 2 7.3829999999999991e+00 0.0000000000000000e+00 2.6783638505487275e+01 0 0 0
546 2 8.6134999999999984e+00 7.1042950623783407e-01 2.6783638505487275e+01 0 0 0
562 2 8.6134999999999984e+00 2.1312885187135002e+00 2.6783638505487275e+01 0 0 0
563 2 9.8440000000000012e+00 2.8417180249513332e+00 2.6783638505487275e+01 0 0 0
564 2 9.8440000000000012e+00 0.0000000000000000e+00 2.6783638505487275e+01 0 0 0
565 2 1.1074500000000002e+01 7.1042950623783330e-01 2.6783638505487275e+01 0 0 0
585 2 1.1074500000000002e+01 2.1312885187135002e+00 2.6783638505487275e+01 0 0 0
514 2 0.0000000000000000e+00 7.1042950623783341e+00 2.6783638505487275e+01 0 0 0
515 2 0.0000000000000000e+00 4.2625770374269996e+00 2.6783638505487275e+01 0 0 0
516 2 1.2305000000000001e+00 4.9730065436648339e+00 2.6783638505487275e+01 0 0 0
524 2 1.2305000000000001e+00 6.3938655561404980e+00 2.6783638505487275e+01 0 0 0
525 2 2.4610000000000003e+00 7.1042950623783341e+00 2.6783638505487275e+01 0 0 0
526 2 2.4610000000000003e+00 4.2625770374269996e+00 2.6783638505487275e+01 0 0 0
527 2 3.6914999999999996e+00 4.9730065436648339e+00 2.6783638505487275e+01 0 0 0
539 2 3.6914999999999996e+00 6.3938655561404980e+00 2.6783638505487275e+01 0 0 0
540 2 4.9220000000000006e+00 7.1042950623783341e+00 2.6783638505487275e+01 0 0 0
541 2 4.9220000000000006e+00 4.2625770374269978e+00 2.6783638505487275e+01 0 0 0
542 2 6.1524999999999999e+00 4.9730065436648339e+00 2.6783638505487275e+01 0 0 0
558 2 6.1524999999999999e+00 6.3938655561404980e+00 2.6783638505487275e+01 0 0 0
559 2 7.3830000000000009e+00 7.1042950623783341e+00 2.6783638505487275e+01 0 0 0
560 2 7.3829999999999991e+00 4.2625770374269996e+00 2.6783638505487275e+01 0 0 0
561 2 8.6135000000000002e+00 4.9730065436648339e+00 2.6783638505487275e+01 0 0 0
581 2 8.6135000000000002e+00 6.3938655561404980e+00 2.6783638505487275e+01 0 0 0
582 2 9.8440000000000012e+00 7.1042950623783341e+00 2.6783638505487275e+01 0 0 0
583 2 9.8440000000000012e+00 4.2625770374270004e+00 2.6783638505487275e+01 0 0 0
584 2 1.1074500000000002e+01 4.9730065436648339e+00 2.6783638505487275e+01 0 0 0
605 2 1.1074500000000002e+01 6.3938655561404980e+00 2.6783638505487275e+01 0 0 0
536 2 2.4610000000000003e+00 1.1366872099805333e+01 2.6783638505487275e+01 0 0 0
535 2 1.2305000000000001e+00 1.0656442593567498e+01 2.6783638505487275e+01 0 0 0
537 2 2.4610000000000003e+00 8.5251540748539991e+00 2.6783638505487275e+01 0 0 0
554 2 3.6914999999999996e+00 1.0656442593567499e+01 2.6783638505487275e+01 0 0 0
538 2 3.6915000000000004e+00 9.2355835810918343e+00 2.6783638505487275e+01 0 0 0
521 2 0.0000000000000000e+00 1.1366872099805333e+01 2.6783638505487275e+01 0 0 0
522 2 0.0000000000000000e+00 8.5251540748539991e+00 2.6783638505487275e+01 0 0 0
523 2 1.2305000000000001e+00 9.2355835810918343e+00 2.6783638505487275e+01 0 0 0
557 2 6.1524999999999999e+00 9.2355835810918343e+00 2.6783638505487275e+01 0 0 0
579 2 7.3830000000000009e+00 8.5251540748539991e+00 2.6783638505487275e+01 0 0 0
577 2 6.1524999999999999e+00 1.0656442593567499e+01 2.6783638505487275e+01 0 0 0
556 2 4.9220000000000006e+00 8.5251540748539991e+00 2.6783638505487275e+01 0 0 0
555 2 4.9220000000000006e+00 1.1366872099805333e+01 2.6783638505487275e+01 0 0 0
578 2 7.3829999999999991e+00 1.1366872099805333e+01 2.6783638505487275e+01 0 0 0
626 2 1.2304999999999998e+01 1.1366872099805333e+01 2.6783638505487275e+01 0 0 0
580 2 8.6134999999999984e+00 9.2355835810918343e+00 2.6783638505487275e+01 0 0 0
602 2 9.8440000000000012e+00 1.1366872099805333e+01 2.6783638505487275e+01 0 0 0
603 2 9.8440000000000012e+00 8.5251540748539956e+00 2.6783638505487275e+01 0 0 0
2716 1 1.2133248425151450e+01 7.9241701469655956e-01 2.0904433348265336e+01 1 4 0
1976 1 1.2090870784685629e+01 8.6654794364198686e+00 1.6279685979472703e+01 2 0 0
2475 1 7.4799593058567329e+00 3.8381969605779737e-01 1.7446500493709337e+01 2 2 1
3828 1 8.8343957866220393e+00 1.2080585727718406e+01 1.7153156877735544e+01 2 1 0
3550 1 7.8600630353128320e+00 3.2084297921648569e-01 2.0165977848821147e+01 3 -3 0
1250 2 0.0000000000000000e+00 1.4208590124756650e+00 3.0030999999999867e+01 0 0 0
1251 2 0.0000000000000000e+00 0.0000000000000000e+00 3.0030999999999867e+01 0 0 0
1254 2 1.2305000000000001e+00 3.5521475311891644e+00 3.0030999999999867e+01 0 0 0
1255 2 1.2305000000000001e+00 2.1312885187134998e+00 3.0030999999999867e+01 0 0 0
1256 2 2.4610000000000003e+00 1.4208590124756650e+00 3.0030999999999867e+01 0 0 0
1257 2 2.4610000000000003e+00 0.0000000000000000e+00 3.0030999999999867e+01 0 0 0
1264 2 3.6914999999999996e+00 3.5521475311891644e+00 3.0030999999999867e+01 0 0 0
1265 2 3.6914999999999996e+00 2.1312885187134998e+00 3.0030999999999867e+01 0 0 0
1411 2 0.0000000000000000e+00 2.8417180249513345e+00 3.3278361494505845e+01 0 0 0
1412 2 0.0000000000000000e+00 0.0000000000000000e+00 3.3278361494505845e+01 0 0 0
1413 2 1.2305000000000001e+00 7.1042950623783474e-01 3.3278361494505845e+01 0 0 0
1417 2 1.2305000000000001e+00 2.1312885187134998e+00 3.3278361494505845e+01 0 0 0
1418 2 2.4610000000000003e+00 2.8417180249513345e+00 3.3278361494505845e+01 0 0 0
1419 2 2.4610000000000003e+00 0.0000000000000000e+00 3.3278361494505845e+01 0 0 0
1420 2 3.6915000000000004e+00 7.1042950623783474e-01 3.3278361494505845e+01 0 0 0
1428 2 3.6914999999999996e+00 2.1312885187134998e+00 3.3278361494505845e+01 0 0 0
1266 2 4.9220000000000006e+00 1.4208590124756650e+00 3.0030999999999867e+01 0 0 0
1267 2 4.9220000000000006e+00 0.0000000000000000e+00 3.0030999999999867e+01 0 0 0
1278 2 6.1524999999999999e+00 3.5521475311891644e+00 3.0030999999999867e+01 0 0 0
1279 2 6.1524999999999999e+00 2.1312885187134989e+00 3.0030999999999867e+01 0 0 0
1280 2 7.3829999999999991e+00 1.4208590124756659e+00 3.0030999999999867e+01 0 0 0
1281 2 7.3829999999999991e+00 0.0000000000000000e+00 3.0030999999999867e+01 0 0 0
1429 2 4.9220000000000006e+00 2.8417180249513332e+00 3.3278361494505845e+01 0 0 0
1430 2 4.9220000000000006e+00 0.0000000000000000e+00 3.3278361494505845e+01 0 0 0
1431 2 6.1524999999999999e+00 7.1042950623783407e-01 3.3278361494505845e+01 0 0 0
1443 2 6.1524999999999999e+00 2.1312885187134989e+00 3.3278361494505845e+01 0 0 0
1444 2 7.3829999999999991e+00 2.8417180249513345e+00 3.3278361494505845e+01 0 0 0
1445 2 7.3829999999999991e+00 0.0000000000000000e+00 3.3278361494505845e+01 0 0 0
1296 2 8.6134999999999984e+00 3.5521475311891657e+00 3.0030999999999867e+01 0 0 0
1297 2 8.6134999999999984e+00 2.1312885187135002e+00 3.0030999999999867e+01 0 0 0
1298 2 9.8440000000000012e+00 1.4208590124756659e+00 3.0030999999999867e+01 0 0 0
1299 2 9.8440000000000012e+00 0.0000000000000000e+00 3.0030999999999867e+01 0 0 0
1318 2 1.1074500000000002e+01 3.5521475311891644e+00 3.0030999999999867e+01 0 0 0
1319 2 1.1074500000000002e+01 2.1312885187135002e+00 3.0030999999999867e+01 0 0 0
1446 2 8.6134999999999984e+00 7.1042950623783407e-01 3.3278361494505845e+01 0 0 0
1462 2 8.6134999999999984e+00 2.1312885187135002e+00 3.3278361494505845e+01 0 0 0
1463 2 9.8440000000000012e+00 2.8417180249513332e+00 3.3278361494505845e+01 0 0 0
1464 2 9.8440000000000012e+00 0.0000000000000000e+00 3.3278361494505845e+01 0 0 0
1465 2 1.1074500000000002e+01 7.1042950623783330e-01 3.3278361494505845e+01 0 0 0
1485 2 1.1074500000000002e+01 2.1312885187135002e+00 3.3278361494505845e+01 0 0 0
1252 2 0.0000000000000000e+00 5.6834360499026637e+00 3.0030999999999867e+01 0 0 0
1253 2 0.0000000000000000e+00 4.2625770374269996e+00 3.0030999999999867e+01 0 0 0
1260 2 1.2305000000000001e+00 7.8147245686161639e+00 3.0030999999999867e+01 0 0 0
1261 2 1.2305000000000001e+00 6.3938655561404980e+00 3.0030999999999867e+01 0 0 0
1262 2 2.4610000000000003e+00 5.6834360499026637e+00 3.0030999999999867e+01 0 0 0
1263 2 2.4610000000000003e+00 4.2625770374269996e+00 3.0030999999999867e+01 0 0 0
1274 2 3.6914999999999996e+00 7.8147245686161639e+00 3.0030999999999867e+01 0 0 0
1275 2 3.6914999999999996e+00 6.3938655561404980e+00 3.0030999999999867e+01 0 0 0
1414 2 0.0000000000000000e+00 7.1042950623783341e+00 3.3278361494505845e+01 0 0 0
1415 2 0.0000000000000000e+00 4.2625770374269996e+00 3.3278361494505845e+01 0 0 0
1416 2 1.2305000000000001e+00 4.9730065436648339e+00 3.3278361494505845e+01 0 0 0
1424 2 1.2305000000000001e+00 6.3938655561404980e+00 3.3278361494505845e+01 0 0 0
1425 2 2.4610000000000003e+00 7.1042950623783341e+00 3.3278361494505845e+01 0 0 0
1426 2 2.4610000000000003e+00 4.2625770374269996e+00 3.3278361494505845e+01 0 0 0
1427 2 3.6914999999999996e+00 4.9730065436648339e+00 3.3278361494505845e+01 0 0 0
1439 2 3.6914999999999996e+00 6.3938655561404980e+00 3.3278361494505845e+01 0 0 0
1276 2 4.9220000000000006e+00 5.6834360499026637e+00 3.0030999999999867e+01 0 0 0
1277 2 4.9220000000000006e+00 4.2625770374269978e+00 3.0030999999999867e+01 0 0 0
1292 2 6.1524999999999999e+00 7.8147245686161639e+00 3.0030999999999867e+01 0 0 0
1293 2 6.1524999999999999e+00 6.3938655561404980e+00 3.0030999999999867e+01 0 0 0
1294 2 7.3829999999999991e+00 5.6834360499026637e+00 3.0030999999999867e+01 0 0 0
1295 2 7.3829999999999991e+00 4.2625770374269996e+00 3.0030999999999867e+01 0 0 0
1440 2 4.9220000000000006e+00 7.1042950623783341e+00 3.3278361494505845e+01 0 0 0
1441 2 4.9220000000000006e+00 4.2625770374269978e+00 3.3278361494505845e+01 0 0 0
1442 2 6.1524999999999999e+00 4.9730065436648339e+00 3.3278361494505845e+01 0 0 0
1458 2 6.1524999999999999e+00 6.3938655561404980e+00 3.3278361494505845e+01 0 0 0
1459 2 7.3830000000000009e+00 7.1042950623783341e+00 3.3278361494505845e+01 0 0 0
1460 2 7.3829999999999991e+00 4.2625770374269996e+00 3.3278361494505845e+01 0 0 0
1314 2 8.6135000000000002e+00 7.8147245686161639e+00 3.0030999999999867e+01 0 0 0
1315 2 8.6135000000000002e+00 6.3938655561404980e+00 3.0030999999999867e+01 0 0 0
1316 2 9.8440000000000012e+00 5.6834360499026637e+00 3.0030999999999867e+01 0 0 0
1317 2 9.8440000000000012e+00 4.2625770374270004e+00 3.0030999999999867e+01 0 0 0
1337 2 1.1074500000000002e+01 7.8147245686161639e+00 3.0030999999999867e+01 0 0 0
1338 2 1.1074500000000002e+01 6.3938655561404980e+00 3.0030999999999867e+01 0 0 0
1461 2 8.6135000000000002e+00 4.9730065436648339e+00 3.3278361494505845e+01 0 0 0
1481 2 8.6135000000000002e+00 6.3938655561404980e+00 3.3278361494505845e+01 0 0 0
1482 2 9.8440000000000012e+00 7.1042950623783341e+00 3.3278361494505845e+01 0 0 0
1483 2 9.8440000000000012e+00 4.2625770374270004e+00 3.3278361494505845e+01 0 0 0
1484 2 1.1074500000000002e+01 4.9730065436648339e+00 3.3278361494505845e+01 0 0 0
1505 2 1.1074500000000002e+01 6.3938655561404980e+00 3.3278361494505845e+01 0 0 0
1258 2 0.0000000000000000e+00 9.9460130873296642e+00 3.0030999999999867e+01 0 0 0
1259 2 0.0000000000000000e+00 8.5251540748539991e+00 3.0030999999999867e+01 0 0 0
1270 2 1.2305000000000001e+00 1.2077301606043163e+01 3.0030999999999867e+01 0 0 0
1271 2 1.2305000000000001e+00 1.0656442593567498e+01 3.0030999999999867e+01 0 0 0
1272 2 2.4610000000000003e+00 9.9460130873296642e+00 3.0030999999999867e+01 0 0 0
1273 2 2.4610000000000003e+00 8.5251540748539991e+00 3.0030999999999867e+01 0 0 0
1288 2 3.6914999999999996e+00 1.2077301606043163e+01 3.0030999999999867e+01 0 0 0
1289 2 3.6914999999999996e+00 1.0656442593567499e+01 3.0030999999999867e+01 0 0 0
1421 2 0.0000000000000000e+00 1.1366872099805333e+01 3.3278361494505845e+01 0 0 0
1422 2 0.0000000000000000e+00 8.5251540748539991e+00 3.3278361494505845e+01 0 0 0
1423 2 1.2305000000000001e+00 9.2355835810918343e+00 3.3278361494505845e+01 0 0 0
1435 2 1.2305000000000001e+00 1.0656442593567498e+01 3.3278361494505845e+01 0 0 0
1436 2 2.4610000000000003e+00 1.1366872099805333e+01 3.3278361494505845e+01 0 0 0
1437 2 2.4610000000000003e+00 8.5251540748539991e+00 3.3278361494505845e+01 0 0 0
1438 2 3.6915000000000004e+00 9.2355835810918343e+00 3.3278361494505845e+01 0 0 0
1454 2 3.6914999999999996e+00 1.0656442593567499e+01 3.3278361494505845e+01 0 0 0
1290 2 4.9220000000000006e+00 9.9460130873296642e+00 3.0030999999999867e+01 0 0 0
1291 2 4.9220000000000006e+00 8.5251540748539991e+00 3.0030999999999867e+01 0 0 0
1310 2 6.1524999999999999e+00 1.2077301606043163e+01 3.0030999999999867e+01 0 0 0
1311 2 6.1524999999999999e+00 1.0656442593567499e+01 3.0030999999999867e+01 0 0 0
1312 2 7.3830000000000009e+00 9.9460130873296642e+00 3.0030999999999867e+01 0 0 0
1313 2 7.3830000000000009e+00 8.5251540748539991e+00 3.0030999999999867e+01 0 0 0
1455 2 4.9220000000000006e+00 1.1366872099805333e+01 3.3278361494505845e+01 0 0 0
1456 2 4.9220000000000006e+00 8.5251540748539991e+00 3.3278361494505845e+01 0 0 0
1457 2 6.1524999999999999e+00 9.2355835810918343e+00 3.3278361494505845e+01 0 0 0
1477 2 6.1524999999999999e+00 1.0656442593567499e+01 3.3278361494505845e+01 0 0 0
1478 2 7.3829999999999991e+00 1.1366872099805333e+01 3.3278361494505845e+01 0 0 0
1479 2 7.3830000000000009e+00 8.5251540748539991e+00 3.3278361494505845e+01 0 0 0
1333 2 8.6135000000000002e+00 1.2077301606043163e+01 3.0030999999999867e+01 0 0 0
1334 2 8.6134999999999984e+00 1.0656442593567498e+01 3.0030999999999867e+01 0 0 0
1335 2 9.8440000000000012e+00 9.9460130873296642e+00 3.0030999999999867e+01 0 0 0
1336 2 9.8440000000000012e+00 8.5251540748539956e+00 3.0030999999999867e+01 0 0 0
1356 2 1.1074500000000002e+01 1.2077301606043163e+01 3.0030999999999867e+01 0 0 0
1357 2 1.1074500000000002e+01 1.0656442593567498e+01 3.0030999999999867e+01 0 0 0
1480 2 8.6134999999999984e+00 9.2355835810918343e+00 3.3278361494505845e+01 0 0 0
1501 2 8.6134999999999984e+00 1.0656442593567498e+01 3.3278361494505845e+01 0 0 0
1502 2 9.8440000000000012e+00 1.1366872099805333e+01 3.3278361494505845e+01 0 0 0
1503 2 9.8440000000000012e+00 8.5251540748539956e+00 3.3278361494505845e+01 0 0 0
1504 2 1.1074500000000002e+01 9.2355835810918343e+00 3.3278361494505845e+01 0 0 0
1525 2 1.1074500000000002e+01 1.0656442593567498e+01 3.3278361494505845e+01 0 0 0
1526 2 1.2304999999999998e+01 1.1366872099805333e+01 3.3278361494505845e+01 0 0 0
4313 1 3.1546710348378810e+00 2.0312011678723914e+00 3.6211183603319157e+01 5 0 0
2747 1 1.0655629272267548e+00 1.0685952667174938e+00 3.9153627371307550e+01 0 2 0
5930 1 6.6983656997430285e-01 9.9778201561074620e-01 3.6767217297134309e+01 -2 4 -1
1034 1 5.7165662136305162e+00 9.1871644548789053e+00 4.0124766996760030e+01 0 3 0
5197 1 8.4087119207405223e+00 2.8081332392411196e+00 3.6972152891757361e+01 1 2 0
4618 1 8.6362451394290609e+00 2.8574355106010341e+00 3.9478430938473892e+01 -2 0 0
5367 1 1.0703014749465245e+01 3.1991156990203429e+00 3.5723622945184403e+01 3 2 -1
4374 1 4.0752273402352435e+00 4.4956615731170180e+00 3.6987912607898892e+01 -1 2 0
2455 1 2.2814442958270154e+00 5.9106686247027973e+00 3.5799774121877164e+01 -1 -1 -1
5145 1 8.3242274027717951e+00 9.5079927470671830e+00 4.4312737928896937e+01 -1 1 -1
5410 1 4.0700005120280336e+00 4.2853667151306052e+00 3.9467042117983638e+01 -3 3 -1
5104 1 6.7613209730618031e+00 4.6204351137312472e+00 3.5851215786920818e+01 2 3 -1
5310 1 7.2060876856963336e+00 7.4017461746960755e+00 3.6283318906353571e+01 0 2 0
476 1 7.5001441906989710e+00 7.2626108560440814e+00 3.9208626555755387e+01 1 -1 -1
3522 1 1.1405672942073812e+01 5.8549386844862630e+00 3.9102432728796501e+01 0 5 -1
5858 1 1.1426694098351707e+01 5.8361552431218948e+00 3.6338815307909641e+01 -1 -1 0
2120 1 9.5542823062330395e+00 7.6206181388677043e+00 3.5693580146932007e+01 -1 -1 -1
397 1 3.0304934148516991e+00 8.6107477560234571e+00 3.6232476091988246e+01 -2 0 -1
805 1 2.9262902355583287e+00 8.5957110110080013e+00 3.8972402644021813e+01 -3 3 0
296 1 1.3865061207910925e+00 1.0548227576081628e+01 3.5765907798588316e+01 1 3 0
3614 1 1.2283736851409609e+01 8.1254386839224360e+00 4.3637676159939318e+01 1 1 -1
2498 1 5.2767138511490117e+00 9.2614290736262941e+00 3.5857424877359762e+01 0 -1 0
5317 1 6.1848159320447502e+00 1.1873172759954340e+01 3.6871062399995409e+01 2 1 0
4585 1 1.0434898197766028e+01 1.0284881572736932e+01 3.8965892839029166e+01 0 1 0
5502 1 1.0255419722928163e+01 1.0009367867395449e+01 3.6332142820248237e+01 2 2 -1
1757 1 5.9038859443943075e+00 9.3586917696157954e+00 4.2959546091834767e+01 -2 0 -1
4324 1 3.5921720721253823e+00 1.6151263252437151e+00 4.0242845002059809e+01 0 2 0
497 1 3.3664387378139700e+00 1.6439131952735768e+00 4.2885673115438948e+01 0 1 -1
5417 1 6.5587649702978510e+00 1.1654920746715948e+01 3.9382017806400242e+01 -2 0 -1
2861 1 6.1145333460835349e+00 1.8071918806009681e+00 4.3685391110523710e+01 -1 3 0
2019 1 8.9847890508485868e+00 1.2045227657141924e+01 4.3369875752941510e+01 1 1 -1
4401 1 1.1008854659849673e+01 3.5039579959885798e+00 4.0585880096621736e+01 0 4 0
3391 1 9.9804300252070206e+00 4.2291938546607455e-01 4.4272740622732258e+01 -1 1 -1
5832 1 1.0782377334706755e+01 3.0036406989566879e+00 4.3374278315921586e+01 -2 0 -1
874 1 1.7358311760812408e+00 3.7377588476296060e+00 4.3707672648393469e+01 -1 2 0
425 1 2.4543364590581755e+00 6.3444712258916089e+00 4.0375330667835144e+01 -1 2 -1
2088 1 2.7713969546536310e+00 6.0694144510277308e+00 4.3129430147493096e+01 0 -1 -1
2509 1 6.8414363616829208e+00 4.9717037421058086e+00 4.0203556679510612e+01 -1 -2 0
2567 1 6.6551250138926177e+00 4.4938296212135809e+00 4.3121921520948035e+01 -1 -1 0
350 1 5.2828834539530165e+00 6.7388064926534197e+00 4.3910665893909766e+01 3 1 -1
33 1 9.7716892129194868e+00 7.8757342932846930e+00 4.0274992967322746e+01 2 1 -1
5403 1 9.6930355908845591e+00 7.6285698901092767e+00 4.2922637108075705e+01 1 0 -1
4570 1 9.0625423313925157e+00 5.1190657937488258e+00 4.3931882444879193e+01 0 0 0
1974 1 4.1603117843916442e+00 1.0967244844173358e+01 4.4029791942128696e+01 -5 -1 -1
873 1 1.7977994796289984e+00 1.0454619075170180e+01 4.2720368050374219e+01 5 0 0
5450 1 1.1458672758449027e+00 8.0437422402530210e+00 4.3817594854071061e+01 1 0 -1
1195 1 1.5707845631267789e+00 1.0637764670303413e+01 3.9808800141878379e+01 -3 2 0
2514 1 7.6788398413208867e+00 2.9485924647136424e-01 4.0011668643110127e+01 -1 2 0
4226 1 8.5731456514166577e+00 1.1974113652866594e+01 3.5626370517800794e+01 3 2 -1
3553 1 9.0571246020515268e+00 1.1991875147489795e+01 4.0355941307809104e+01 0 0 -1
248 1 1.6119988737344523e-01 5.6344160080760508e+00 3.9102542599005645e+01 2 -2 -1
5189 1 7.1494781337163866e+00 4.9739528169263314e-01 3.6015840808957407e+01 1 0 -1
792 1 4.7987831961673963e+00 3.1684690015110137e-02 3.7025146535774198e+01 1 2 0
2155 1 3.4346139537196292e+00 1.6466252153746799e+00 4.7010318224221649e+01 2 0 -1
5087 1 5.9820707595126361e+00 2.3205887413653770e+00 4.6436100384545526e+01 1 0 0