
# Create simulation box and atoms

read_data data.graphite_substrate
  orthogonal box = (0 0 -0.0398667) to (49.22 49.0196 60.1019)
  4 by 4 by 4 MPI processor grid
  reading atoms ...
  6736 atoms
  reading velocities ...
  6736 velocities
group water type 1
3976 atoms in group water
group graphite type 2
2760 atoms in group graphite

# Define potential

pair_style sw
pair_coeff * * mWC.sw mW C
Reading potential file mWC.sw with DATE: 2019-02-27


# Fix graphite atoms in place

fix 5 graphite setforce 0.0 0.0 0.0
velocity graphite set 0.0 0.0 0.0


# Equilibration of molecular water

# Add velocity/set timestep

velocity	    water create ${TEMP} ${SEED} rot yes dist gaussian
velocity	    water create 225 ${SEED} rot yes dist gaussian
velocity	    water create 225 31169 rot yes dist gaussian
timestep	    5.0

# Define output

compute			1 water msd
compute			3 water temp
thermo	    	50
thermo_style	custom step temp press vol etotal ke pe c_1[4] c_3

# Neighbor lists

neigh_modify    delay 0 every 1 check yes

# Set fixes

fix             1 water momentum 10 linear 1 1 1 rescale
fix             2 water nve
fix             3 water temp/csvr ${TEMP} ${TEMP} 500.0 ${SEED}
fix             3 water temp/csvr 225 ${TEMP} 500.0 ${SEED}
fix             3 water temp/csvr 225 225 500.0 ${SEED}
fix             3 water temp/csvr 225 225 500.0 31169
fix             4 water press/berendsen z ${PRES} ${PRES} 1000.0 modulus 20000
fix             4 water press/berendsen z 1 ${PRES} 1000.0 modulus 20000
fix             4 water press/berendsen z 1 1 1000.0 modulus 20000

# Run 0.5 ns equilibration

dump		    1 all atom 2000 ${DIR}/eq.${NAME}-${TEMP}.dump
dump		    1 all atom 2000 run_19/eq.${NAME}-${TEMP}.dump
dump		    1 all atom 2000 run_19/eq.het_freeze_19-${TEMP}.dump
dump		    1 all atom 2000 run_19/eq.het_freeze_19-225.dump

reset_timestep  0

run	            100000
Neighbor list info ...
  update every 1 steps, delay 0 steps, check yes
  max neighbors/atom: 2000, page size: 100000
  master list distance cutoff = 7.76
  ghost atom cutoff = 7.76
  binsize = 3.88, bins = 13 13 16
  1 neighbor lists, perpetual/occasional/extra = 1 0 0
  (1) pair sw, perpetual
      attributes: full, newton on
      pair build: full/bin/atomonly
      stencil: full/bin/3d
      bin: standard
Per MPI rank memory allocation (min/avg/max) = 4.084 | 4.203 | 4.509 Mbytes
Step Temp Press Volume TotEng KinEng PotEng c_1[4] c_3 
       0     132.7951   -1147.9579    145106.76   -36018.829     2665.962   -38684.791            0          225 
      50     167.1299   -894.45435    144497.59    -36470.89    3355.2591   -39826.149   0.83494037    283.17482 
     100    162.74947   -812.01105     144012.2   -36846.326    3267.3186   -40113.645    1.8993731    275.75288 
     150    158.29227   -1166.2623    143492.07   -37185.392    3177.8368   -40363.229    2.7843359    268.20086 
     200    155.19827   -601.02184    143052.68   -37468.179    3115.7225   -40583.901    3.6065459    262.95857 
     250    149.93983   -665.09366    142740.78   -37719.009    3010.1554   -40729.164    4.3755485      254.049 
     300    147.59542   -770.37455    142377.11   -37891.211    2963.0895   -40854.301    5.1005363    250.07676 
     350    148.54823   -853.69126    142014.69   -38002.646    2982.2179   -40984.864    5.7979847    251.69115 
     400    145.08812   -613.45562     141748.9   -38130.076    2912.7537   -41042.829    6.4149249    245.82856 
     450    144.21421   -356.25088    141574.84   -38258.734    2895.2092   -41153.943    6.9413931    244.34785 
     500    143.73933   -457.94234    141445.99   -38394.741    2885.6756   -41280.417    7.3791641    243.54324 
     550     141.7874   -565.11507    141291.01   -38497.816    2846.4891   -41344.305    7.8001479      240.236 
     600    139.75511   -556.12441    141180.12   -38560.328    2805.6895   -41366.018    8.2584746    236.79262 
     650    139.98444   -342.99372    141079.27   -38624.747    2810.2935   -41435.041    8.6913621    237.18119 
     700    134.99674   -488.61867    140930.17   -38718.143    2710.1616   -41428.305    9.1562999    228.73033 
     750    138.39924   -187.00422    140850.04   -38719.591    2778.4694    -41498.06    9.4898731    234.49532 
     800    140.81398   -404.18049    140879.69   -38816.828    2826.9471   -41643.775    9.8295152    238.58671 
     850    136.43643   -573.88089    140775.45   -38878.489    2739.0644   -41617.553      10.2721    231.16965 
     900    138.86315   -192.55513     140738.3   -38887.658    2787.7827   -41675.441    10.590005    235.28134 
     950    132.23173   -56.212903    140716.38   -38974.287     2654.652   -41628.939    10.871923    224.04546 
    1000    137.49548   -238.22526    140666.21   -38940.605    2760.3258   -41700.931    11.257191    232.96405 
    1050    137.37865   -446.45231    140578.66   -38971.336    2757.9802   -41729.316    11.612508    232.76609 
    1100    135.59536    -267.8345    140550.77   -38971.921    2722.1793     -41694.1    12.000789    229.74459 
    1150    136.03377   -245.39396    140498.47   -38981.806    2730.9808   -41712.787     12.33753    230.48741 
    1200    135.45517   -390.50928     140430.7   -38997.241    2719.3648   -41716.606    12.717465    229.50706 
    1250    134.80538   -453.26927    140417.66    -39058.57    2706.3199    -41764.89      12.9284     228.4061 
    1300     132.3518   -265.81024    140339.53     -39106.5    2657.0625   -41763.563    13.396695     224.2489 
    1350    133.84405   -179.00889    140318.16   -39163.295    2687.0204   -41850.316    13.685831    226.77727 
    1400    133.25398   -297.59165    140254.65   -39154.494    2675.1743   -41829.668    14.010674    225.77749 
    1450      134.744   -251.61184    140225.79   -39192.237    2705.0876   -41897.325    14.308535     228.3021 
    1500    132.57648   -157.15338    140137.38   -39224.731     2661.573   -41886.304    14.478602    224.62958 
    1550    133.63445    7.8281379       140111   -39207.971    2682.8125   -41890.783    14.799991    226.42214 
    1600    133.71507   -96.110664    140059.33   -39195.346    2684.4311   -41879.777    15.102389    226.55874 
    1650    136.10235    146.28995    140083.76   -39182.148    2732.3576   -41914.506     15.32172    230.60361 
    1700    134.83138    67.939441    140116.28   -39247.407    2706.8418   -41954.249    15.608307    228.45014 
    1750    133.82174   -382.31317    140185.96   -39304.688    2686.5726    -41991.26    15.958921    226.73948 
    1800    133.21169   -221.37391    140107.39    -39292.16    2674.3254   -41966.485    16.272961    225.70585 
    1850    132.00942   -283.71902    140106.69   -39252.237    2650.1888   -41902.426    16.491517    223.66879 
    1900    133.61923   -214.52595    140077.42   -39253.557     2682.507   -41936.064    16.911875    226.39636 
    1950    132.46838   -271.15134    140094.47   -39217.078    2659.4029   -41876.481    17.178924    224.44643 
    2000    133.42761   -344.53314     140083.8   -39209.331    2678.6601   -41887.991    17.530268    226.07168 
    2050    130.04468   -197.94533    140033.13   -39263.929    2610.7452   -41874.674    17.902061    220.33985 
    2100    131.89068   -356.90697    140019.38   -39280.862     2647.805   -41928.667    18.058425     223.4676 
    2150    132.29205   -240.01896    140047.59   -39261.234    2655.8629   -41917.097    18.243977    224.14766 
    2200    132.03284   -285.69356    140047.67   -39314.205    2650.6591   -41964.864    18.508077    223.70847 
    2250    132.73244   -262.87556    140019.94   -39291.213    2664.7041   -41955.917    18.792709    224.89384 
    2300    132.07045   -91.798197    140020.78   -39274.866    2651.4141    -41926.28     18.94655     223.7722 
    2350    134.12915   -93.704573    140071.96   -39242.979     2692.744   -41935.723    19.123491    227.26033 
    2400    134.61369   -125.38953    140160.65   -39256.907    2702.4715   -41959.379    19.177462    228.08131 
    2450    133.83859   -203.48876    140171.45   -39266.391    2686.9108   -41953.301    19.512771    226.76802 
    2500    131.59425   -97.234592     140145.3   -39303.609     2641.854   -41945.463    19.800595    222.96535 
    2550    133.87492   -46.375498     140249.4    -39296.69    2687.6403   -41984.331    19.907042    226.82959 
    2600    131.37161   -293.18693    140295.81   -39317.919    2637.3843   -41955.303    20.157784    222.58812 
    2650     136.0909   -341.66445    140287.11   -39314.858    2732.1277   -42046.986     20.55269    230.58421 
    2700     130.2533   -253.02254    140240.96    -39373.68    2614.9335   -41988.613    20.822022    220.69333 
    2750    131.66919   -247.38386    140163.58   -39365.954    2643.3585   -42009.313    21.142813    223.09233 
    2800    130.86228   -228.46086       140166   -39313.941    2627.1591     -41941.1    21.428178    221.72514 
    2850     130.6704   -110.92155    140168.19   -39310.585    2623.3069   -41933.892    21.728203    221.40003 
    2900    132.16044   -222.03821    140216.95   -39309.147    2653.2207   -41962.368    21.959624    223.92467 
    2950     132.9086   -102.08949    140266.78   -39317.803    2668.2406   -41986.044    22.299129    225.19231 
    3000    133.02166   -152.11389    140282.26    -39365.61    2670.5104    -42036.12    22.579669    225.38388 
    3050    132.88355    30.368104    140317.05   -39359.415    2667.7377   -42027.153    22.762385    225.14987 
    3100    134.24617   -313.43516     140363.6   -39332.818    2695.0934   -42027.911    23.066697    227.45861 
    3150    133.14058   -82.072561    140363.61   -39339.467    2672.8978   -42012.365    23.449648    225.58536 
    3200    133.20811   -74.121796    140318.76   -39343.526    2674.2534   -42017.779    23.769076    225.69978 
    3250    132.88214   -107.24415    140365.47   -39361.354    2667.7093   -42029.063    24.112219    225.14747 
    3300    130.90582    38.239996    140330.29   -39332.081    2628.0333   -41960.115    24.303611    221.79892 
    3350    134.18443   -133.87131    140365.49   -39338.249    2693.8538   -42032.103    24.445877    227.35399 
    3400    131.05019    74.467827    140321.26   -39373.475    2630.9316   -42004.407    24.766645    222.04353 
    3450    132.40174   -195.32407    140281.09   -39365.032    2658.0649   -42023.097    25.006402    224.33351 
    3500    131.33003    27.860586    140239.45   -39338.251    2636.5497   -41974.801    25.150693    222.51768 
    3550    134.32745    248.10954    140319.36   -39328.949    2696.7251   -42025.674    25.046285    227.59632 
    3600    134.15282   -7.4902676    140372.51   -39369.522    2693.2192   -42062.742    25.212661    227.30044 
    3650    131.96631   -174.88531    140386.08   -39384.736    2649.3234    -42034.06    25.534885    223.59574 
    3700    133.49766    -347.4237    140327.33   -39421.437    2680.0665   -42101.503    25.804818    226.19038 
    3750    129.22673   -22.746552    140263.63   -39478.613    2594.3243   -42072.937    25.986981    218.95398 
    3800     129.1585   -201.85832    140223.18   -39509.478    2592.9544   -42102.433    26.253086    218.83836 
    3850    129.05443    -77.12888     140194.2   -39532.036    2590.8652   -42122.901    26.464313    218.66203 
    3900    132.68895   -39.807314    140270.75   -39509.088     2663.831   -42172.919    26.845377    224.82015 
    3950    131.25311    -188.1141    140250.07   -39490.524    2635.0054   -42125.529    27.280379    222.38735 
    4000    129.80878    42.719735    140243.67   -39454.824    2606.0093   -42060.833    27.498211    219.94015 
    4050    133.90026    25.417139    140344.48   -39385.489    2688.1488   -42073.638    27.772923    226.87251 
    4100    134.16561   -7.9140345    140406.46   -39394.956    2693.4761   -42088.432    27.943145    227.32212 
    4150    133.04373   -94.316526    140416.62   -39397.605    2670.9533   -42068.558    28.302616    225.42126 
    4200    130.32579   -221.08274    140378.41   -39402.536    2616.3887   -42018.924    28.577766    220.81615 
    4250    131.22154   -297.05262     140363.2   -39436.568    2634.3716    -42070.94    28.875856    222.33385 
    4300    130.28679   -237.11559     140294.2   -39426.094    2615.6059     -42041.7     28.99381    220.75008 
    4350    132.56351   -71.513599    140204.96   -39407.146    2661.3126   -42068.459     29.31576    224.60761 
    4400     128.7336    -136.3916    140257.17   -39482.073    2584.4243   -42066.497    29.606543    218.11844 
    4450    131.24338   -439.95717    140281.63    -39405.75      2634.81    -42040.56    29.812979    222.37086 
    4500     131.5854   -160.01412    140263.62   -39371.791    2641.6764   -42013.468    30.068408    222.95036 
    4550    132.66506   -263.06067    140300.22     -39352.9    2663.3513   -42016.251    30.342021    224.77966 
    4600    137.21278   -317.90381    140271.44   -39343.438    2754.6503   -42098.089    30.448967    232.48505 
    4650     133.1087   -28.609576     140167.3   -39333.825    2672.2577   -42006.083     30.59821    225.53134 
    4700    132.93992   -136.48693    140176.61   -39402.465    2668.8693   -42071.334    30.931025    225.24537 
    4750    133.79478   -185.91823    140182.29   -39362.973    2686.0312   -42049.005    31.225897    226.69379 
    4800    132.07493   -176.64604    140189.01   -39396.586    2651.5039    -42048.09     31.41854    223.77978 
    4850    136.84846   -169.72205    140214.61   -39320.659    2747.3362   -42067.995     31.62184    231.86776 
    4900    130.98765   -177.76893     140167.2   -39393.414     2629.676    -42023.09    31.785871    221.93756 
    4950    131.62339   -234.94636     140159.4   -39406.299    2642.4391   -42048.738    32.057337    223.01473 
    5000    133.95764   -51.448697    140204.45    -39401.21    2689.3009   -42090.511    32.353982    226.96974 
    5050    131.37547   -209.97263    140238.96   -39434.055    2637.4618   -42071.517    32.362188    222.59466 
    5100    132.76972   -129.27449    140305.57   -39389.295    2665.4525   -42054.748    32.569897      224.957 
    5150    134.28207   -272.47175    140321.31   -39314.393    2695.8141   -42010.207    32.766051    227.51944 
    5200     133.9413   -321.92367    140352.38   -39366.126    2688.9729   -42055.099      32.9851    226.94206 
    5250    134.66919   -120.07683    140371.48   -39319.819    2703.5858   -42023.405    33.068627    228.17535 
    5300    134.33981   -45.095717    140399.95   -39283.006    2696.9731   -41979.979    33.274056    227.61726 
    5350    134.41469    -105.5897    140543.29   -39285.759    2698.4765   -41984.236    33.498329    227.74413 
    5400    134.00848      -136.02    140612.41     -39300.5    2690.3216   -41990.821    33.838464    227.05588 
    5450    131.39215   -40.918638    140605.92   -39343.012    2637.7967   -41980.809    34.118068    222.62293 
    5500    133.89962   -152.84073     140609.8   -39377.996    2688.1361   -42066.133    34.346425    226.87143 
    5550    133.90934   -305.19539    140626.53   -39359.727    2688.3313   -42048.059     34.49757    226.88791 
    5600    131.01188   -186.76117    140553.39   -39394.696    2630.1624   -42024.859    34.529539    221.97861 
    5650    132.50251   -306.17353    140580.14   -39404.944     2660.088   -42065.032    34.618307    224.50425 
    5700    133.61065   -216.38365    140632.74   -39435.392    2682.3349   -42117.727    34.914788    226.38183 
    5750     132.9851   -209.03385    140637.18   -39411.095    2669.7764   -42080.872    35.224928    225.32193 
    5800    132.00597   -144.79733     140621.5   -39426.568    2650.1196   -42076.687    35.437111    223.66295 
    5850    132.95755   -153.09498     140608.9   -39430.991    2669.2233   -42100.214    35.726149    225.27525 
    5900    132.23562   -82.547676    140562.49    -39391.56      2654.73    -42046.29    35.904387    224.05205 
    5950     136.4868   -31.113141    140631.37   -39396.226    2740.0756   -42136.302    36.138017    231.25499 
    6000    133.92854   -163.19111    140593.46   -39408.092    2688.7166   -42096.809    36.443635    226.92043 
    6050    131.07985   -17.777782    140570.65   -39415.252    2631.5271   -42046.779    36.646092    222.09379 
    6100    131.06557   -122.90021    140655.44   -39429.642    2631.2403   -42060.882    36.682892    222.06959 
    6150    132.43028   -176.10246     140553.9   -39441.104     2658.638   -42099.742    37.015035    224.38187 
    6200    131.58363   -124.97062    140486.15   -39492.956    2641.6408   -42134.596    37.187082    222.94736 
    6250    133.49552   -213.94383    140484.08   -39459.726    2680.0233    -42139.75    37.227743    226.18674 
    6300    134.46838   -152.74469    140504.24   -39411.935    2699.5543   -42111.489    37.464631     227.8351 
    6350    130.66032   -9.6802388    140515.64   -39430.283    2623.1047   -42053.388    37.846247    221.38296 
    6400    133.27221   -70.080413    140565.97   -39448.977    2675.5404   -42124.518    37.911556    225.80839 
    6450    129.77719   -179.38283    140574.29   -39512.145    2605.3751    -42117.52     37.96983    219.88663 
    6500    131.46428     -194.517    140517.88   -39470.221    2639.2448   -42109.466    38.202736    222.74514 
    6550    132.07463   -94.074982    140504.77   -39441.723    2651.4979   -42093.221    38.515248    223.77927 
    6600    132.83408    -39.38794     140550.1   -39415.126    2666.7446   -42081.871    38.687805    225.06605 
    6650    135.39041   -215.85768    140587.68     -39393.7    2718.0648   -42111.765    38.864065    229.39734 
    6700    133.83616   -258.91758    140553.69   -39420.669     2686.862    -42107.53    39.165754     226.7639 
    6750    133.48994    59.890273    140597.04   -39420.845    2679.9114   -42100.757    39.348842     226.1773 
    6800    134.01865   -230.37941    140654.96   -39481.134    2690.5258   -42171.659     39.41867    227.07312 
    6850    133.39177   -152.83635    140691.96   -39464.399    2677.9407    -42142.34     39.47549    226.01097 
    6900    135.27991   -235.15096    140782.35   -39434.194    2715.8465    -42150.04    39.609798    229.21012 
    6950    131.49705   -82.961575    140812.18   -39501.801    2639.9026   -42141.704    39.942566    222.80066 
    7000    131.63989   -125.55253    140821.16   -39449.514    2642.7702   -42092.284    40.273425    223.04268 
    7050    133.25338   -235.07796    140780.15    -39467.88    2675.1623   -42143.042    40.416716    225.77648 
    7100    132.99503   -5.9250493    140760.05   -39499.956    2669.9757   -42169.932    40.600318    225.33875 
    7150    131.99725   -155.23264    140762.31   -39510.783    2649.9446   -42160.727    40.820561    223.64818 
    7200    133.17476   -35.180968    140805.48   -39519.283    2673.5839   -42192.867    40.963514    225.64327 
    7250    131.32006    -205.8725     140780.6   -39529.786    2636.3494   -42166.135    41.128191    222.50077 
    7300    131.68108   -69.361776    140797.36   -39491.747    2643.5971   -42135.345    41.291515    223.11247 
    7350    134.54413   -183.04601    140844.97   -39518.377    2701.0751   -42219.452    41.341389    227.96345 
    7400    133.89305   -139.39469    140874.93   -39460.741    2688.0041   -42148.745    41.477808     226.8603 
    7450    130.34612   -326.39648     140882.5   -39454.217    2616.7969   -42071.014    41.801618     220.8506 
    7500     134.2002   -271.97237    140839.84   -39458.156    2694.1705   -42152.327    41.928717    227.38072 
    7550    131.87838   -292.76335    140799.43   -39504.521     2647.558   -42152.079    42.132539    223.44676 
    7600    133.11481   -283.80095    140789.48   -39489.405    2672.3803   -42161.785    42.184075    225.54169 
    7650      130.762   -97.193649    140802.99   -39505.833     2625.146   -42130.979    42.214173    221.55524 
    7700    131.27111   -256.10882    140793.21   -39528.653    2635.3667    -42164.02    42.371549    222.41784 
    7750    132.05392   -294.52235    140791.43   -39477.614    2651.0821   -42128.696    42.491223    223.74418 
    7800    133.94678   -287.77851     140795.9   -39507.862    2689.0829   -42196.944    42.532766    226.95134 
    7850    131.41163   -80.392537    140804.66   -39477.495    2638.1877   -42115.683    42.598946    222.65593 
    7900    131.55276   -285.82987    140774.68   -39506.198     2641.021   -42147.219    42.935673    222.89505 
    7950    134.99053   -406.14334    140723.08   -39450.356     2710.037   -42160.393    43.242732    228.71981 
    8000    133.62165   -114.16172    140688.21   -39390.994    2682.5557    -42073.55    43.606518    226.40046 
    8050    132.51918   -210.54634    140676.18   -39418.689    2660.4228   -42079.112    43.890846     224.5325 
    8100     131.7046   -208.20924    140659.26   -39452.617    2644.0695   -42096.686    44.007031    223.15233 
    8150    135.91225   -266.20999    140654.69   -39379.742    2728.5411   -42108.283    44.228198    230.28151 
    8200    135.44946   -229.79617    140622.13   -39411.752    2719.2503   -42131.003    44.478969    229.49739 
    8250    131.85773    -185.4002    140629.55   -39351.951    2647.1435   -41999.094    44.616355    223.41177 
    8300    133.38926   -312.66658    140667.63   -39373.203    2677.8901   -42051.093    44.806518     226.0067 
    8350    132.76842    -227.5713    140684.92   -39397.671    2665.4263   -42063.097    45.044695    224.95479 
    8400    131.27644   -160.74396    140645.96   -39435.971    2635.4738   -42071.445     45.47812    222.42688 
    8450    129.74755     77.09657    140660.75   -39426.925    2604.7801   -42031.705    45.828281    219.83642 
    8500    133.48641   -143.32404    140690.91   -39383.893    2679.8406   -42063.734    46.135379    226.17132 
    8550    134.48628   -164.43566    140735.63    -39368.53    2699.9137   -42068.444     46.21934    227.86544 
    8600    133.83851   -197.29312    140708.07   -39344.304    2686.9092   -42031.213    46.440878    226.76789 
    8650    130.82702    -188.1745    140651.78   -39382.985    2626.4513   -42009.436    46.531922     221.6654 
    8700     131.7225   -424.78826    140601.02   -39362.084    2644.4288   -42006.513    46.864747    223.18266 
    8750    134.31969   -125.70517    140595.32   -39347.542    2696.5693   -42044.111    46.891422    227.58318 
    8800    134.36912   -164.56721    140639.69    -39379.75    2697.5617   -42077.311    46.863614    227.66693 
    8850    132.04355   -264.57417    140569.25   -39374.291     2650.874   -42025.165    47.128242    223.72662 
    8900    132.68271   -19.303944    140566.99   -39334.915    2663.7057   -41998.621    47.402788    224.80958 
    8950    135.77243   -141.91498    140552.62   -39373.453    2725.7342   -42099.187    47.651842    230.04462 
    9000    133.49263   -18.331855    140539.48   -39412.023    2679.9653   -42091.988    47.805055    226.18185 
    9050    132.21625    -159.3134    140621.36   -39435.654    2654.3412   -42089.996    47.968116    224.01924 
    9100    132.30319   -162.48187    140643.43   -39448.184    2656.0865    -42104.27    48.135214    224.16654 
    9150    128.88659   -78.943295       140696   -39471.848    2587.4956   -42059.344    48.307918    218.37765 
    9200    130.69315   -61.073366    140689.81   -39487.481    2623.7637   -42111.245    48.544545    221.43858 
    9250    128.83169   -263.98143    140593.45   -39501.802    2586.3935   -42088.195    48.797972    218.28464 
    9300    130.69563   -161.48263    140571.18   -39452.366    2623.8135    -42076.18    48.929332    221.44278 
    9350    127.70339    -314.9673    140515.02   -39452.255    2563.7421   -42015.997    49.079361    216.37292 
    9400    129.71434   -248.47716    140439.25   -39475.497    2604.1133   -42079.611    49.241062    219.78014 
    9450    129.55141   -292.09372    140372.37   -39510.267    2600.8425    -42111.11    49.663476    219.50409 
    9500    128.65933   -313.38047    140364.72   -39465.978    2582.9333   -42048.912    50.131137     217.9926 
    9550    129.17375    49.771772    140418.64    -39451.69    2593.2606    -42044.95    50.481359     218.8642 
    9600    131.73964    -306.8483    140550.62   -39422.172    2644.7728   -42066.945    50.699752    223.21169 
    9650    132.86974   -454.25233    140500.54   -39398.618    2667.4604   -42066.078    50.962924    225.12646 
    9700    135.20947   -130.10068    140457.62   -39337.163    2714.4322   -42051.595    51.066395    229.09076 
    9750    135.44522   -345.89991    140418.26    -39363.54     2719.165   -42082.705    50.952592    229.49019 
    9800    134.95104   -302.47558    140391.15   -39382.771    2709.2441   -42092.015    51.233289    228.65289 
    9850    132.27536   -79.570958    140333.15   -39342.642    2655.5278    -41998.17    51.224764    224.11938 
    9900    132.19588   -233.39862    140446.91   -39358.064    2653.9322   -42011.997    51.331683    223.98472 
    9950    133.04856   -322.78625    140441.06   -39363.926    2671.0504   -42034.977    51.757807    225.42945 
   10000    131.83478   -340.05764    140388.81   -39428.197    2646.6829   -42074.879    52.087993    223.37289 
   10050    134.19107   -17.991773     140378.3   -39411.533    2693.9871    -42105.52    52.253148    227.36524 
   10100    130.37497   -203.45612     140416.6   -39430.821     2617.376   -42048.197    52.653553    220.89948 
   10150    132.06557   -317.75922    140413.78   -39424.924    2651.3161    -42076.24    52.870176    223.76392 
   10200    134.36154   -286.55865    140362.09   -39425.452    2697.4095   -42122.862    53.034942    227.65409 
   10250    131.45097   -209.36215    140368.99    -39402.61    2638.9776   -42041.588    53.322323    222.72259 
   10300     133.3711   -232.12369    140375.61   -39407.988    2677.5256   -42085.513    53.710465    225.97594 
   10350    129.76506   -158.55625    140410.12   -39451.917    2605.1317   -42057.049    53.867211    219.86609 
   10400    132.49247   -89.342124    140396.66   -39489.668    2659.8865   -42149.554    53.921768    224.48725 
   10450    134.67246    -141.7558     140426.5   -39445.733    2703.6514   -42149.385    54.269141    228.18089 
   10500     133.0157   -174.92755    140461.86   -39393.335    2670.3906   -42063.726    54.377756    225.37377 
   10550    133.28528   -257.87346    140563.08    -39460.79    2675.8028   -42136.593    54.472299    225.83054 
   10600    131.83581   -89.004969    140609.82   -39492.023    2646.7036   -42138.726    54.577964    223.37464 
   10650    133.54044   -219.71322    140662.52   -39432.497    2680.9252   -42113.422    54.969799    226.26285 
   10700    134.66178   -38.619835    140625.91    -39442.29     2703.437   -42145.727    55.005318    228.16279 
   10750    132.70828   -220.18854    140633.12   -39501.318     2664.219   -42165.537    55.316752     224.8529 
   10800    132.01386   -34.475132    140561.45   -39471.615     2650.278   -42121.893    55.473676    223.67632 
   10850    132.25082     80.09914    140643.09    -39506.56    2655.0352   -42161.596    55.611352    224.07781 
   10900    133.66022   -201.56574    140693.95   -39517.267      2683.33   -42200.597    55.902523    226.46581 
   10950    133.16346   -395.68133    140646.45   -39489.691    2673.3571   -42163.048    55.928497    225.62413 
   11000    130.96017   -136.02778    140611.06    -39546.77    2629.1243   -42175.894    55.901394      221.891 
   11050    130.68746   -423.44075    140538.57   -39542.873    2623.6496   -42166.523    56.275825    221.42895 
   11100    132.19386     17.42482     140525.4    -39477.73    2653.8917   -42131.622    56.681605     223.9813 
   11150    132.17445   -148.74142    140587.52   -39519.637     2653.502   -42173.139    56.840046    223.94841 
   11200    130.66667   -113.67587    140610.53   -39477.757    2623.2321   -42100.989    57.125106    221.39371 
   11250     131.5972   -109.99594    140621.34   -39493.501    2641.9133   -42135.415    57.281704    222.97036 
   11300    129.26097    -205.3319    140614.16   -39518.538    2595.0116    -42113.55    57.523622    219.01198 
   11350    133.23789    -230.3988    140668.04   -39453.078    2674.8513    -42127.93    57.770486    225.75023 
   11400    130.92698   -195.09184    140662.08   -39445.898    2628.4581   -42074.356    57.746896    221.83477 
   11450    131.71065   -265.59654    140710.78   -39452.785    2644.1908   -42096.976    57.899722    223.16257 
   11500    132.09691    11.945586    140683.17   -39422.288    2651.9453   -42074.234    58.117071    223.81703 
   11550    134.64971    -101.7538    140658.74   -39404.656    2703.1947    -42107.85    58.332493    228.14234 
   11600    134.04091    -79.79785    140635.94   -39426.517    2690.9725    -42117.49    58.453213    227.11082 
   11650    133.32089   -202.12933    140561.94   -39398.569    2676.5177   -42075.086     58.47952    225.89087 
   11700    134.31814   -89.442628    140567.02   -39367.779    2696.5382   -42064.317    58.639441    227.58055 
   11750    132.40041   -326.76855    140623.91   -39446.609    2658.0383   -42104.648    58.941138    224.33127 
   11800    132.53793   -248.85974    140625.09   -39399.246    2660.7992   -42060.045    59.162077    224.56427 
   11850    133.52767   -9.6669928    140687.21   -39365.491    2680.6689    -42046.16    59.375828    226.24122 
   11900    132.70017   -298.61542    140699.02   -39381.894    2664.0563   -42045.951    59.812006    224.83916 
   11950    135.93375   -210.79302    140710.75   -39335.392    2728.9727   -42064.365    60.266264    230.31793 
   12000    135.46235   -299.25401    140589.83   -39342.225     2719.509   -42061.734    60.316639    229.51922 
   12050    135.20894   -69.748064    140621.62   -39341.513    2714.4217   -42055.934    60.514212    229.08987 
   12100    133.18986   -10.762136    140737.28   -39369.211     2673.887   -42043.098    60.818739    225.66885 
   12150    132.45567   -99.570205    140808.24   -39354.489    2659.1476   -42013.637    61.043242    224.42488 
   12200    133.91234   -301.98379    140868.36   -39334.576    2688.3914   -42022.967    61.388859    226.89298 
   12250    133.82962   -316.48523    140868.01   -39363.478    2686.7307   -42050.209    61.680289    226.75282 
   12300    134.75472   -319.34575    140800.28    -39338.48    2705.3028   -42043.782    62.033095    228.32026 
   12350    132.85197   -208.30012    140783.51   -39375.749    2667.1037   -42042.853    62.388535    225.09636 
   12400    131.71419   -219.51732    140721.08   -39429.963    2644.2619   -42074.225    62.760322    223.16857 
   12450    133.01345   -132.68088    140739.94   -39398.691    2670.3455   -42069.037    62.917853    225.36995 
   12500    133.22779   -249.97894    140692.69     -39435.2    2674.6486   -42109.849    63.086405    225.73312 
   12550    131.14145   -21.275674    140708.18   -39419.376    2632.7636    -42052.14    63.404107    222.19815 
   12600    134.75096   -275.29154       140687   -39430.972    2705.2274     -42136.2    63.698449    228.31389 
   12650    130.48228   -291.43502    140693.87   -39446.064    2619.5304   -42065.594    63.829398     221.0813 
   12700    131.61291   -172.50139    140756.76     -39451.1    2642.2287   -42093.329    63.844731    222.99698 
   12750    133.10991   -288.71379    140790.11   -39429.322     2672.282   -42101.604    63.977752    225.53339 
   12800    131.29501   -351.33461    140790.39   -39415.884    2635.8465   -42051.731    63.987865    222.45833 
   12850    132.52181   -167.14643    140763.02   -39398.272    2660.4756   -42058.748    63.991953    224.53696 
   12900    130.52252    25.068242    140745.97   -39379.087    2620.3382   -41999.426    64.154856    221.14947 
   12950    132.99122   -308.73186    140813.11   -39338.167    2669.8992   -42008.066    64.422827    225.33229 
   13000    133.92683   -213.98187    140831.53   -39295.641    2688.6822   -41984.323    64.686473    226.91753 
   13050    135.97365   -62.392607    140873.33    -39276.79    2729.7737   -42006.564    65.027388    230.38554 
   13100    131.71848   -63.755065    140858.47   -39288.843    2644.3479   -41933.191    65.201986    223.17583 
   13150    137.64354   -137.69128    140888.94    -39246.87    2763.2982   -42010.168    65.597956    233.21491 
   13200    135.13155   -110.35483    140922.59   -39272.797    2712.8679   -41985.665    65.746155    228.95873 
   13250    132.71704    -128.5326    140894.68   -39309.437    2664.3949   -41973.832    65.895712    224.86774 
   13300     134.5388   -132.43299     140927.1   -39333.666     2700.968   -42034.634    66.210572    227.95442 
   13350    135.14146   -181.84156    140951.31   -39321.616     2713.067   -42034.683    66.400658    228.97553 
   13400    130.98342   -126.91944    140980.22   -39414.541     2629.591   -42044.133    66.643116    221.93039 
   13450    132.72044    -358.4694    140973.04   -39396.206    2664.4631   -42060.669    66.894377     224.8735 
   13500    132.04568   -177.18666    140974.56    -39431.29    2650.9168   -42082.207    66.974455    223.73022 
   13550    130.69919    -334.7084    140902.93   -39422.154     2623.885   -42046.039    67.452383    221.44882 
   13600    132.58161   -102.75758       140840   -39450.115     2661.676   -42111.791    67.653992    224.63827 
   13650    131.94655   -204.18232     140828.2   -39467.022    2648.9267   -42115.948    67.806225    223.56227 
   13700    134.23006   -125.74344    140870.82   -39483.865      2694.77   -42178.635    67.786118    227.43132 
   13750    133.41947   -191.14574    140876.76   -39405.025    2678.4966   -42083.522    67.977366    226.05789 
   13800    133.63099   -179.67282    140867.76   -39412.158    2682.7432   -42094.902    68.059116    226.41629 
   13850    133.62972    -71.54922    140895.94    -39403.03    2682.7177   -42085.747    68.160364    226.41414 
   13900    135.02465   -205.92483    140871.74   -39399.797    2710.7218   -42110.519    68.058405    228.77761 
   13950    134.23051   -280.60791    140826.34   -39369.647    2694.7788   -42064.426    68.021243    227.43206 
   14000    134.09328   -65.232947    140879.83   -39391.047    2692.0239   -42083.071    68.188021    227.19956 
   14050    133.25279   -259.37893    141038.79   -39379.408    2675.1504   -42054.558    68.222063    225.77547 
   14100     133.2355   -356.31569    140985.56   -39392.283    2674.8034   -42067.086    68.461888    225.74619 
   14150    133.53439    -166.9006    140949.75   -39453.195    2680.8039   -42133.999    68.593468    226.25261 
   14200    135.92283   -301.63683    140925.22   -39403.853    2728.7536   -42132.606    68.756535    230.29944 
   14250    133.10582   -358.78577    140858.56   -39369.942    2672.1999   -42042.142    69.295469    225.52646 
   14300    134.12385   -149.40039    140817.04   -39393.402    2692.6377   -42086.039    69.697312    227.25136 
   14350    131.82223    26.771754    140835.77   -39426.963    2646.4309   -42073.393    69.868482    223.35163 
   14400     130.1391   -243.07688    140806.67   -39466.548    2612.6408   -42079.189    70.068162    220.49983 
   14450    128.59723   -432.76078    140732.39   -39496.672    2581.6865   -42078.359    70.207639    217.88738 
   14500    130.77939   -145.51914    140680.09   -39495.714    2625.4951   -42121.209    70.484158    221.58471 
   14550    134.68166   -109.64287    140686.78   -39526.279    2703.8362   -42230.115    70.744406    228.19648 
   14600    131.54534   -209.98695    140709.13   -39519.783    2640.8721   -42160.655    70.939316    222.88248 
   14650    132.91498   -196.67022     140761.2   -39474.063    2668.3687   -42142.432    71.296197    225.20312 
   14700    131.59152    -186.6167    140740.97   -39494.119    2641.7992   -42135.918    71.641358    222.96073 
   14750    133.30579    51.391626    140702.14   -39484.681    2676.2144   -42160.895    71.932827    225.86528 
   14800    130.84082   -77.177529    140763.38   -39527.947    2626.7283   -42154.676    72.229729    221.68879 
   14850    131.20872   -209.62948     140791.4   -39520.349    2634.1143   -42154.463    72.312921    222.31214 
   14900    133.01279   -385.90319    140841.99   -39470.184    2670.3323   -42140.517    72.172368    225.36884 
   14950    134.12669   -250.79294    140836.75   -39463.398    2692.6946   -42156.093     72.18208    227.25616 
   15000    133.72023    -212.5215    140781.54   -39484.844    2684.5347   -42169.379    72.364239    226.56749 
   15050    131.80655   -128.95763    140710.73   -39469.028    2646.1161   -42115.144    72.588305    223.32506 
   15100    130.29987   -226.54738    140723.12   -39506.421    2615.8684   -42122.289    72.860339    220.77224 
   15150    131.28236   -146.68115    140696.16   -39586.893    2635.5927   -42222.486    72.986966    222.43691 
   15200    130.21441    -236.9048    140713.41   -39539.349    2614.1527   -42153.501    73.481522    220.62744 
   15250    132.94351   -202.92957    140716.09   -39481.155    2668.9414   -42150.097    73.726529    225.25145 
   15300    133.92681   -173.28711    140702.84   -39460.319    2688.6819   -42149.001    74.143089     226.9175 
   15350    131.48869    -166.2992    140660.83   -39512.007    2639.7349   -42151.742    74.150086     222.7865 
   15400    132.55109   -237.47748    140682.09   -39472.359    2661.0633   -42133.422    74.384432    224.58656 
   15450    132.87862    27.376311    140718.46   -39403.305    2667.6388   -42070.943    74.586401    225.14152 
   15500     133.8022   -469.06308    140686.44   -39395.316    2686.1803   -42081.496     75.09664    226.70637 
   15550    134.48386   -317.30885    140660.15   -39389.702    2699.8652   -42089.567    75.571523    227.86134 
   15600    132.02638   -240.94227    140621.03   -39373.025    2650.5293   -42023.554    76.029156    223.69752 
   15650    132.33788   -160.34295    140574.94   -39371.584    2656.7829   -42028.367    76.320087    224.22531 
   15700    135.55194   -216.01972    140561.14   -39374.501    2721.3076   -42095.809    76.614449    229.67102 
   15750    133.00218   -184.86824    140541.35   -39382.032    2670.1192   -42052.151    76.770135    225.35086 
   15800    131.70856   -19.343538    140577.63   -39366.527    2644.1488   -42010.675    76.962423    223.15902 
   15850    134.19499   -191.18117    140541.36   -39317.754    2694.0659   -42011.819    77.182368    227.37189 
   15900    135.33592   -283.34674    140511.31   -39309.523    2716.9708   -42026.494    77.328427    229.30501 
   15950     132.7208   -176.99388     140429.8   -39327.579    2664.4703   -41992.049    77.612867     224.8741 
   16000    134.70092   -113.47106    140490.88   -39307.545    2704.2227   -42011.768     77.65575     228.2291 
   16050    135.87036   -181.82377    140535.51    -39346.44    2727.7001    -42074.14    78.007222    230.21053 
   16100    134.04441   -233.79396     140546.4   -39357.128    2691.0429   -42048.171     78.19697    227.11676 
   16150    132.35179   -152.05566    140642.92   -39354.848    2657.0621    -42011.91    78.263642    224.24888 
   16200    133.89987   -134.83247    140629.69    -39364.54    2688.1412   -42052.681    78.330357    226.87186 
   16250    134.07291   -313.94772    140574.61   -39353.608     2691.615   -42045.223     78.29578    227.16504 
   16300    134.55487   -246.28368    140511.19    -39359.76    2701.2908    -42061.05    78.325263    227.98166 
   16350    132.17471   -222.62689    140500.24   -39374.328    2653.5072   -42027.835    78.346118    223.94885 
   16400    135.01194   -176.83858    140532.85   -39335.106    2710.4667   -42045.573    78.498628    228.75608 
   16450    134.67729   -314.00836     140568.8   -39307.448    2703.7484   -42011.196    78.907573    228.18907 
   16500    132.62593   -177.96401     140562.1   -39340.272    2662.5658   -42002.838    79.174737    224.71337 
   16550    134.85116   -143.70371    140510.26   -39304.354    2707.2389   -42011.593    79.497947    228.48366 
   16600    132.04196   -358.89836    140492.55   -39285.314    2650.8422   -41936.156    79.759401    223.72393 
   16650     134.0857   -112.69469    140495.28   -39275.413    2691.8718   -41967.285    80.034745    227.18672 
   16700    131.37964   -317.40425    140527.56   -39345.284    2637.5456    -41982.83    80.220665    222.60174 
   16750    133.01019   -135.30872    140551.09   -39322.855      2670.28   -41993.135    80.404054    225.36443 
   16800     134.6854   -329.87561    140538.33   -39304.404    2703.9112   -42008.315    80.576233    228.20281 
   16850     132.9827   -78.143237    140496.24    -39326.74    2669.7281   -41996.469    80.636904    225.31785 
   16900    133.10367   -285.17641    140474.59   -39317.207    2672.1568   -41989.364    80.979569    225.52282 
   16950    132.99369   -271.53476    140451.37   -39351.929    2669.9488   -42021.878    80.957844    225.33648 
   17000    135.91977   -149.22312     140500.8   -39310.083    2728.6922   -42038.775    81.164546    230.29426 
   17050    133.62328   -256.64063    140541.93    -39309.22    2682.5884   -41991.808    81.471435    226.40323 
   17100     131.0036   -191.51958    140595.64    -39342.44    2629.9963   -41972.436    81.583463    221.96459 
   17150    133.60691    -200.6023    140621.74   -39322.065    2682.2597   -42004.324    81.771044    226.37548 
   17200    133.31861   -207.63915    140531.44   -39345.504    2676.4718   -42021.976    81.819855      225.887 
   17250    134.85719   -162.13097    140534.65   -39345.036      2707.36   -42052.396    82.132932    228.49388 
   17300    134.13475   -89.654404    140501.08    -39357.24    2692.8565   -42050.097    82.347042    227.26983 
   17350    132.52764    -160.0551    140449.36   -39381.385    2660.5925   -42041.978    82.823481    224.54683 
   17400    133.31522   -267.82056    140473.58   -39403.631    2676.4038   -42080.034    82.869706    225.88126 
   17450    131.99783   -297.98787    140470.73   -39408.969    2649.9561   -42058.925    83.293541    223.64915 
   17500    131.68449   -101.63178    140503.34    -39371.55    2643.6656   -42015.216    83.717343    223.11824 
   17550    133.94416    36.167223    140540.01   -39344.759    2689.0303   -42033.789     84.15885     226.9469 
   17600    131.00467   -42.055488    140579.45   -39371.903    2630.0177    -42001.92     84.40083     221.9664 
   17650    133.28528   -100.34811    140626.14   -39411.883    2675.8028   -42087.686    84.378185    225.83054 
   17700    133.57085   -227.06682    140655.95   -39366.745    2681.5357   -42048.281     84.51168    226.31438 
   17750    131.99724   -334.09684    140641.79   -39378.464    2649.9443   -42028.408    84.661911    223.64815 
   17800    132.46973   -64.357711    140629.28   -39355.732    2659.4299   -42015.162    84.783612    224.44871 
   17850    132.52623   -237.91495     140635.3   -39367.906    2660.5641    -42028.47    84.972648    224.54443 
   17900    134.46127    -240.4367    140618.39   -39316.598    2699.4116    -42016.01    85.121678    227.82306 
   17950    133.30533    -320.7427    140655.84   -39340.207    2676.2053   -42016.413    85.722572    225.86451 
   18000    134.53959   -63.224257    140671.17   -39329.373    2700.9839   -42030.357    85.994531    227.95576 
   18050    134.08439    -187.0411    140614.23   -39325.698    2691.8454   -42017.543    86.308234    227.18449 
   18100    136.66917   -148.70157    140640.24   -39292.866    2743.7369   -42036.603    86.370159    231.56399 
   18150    133.14549   -234.59866    140695.18   -39311.751    2672.9963   -41984.747    86.731128    225.59367 
   18200    132.07444    -150.8958    140738.09   -39308.099    2651.4942   -41959.593    86.980606    223.77896 
   18250    133.47052   -95.875225    140686.51   -39345.862    2679.5216   -42025.383    87.504101     226.1444 
   18300    131.68269   -272.20133    140672.32   -39365.891    2643.6296   -42009.521    87.747867     223.1152 
   18350     126.2044   -132.85364    140565.45   -39431.189    2533.6486   -41964.837    88.275716    213.83311 
   18400     127.9161   -367.78345    140548.29   -39452.292    2568.0123   -42020.305    88.600794    216.73331 
   18450    130.89003   -545.19946    140471.79   -39400.622    2627.7163   -42028.338    88.791087    221.77216 
   18500    130.62053   -250.97842    140348.11   -39423.291    2622.3059   -42045.597     89.06184    221.31555 
   18550    131.76326   -204.35395    140293.65   -39376.326    2645.2471   -42021.573    89.232702    223.25172 
   18600    134.70146   -312.18784    140295.24    -39356.72    2704.2336   -42060.953    89.469456    228.23002 
   18650    131.76003   -68.797656    140290.43   -39410.888    2645.1822   -42056.071    90.235317    223.24624 
   18700     130.9491   -64.423926     140212.8   -39427.052    2628.9022   -42055.954    90.681238    221.87225 
   18750    133.96667   -172.48108    140232.56   -39421.978    2689.4821    -42111.46     90.88431    226.98503 
   18800     133.9321   -124.36109    140312.59   -39374.085    2688.7881   -42062.873    91.076487    226.92646 
   18850    132.75479   -129.70304    140270.64   -39351.789    2665.1526   -42016.941    91.395179    224.93169 
   18900    132.35886   -286.25084     140308.3   -39384.939    2657.2042   -42042.143    91.570629    224.26086 
   18950    131.53399   -169.61309    140294.16   -39359.809    2640.6442   -42000.453    91.760114    222.86324 
   19000    132.20406    -202.4119    140333.65   -39343.968    2654.0963   -41998.065    91.769333    223.99857 
   19050     131.2215   -133.39055    140357.52   -39355.729    2634.3708   -41990.099    91.720659    222.33379 
   19100     135.7925   -22.869852    140402.11   -39388.322    2726.1371   -42114.459    91.790646    230.07862 
   19150    133.18266   -207.19354    140396.29   -39433.526    2673.7425   -42107.268    91.867259    225.65665 
   19200    130.74742   -139.90055    140369.36   -39464.279    2624.8532   -42089.132     92.12754    221.53053 
   19250    131.71538   -124.29247    140320.33   -39481.634    2644.2858    -42125.92    92.501877    223.17059 
   19300    130.51788   -272.75037    140299.58   -39421.246     2620.245   -42041.491    92.906338    221.14161 
   19350    132.63457  -0.95761933    140274.31    -39389.35    2662.7392   -42052.089     93.03186    224.72801 
   19400    131.89964    76.666204    140329.76   -39440.069     2647.985   -42088.054    93.273273    223.48279 
   19450    130.82829   -107.30253    140383.32   -39427.466    2626.4769   -42053.942    93.077256    221.66756 
   19500    132.92265   -55.447713    140398.34   -39432.847    2668.5226   -42101.369    93.441864    225.21611 
   19550    132.06701   -525.35029    140397.05   -39453.319    2651.3451   -42104.664    93.711878    223.76637 
   19600    132.37658   -328.84133    140308.55   -39478.487    2657.5599   -42136.047    93.951091    224.29089 
   19650    129.35503   -353.50347    140357.49   -39465.128    2596.9001   -42062.028     94.06421    219.17136 
   19700    131.81695   -147.84453    140442.58   -39403.429    2646.3248   -42049.753    94.161468    223.34267 
   19750    133.87169   -269.63919    140440.02   -39388.618    2687.5754   -42076.194    94.330461    226.82412 
   19800    129.29226   -208.58018    140372.29   -39432.083    2595.6398   -42027.723    94.518545    219.06499 
   19850    131.26344   -306.05084    140367.87   -39448.029    2635.2128   -42083.242    94.748371    222.40485 
   19900    133.26843   -205.78981    140344.79   -39449.362    2675.4644   -42124.826    94.780361    225.80198 
   19950     130.2885   -332.31169    140355.55   -39464.153      2615.64   -42079.793    94.831771    220.75296 
   20000    129.26539   -396.86293    140258.22   -39416.749    2595.1003   -42011.849     95.04187    219.01947 
   20050    133.93165   -229.23264    140216.39   -39428.061    2688.7791    -42116.84    95.286711     226.9257 
   20100    133.31534   -127.22046    140204.42   -39401.108    2676.4062   -42077.514    95.413154    225.88146 
   20150     135.4051   -39.823478     140175.6   -39357.532    2718.3597   -42075.892    95.536118    229.42222 
   20200     132.2045   -127.98334    140218.07   -39427.993    2654.1053   -42082.098    95.748728    223.99933 
   20250    130.11144   -36.615538     140333.3   -39389.437    2612.0855   -42001.522    95.884164    220.45297 
   20300    131.38187   -361.31636    140358.07   -39409.751    2637.5904   -42047.342    96.046803    222.60552 
   20350    131.89504   -198.06883    140390.36   -39382.292    2647.8926   -42030.184    96.238744      223.475 
   20400    131.44775   -115.33922    140399.01   -39395.148     2638.913   -42034.061    96.303964    222.71713 
   20450    132.28647   -248.40376    140438.35   -39400.551    2655.7509   -42056.302    96.595146    224.13822 
   20500    135.24815   -167.64037     140516.3   -39283.788    2715.2087   -41998.997    96.820189    229.15629 
   20550    135.17913   -39.588882    140560.06   -39317.148    2713.8232   -42030.971    97.026608    229.03936 
   20600     135.1715   -133.02994    140617.06   -39340.064    2713.6701   -42053.734    97.256278    229.02643 
   20650    131.47504   -316.49212     140609.5   -39378.051    2639.4609   -42017.512    97.330327    222.76338 
   20700    133.52823   -319.52357    140550.54    -39356.62    2680.6802     -42037.3    97.424564    226.24217 
   20750    133.21069   -314.77654    140542.58   -39329.404    2674.3054   -42003.709    97.659363    225.70416 
   20800     134.0065   -164.85144    140457.77   -39347.512    2690.2817   -42037.794    97.965834    227.05251 
   20850    131.94755   -168.54381    140455.56   -39321.754    2648.9468   -41970.701    98.299093    223.56396 
   20900    133.24626   -204.73861    140481.06   -39330.771    2675.0193    -42005.79    98.379093    225.76441 
   20950    134.70236   -180.81509    140596.73   -39307.428    2704.2516   -42011.679    98.642182    228.23154 
   21000    132.32694   -173.33398    140547.16   -39347.971    2656.5633   -42004.534    98.696123    224.20677 
   21050    132.60494   -291.63838    140555.78   -39372.852    2662.1444   -42034.997    98.850803    224.67781 
   21100    133.62849    -245.9457    140618.93   -39337.131    2682.6929   -42019.824    98.903041    226.41204 
   21150    132.27808   -297.35207    140630.76   -39352.745    2655.5825   -42008.327    99.335987      224.124 
   21200    130.10005   -331.93422    140596.83   -39385.715    2611.8568   -41997.572    99.519853    220.43367 
   21250    131.93627   -303.43367    140599.29   -39382.274    2648.7204   -42030.994    99.565447    223.54485 
   21300    132.07181   -146.68294    140729.48       -39380    2651.4414   -42031.441     99.57869     223.7745 
   21350    134.22593   -267.52466    140698.62   -39371.716     2694.687   -42066.403    99.777246    227.42431 
   21400    135.77479   -281.94199    140777.66   -39282.401    2725.7814   -42008.183    99.903867     230.0486 
   21450     135.7436   -22.548075     140770.5   -39242.091    2725.1554   -41967.247      100.123    229.99577 
   21500    136.65526   -337.46399    140792.77   -39240.048    2743.4577   -41983.506    100.57304    231.54043 
   21550    131.01653   -354.98256    140747.56   -39320.501    2630.2558   -41950.757    100.85378     221.9865 
   21600     132.2404   -297.07404     140741.2   -39321.256     2654.826   -41976.082    100.89081    224.06016 
   21650    134.24521   -158.12508    140695.14    -39311.35     2695.074   -42006.424    101.18302    227.45697 
   21700    133.61708   -379.98744    140752.74   -39337.001    2682.4638   -42019.465    101.36848    226.39271 
   21750    134.50471   -265.66376    140806.36   -39321.055    2700.2837   -42021.339    101.78362    227.89666 
   21800    133.25374    -118.6433    140836.73   -39297.377    2675.1695   -41972.546    101.98205    225.77709 
   21850    135.90329   -233.24676     140886.3   -39322.986    2728.3613   -42051.347    102.00328    230.26634 
   21900     134.2712   -136.51455    140859.68   -39285.069    2695.5958   -41980.665    102.27651    227.50102 
   21950    133.31615   -192.29574    140870.09   -39291.244    2676.4224   -41967.666    102.68652    225.88283 
   22000    136.51694   -43.819994    140921.99   -39295.371    2740.6807   -42036.052    102.85973    231.30606 
   22050    133.38334   -118.09111     141019.3   -39311.017    2677.7713   -41988.788    103.12798    225.99668 
   22100    134.19067   -350.34483    140995.64    -39340.46    2693.9791   -42034.439    103.35178    227.36457 
   22150    131.98197   -277.18733    140946.77    -39350.18    2649.6378   -41999.818    103.66784    223.62228 
   22200    133.15944   -209.45231    140888.27   -39315.291    2673.2764   -41988.568    103.87827    225.61731 
   22250    132.65435   -267.33599    140848.29     -39309.4    2663.1364   -41972.536    104.16846    224.76153 
   22300    133.52359   -205.36149    140847.11    -39270.81    2680.5869   -41951.397    104.59042    226.23431 
   22350    137.62812   -204.24711    140894.88   -39217.427    2762.9886   -41980.416    104.72537    233.18878 
   22400    135.54759   -243.03337    140896.06   -39249.487    2721.2203   -41970.707    104.88853    229.66366 
   22450    134.24114   -53.009188    140994.36    -39294.22    2694.9924   -41989.213    105.09583    227.45009 
   22500    134.83497   -316.02554     141043.6   -39281.659    2706.9138   -41988.573    105.56894    228.45623 
   22550    133.23387    -547.6394     140991.7   -39342.605    2674.7706   -42017.375    105.77815    225.74343 
   22600    134.18839   -309.43883    140950.88    -39279.54    2693.9333   -41973.474    106.00387    227.36071 
   22650    132.94349   -242.03131    140935.24   -39301.493    2668.9409   -41970.434    106.17841    225.25142 
   22700    133.63409   -288.78129     140893.3   -39324.079    2682.8054   -42006.885    106.59715    226.42154 
   22750     132.7337   -225.64294    140800.72   -39323.512    2664.7294   -41988.241     106.7886    224.89597 
   22800    131.73322   -418.31985    140764.37   -39359.767     2644.644   -42004.411    107.08704    223.20082 
   22850    131.03613   -327.60746    140642.23   -39347.508    2630.6494   -41978.157    107.46139    222.01971 
   22900    130.34285   -80.914376     140640.8   -39343.617    2616.7312   -41960.348    107.74312    220.84505 
   22950    134.10493   -248.23902    140616.06   -39315.249    2692.2578   -42007.506    107.83894     227.2193 
   23000    136.80975    -299.4028    140602.01   -39287.915    2746.5592   -42034.474    108.19782    231.80219 
   23050    132.14277   -255.76389    140562.34   -39339.378    2652.8659   -41992.244    108.39577    223.89472 
   23100    133.81383   -173.05755    140550.81   -39334.883    2686.4138   -42021.296    108.59823    226.72607 
   23150    134.98639   -116.58019    140594.01   -39351.124    2709.9538   -42061.078    109.06779    228.71279 
   23200    130.96477   -43.273054     140608.7   -39402.783    2629.2168       -42032    109.20207    221.89881 
   23250    132.32654   -140.05883    140647.89   -39408.037    2656.5552   -42064.592    109.54614    224.20609 
   23300    132.74422   -68.561269     140706.9   -39404.503    2664.9405   -42069.444    109.73582    224.91379 
   23350    133.12442   -199.18961    140730.04   -39360.694    2672.5733   -42033.267    109.94136    225.55798 
   23400    133.18916   -38.730763    140801.51   -39305.155     2673.873   -41979.028    110.11768    225.66766 
   23450    132.26536   -109.55939    140912.43   -39288.135    2655.3271   -41943.462    110.12171    224.10244 
   23500    132.84012    -148.5807    140878.32   -39254.632    2666.8659   -41921.497    110.10873    225.07629 
   23550    132.14801     -337.363    140894.27   -39284.558    2652.9712   -41937.529    110.23772    223.90361 
   23600    130.65069    -487.7592    140789.67   -39342.026    2622.9113   -41964.937    110.41203    221.36664 
   23650    134.85299   -266.26801     140760.3   -39332.241    2707.2756   -42039.517    110.65086    228.48676 
   23700    130.22771   -196.99962    140710.09   -39364.459    2614.4196   -41978.879    110.96215    220.64996 
   23750    133.30265   -201.39027     140679.7   -39382.743    2676.1514   -42058.895    111.10536    225.85996 
   23800     132.4001    -264.3822    140612.45   -39334.833     2658.032   -41992.865    111.27435    224.33073 
   23850    135.74164     -81.3576    140612.39   -39230.788     2725.116   -41955.904    111.63899    229.99244 
   23900    132.55063    42.489794    140645.82   -39279.053    2661.0541   -41940.107    111.94842    224.58579 
   23950    131.81514   -113.94614    140691.88   -39310.947    2646.2885   -41957.236    112.36622    223.33961 
   24000    134.66247   -207.53241    140704.03   -39308.738    2703.4509   -42012.189     112.4832    228.16396 
   24050    133.67042   -346.55011    140699.24   -39351.585    2683.5346    -42035.12    113.04588    226.48308 
   24100    130.23085   -83.627241     140677.5    -39340.53    2614.4827   -41955.012    113.32912    220.65529 
   24150    133.68481    13.252295    140737.69   -39307.573    2683.8235   -41991.396    113.78799    226.50746 
   24200    132.50547   -211.40573    140811.46   -39295.209    2660.1475   -41955.357    114.41086    224.50927 
   24250    134.03738   -183.09664    140831.65   -39311.767    2690.9018   -42002.669    114.61473    227.10485 
   24300    134.34319   -335.34251     140858.9   -39323.032    2697.0411   -42020.073    114.70947    227.62299 
   24350    135.85987   -184.62585    140865.47   -39287.139    2727.4896   -42014.629    115.02285    230.19276 
   24400    133.52851    -218.0404     140858.1   -39379.584    2680.6858    -42060.27      114.944    226.24265 
   24450    133.12305   -371.14632    140918.64   -39363.471    2672.5459   -42036.017    114.97489    225.55566 
   24500     134.9739   -319.77589    140879.07   -39370.415     2709.703   -42080.118    115.23293    228.69162 
   24550     129.2304   -398.97489    140850.42   -39445.399    2594.3979   -42039.797    115.46516    218.96018 
   24600    132.12924   -399.36182    140770.58   -39433.726    2652.5944    -42086.32    115.67804    223.87181 
   24650    131.25581   -201.24745    140708.35   -39393.542    2635.0596   -42028.602    116.19212    222.39192 
   24700    131.19778   -132.02076     140714.1   -39414.694    2633.8947   -42048.588    116.49665     222.2936 
   24750    131.89761   -16.704677    140654.46   -39446.386    2647.9441    -42094.33    116.61604    223.47934 
   24800    130.50579   -347.92026    140643.18   -39483.545    2620.0024   -42103.547    116.72561    221.12113 
   24850    130.50847   -97.690726    140589.69   -39454.853    2620.0561   -42074.909     116.9274    221.12567 
   24900    132.36313   -95.403174     140671.3   -39392.183    2657.2899   -42049.473    117.14919     224.2681 
   24950    133.20425   -273.15992    140749.09   -39377.585    2674.1761   -42051.762    117.30111    225.69324 
   25000    133.90157   -2.4020727    140781.33   -39355.141    2688.1753   -42043.316    117.64342    226.87474 
   25050    135.33495   -201.93819    140781.06   -39381.458    2716.9514   -42098.409    117.87731    229.30337 
   25100    133.68814   -234.99009    140870.57    -39334.93    2683.8903    -42018.82    118.06467    226.51311 
   25150    132.30735   -291.01685    140766.52   -39316.382    2656.1701   -41972.552     118.1078    224.17359 
   25200    134.07704   -160.26097    140825.62   -39317.413     2691.698   -42009.111    117.97034    227.17205 
   25250    134.02257   -142.16955    140954.12   -39333.006    2690.6045    -42023.61    117.97328    227.07976 
   25300    134.88327   -276.74398    140998.13   -39328.071    2707.8837   -42035.955     118.2627    228.53808 
   25350    134.47568   -117.38323    140972.57   -39334.809     2699.701    -42034.51    118.38173    227.84748 
   25400    133.29078   -46.427024    141045.18   -39351.276     2675.913    -42027.19     118.5567    225.83984 
   25450    133.45682   -205.29955    141013.41   -39332.047    2679.2465   -42011.294    118.95442    226.12118 
   25500    132.67211   -212.64012    140980.16   -39342.478    2663.4929   -42005.971    119.19972    224.79161 
   25550    134.33751    -151.7411    141005.02   -39332.014    2696.9271   -42028.941     119.2587    227.61337 
   25600    134.75907   -214.59438    140941.62   -39319.144    2705.3902   -42024.534    119.42752    228.32764 
   25650    135.14465    51.375902    140992.35   -39317.043     2713.131   -42030.174    119.71097    228.98094 
   25700    133.58745   -140.18627    141042.33   -39299.721     2681.869    -41981.59    119.87916    226.34251 
   25750     134.1813   -333.15032    141047.83   -39331.813     2693.791   -42025.604    120.20731    227.34869 
   25800    136.65925   -146.36644    141090.34   -39288.876    2743.5377   -42032.414    120.50951    231.54718 
   25850    133.03752   -249.70722    141099.44   -39353.194    2670.8288   -42024.023    120.75931    225.41075 
   25900    130.11291   -138.36954    141164.88   -39444.179     2612.115   -42056.294    120.69898    220.45546 
   25950    132.46668    -225.9033    141215.15   -39456.703    2659.3687   -42116.072    120.55055    224.44354 
   26000    132.53368   -261.38043     141178.8    -39470.92    2660.7138   -42131.634    120.51022    224.55707 
   26050     132.7859   -82.500646     141253.3   -39501.745    2665.7773   -42167.522    120.65191    224.98441 
   26100    133.95679   -163.21582     141247.9   -39416.656    2689.2838    -42105.94     120.8937     226.9683 
   26150    132.37264    -102.0385    141264.28   -39428.808    2657.4808   -42086.288    121.18676    224.28421 
   26200    131.06072   -24.985428    141325.79   -39392.065     2631.143   -42023.208    121.32846    222.06137 
   26250    132.01977   -300.77685    141329.24   -39360.016    2650.3965   -42010.412    121.60926    223.68632 
   26300    131.10248   -132.40612    141306.84   -39366.736    2631.9814   -41998.717    121.76273    222.13213 
   26350    133.55665   -228.66153    141316.92   -39472.828    2681.2508   -42154.078    121.87828    226.29033 
   26400    135.95194   -171.26414    141332.22   -39443.333     2729.338   -42172.671    122.08442    230.34876 
   26450    132.86605   -440.90126    141252.37   -39442.314    2667.3863     -42109.7    122.22933    225.12021 
   26500    131.63709   -267.65306    141229.38   -39435.774     2642.714   -42078.488    122.44891    223.03793 
   26550    132.17703   -184.84552    141218.55   -39448.892    2653.5538   -42102.445    122.55751    223.95278 
   26600     130.6965   -225.16219    141204.09   -39523.544     2623.831   -42147.375    122.76389    221.44425 
   26650    131.26083   -276.90723    141240.01   -39539.304    2635.1604   -42174.465    122.58864    222.40043 
   26700    132.12476   -240.77471    141314.82   -39553.631    2652.5044   -42206.135    122.91795    223.86422 
   26750    129.55776   -396.11456    141246.03   -39557.694      2600.97   -42158.664    123.29491    219.51485 
   26800    131.03754   -99.267676    141186.43   -39571.485    2630.6776   -42202.162    123.24956    222.02209 
   26850    133.37323   -343.30551       141298   -39569.601    2677.5683   -42247.169    123.54069    225.97954 
   26900    130.67002   -445.05795    141214.23   -39624.222    2623.2994   -42247.521    123.73178    221.39939 
   26950    129.76264   -300.89161    141222.36   -39617.827    2605.0831    -42222.91    124.10057    219.86198 
   27000    131.34206   -260.50075    141193.23   -39595.081    2636.7911   -42231.872    124.35577    222.53805 
   27050    130.02151   -161.00312    141143.55   -39599.865      2610.28   -42210.145    124.62569    220.30059 
   27100    133.26547   -227.40976    141166.91   -39579.091     2675.405   -42254.496    124.72542    225.79697 
   27150    131.38683   -70.773176    141207.99   -39567.135    2637.6899   -42204.825    124.77891    222.61391 
   27200     128.6634   -259.73395    141185.68   -39570.747     2583.015   -42153.762    124.76537     217.9995 
   27250    128.53089   -293.68246    141176.75   -39546.687    2580.3548   -42127.042    124.72125    217.77499 
   27300    132.37784   -140.11852    141161.23   -39537.947    2657.5852   -42195.532    124.94602    224.29302 
   27350    130.64617   -131.45084    141177.38   -39591.411    2622.8205   -42214.232      124.962    221.35898 
   27400     130.4703   -531.45707    141117.98   -39558.154    2619.2899   -42177.444     125.3989      221.061 
   27450    133.20114   -259.08856    141093.81   -39507.188    2674.1136   -42181.302    125.54259    225.68798 
   27500    132.85122   -228.53589    141031.81   -39491.762    2667.0886    -42158.85    125.52447    225.09508 
   27550    134.16268   -61.840226    141042.25   -39499.503    2693.4171   -42192.921    126.12884    227.31714 
   27600    132.77985   -143.80801    140991.51   -39456.729    2665.6558   -42122.385    126.33779    224.97416 
   27650    132.87902   -143.23559    140999.68   -39480.076    2667.6467   -42147.722    126.72133    225.14218 
   27700    133.39502   -154.73461    140955.84   -39481.649    2678.0059   -42159.654    126.75641    226.01647 
   27750    131.08487   -314.83111    140935.54   -39526.518    2631.6277   -42158.146     126.9757    222.10228 
   27800    131.44534   -296.63212    140876.69   -39566.586    2638.8646   -42205.451    126.66254    222.71305 
   27850    129.37862   -235.04213    140863.99   -39594.231    2597.3735   -42191.605    126.68196    219.21131 
   27900    130.84174   -195.46743    140858.89   -39594.045    2626.7467   -42220.791    126.82251    221.69034 
   27950    130.58034   -282.70674    140893.84   -39562.746     2621.499   -42184.245    126.97414    221.24744 
   28000    132.92742   -284.78724    140897.39   -39512.265    2668.6183   -42180.883    126.99529    225.22419 
   28050    131.01033   -289.21787    140857.51   -39503.221    2630.1313   -42133.353    127.13961    221.97599 
   28100    133.55408   -167.64958    140840.87   -39485.103    2681.1992   -42166.303    127.14441    226.28598 
   28150    130.70388   -254.53299    140870.93   -39442.832    2623.9791   -42066.811    126.96315    221.45675 
   28200    131.64055   -341.33192    140845.55   -39443.738    2642.7836   -42086.522    127.32529     223.0438 
   28250    128.14808   -229.74923    140881.19   -39494.532    2572.6696   -42067.201    127.53674    217.12638 
   28300    130.60129   -222.05408    140817.34   -39485.239    2621.9196   -42107.158    127.72967    221.28294 
   28350    132.47274    -116.7486    140831.15   -39474.615    2659.4904   -42134.105    128.07379    224.45381 
   28400    131.72342   -222.56912    140817.24   -39446.039    2644.4472   -42090.486    128.40344    223.18421 
   28450    133.22211   -240.97061    140845.23   -39415.461    2674.5346   -42089.996    128.61567    225.72351 
   28500    131.43802   -184.64893    140955.75    -39417.58    2638.7177   -42056.297    128.70731    222.70065 
   28550     132.6585   -378.38647    140971.61   -39446.151    2663.2197   -42109.371    128.97902    224.76856 
   28600    131.31911   -348.86295    140940.83   -39409.102    2636.3304   -42045.432    129.10399    222.49918 
   28650    132.92973   -276.05421    140930.84   -39402.428    2668.6648   -42071.092    128.94817    225.22811 
   28700     133.3835   -144.58183    141009.87   -39394.645    2677.7747   -42072.419     129.2192    225.99696 
   28750    134.31443  -0.34495283    141054.24   -39383.585    2696.4638   -42080.049    129.84428    227.57427 
   28800     132.8092   -24.047464    141138.05   -39395.287     2666.245   -42061.532    130.06255    225.02388 
   28850    133.05656   -264.91178    141141.71   -39402.412    2671.2111   -42073.623    129.99674    225.44301 
   28900    132.45788   -242.13115    141062.06   -39436.069     2659.192   -42095.261    130.17717    224.42863 
   28950     132.1128   -202.06004    141083.94   -39382.258    2652.2643   -42034.522    130.31035    223.84395 
   29000    133.62906   -165.99181    141126.51   -39370.017    2682.7043   -42052.721    130.32539    226.41301 
   29050    132.99005   -251.27731    141116.07    -39409.08    2669.8758   -42078.956    130.67824    225.33031 
   29100    134.64072   -140.73267    141085.44   -39379.373    2703.0141   -42082.388     130.9805     228.1271 
   29150    132.49115   -420.87961    141028.37   -39413.817    2659.8599   -42073.677    131.27892      224.485 
   29200    133.38477    29.257185    141007.94   -39373.644       2677.8   -42051.444    131.10418    225.99909 
   29250    133.11325   -91.271612    141072.24   -39342.194    2672.3491   -42014.543    131.20005    225.53905 
   29300     133.8729    107.56345    141124.45   -39334.253    2687.5997   -42021.852    131.53185    226.82616 
   29350     134.1598   -68.796304    141221.15    -39394.74    2693.3594   -42088.099    131.73211    227.31227 
   29400    131.18778   -539.22404    141233.42   -39412.969    2633.6939   -42046.662    131.86437    222.27666 
   29450    133.99291   -156.11667    141183.55   -39403.025    2690.0088   -42093.034    131.99415    227.02949 
   29500    134.17553   -19.182269    141229.48   -39400.206    2693.6751   -42093.881    132.23773    227.33891 
   29550    133.06139   -215.87793    141330.61   -39417.509    2671.3079   -42088.817    132.51877    225.45118 
   29600    132.19436   -168.91565    141306.54   -39441.169    2653.9017   -42095.071    132.73602    223.98214 
   29650    130.93744   -146.80793    141275.09   -39432.671    2628.6681    -42061.34    132.83005    221.85249 
   29700    135.25212   -374.29949    141212.86   -39371.684    2715.2885   -42086.973    133.16313    229.16303 
   29750     134.4172   -104.78152    141137.35   -39399.084    2698.5268   -42097.611    133.66936    227.74838 
   29800    133.20858   -248.74225    141169.29   -39391.544     2674.263   -42065.807    134.01739    225.70058 
   29850    135.13554   -118.42784    141248.42   -39384.144    2712.9481   -42097.092    134.27055     228.9655 
   29900    133.27976   -341.71315    141254.52   -39443.253    2675.6919   -42118.944    134.45022    225.82118 
   29950    133.07541   -219.24157    141268.41   -39471.848    2671.5893   -42143.437    134.64361    225.47493 
   30000    129.79606   -120.42081     141294.3   -39466.801    2605.7539   -42072.555    134.78888     219.9186 
   30050    130.69338   -354.06042    141348.81   -39427.683    2623.7684   -42051.452    135.34028    221.43897 
   30100    132.89575   -157.50536    141375.76   -39370.634    2667.9826   -42038.616    135.91119    225.17053 
   30150    131.23892   -370.70915    141341.63   -39383.153    2634.7205   -42017.873    135.95887    222.36331 
   30200    133.80561   -472.61901    141183.64   -39395.537    2686.2487   -42081.786     136.1267    226.71215 
   30250    133.81739   -173.28979    141141.82       -39366    2686.4853   -42052.485    136.58829    226.73211 
   30300    134.20327   -228.61897     141139.8   -39373.955    2694.2321   -42068.187    136.89156    227.38592 
   30350    132.60084   -312.76703     141093.5   -39407.368     2662.062    -42069.43    137.32522    224.67086 
   30400    134.37347    -562.8608    140991.24   -39370.181    2697.6489    -42067.83    137.74036    227.67429 
   30450    137.37961   -317.52245    140907.76   -39346.833    2757.9996   -42104.833    138.17822    232.76772 
   30500    132.63652   -211.16268    140801.38   -39317.618    2662.7784   -41980.396    138.32482    224.73132 
   30550    134.42384   -366.69463    140760.99   -39324.457    2698.6603   -42023.117    138.45333    227.75965 
   30600     131.2406   -258.42195    140767.45   -39325.785    2634.7542   -41960.539    138.73654    222.36614 
   30650    132.80966    105.62752     140799.6   -39282.412    2666.2543   -41948.667    138.73407    225.02467 
   30700    132.46798   -266.93262    140910.02   -39251.437    2659.3948   -41910.831    138.96082    224.44574 
   30750    133.89531   -231.73376    140855.72   -39310.002    2688.0495   -41998.052    139.43167    226.86413 
   30800    136.35951   -228.12265    140827.31   -39306.571    2737.5203   -42044.091    139.49105    231.03933 
   30850    134.51127   -2.7566527    140878.99   -39301.563    2700.4155   -42001.978    139.35668    227.90778 
   30900    131.06482   -86.273972    140880.13   -39338.662    2631.2253   -41969.887    139.30091    222.06832 
   30950    132.80859   -240.16099    140900.96   -39323.316    2666.2328   -41989.549    139.89982    225.02285 
   31000    134.95275   -161.22094    140861.72   -39338.155    2709.2784   -42047.434    140.41559    228.65579 
   31050    132.38439   -377.52775    140819.14   -39319.068    2657.7166   -41976.784     140.8364    224.30411 
   31100    135.01083   -211.76372    140752.59   -39311.418    2710.4445   -42021.863    140.95175     228.7542 
   31150     135.6018   -247.66341    140698.83   -39286.088    2722.3086   -42008.396    141.40476     229.7555 
   31200    133.95951   -289.50045    140723.31   -39349.221    2689.3384    -42038.56    141.61295     226.9729 
   31250    133.35469   -218.33626    140700.61   -39349.221    2677.1961   -42026.418    141.94851    225.94813 
   31300    133.09976   -129.66705    140622.47   -39385.423    2672.0783   -42057.501    142.07098     225.5162 
   31350    127.65015    -87.49782    140609.64     -39473.1    2562.6733   -42035.773    142.45114    216.28271 
   31400    130.51024   -189.30439    140639.71    -39479.26    2620.0917   -42099.352    142.73781    221.12867 
   31450    130.10636   -122.88937    140612.88   -39469.316    2611.9834     -42081.3    142.97494    220.44435 
   31500    130.89378    18.100813    140624.12   -39428.102    2627.7916   -42055.893    142.94476    221.77853 
   31550    131.04534   -204.46276    140693.91   -39453.105    2630.8341   -42083.939    142.80197     222.0353 
   31600    132.90278   -335.90985    140720.29   -39448.973    2668.1237   -42117.096    142.73916    225.18244 
   31650    132.03341   -244.47888    140690.17   -39489.441    2650.6705   -42140.112    142.71777    223.70944 
   31700    132.37944   -232.40709    140646.64   -39437.412    2657.6174   -42095.029    143.01866    224.29574 
   31750    132.08239   -273.79398    140585.74   -39420.742    2651.6538   -42072.395    143.21348    223.79242 
   31800    130.09245   -189.79439    140580.87   -39478.827    2611.7042   -42090.532    143.50803    220.42079 
   31850    129.79881   -132.23707    140657.22   -39519.771    2605.8093    -42125.58    143.65234    219.92327 
   31900    132.43808    60.959636    140740.38   -39475.933    2658.7945   -42134.728     144.1607    224.39508 
   31950    135.75336   -240.21239    140763.59   -39466.838    2725.3514   -42192.189     144.3567     230.0123 
   32000    134.45075   -132.42683    140771.42   -39486.164    2699.2003   -42185.364    144.47433    227.80522 
   32050     133.1442   -15.628186    140792.73   -39465.021    2672.9705   -42137.992    144.77598     225.5915 
   32100    133.87615   -64.634224    140817.17   -39445.418    2687.6649   -42133.083    144.66122    226.83167 
   32150    129.51874   -160.22489    140842.35   -39488.876    2600.1865   -42089.063    144.92026    219.44873 
   32200    132.54398    -407.4196    140825.72    -39488.66    2660.9206    -42149.58    145.23211    224.57452 
   32250    130.10015   -174.71555    140779.87    -39457.18    2611.8589   -42069.038    145.27322    220.43385 
   32300    132.32855   -260.44284    140768.92   -39429.291    2656.5957   -42085.886    145.92712    224.20951 
   32350    133.69208   -81.922854     140797.7    -39432.57    2683.9695    -42116.54    146.31771    226.51979 
   32400    133.05492   -243.58835    140840.99   -39360.113    2671.1781   -42031.291     146.3856    225.44023 
   32450    133.83836    -197.5258    140835.42   -39401.915    2686.9062   -42088.822    146.51412    226.76763 
   32500    133.40605   -167.28201     140743.9   -39467.387    2678.2272   -42145.614    147.03075    226.03515 
   32550      132.096   -229.02793    140666.29   -39458.961    2651.9269   -42110.888    147.41147    223.81548 
   32600    133.58438   -210.46779    140642.67   -39488.114    2681.8074   -42169.922    147.96603    226.33731 
   32650    133.83938   -286.35345     140640.3   -39518.417    2686.9266   -42205.344    148.33981    226.76936 
   32700    130.44542   -102.17304    140708.24   -39486.107    2618.7903   -42104.897    148.31627    221.01884 
   32750     132.5528   -161.05586    140774.38   -39451.775    2661.0976   -42112.872    148.51702    224.58946 
   32800    132.90645   -168.28923    140867.09   -39468.909    2668.1974   -42137.106     148.4641    225.18866 
   32850    132.90946    -77.87677    140919.89   -39430.794    2668.2578   -42099.052    148.68762    225.19376 
   32900    131.48967    -72.18015    141035.27   -39452.455    2639.7545   -42092.209    148.87774    222.78815 
   32950    134.53536   -278.91978    141089.73   -39469.443    2700.8989   -42170.342    149.06016    227.94858 
   33000    132.53424   -231.63955    141053.25   -39507.044    2660.7249   -42167.769    149.68066    224.55801 
   33050    132.37403   -307.44012    141016.13   -39488.438    2657.5088   -42145.947    149.89846    224.28657 
   33100    133.87947   -304.42368    141013.11   -39469.562    2687.7316   -42157.294    150.38884     226.8373 
   33150     133.8714   -128.15055       141005   -39502.299    2687.5695   -42189.868    150.42757    226.82361 
   33200    133.81567   -281.84849    141054.89   -39494.439    2686.4508    -42180.89    150.35865     226.7292 
   33250    132.16177   -179.82976    141062.66   -39521.081    2653.2475   -42174.329    150.50603    223.92693 
   33300    130.61792   -351.03787    141046.76   -39472.691    2622.2535   -42094.945    150.73188    221.31112 
   33350     131.4531   -209.62149    141007.02   -39485.301    2639.0204   -42124.321     150.9057     222.7262 
   33400    131.63007   -155.19466    140973.85   -39449.835    2642.5732   -42092.408    150.95633    223.02605 
   33450    133.51743   -53.379047    140972.26   -39479.246    2680.4634   -42159.709    151.47723    226.22388 
   33500    132.44395   -248.37888    141012.11   -39440.984    2658.9123   -42099.896    151.72094    224.40503 
   33550    133.07565   -28.965798    141073.37   -39414.502    2671.5942   -42086.096    152.13044    225.47534 
   33600    133.64444   -177.09229    141118.66   -39432.645    2683.0131   -42115.658    152.58573    226.43906 
   33650    133.00715    -302.5386    141100.57   -39457.176     2670.219   -42127.395     152.7874    225.35928 
   33700     131.7231   -167.15499    141112.79   -39453.083    2644.4407   -42097.524    153.32906    223.18366 
   33750    134.23355   -337.26344    141040.92   -39393.565    2694.8399   -42088.405    153.63648    227.43722 
   33800    133.99931   -170.21843    141004.28   -39412.014    2690.1373   -42102.151    153.83553    227.04033 
   33850    135.00237   -201.07241    141037.55   -39380.992    2710.2745   -42091.266    154.29124    228.73986 
   33900    133.88889   -247.08484    141056.68   -39380.741    2687.9206   -42068.661     154.5579    226.85325 
   33950    132.67531    -89.59732    141051.09   -39402.051     2663.557   -42065.608    154.74391    224.79703 
[...]
   92000    130.69316   -404.66782    140554.81   -39504.668     2623.764   -42128.432    389.21733     221.4386 
   92050    131.70652   -98.800508    140485.76   -39464.932    2644.1079    -42109.04    389.36337    223.15557 
   92100    131.31874    -298.2432    140525.19   -39434.248    2636.3229   -42070.571    389.85013    222.49854 
   92150     134.1604   -261.21438     140572.1   -39442.632    2693.3715   -42136.004    390.17453    227.31329 
   92200    132.76646    -136.0325    140617.91   -39439.409    2665.3871   -42104.797    390.70429    224.95148 
   92250    130.88202   -341.18563    140637.18   -39503.273    2627.5555   -42130.828    391.15058     221.7586 
   92300    134.93513   -253.33519    140608.99   -39469.771    2708.9246   -42178.696     390.9197    228.62593 
   92350    133.63161   -107.81095    140616.46   -39479.736    2682.7555   -42162.491    391.31692    226.41732 
   92400    133.57422   -115.77181    140596.65   -39517.084    2681.6035   -42198.688    391.66685     226.3201 
   92450     131.1787   -247.34913    140623.17   -39509.217    2633.5115   -42142.729    391.95974    222.26127 
   92500    129.62636    -181.5618    140614.36   -39492.261    2602.3472   -42094.609    392.73856    219.63108 
   92550    133.74738   -320.69527    140566.51   -39468.764    2685.0796   -42153.844    392.69668    226.61348 
   92600    132.94802   -121.87101    140562.54   -39502.395    2669.0319   -42171.427    392.38667    225.25909 
   92650    133.86675   -33.657493     140538.8   -39527.746    2687.4761   -42215.223     392.3518    226.81574 
   92700    133.24123    -122.5278    140590.98     -39513.6    2674.9184   -42188.518    392.42558     225.7559 
   92750    132.32681   -294.25616    140621.52   -39512.256    2656.5607   -42168.817    392.56599    224.20656 
   92800    133.22211   -215.61369    140593.21   -39508.898    2674.5346   -42183.433    392.87565     225.7235 
   92850    132.21117    -203.9336    140590.07   -39453.617    2654.2391   -42107.856    393.28249    224.01062 
   92900    133.05414   -43.088119    140629.44   -39442.288    2671.1625    -42113.45    393.40511    225.43891 
   92950    133.08592   -119.58493    140691.77   -39458.745    2671.8004   -42130.546    393.57364    225.49275 
   93000    134.43678   -172.64061    140672.68   -39443.381    2698.9201   -42142.302    393.96118    227.78157 
   93050     131.7863   -255.09069    140634.22   -39416.568    2645.7096   -42062.278     394.4387    223.29075 
   93100     133.5202   -229.56067    140632.17   -39488.328     2680.519   -42168.847    394.07185    226.22857 
   93150    132.19493   -83.735957    140699.79    -39496.25     2653.913   -42150.163    393.97473     223.9831 
   93200    130.60786    62.623297    140747.34   -39498.782    2622.0514   -42120.833    394.33611    221.29407 
   93250    133.89865   -235.51074    140855.99   -39445.127    2688.1165   -42133.244    394.80008    226.86978 
   93300    133.69947   -178.96073    140864.93   -39508.944    2684.1178   -42193.062    395.23342     226.5323 
   93350    132.43838   -363.83979    140754.57   -39490.249    2658.8005    -42149.05    395.34215    224.39559 
   93400    135.13319   -106.99056    140670.23   -39475.148     2712.901   -42188.049    395.23888    228.96153 
   93450    133.64019   -167.40119    140658.67    -39430.13    2682.9278   -42113.058    395.07267    226.43187 
   93500     135.6167   -92.039511    140680.21   -39386.627    2722.6078   -42109.235    395.03248    229.78075 
   93550    133.72903   -164.30147    140688.64   -39460.786    2684.7113   -42145.498    395.30394    226.58239 
   93600    136.45964    -288.3982     140688.3   -39478.749    2739.5303    -42218.28    395.45912    231.20897 
   93650    132.99956   -257.05214    140687.66    -39459.37    2670.0667   -42129.436     396.0283    225.34642 
   93700    131.01382   -66.357188    140690.74   -39460.703    2630.2015   -42090.905    395.70679    221.98191 
   93750    130.45886   -233.99508    140708.52   -39472.117    2619.0601   -42091.177    395.57417    221.04161 
   93800    132.47074   -175.60064    140805.75   -39506.408    2659.4502   -42165.858    395.81255    224.45042 
   93850    127.98536   -88.435086       140766   -39538.868    2569.4029    -42108.27    396.26887    216.85067 
   93900    130.67581   -124.61823    140818.72   -39539.241    2623.4156   -42162.657    396.45181     221.4092 
   93950    132.02731     -189.485    140846.63   -39578.596     2650.548   -42229.143      396.404     223.6991 
   94000    132.55675   -43.669709    140878.46   -39477.324    2661.1768   -42138.501    396.50795    224.59615 
   94050    132.73946    31.763093    140900.78   -39471.988     2664.845   -42136.833    396.87647    224.90573 
   94100    130.80666   -214.93332    140895.95   -39511.006    2626.0425   -42137.049     397.4637    221.63091 
   94150     132.4427    -279.5478    140874.96   -39490.739    2658.8873   -42149.626    397.70834    224.40291 
   94200    131.87381   -249.71634    140866.71   -39446.795    2647.4664   -42094.261    397.46879    223.43902 
   94250    131.80415   -134.20138    140822.38   -39442.918    2646.0678   -42088.986    397.41629    223.32099 
   94300    132.43932   -216.01963    140769.84   -39449.233    2658.8194   -42108.053    397.75504    224.39719 
   94350    131.72608    -212.0053     140769.5   -39468.944    2644.5007   -42113.445    397.97289    223.18872 
   94400    130.58637   -134.17203    140695.43    -39492.14    2621.6202    -42113.76    397.99422    221.25767 
   94450    130.54363   -68.873952    140664.07   -39489.043     2620.762   -42109.805    398.10625    221.18525 
   94500    128.01767   -114.45598    140723.83   -39505.847    2570.0515   -42075.898    398.28438    216.90541 
   94550    130.74922    -202.9462    140720.48   -39477.751    2624.8894   -42102.641    398.69597    221.53358 
   94600    133.09206    128.61896    140667.58    -39420.18    2671.9236   -42092.104    399.00954    225.50314 
   94650    133.29265   -231.09261    140712.77   -39379.331    2675.9506   -42055.281     399.5087    225.84301 
   94700    132.79312   -169.83327    140721.35   -39358.016    2665.9223   -42023.939    399.56844    224.99665 
   94750    134.14899    51.397327    140742.46   -39333.927    2693.1423   -42027.069    399.85127    227.29394 
   94800    134.64824   -109.65599     140695.9   -39325.693    2703.1651   -42028.858    400.24107    228.13985 
   94850    134.75805   -305.74576    140714.75   -39310.801    2705.3697   -42016.171    400.27177    228.32591 
   94900    133.54242   -224.03669    140603.41   -39394.189    2680.9651   -42075.154    400.72236    226.26622 
   94950    132.72526    -128.4179    140648.02    -39413.17      2664.56    -42077.73    400.33307    224.88167 
   95000    134.07593   -278.06642    140612.79   -39373.856    2691.6756   -42065.532    400.40436    227.17016 
   95050    134.57256    -118.5774     140675.2   -39338.081    2701.6459   -42039.727    400.61111    228.01163 
   95100    129.35804   -116.86825    140706.11   -39397.342    2596.9604   -41994.303    400.97842    219.17645 
   95150    132.93304   -150.78671    140706.81    -39400.23    2668.7312   -42068.961    400.85553    225.23371 
   95200    131.45809    2.8923554    140698.53   -39389.099    2639.1204   -42028.219    400.81632    222.73465 
   95250    132.53621   -287.46629     140641.2   -39397.088    2660.7645   -42057.853    400.64098    224.56135 
   95300    132.08292   -149.82869    140630.16   -39412.759    2651.6645   -42064.424    400.48314    223.79333 
   95350    132.19457   -460.19096    140614.11    -39439.07    2653.9059   -42092.976    401.00668     223.9825 
   95400    132.04081   -60.368339    140630.71   -39418.412    2650.8191   -42069.231    401.62889    223.72198 
   95450    131.45993   -210.97146    140678.84   -39415.046    2639.1574   -42054.203    401.91386    222.73776 
   95500    129.08007   -293.77708    140653.61   -39418.338      2591.38   -42009.718    402.19806    218.70548 
   95550    133.38067   -169.90005    140617.88   -39398.144    2677.7177   -42075.861    402.23529    225.99215 
   95600    133.24457   -182.37418    140682.65   -39392.772    2674.9855   -42067.757    402.26582    225.76156 
   95650    136.31014   -26.018746    140842.43   -39370.085    2736.5291   -42106.614    401.97934    230.95567 
   95700    135.52578    -189.8646    140855.31   -39305.477    2720.7824    -42026.26    402.22988    229.62669 
   95750    135.96954    12.988116    140956.41   -39298.336    2729.6913   -42028.027    402.50179    230.37858 
   95800     136.2055   -256.18188    140952.01   -39324.396    2734.4283   -42058.824    402.98546    230.77837 
   95850    132.70499   -404.38022    140945.37   -39330.538     2664.153   -41994.691     403.0726    224.84733 
   95900    135.67935   -562.23932    140871.03   -39269.172    2723.8654   -41993.037    403.32534    229.88689 
   95950    137.73629   -35.272872    140831.61   -39303.747    2765.1601   -42068.907    403.85141    233.37205 
   96000    134.18995   -106.04149    140899.88   -39318.547    2693.9647   -42012.512    404.04546    227.36335 
   96050    133.47877   -161.67672    140916.21   -39353.192    2679.6872    -42032.88    404.15223    226.15837 
   96100    133.63826   -237.01479    140918.26   -39349.146    2682.8891   -42032.035    404.72232     226.4286 
   96150     134.2449   -159.49606    140972.47   -39372.742    2695.0678    -42067.81    405.01714    227.45645 
   96200    133.29143   -42.346022    141017.41   -39374.871    2675.9262   -42050.797    405.55078    225.84095 
   96250    131.47546   -78.289937    141057.26   -39383.517    2639.4693   -42022.986    405.57362    222.76409 
   96300    130.86244   -321.51402    141079.94   -39345.544    2627.1624   -41972.706    405.78533    221.72542 
   96350    133.39968   -89.872945    141111.15   -39400.394    2678.0994   -42078.493    405.54379    226.02437 
   96400    134.07622   -366.00222    141103.49    -39353.93    2691.6815   -42045.612    406.20196    227.17065 
   96450    135.35845    48.790899    141152.32   -39355.032    2717.4231   -42072.455    406.42731    229.34318 
   96500    137.33522    -221.5063    141209.82   -39334.976    2757.1084   -42092.084    406.32062    232.69251 
   96550     133.1478   -97.022099    141212.69   -39376.706    2673.0428   -42049.749    406.51107     225.5976 
   96600    133.66637   -244.30412     141208.3   -39416.359    2683.4535   -42099.813    407.17472    226.47623 
   96650    133.55439    -202.0178    141223.36   -39409.867    2681.2054   -42091.072    407.23705     226.2865 
   96700    134.73352   -348.31597    141188.13   -39404.695    2704.8772   -42109.572    407.32895    228.28434 
   96750    131.07846   -308.06003    141112.76   -39453.226    2631.4991   -42084.725    406.71608    222.09143 
   96800    133.71025   -251.28572    141055.82   -39437.963    2684.3343   -42122.298     406.3299    226.55057 
   96850    132.74574   -299.26946    141008.81   -39453.227    2664.9711   -42118.199    406.59706    224.91637 
   96900    132.04827    -101.2265    141003.55   -39449.046    2650.9688   -42100.015     406.5756    223.73462 
   96950    129.34738   -244.34359    140973.09   -39454.798    2596.7464   -42051.544    406.82775    219.15839 
   97000    132.23534    -269.8589    141030.78   -39471.622    2654.7245   -42126.347    406.88962    224.05158 
   97050    131.59523   -76.226492    141022.13   -39435.994    2641.8736   -42077.868    407.01516    222.96701 
   97100    135.60447   -352.45084    141047.05   -39384.738    2722.3622     -42107.1    407.46336    229.76003 
   97150    129.69658   -403.38028    141040.21   -39436.532    2603.7569   -42040.289    407.12877    219.75006 
   97200    133.95514   -314.98926    141052.11   -39413.716    2689.2506   -42102.967    407.13353    226.96549 
   97250    129.90731   -232.69355    141074.79   -39418.907    2607.9875   -42026.894    406.81693    220.10711 
   97300    132.41505   -311.99011    141018.91   -39399.586    2658.3321   -42057.919    406.52267    224.35606 
   97350    132.72341   -269.91046    140899.81   -39385.095    2664.5228   -42049.617    406.60341    224.87853 
   97400    133.47143   -324.82167    140865.58     -39383.7    2679.5398    -42063.24    406.08032    226.14593 
   97450    131.56579   -230.81188    140820.29    -39376.76    2641.2827   -42018.043    406.41493    222.91714 
   97500    134.13047   -228.41305       140817   -39396.967    2692.7705   -42089.737    406.50382    227.26256 
   97550    132.47534   -431.71709    140789.69   -39394.996    2659.5427   -42054.539    406.22719    224.45823 
   97600     130.7584   -320.80226    140732.01   -39404.671    2625.0737   -42029.745    406.53018    221.54914 
   97650    133.05429   -330.32944    140675.74   -39420.202    2671.1654   -42091.368    407.01144    225.43916 
   97700      132.889   -250.09199    140599.69   -39407.539     2667.847   -42075.386    407.45856    225.15909 
   97750    133.88768   -285.63017    140600.82   -39385.045    2687.8964   -42072.941    406.88664    226.85121 
   97800    135.68787   -187.92785    140648.37   -39413.273    2724.0366    -42137.31    407.05831    229.90134 
   97850    135.33005   -357.88882    140553.12    -39423.29     2716.853   -42140.143    407.72028    229.29506 
   97900    133.38618   -107.81105    140499.91   -39445.766    2677.8283   -42123.594    408.35771    226.00148 
   97950    133.72339   -215.32994     140616.6   -39441.473    2684.5982   -42126.071    408.50606    226.57284 
   98000    132.18324   -257.09732    140584.68   -39457.605    2653.6785   -42111.284    408.54401    223.96331 
   98050    132.16289   -8.7583594    140604.73   -39460.103      2653.27   -42113.373    408.31999    223.92883 
   98100    133.73535   -53.391149    140665.44   -39452.397    2684.8382   -42137.236    408.73676    226.59311 
   98150    131.46224    -160.8177    140734.64   -39457.871    2639.2039   -42097.075    409.03698    222.74169 
   98200    133.33545   -60.220142    140793.31   -39423.105      2676.81   -42099.915    409.11022    225.91554 
   98250    136.18651   -283.08491    140856.38   -39411.749    2734.0471   -42145.796    409.23982     230.7462 
   98300     132.2154    -153.7849    140883.97   -39424.641    2654.3241   -42078.965    409.25974     224.0178 
   98350    131.68719   -115.33557    140874.25   -39405.586    2643.7198   -42049.306    409.65097    223.12282 
   98400    133.46571   -47.889634    140974.95   -39376.518     2679.425   -42055.943    409.86947    226.13624 
   98450    132.94166   -73.777391    141053.34   -39382.142    2668.9043   -42051.046    410.23469    225.24833 
   98500    134.08326   -205.62861    141088.07   -39401.221    2691.8229   -42093.044    410.40415    227.18259 
   98550    132.84718   -167.78069    141041.72   -39404.629    2667.0076   -42071.637    410.30341    225.08824 
   98600    132.41752   -88.671292     140985.9   -39412.716    2658.3818   -42071.098        410.5    224.36025 
   98650    130.71308   -100.29169    140981.16   -39438.514    2624.1638   -42062.678    410.67743    221.47234 
   98700    130.24348   -41.234461    141005.29   -39487.232    2614.7364   -42101.969    410.63492    220.67669 
   98750    132.99356   -249.78375     141048.9   -39502.273    2669.9462   -42172.219    410.88216    225.33626 
   98800    133.41906   -137.27451    141039.63   -39463.987    2678.4885   -42142.475    411.43668    226.05721 
   98850    133.59209   -167.92808    141043.61   -39448.383    2681.9622   -42130.346    411.70646    226.35038 
   98900    133.67016   -234.28743    140986.71   -39462.187    2683.5294   -42145.716    411.67994    226.48264 
   98950    130.28524   -235.75309    140952.31   -39479.102    2615.5747   -42094.676    411.73898    220.74745 
   99000    133.41474   -215.08179    140920.09   -39503.211    2678.4017   -42181.613    412.09356    226.04988 
   99050    131.16187   -162.11284    140896.74   -39476.849    2633.1737   -42110.022    411.59516    222.23275 
   99100       133.16   -118.62182    140893.15   -39523.962    2673.2876   -42197.249    411.53126    225.61826 
   99150    131.67208   -126.26714     140891.3   -39543.538    2643.4166   -42186.955    411.98104    223.09723 
   99200    132.48969   -189.59891     140820.4   -39466.374    2659.8306   -42126.204    411.70571    224.48253 
   99250    131.18667   -301.80889    140780.32   -39521.167    2633.6715   -42154.838    412.33268    222.27477 
   99300     133.4274   -254.23309     140775.6     -39493.8    2678.6559   -42172.456    411.99645    226.07133 
   99350    133.88896   -207.47061     140743.3   -39447.389    2687.9221   -42135.311    411.75043    226.85338 
   99400     131.7716    158.59883    140836.64   -39457.662    2645.4144   -42103.076    411.91331    223.26584 
   99450    133.16949   -237.27052    140869.74   -39388.163    2673.4782   -42061.641    412.26281    225.63435 
   99500    128.87668   -186.11816     140796.1    -39397.95    2587.2967   -41985.247    412.57635    218.36086 
   99550    130.47179   -48.786227    140762.77   -39364.558    2619.3198   -41983.878    412.71266    221.06352 
   99600    130.58114   -2.8228266    140803.88   -39398.348    2621.5151   -42019.863     412.8126    221.24881 
   99650     134.8294   -187.60461    140769.72   -39374.868     2706.802    -42081.67    413.43144    228.44679 
   99700    132.31726   -241.78732    140771.69   -39383.524     2656.369   -42039.893    413.49869    224.19038 
   99750    132.42314    -246.1871    140737.62   -39403.288    2658.4946   -42061.782    413.55731    224.36977 
   99800    135.00363   -71.700315    140781.91   -39368.053    2710.2999   -42078.353     414.0747      228.742 
   99850    131.53837   -339.64281    140781.29   -39379.727    2640.7322   -42020.459    414.64652    222.87067 
   99900    133.07643    -432.2644    140729.67   -39433.415    2671.6098   -42105.025    414.90725    225.47666 
   99950    132.40655   -164.16655    140775.44    -39407.86    2658.1616   -42066.022    415.31832    224.34167 
  100000    130.44975   -473.53056    140754.79   -39437.052    2618.8773   -42055.929    415.07269    221.02618 
Loop time of 194.477 on 64 procs for 100000 steps with 6736 atoms

Performance: 222.135 ns/day, 0.108 hours/ns, 514.201 timesteps/s
100.0% CPU use with 64 MPI tasks x no OpenMP threads

MPI task timing breakdown:
Section |  min time  |  avg time  |  max time  |%varavg| %total
---------------------------------------------------------------
Pair    | 37.137     | 92.724     | 152.76     | 571.6 | 47.68
Neigh   | 1.3041     | 2.6319     | 5.1741     |  87.8 |  1.35
Comm    | 28.17      | 87.052     | 145.18     | 571.0 | 44.76
Output  | 0.12683    | 0.12853    | 0.14167    |   0.5 |  0.07
Modify  | 7.1319     | 11.201     | 19.455     | 131.7 |  5.76
Other   |            | 0.7383     |            |       |  0.38

Nlocal:    105.25 ave 174 max 66 min
Histogram: 26 6 0 11 5 0 0 0 5 11
Nghost:    1002.23 ave 1355 max 671 min
Histogram: 32 0 0 0 0 0 0 0 12 20
Neighs:    0 ave 0 max 0 min
Histogram: 64 0 0 0 0 0 0 0 0 0
FullNghs:  12673.1 ave 27813 max 4151 min
Histogram: 32 0 0 0 16 0 0 0 2 14

Total # of neighbors = 811076
Ave neighs/atom = 120.409
Neighbor list builds = 6153
Dangerous builds = 0

write_data		${DIR}/data.eq-${NAME}-${TEMP}
write_data		run_19/data.eq-${NAME}-${TEMP}
write_data		run_19/data.eq-het_freeze_19-${TEMP}
write_data		run_19/data.eq-het_freeze_19-225
undump          1

reset_timestep  0

unfix           2
unfix           3
unfix           4


################################################
#######         Run Simulation         #########
################################################

log				${DIR}/log.run_${NAME}
log				run_19/log.run_${NAME}
log				run_19/log.run_het_freeze_19
