LAMMPS data file via write_data, version 16 Mar 2018, timestep = 6000000

6489 atoms
2 atom types

0.0000000000000000e+00 4.9219999999999999e+01 xlo xhi
0.0000000000000000e+00 4.9019635930410494e+01 ylo yhi
5.4424348135620804e-01 5.9517756518637938e+01 zlo zhi

Masses

1 18.015
2 12.01

Atoms # atomic

1945 1 4.3788344065748523e+00 3.3339792642580974e+00 1.9764398318706857e+00 2 0 0
1465 1 2.4820153587254699e+00 1.2401907432234034e+00 2.9172916715924129e+00 0 3 1
3260 1 6.7682461556090860e+00 2.4904230329596233e+00 3.0908016605162101e+00 3 -2 0
5107 1 9.1539135019901092e+00 8.8279970328756079e+00 6.6149747324771901e+00 2 -4 1
121 1 3.3410540795607235e+00 5.5044942092932239e+00 3.1809958343316169e+00 0 1 1
1817 1 4.0147860660898900e+00 9.6568148218262824e+00 5.8172319760641686e+00 -1 2 0
4880 1 4.9401617030169405e+00 7.4046485651284275e+00 1.8155214287119223e+00 1 -1 0
5209 1 8.4555135410795579e+00 4.5744373900189794e+00 1.8663919573228707e+00 -3 2 0
1627 1 7.5922790599692176e+00 6.7651493523984989e+00 3.0099305662897602e+00 2 0 1
1938 1 3.7630072244292525e+00 9.5788488066093844e+00 3.0493926849582951e+00 -2 0 0
5178 1 1.3283029202348595e+00 1.0232102115383915e+01 1.8693438271999545e+00 0 0 0
2204 1 9.1256854541802959e+00 9.0826674877610216e+00 1.6026993036692700e+00 2 1 1
1564 1 8.2665446568653369e+00 1.1599373277450695e+01 2.4886210496707637e+00 0 -2 1
1278 1 7.9120850032807297e+00 2.8265022244778887e-01 6.6129655650177979e+00 0 2 0
2874 1 4.1895662791282513e+00 2.6700103609075541e+00 6.4064326689316600e+00 -2 3 0
5036 1 2.3550262855082860e+00 8.9556128205446406e-01 5.6135138383770240e+00 2 1 0
6278 1 8.2711860764520306e+00 1.1280015066927858e+01 5.1421097770042072e+00 1 -2 0
2015 1 6.8305923221578695e+00 2.5922344665139656e+00 5.7617860416730426e+00 3 1 0
5303 1 5.6088435784498598e+00 1.1768718361811585e+01 6.1767291195623431e+00 -1 1 0
1630 1 3.3046621658715463e+00 5.5228640820211403e+00 6.1184049708524721e+00 1 1 1
6331 1 6.6856802935183179e-01 5.9734112832999831e+00 6.9043987591534925e+00 -1 1 1
6236 1 5.2557004376736138e+00 7.4860966807518041e+00 6.9448451520470122e+00 -1 -1 1
1303 1 8.7460589573729912e+00 4.2483458666173091e+00 6.9863067266356484e+00 -1 0 1
6176 1 7.6991092497825768e+00 6.6617986745050510e+00 5.9007505701757621e+00 3 -2 1
6417 1 1.3171953154188203e+00 1.0488039067300502e+01 6.6266489052194526e+00 3 -3 0
5368 1 8.4999407746135058e-01 5.7844107411319552e+00 2.1907386245755696e+00 -2 1 1
5208 1 5.2433539685702160e+00 1.1742760041912314e+01 2.0980959218087811e+00 -1 1 0
6153 1 7.6119499015340351e+00 3.1978888980095854e-01 1.7846917053986284e+00 0 3 0
1882 1 4.0670761110155000e+00 2.9340267579311967e+00 9.3422813183411915e+00 2 1 0
1422 1 1.5787820649850555e+00 3.5366682962995730e+00 1.0295593783690117e+01 -2 1 1
564 1 5.3567386878576633e+00 1.1696704592634296e+01 1.3934073897962493e+01 2 -3 0
478 1 4.9824664616744618e+00 4.6045532380131793e-01 1.0386890520011526e+01 0 1 1
234 1 9.6828265198917229e+00 1.9511367258406211e+00 1.0265316765192498e+01 0 1 0
3400 1 6.1645888815594638e+00 9.3938697449131077e+00 1.2914218568375484e+01 -1 -4 1
4802 1 4.1438756862386072e-01 5.8166302097007039e+00 1.4176842259792457e+01 3 1 0
5375 1 4.9198412564767198e+00 7.3790380736565284e+00 9.6288729597178317e+00 -1 -3 0
1372 1 2.3184811659775764e+00 7.8934517156534412e+00 1.0375159388630188e+01 2 -1 1
225 1 8.4680528325729814e+00 4.3068840433801503e+00 9.8137623528925495e+00 3 1 0
5147 1 5.8901296581564049e+00 4.9128228486034926e+00 1.0247132123328729e+01 0 2 1
2867 1 1.2231839252628804e+00 1.0303566729045906e+01 9.3071740951043402e+00 1 0 1
1529 1 8.9684156757044793e+00 8.9946199518242764e+00 9.4097916147090892e+00 0 1 1
5001 1 6.3643548746886287e+00 9.5477212736978281e+00 1.0159811183674332e+01 1 0 0
4656 1 5.4461417646350485e+00 1.1927229740806800e+01 9.0555372111822248e+00 1 -1 1
4731 1 4.2745777092533102e+00 2.8014949351875766e+00 1.4015200744914194e+01 -1 0 1
6455 1 1.8252186895110833e+00 3.5264736170407329e+00 1.3016600263606843e+01 -1 -2 1
6254 1 5.3246727064328176e+00 4.2163203105073649e-01 1.3088586731879362e+01 -1 2 1
3687 1 9.4556525332181653e+00 2.0785503080980621e+00 1.2828378266975662e+01 3 0 1
4614 1 8.6281040869820096e+00 8.9709342040518045e+00 1.3703202542590963e+01 2 0 0
5276 1 2.0568235393493177e+00 7.8697595014539274e+00 1.3074317550539263e+01 0 0 0
1962 1 7.1128347052562046e-01 5.7919455218628109e+00 9.3851432700066724e+00 1 1 0
2888 1 4.7255843239166060e+00 7.3531584416325693e+00 1.3954266191381942e+01 0 0 1
5137 1 8.1823865409333649e+00 4.2589781903045596e+00 1.4049369651807584e+01 0 4 0
3167 1 5.3754570439800782e+00 4.9078220197024276e+00 1.3016677070362419e+01 1 0 1
2091 1 1.2598729927042391e+00 1.0332480686447795e+01 1.4057650212467026e+01 2 1 0
1345 1 7.8806003385838936e+00 1.5074965292305831e-01 9.3971704773909632e+00 4 0 1
5055 1 7.7702114304522727e+00 2.9644781293841976e-01 1.4021716576848245e+01 -1 2 0
3780 1 2.0492788108412779e-01 1.4628779978734827e+00 1.3902483058385828e+01 1 1 1
4720 1 4.2675264267617194e+00 3.1690372193441267e+00 1.6759888175793122e+01 3 2 1
3328 1 1.6125383599247092e+00 3.5380580241101276e+00 1.7522714121973394e+01 0 -1 1
4973 1 5.0362740094233871e+00 5.7157769630924959e-01 1.7460325297587662e+01 0 -1 0
5282 1 7.8357580667531215e+00 4.3990560322385541e-01 1.6651099846185755e+01 2 0 0
163 1 5.9629260678722567e+00 1.1793241392181809e+01 2.1228185191155994e+01 -1 0 0
3488 1 2.1735869352831840e+00 7.8143414817798318e+00 1.7526327933391030e+01 3 -1 0
4844 1 4.8082865936821593e+00 7.2011915634237189e+00 1.6605496536532570e+01 -1 1 0
520 1 4.5041947510369168e-01 5.7642202154432614e+00 1.6788485284228180e+01 1 -2 1
1769 1 8.7516076137206511e+00 4.2272464111718193e+00 1.6722520355230589e+01 1 1 0
3619 1 6.2045932318327841e+00 4.9597501602843090e+00 1.7668677686027326e+01 2 3 0
3535 1 1.1801900201249547e+00 9.9490748880926283e+00 1.6794845898929236e+01 -1 -1 0
4489 1 9.3797110397229186e+00 9.0301046195587595e+00 2.1050673062704348e+01 -1 1 0
3565 1 9.3653478339812644e+00 8.7412655935954664e+00 1.6348677048440017e+01 2 -1 1
6159 1 6.8955009907195031e+00 9.1845240223658138e+00 1.7566312255787334e+01 2 3 1
335 1 5.5666471178250037e+00 1.1384416183423816e+01 1.6640472847503098e+01 -1 -1 0
1692 1 4.3304058613916538e+00 2.8143400270152861e+00 2.1081221951205904e+01 -1 0 0
3290 1 1.7529095568405777e+00 3.5255037324123930e+00 2.0188156394060027e+01 -1 2 0
4899 1 5.1336250324965942e+00 4.5620695729246624e-01 2.0099693033711258e+01 0 -1 1
4935 1 9.7102889454301646e+00 2.0544923940879740e+00 2.0245441918919450e+01 2 3 1
5373 1 6.8308985666730244e+00 9.1990350421645921e+00 2.0337692276963597e+01 2 4 1
16 1 2.1499636984813004e+00 7.6186022237255209e+00 1.9968073087491849e+01 1 1 1
5298 1 4.1932562316271627e-01 5.7556284136307232e+00 2.1128565704226503e+01 1 1 0
230 1 4.6642982329108413e+00 7.2230858908511664e+00 2.0982696643358224e+01 0 2 1
3302 1 8.2576377586860588e+00 4.3274790987143978e+00 2.1252818578547522e+01 2 0 0
1261 1 5.9269369981209001e+00 4.8269088463830760e+00 2.0303688640723703e+01 -1 2 1
5204 1 1.4887793585569435e+00 1.0212233999788316e+01 2.0981149812723586e+01 -1 0 0
4607 1 3.2208361467040203e+00 1.2243938695554776e+01 2.0328525283122811e+01 0 -1 1
6169 1 7.7787241447856781e+00 1.4285552938609844e-01 2.1112981453013539e+01 2 4 1
565 1 2.9633767170243273e+00 1.1847675454595405e+01 1.7552586115800363e+01 -2 -1 0
371 1 4.2077249537995547e+00 2.9273998962307846e+00 2.3929317914573407e+01 2 -1 0
3441 1 2.7083433616079597e+00 6.0298105687931725e-01 2.4354516986418492e+01 1 -1 0
219 1 6.7604517704995066e+00 2.1422844911394954e+00 2.4326918066855505e+01 0 0 1
3716 1 2.8920218968520262e+00 5.4932502004124695e+00 2.3931721587446813e+01 4 -1 0
5082 1 3.2921205163191508e-01 6.0164540133578956e+00 2.3792548876730660e+01 4 -2 1
150 1 4.7258642464877001e+00 7.5031734113123987e+00 2.3728589109774930e+01 2 0 0
4789 1 8.2950079941525061e+00 4.5035355844290210e+00 2.3942197583132568e+01 0 0 1
1790 1 7.5679528599141985e+00 7.0009000512258517e+00 2.4337112111709008e+01 1 -2 0
3701 1 1.3409987242657144e+00 1.0457888233764089e+01 2.3954112933803252e+01 3 0 1
142 1 4.3724473085294333e+00 1.0355429623171856e+01 2.4035905875355702e+01 -1 0 0
3694 1 8.9975422247476100e+00 1.1586878453372819e+01 2.4134445007787036e+01 2 0 0
705 2 8.6134999999999984e+00 9.2355835810918343e+00 2.6709844706434907e+01 0 0 0
572 2 0.0000000000000000e+00 2.8417180249513345e+00 2.6709844706434907e+01 0 0 0
574 2 0.0000000000000000e+00 0.0000000000000000e+00 2.6709844706434907e+01 0 0 0
576 2 1.2305000000000001e+00 7.1042950623783474e-01 2.6709844706434907e+01 0 0 0
583 2 1.2305000000000001e+00 2.1312885187134998e+00 2.6709844706434907e+01 0 0 0
585 2 2.4610000000000003e+00 2.8417180249513345e+00 2.6709844706434907e+01 0 0 0
587 2 2.4610000000000003e+00 0.0000000000000000e+00 2.6709844706434907e+01 0 0 0
589 2 3.6915000000000004e+00 7.1042950623783474e-01 2.6709844706434907e+01 0 0 0
604 2 3.6914999999999996e+00 2.1312885187134998e+00 2.6709844706434907e+01 0 0 0
606 2 4.9220000000000006e+00 2.8417180249513332e+00 2.6709844706434907e+01 0 0 0
608 2 4.9220000000000006e+00 0.0000000000000000e+00 2.6709844706434907e+01 0 0 0
610 2 6.1524999999999999e+00 7.1042950623783407e-01 2.6709844706434907e+01 0 0 0
633 2 6.1524999999999999e+00 2.1312885187134989e+00 2.6709844706434907e+01 0 0 0
635 2 7.3829999999999991e+00 2.8417180249513345e+00 2.6709844706434907e+01 0 0 0
637 2 7.3829999999999991e+00 0.0000000000000000e+00 2.6709844706434907e+01 0 0 0
639 2 8.6134999999999984e+00 7.1042950623783407e-01 2.6709844706434907e+01 0 0 0
670 2 8.6134999999999984e+00 2.1312885187135002e+00 2.6709844706434907e+01 0 0 0
579 2 0.0000000000000000e+00 4.2625770374269996e+00 2.6709844706434907e+01 0 0 0
581 2 1.2305000000000001e+00 4.9730065436648339e+00 2.6709844706434907e+01 0 0 0
596 2 1.2305000000000001e+00 6.3938655561404980e+00 2.6709844706434907e+01 0 0 0
600 2 2.4610000000000003e+00 4.2625770374269996e+00 2.6709844706434907e+01 0 0 0
602 2 3.6914999999999996e+00 4.9730065436648339e+00 2.6709844706434907e+01 0 0 0
625 2 3.6914999999999996e+00 6.3938655561404980e+00 2.6709844706434907e+01 0 0 0
577 2 0.0000000000000000e+00 7.1042950623783341e+00 2.6709844706434907e+01 0 0 0
598 2 2.4610000000000003e+00 7.1042950623783341e+00 2.6709844706434907e+01 0 0 0
629 2 4.9220000000000006e+00 4.2625770374269978e+00 2.6709844706434907e+01 0 0 0
631 2 6.1524999999999999e+00 4.9730065436648339e+00 2.6709844706434907e+01 0 0 0
662 2 6.1524999999999999e+00 6.3938655561404980e+00 2.6709844706434907e+01 0 0 0
666 2 7.3829999999999991e+00 4.2625770374269996e+00 2.6709844706434907e+01 0 0 0
668 2 8.6135000000000002e+00 4.9730065436648339e+00 2.6709844706434907e+01 0 0 0
707 2 8.6135000000000002e+00 6.3938655561404980e+00 2.6709844706434907e+01 0 0 0
627 2 4.9220000000000006e+00 7.1042950623783341e+00 2.6709844706434907e+01 0 0 0
664 2 7.3830000000000009e+00 7.1042950623783341e+00 2.6709844706434907e+01 0 0 0
654 2 3.6914999999999996e+00 1.0656442593567499e+01 2.6709844706434907e+01 0 0 0
592 2 0.0000000000000000e+00 8.5251540748539991e+00 2.6709844706434907e+01 0 0 0
594 2 1.2305000000000001e+00 9.2355835810918343e+00 2.6709844706434907e+01 0 0 0
621 2 2.4610000000000003e+00 8.5251540748539991e+00 2.6709844706434907e+01 0 0 0
623 2 3.6915000000000004e+00 9.2355835810918343e+00 2.6709844706434907e+01 0 0 0
590 2 0.0000000000000000e+00 1.1366872099805333e+01 2.6709844706434907e+01 0 0 0
617 2 1.2305000000000001e+00 1.0656442593567498e+01 2.6709844706434907e+01 0 0 0
619 2 2.4610000000000003e+00 1.1366872099805333e+01 2.6709844706434907e+01 0 0 0
660 2 6.1524999999999999e+00 9.2355835810918343e+00 2.6709844706434907e+01 0 0 0
699 2 6.1524999999999999e+00 1.0656442593567499e+01 2.6709844706434907e+01 0 0 0
656 2 4.9220000000000006e+00 1.1366872099805333e+01 2.6709844706434907e+01 0 0 0
703 2 7.3830000000000009e+00 8.5251540748539991e+00 2.6709844706434907e+01 0 0 0
658 2 4.9220000000000006e+00 8.5251540748539991e+00 2.6709844706434907e+01 0 0 0
701 2 7.3829999999999991e+00 1.1366872099805333e+01 2.6709844706434907e+01 0 0 0
746 2 8.6134999999999984e+00 1.0656442593567498e+01 2.6709844706434907e+01 0 0 0
1871 1 9.6414803504796041e+00 8.7420600484827933e+00 2.3882295500963757e+01 3 2 0
573 2 0.0000000000000000e+00 1.4208590124756650e+00 3.0030999999997555e+01 0 0 0
575 2 0.0000000000000000e+00 0.0000000000000000e+00 3.0030999999997555e+01 0 0 0
584 2 1.2305000000000001e+00 2.1312885187134998e+00 3.0030999999997555e+01 0 0 0
586 2 2.4610000000000003e+00 1.4208590124756650e+00 3.0030999999997555e+01 0 0 0
588 2 2.4610000000000003e+00 0.0000000000000000e+00 3.0030999999997555e+01 0 0 0
605 2 3.6914999999999996e+00 2.1312885187134998e+00 3.0030999999997555e+01 0 0 0
582 2 1.2305000000000001e+00 3.5521475311891644e+00 3.0030999999997555e+01 0 0 0
603 2 3.6914999999999996e+00 3.5521475311891644e+00 3.0030999999997555e+01 0 0 0
901 2 0.0000000000000000e+00 2.8417180249513345e+00 3.3352155293615354e+01 0 0 0
902 2 0.0000000000000000e+00 0.0000000000000000e+00 3.3352155293615354e+01 0 0 0
903 2 1.2305000000000001e+00 7.1042950623783474e-01 3.3352155293615354e+01 0 0 0
907 2 1.2305000000000001e+00 2.1312885187134998e+00 3.3352155293615354e+01 0 0 0
908 2 2.4610000000000003e+00 2.8417180249513345e+00 3.3352155293615354e+01 0 0 0
909 2 2.4610000000000003e+00 0.0000000000000000e+00 3.3352155293615354e+01 0 0 0
910 2 3.6915000000000004e+00 7.1042950623783474e-01 3.3352155293615354e+01 0 0 0
918 2 3.6914999999999996e+00 2.1312885187134998e+00 3.3352155293615354e+01 0 0 0
607 2 4.9220000000000006e+00 1.4208590124756650e+00 3.0030999999997555e+01 0 0 0
609 2 4.9220000000000006e+00 0.0000000000000000e+00 3.0030999999997555e+01 0 0 0
634 2 6.1524999999999999e+00 2.1312885187134989e+00 3.0030999999997555e+01 0 0 0
636 2 7.3829999999999991e+00 1.4208590124756659e+00 3.0030999999997555e+01 0 0 0
638 2 7.3829999999999991e+00 0.0000000000000000e+00 3.0030999999997555e+01 0 0 0
671 2 8.6134999999999984e+00 2.1312885187135002e+00 3.0030999999997555e+01 0 0 0
632 2 6.1524999999999999e+00 3.5521475311891644e+00 3.0030999999997555e+01 0 0 0
669 2 8.6134999999999984e+00 3.5521475311891657e+00 3.0030999999997555e+01 0 0 0
919 2 4.9220000000000006e+00 2.8417180249513332e+00 3.3352155293615354e+01 0 0 0
920 2 4.9220000000000006e+00 0.0000000000000000e+00 3.3352155293615354e+01 0 0 0
921 2 6.1524999999999999e+00 7.1042950623783407e-01 3.3352155293615354e+01 0 0 0
933 2 6.1524999999999999e+00 2.1312885187134989e+00 3.3352155293615354e+01 0 0 0
934 2 7.3829999999999991e+00 2.8417180249513345e+00 3.3352155293615354e+01 0 0 0
935 2 7.3829999999999991e+00 0.0000000000000000e+00 3.3352155293615354e+01 0 0 0
936 2 8.6134999999999984e+00 7.1042950623783407e-01 3.3352155293615354e+01 0 0 0
952 2 8.6134999999999984e+00 2.1312885187135002e+00 3.3352155293615354e+01 0 0 0
578 2 0.0000000000000000e+00 5.6834360499026637e+00 3.0030999999997555e+01 0 0 0
580 2 0.0000000000000000e+00 4.2625770374269996e+00 3.0030999999997555e+01 0 0 0
597 2 1.2305000000000001e+00 6.3938655561404980e+00 3.0030999999997555e+01 0 0 0
599 2 2.4610000000000003e+00 5.6834360499026637e+00 3.0030999999997555e+01 0 0 0
601 2 2.4610000000000003e+00 4.2625770374269996e+00 3.0030999999997555e+01 0 0 0
626 2 3.6914999999999996e+00 6.3938655561404980e+00 3.0030999999997555e+01 0 0 0
595 2 1.2305000000000001e+00 7.8147245686161639e+00 3.0030999999997555e+01 0 0 0
624 2 3.6914999999999996e+00 7.8147245686161639e+00 3.0030999999997555e+01 0 0 0
905 2 0.0000000000000000e+00 4.2625770374269996e+00 3.3352155293615354e+01 0 0 0
906 2 1.2305000000000001e+00 4.9730065436648339e+00 3.3352155293615354e+01 0 0 0
914 2 1.2305000000000001e+00 6.3938655561404980e+00 3.3352155293615354e+01 0 0 0
916 2 2.4610000000000003e+00 4.2625770374269996e+00 3.3352155293615354e+01 0 0 0
917 2 3.6914999999999996e+00 4.9730065436648339e+00 3.3352155293615354e+01 0 0 0
929 2 3.6914999999999996e+00 6.3938655561404980e+00 3.3352155293615354e+01 0 0 0
904 2 0.0000000000000000e+00 7.1042950623783341e+00 3.3352155293615354e+01 0 0 0
915 2 2.4610000000000003e+00 7.1042950623783341e+00 3.3352155293615354e+01 0 0 0
628 2 4.9220000000000006e+00 5.6834360499026637e+00 3.0030999999997555e+01 0 0 0
630 2 4.9220000000000006e+00 4.2625770374269978e+00 3.0030999999997555e+01 0 0 0
663 2 6.1524999999999999e+00 6.3938655561404980e+00 3.0030999999997555e+01 0 0 0
665 2 7.3829999999999991e+00 5.6834360499026637e+00 3.0030999999997555e+01 0 0 0
667 2 7.3829999999999991e+00 4.2625770374269996e+00 3.0030999999997555e+01 0 0 0
708 2 8.6135000000000002e+00 6.3938655561404980e+00 3.0030999999997555e+01 0 0 0
661 2 6.1524999999999999e+00 7.8147245686161639e+00 3.0030999999997555e+01 0 0 0
706 2 8.6135000000000002e+00 7.8147245686161639e+00 3.0030999999997555e+01 0 0 0
931 2 4.9220000000000006e+00 4.2625770374269978e+00 3.3352155293615354e+01 0 0 0
932 2 6.1524999999999999e+00 4.9730065436648339e+00 3.3352155293615354e+01 0 0 0
948 2 6.1524999999999999e+00 6.3938655561404980e+00 3.3352155293615354e+01 0 0 0
950 2 7.3829999999999991e+00 4.2625770374269996e+00 3.3352155293615354e+01 0 0 0
951 2 8.6135000000000002e+00 4.9730065436648339e+00 3.3352155293615354e+01 0 0 0
971 2 8.6135000000000002e+00 6.3938655561404980e+00 3.3352155293615354e+01 0 0 0
930 2 4.9220000000000006e+00 7.1042950623783341e+00 3.3352155293615354e+01 0 0 0
949 2 7.3830000000000009e+00 7.1042950623783341e+00 3.3352155293615354e+01 0 0 0
591 2 0.0000000000000000e+00 9.9460130873296642e+00 3.0030999999997555e+01 0 0 0
593 2 0.0000000000000000e+00 8.5251540748539991e+00 3.0030999999997555e+01 0 0 0
620 2 2.4610000000000003e+00 9.9460130873296642e+00 3.0030999999997555e+01 0 0 0
622 2 2.4610000000000003e+00 8.5251540748539991e+00 3.0030999999997555e+01 0 0 0
616 2 1.2305000000000001e+00 1.2077301606043163e+01 3.0030999999997555e+01 0 0 0
618 2 1.2305000000000001e+00 1.0656442593567498e+01 3.0030999999997555e+01 0 0 0
653 2 3.6914999999999996e+00 1.2077301606043163e+01 3.0030999999997555e+01 0 0 0
655 2 3.6914999999999996e+00 1.0656442593567499e+01 3.0030999999997555e+01 0 0 0
912 2 0.0000000000000000e+00 8.5251540748539991e+00 3.3352155293615354e+01 0 0 0
913 2 1.2305000000000001e+00 9.2355835810918343e+00 3.3352155293615354e+01 0 0 0
927 2 2.4610000000000003e+00 8.5251540748539991e+00 3.3352155293615354e+01 0 0 0
928 2 3.6915000000000004e+00 9.2355835810918343e+00 3.3352155293615354e+01 0 0 0
911 2 0.0000000000000000e+00 1.1366872099805333e+01 3.3352155293615354e+01 0 0 0
925 2 1.2305000000000001e+00 1.0656442593567498e+01 3.3352155293615354e+01 0 0 0
926 2 2.4610000000000003e+00 1.1366872099805333e+01 3.3352155293615354e+01 0 0 0
944 2 3.6914999999999996e+00 1.0656442593567499e+01 3.3352155293615354e+01 0 0 0
657 2 4.9220000000000006e+00 9.9460130873296642e+00 3.0030999999997555e+01 0 0 0
659 2 4.9220000000000006e+00 8.5251540748539991e+00 3.0030999999997555e+01 0 0 0
702 2 7.3830000000000009e+00 9.9460130873296642e+00 3.0030999999997555e+01 0 0 0
704 2 7.3830000000000009e+00 8.5251540748539991e+00 3.0030999999997555e+01 0 0 0
698 2 6.1524999999999999e+00 1.2077301606043163e+01 3.0030999999997555e+01 0 0 0
700 2 6.1524999999999999e+00 1.0656442593567499e+01 3.0030999999997555e+01 0 0 0
745 2 8.6135000000000002e+00 1.2077301606043163e+01 3.0030999999997555e+01 0 0 0
747 2 8.6134999999999984e+00 1.0656442593567498e+01 3.0030999999997555e+01 0 0 0
946 2 4.9220000000000006e+00 8.5251540748539991e+00 3.3352155293615354e+01 0 0 0
947 2 6.1524999999999999e+00 9.2355835810918343e+00 3.3352155293615354e+01 0 0 0
969 2 7.3830000000000009e+00 8.5251540748539991e+00 3.3352155293615354e+01 0 0 0
970 2 8.6134999999999984e+00 9.2355835810918343e+00 3.3352155293615354e+01 0 0 0
945 2 4.9220000000000006e+00 1.1366872099805333e+01 3.3352155293615354e+01 0 0 0
967 2 6.1524999999999999e+00 1.0656442593567499e+01 3.3352155293615354e+01 0 0 0
968 2 7.3829999999999991e+00 1.1366872099805333e+01 3.3352155293615354e+01 0 0 0
991 2 8.6134999999999984e+00 1.0656442593567498e+01 3.3352155293615354e+01 0 0 0
89 1 3.8507943574004626e+00 2.2797978391118736e+00 3.6127180852541414e+01 1 -1 0
5383 1 5.4049450219826145e+00 1.1120623230998623e+01 3.6124782632440883e+01 0 0 -1
125 1 6.6427546003911324e+00 1.4182234398589511e+00 3.5940629122900120e+01 2 1 -1
4760 1 3.0277382995139064e+00 4.7238228955406836e+00 3.5499796164827544e+01 2 4 0
5287 1 5.4579284805085093e-01 5.1742155516705299e+00 3.6444685452984828e+01 0 0 -1
269 1 5.0017424905304582e+00 6.5207761833633358e+00 3.6295667889076654e+01 1 1 -1
3516 1 8.6236149359831291e+00 3.2161091114011917e+00 3.6384432865369220e+01 2 0 -1
152 1 7.5652166881301097e+00 5.9416363947034654e+00 3.5952834587537708e+01 -1 0 -1
5005 1 3.6834147210985777e+00 8.9721843843011424e+00 3.5571398766768667e+01 1 -3 -1
4552 1 9.4477834898914970e-01 9.5087449798300572e+00 3.6468642141482576e+01 -1 0 0
77 1 9.2798048423097015e+00 8.1307732330047884e+00 3.6424960001019770e+01 4 1 -1
4745 1 8.3133268063490071e+00 1.0606203170141010e+01 3.5616755536396596e+01 0 1 0
4749 1 3.8532044261929839e+00 2.4258207090626120e+00 3.9125586070605095e+01 1 0 -1
5139 1 1.2860726494400605e+00 3.0644706948289673e+00 4.0014793007332571e+01 1 1 -1
3515 1 9.3027709034912913e+00 1.9181378132469062e+00 4.2960936684130814e+01 0 1 -1
5190 1 8.2191681466129562e+00 1.1157418312798956e+01 4.3408076270938651e+01 3 1 0
5336 1 2.3525039173286744e+00 7.2260497428677946e+00 3.9809860160648697e+01 -1 1 0
6415 1 2.4449841019565648e+00 1.1723129640721798e+01 4.2545361208348012e+01 0 1 -1
5158 1 4.9275581463739080e+00 6.7483298268036158e+00 3.8967608558780185e+01 0 1 -1
146 1 8.4500255459626157e+00 3.7743805458296453e+00 3.8897658430940254e+01 3 -1 -1
3616 1 5.7720900122831020e+00 4.1929806350751742e+00 3.9955803623000236e+01 3 1 -1
2876 1 1.2537036864753335e+00 9.8824350966709797e+00 3.8991959559410418e+01 -3 -1 -1
400 1 5.2562887207519795e+00 1.7189349431223228e-01 4.2428390204120078e+01 2 -1 -1
4925 1 5.4450812529111463e+00 1.1452928366413810e+01 3.9006009245879213e+01 1 -1 -1
3445 1 8.9638162199495088e+00 8.6855271778374821e+00 3.9045399650430312e+01 4 -3 -1
2009 1 6.4371787667444531e+00 8.7485134949842109e+00 4.0119762376595574e+01 2 0 -1
5243 1 2.9747718220302208e+00 8.7444913966769777e-01 4.3561716514656311e+01 0 1 -1
3678 1 1.6395007330060285e+00 3.3156876742037551e+00 4.2524074199362090e+01 -1 0 0
5267 1 9.1370574137792939e+00 1.5199966872218591e+00 4.0029427856830523e+01 0 -3 -1
362 1 6.5080227714470684e+00 9.0320381204154518e+00 4.2642728272508052e+01 1 -2 -1
5263 1 6.8240714552467221e+00 2.4437426400529083e+00 4.3723777986821489e+01 -1 1 -1
2122 1 3.1906400203935541e+00 5.3962466502132491e+00 4.3767209279271682e+01 1 0 0
3361 1 2.0663585092183272e+00 7.5278769002337240e+00 4.2566964460130350e+01 2 1 -1
4878 1 7.5870002192902399e+00 6.7704424036022903e+00 4.3473185865089675e+01 4 1 0
1447 1 5.6094604919328344e+00 4.8533732709797324e+00 4.2598518459768044e+01 -2 -1 0
21 1 3.7346944243600610e+00 9.4155173150278682e+00 4.3473517235670300e+01 -1 0 -1
3333 1 2.7884408900592145e-01 5.5402786271045965e+00 3.9103877156479115e+01 3 2 -1
6274 1 2.8074807197991967e+00 1.1863357377726240e+01 3.9809666685679844e+01 1 1 0
6310 1 2.3606360406097466e+00 8.8540352238588982e-01 4.6369708745515695e+01 0 2 0
3472 1 4.0451488767995309e+00 2.7791336445815635e+00 4.7243747908034280e+01 0 1 0
3277 1 6.7635492213428270e+00 2.4879541426374585e+00 4.6492710304046597e+01 -1 2 0
3229 1 9.3373000219302131e+00 8.6579734636527981e+00 4.9982979553269018e+01 0 0 0
4525 1 3.1979813761523128e+00 5.5458962074714862e+00 4.6645586974368726e+01 -2 2 0
295 1 5.1229427655682103e-01 5.4324550059763856e+00 4.7333154913193539e+01 -1 -1 -1
2202 1 4.9707106012696309e+00 7.3760409152015889e+00 4.7347912458738151e+01 1 2 -1
39 1 8.3385428936347701e+00 4.3113436998182797e+00 4.7441175015606873e+01 -2 -1 -1
539 1 7.3393650876102141e+00 6.7601639321866571e+00 4.6367344962877240e+01 -2 0 0
1383 1 4.0393982594602589e+00 9.5052757113738888e+00 4.6220121369734855e+01 1 0 0
6374 1 1.2091224693082785e+00 1.0048551702737573e+01 4.7216727049272876e+01 4 0 -1
2887 1 9.2624505359889344e+00 8.7048374990792112e+00 4.7421013786914571e+01 -1 -1 0
277 1 8.2096559081172149e+00 1.1133186381414165e+01 4.6259112793327930e+01 1 0 -1
480 1 5.7001804169740415e+00 1.1764087328638746e+01 4.7010571773333453e+01 -1 -4 -1
366 1 4.2286856689043892e+00 2.9523568610712085e+00 4.9937170477903948e+01 2 -1 -1
1788 1 2.4349175858780696e+00 1.0843530647089539e+00 5.1080656180697375e+01 -1 -1 0
5039 1 6.7275387818140624e+00 2.5513832359149573e+00 5.0906667834173447e+01 1 -1 0
4964 1 3.2927518320369256e+00 5.3001555869489234e+00 5.0915478946124978e+01 1 -1 0
1798 1 5.1515330624539746e-01 5.5236766774943495e+00 5.0060659375856048e+01 1 -2 -1
5113 1 4.7829329588503287e+00 7.3496724363185564e+00 5.0054930143534307e+01 4 0 -1
3238 1 8.6491003552450731e+00 4.4927096986032788e+00 5.0125288625282266e+01 0 -1 -1
2994 1 7.4042596787814281e+00 6.8695114339341368e+00 5.0834194928094703e+01 -1 -1 -1
3007 1 1.3381002683680561e+00 9.8556486119613247e+00 5.0040471901863185e+01 0 2 -1
1998 1 4.0424675688684868e+00 9.6205201887790430e+00 5.1014793229732774e+01 1 1 -1
271 1 5.9682551022306036e+00 1.1370745765354549e+01 4.9689898196694045e+01 2 0 -1
1595 1 8.4568086011331047e+00 1.1227934046358405e+01 5.0810325832817924e+01 -2 -1 -1
1719 1 7.8372637560466147e+00 2.0794448547331759e-01 5.0184205846919198e+01 3 1 -1
4528 1 7.5098629590085970e+00 2.1928712322470290e-02 4.7235619826041528e+01 1 -1 0
4559 1 1.0837249715206203e+00 3.5123666735322732e+00 5.4553296516073530e+01 1 -1 -1
1274 1 2.1066466530825148e+00 9.8736707888265651e-01 5.3891220223691931e+01 -1 2 0
5335 1 4.8861080205491989e+00 9.2089126589658432e-01 5.4357749345391738e+01 -1 0 0
523 1 6.8336442431029871e+00 2.7403941641207008e+00 5.3584653502270456e+01 0 1 0
5092 1 9.4585443639617512e+00 2.0465188635075968e+00 5.4451776247894514e+01 1 -1 -1
4598 1 2.7103629788255139e+00 5.7374478292257436e+00 5.3579848599865258e+01 1 0 0
4812 1 2.0613344886821756e+00 8.1361292207053761e+00 5.4483726331187341e+01 0 1 0
3045 1 5.5674434731973452e+00 5.0353473916578686e+00 5.4271236848067829e+01 -1 1 0
6267 1 7.5053094679825687e+00 6.8649319536643256e+00 5.3649369893266211e+01 0 1 0
2079 1 4.0605770602378559e+00 9.8938326198564130e+00 5.3689488573698796e+01 -2 2 -1
3710 1 9.2184577012759572e+00 9.1331751621921082e+00 5.7953241174633035e+01 0 1 0
1298 1 6.5288736601546384e+00 9.3503590683968465e+00 5.4897285620353514e+01 0 -1 0
467 1 8.6776912948476816e+00 1.1046077057524126e+01 5.3616137538617650e+01 1 0 -1
3118 1 4.1008255705755259e+00 3.1609485500760011e+00 5.8155812198823341e+01 0 1 -1
508 1 1.1884378536318221e+00 3.7075261692489598e+00 5.7325146456502978e+01 1 0 0
5062 1 5.2199933700354508e+00 9.6963736077437102e-01 5.7054258433305563e+01 2 0 -1
4858 1 9.5993765699267168e+00 2.2358985725277027e+00 5.7263360620151389e+01 2 0 -1
6121 1 5.6418507038741854e+00 1.2004129643433817e+01 5.8253805072749387e+01 1 3 0
3466 1 6.2855879346064851e+00 9.5559216293894007e+00 5.7612550229999727e+01 0 -3 -1
1853 1 2.1620275948763430e+00 7.8078509846440562e+00 5.7245778010545820e+01 -1 1 -1
3119 1 4.7881845182144147e+00 7.2883133653320291e+00 5.8055113811780330e+01 0 -1 0
5103 1 8.5490912827333041e+00 4.4849111187098254e+00 5.8181579121005555e+01 -1 3 0
4539 1 5.9522182703886184e+00 5.0081430371516635e+00 5.7074951988981553e+01 0 0 0
1640 1 1.5218195773048284e+00 1.0413739809857043e+01 5.8205847498740056e+01 1 -1 -1
4583 1 3.3524106013579380e-01 6.1950692752321652e+00 5.8352083404539911e+01 1 3 0
1342 1 7.7828227861100316e+00 3.2532868766739348e-01 5.8012418787950025e+01 2 -1 0
3367 1 1.9558062520760171e+00 1.4528744699582171e+01 2.1609580079274395e+00 2 3 0
1410 1 4.7371690576859553e+00 1.4459184419335182e+01 2.8952514415059905e+00 2 -1 1
264 1 1.4841201560824642e+00 2.1152495415353883e+01 5.6056890632254390e+00 3 -1 1
3224 1 8.9814640156167957e+00 1.6177455153677847e+01 2.5651449659301555e+00 -2 -1 0
1641 1 6.3264701942061716e+00 1.6204956643466350e+01 1.6013999194638846e+00 -1 1 1
1947 1 6.2062608425331902e+00 2.2329276178066259e+01 5.2415794830540996e+00 1 -1 0
1940 1 2.4483478787037893e+00 1.8800256202317648e+01 2.0289992413483016e+00 0 0 0
6486 1 7.7807785765762549e-01 1.6927075244219363e+01 2.9365237564847182e+00 1 -2 0
1608 1 5.1621275050481294e+00 1.8561601274152910e+01 2.8338440996610599e+00 1 0 1
3140 1 1.5266639614660518e+00 2.1220773393978078e+01 3.0675408355954183e+00 0 1 1
3528 1 3.4063193392980962e+00 2.2643114850720938e+01 1.7907202760115712e+00 0 -1 0
1889 1 5.9509299779286096e+00 2.1947727731839070e+01 2.4349928134445227e+00 2 3 0
1891 1 7.6453468165646168e+00 2.3810715367584113e+01 1.6385644603794254e+00 3 -2 0
429 1 1.9870038587158485e+00 1.4600380479653019e+01 6.6429673911241949e+00 2 -2 0
4643 1 4.5474973993926220e+00 1.4309864269851666e+01 5.7295746609046514e+00 1 0 0
2058 1 6.1755815705409012e-01 1.2624071099904748e+01 2.8969854871151295e+00 4 2 0
291 1 9.3490467982280219e+00 1.5478378528400262e+01 5.1498372354591684e+00 -2 -1 0
112 1 6.6948657268137470e+00 1.6194426320219840e+01 6.2696194559963807e+00 3 2 1
3233 1 8.4245893246774362e-01 1.6739495337075702e+01 5.6548078090301122e+00 1 0 1
3641 1 2.5096713688499359e+00 1.8765160310816924e+01 6.5879277057466661e+00 1 3 1
4639 1 5.2796179659854916e+00 1.8629962956944340e+01 5.6545268890966698e+00 2 1 1
3396 1 7.4953898650577395e+00 2.0221439291794908e+01 6.6385237365169196e+00 1 2 0
438 1 3.5543233075019200e+00 2.2812995547021455e+01 6.6246527980048597e+00 1 0 0
1486 1 2.8870144617372900e-01 1.2815163158878038e+01 5.4807823662555100e+00 1 -1 1
4660 1 9.6759636132427218e+00 1.3724856830627161e+01 1.3870491708185695e+00 0 0 1
1685 1 1.4108803981147173e+00 1.4228708355612401e+01 9.2447677974724787e+00 0 2 0
2084 1 1.5852358246281937e+00 2.0883020036013615e+01 1.3271397045440896e+01 0 1 1
2160 1 7.2225918539710143e+00 1.3616181626705581e+01 1.0504243758988435e+01 1 3 1