LAMMPS data file via write_data, version 16 Mar 2018, timestep = 100000

6489 atoms
2 atom types

0.0000000000000000e+00 4.9219999999999999e+01 xlo xhi
0.0000000000000000e+00 4.9019635930410494e+01 ylo yhi
2.0575615267705558e+00 5.8004438473230167e+01 zlo zhi

Masses

1 18.015
2 12.01

Atoms # atomic

3167 1 9.0651162602451549e+00 2.3283630313056132e+00 7.0427142745048714e+00 0 1 1
3203 1 3.3865117475625048e+00 2.5471277783541737e+00 4.2699183909264047e+00 0 1 0
1718 1 9.0785173587010544e+00 9.6653702201078620e+00 4.8865569963687374e+00 0 0 0
5273 1 4.8119926555385524e+00 6.9348427752975428e-01 6.8527679668477459e+00 1 0 1
6136 1 3.0620856777615506e+00 9.6187070502419978e+00 7.3818926839624446e+00 0 0 1
1566 1 2.5871733769822680e+00 4.9640132537454997e+00 2.8974618773816339e+00 0 1 0
1464 1 1.3669673938370277e+00 5.9544602524461689e+00 5.2682552093487161e+00 0 1 1
1320 1 5.8460463840444250e+00 3.7441008247004968e+00 4.3164609731704164e+00 0 0 1
4756 1 8.6404342757546537e+00 6.8216656321098554e+00 5.9201142062662182e+00 0 1 1
1291 1 6.1784085168287977e+00 8.2378918450356782e+00 4.8142498551400497e+00 0 0 1
6364 1 8.4699405817270090e+00 6.5800276159640250e+00 2.9310992616459042e+00 0 -1 1
4950 1 2.5409925013623784e+00 9.5880462789373695e+00 2.8888251243062961e+00 1 0 0
2897 1 5.4101723112104558e+00 1.0489911624606044e+01 2.9294129691094564e+00 1 1 1
4565 1 6.0958832939056302e+00 1.0743777986336198e+01 7.5466713378855586e+00 0 1 1
409 1 5.5480371140749076e+00 7.9286273658753146e+00 7.4262886068875389e+00 0 0 0
1846 1 1.3186725488948721e+00 8.9702040711152264e+00 5.4209636304124986e+00 0 0 0
357 1 5.2009134788082390e-01 1.1791715564251376e+01 2.8033110346244570e+00 0 0 0
5268 1 4.8677050921413123e+00 3.1074054051926501e+00 7.9648867510977004e+00 1 0 0
1615 1 1.2155006754062414e+00 4.4949529990580013e+00 7.6450338600163690e+00 0 0 0
1283 1 7.3895720394609521e+00 1.3923412172091731e+00 5.3930329699999149e+00 0 -1 0
1784 1 9.1064058902029316e-02 1.3919413012717539e+00 4.2755483263228484e+00 0 0 0
3173 1 4.0991912455059580e+00 5.6376118494037240e+00 6.5125945061614736e+00 0 1 1
1513 1 2.0233703914366661e+00 1.9712813756738810e+00 6.5767562810486133e+00 1 1 0
1550 1 7.2611245039333339e+00 4.4792445086447321e+00 6.9634285619319058e+00 0 1 0
3663 1 5.1518131484129555e+00 6.6824073074108750e+00 2.7096600250944509e+00 0 0 0
6374 1 4.8977546828925380e+00 1.2217551727392124e+01 5.0126361381130655e+00 1 0 0
1838 1 7.1291651246142553e+00 2.0921918819894607e+00 2.1644772144246076e+00 1 1 0
4929 1 4.0525708139194840e+00 1.0384805139693686e+01 1.4074088741437402e+01 0 -1 0
6366 1 3.2249608359148305e+00 5.1918115109185061e+00 9.8214902752798281e+00 1 0 1
3337 1 5.9046027865477893e+00 2.6416225089732706e+00 1.0358385040271799e+01 2 2 0
1576 1 8.6105183601059050e+00 1.8417897294292851e+00 9.9468089770737578e+00 0 1 0
1574 1 8.8291795583479926e-01 4.3939493740291251e+00 1.1233791940441083e+01 1 1 1
3781 1 4.5026880976292674e+00 4.0401454620173158e+00 1.2219300531077950e+01 2 1 1
5199 1 9.8217729064226589e+00 1.0927199171304501e+01 9.5723348949808482e+00 0 0 0
1546 1 7.7696221201070044e+00 8.0452812347012230e+00 1.4364623333827598e+01 0 1 0
431 1 4.5233676078561738e+00 3.5018245293036954e-01 1.1095165912430890e+01 2 1 0
3154 1 8.1564421916557421e+00 6.7223210138585747e+00 1.1372829697600988e+01 0 1 1
388 1 5.1017313086560789e-01 1.2017463485899585e+01 1.1538210064352398e+01 1 -1 0
453 1 2.9063657486032661e+00 1.1908975974787037e+01 9.5849827383153396e+00 0 0 0
5119 1 3.4680829080392259e+00 7.9392025856153339e+00 1.0395784369765167e+01 0 1 0
1819 1 7.9676740965557027e+00 9.4486996473370422e+00 1.1448615990180372e+01 0 0 1
368 1 5.6325433831227443e+00 9.9764494465957192e+00 1.0199410365627182e+01 0 0 0
6142 1 1.0008168120151992e+00 2.0315669729594368e+00 1.2416456067324260e+01 1 0 1
229 1 3.1338508486206482e+00 2.7444440633510254e+00 1.4028068022989970e+01 0 1 1
3097 1 1.1492298713649740e+00 1.0347071222808360e+01 1.4991862428628297e+01 1 -1 1
6476 1 8.5206142559632303e-01 6.4803184333297690e+00 1.3014526149972907e+01 0 0 1
1257 1 7.8152823236656461e+00 4.2894198008934765e+00 1.2668235946025154e+01 -1 1 0
2904 1 3.1891682085103703e+00 7.8761678378037221e+00 1.2981348657970226e+01 1 1 1
3467 1 5.3438757610241661e+00 6.2690003659867477e+00 1.3539482773552264e+01 0 0 0
3464 1 9.3762680650007582e+00 4.4304155078396104e+00 1.5068551251714167e+01 0 0 0
2898 1 1.0688958607076475e+00 9.3556652654006598e+00 9.6981451871985005e+00 1 1 0
3729 1 9.4417924008552596e+00 1.0402490357956923e+01 1.4410384183631255e+01 0 1 1
5249 1 3.7434291154853825e+00 6.3780744284962532e-01 1.5618183429063068e+01 1 -1 0
6420 1 7.3752792666460287e-02 5.2638070016359135e+00 1.5742092505039105e+01 1 0 0
2036 1 5.7608675823236943e+00 9.3369989461990777e+00 1.5972168953868833e+01 0 0 0
280 1 6.3640393114789271e+00 5.7356944753131556e+00 9.0820644113658169e+00 0 1 0
3385 1 2.5535417737774631e+00 3.9808314304165777e+00 1.6453171032160000e+01 1 0 0
1994 1 9.1746640538855662e+00 1.6113155384518201e+00 2.1388318737428879e+01 0 1 0
1815 1 7.4440941421405382e+00 1.1290915897621762e+01 2.1171965608434757e+01 1 1 0
400 1 6.2705327633900909e+00 1.3628858950158571e+00 1.7025562908002257e+01 1 1 0
3269 1 6.9464443114898788e+00 4.1213787239175188e+00 1.6328745443137180e+01 1 0 0
5380 1 1.5957965770458886e+00 7.4136704100246069e+00 1.9184617235870384e+01 1 1 0
5064 1 3.8250434055809990e+00 7.7996979458076865e+00 1.7409274243497411e+01 1 1 0
5222 1 7.2676170335227868e+00 4.7034427726444044e+00 1.9050521147729945e+01 0 0 0
1480 1 5.3361627085098409e+00 9.5324987423896204e+00 2.1261121313404431e+01 1 0 1
3735 1 8.5317260736486933e+00 7.5163580898589730e+00 1.9035864088198537e+01 0 0 0
3249 1 5.6298402135463377e+00 7.2931298023457574e+00 1.9501692007035530e+01 1 0 0
3522 1 2.3190445877180474e+00 1.0560447573651924e+01 1.8067549476567674e+01 1 0 0
3516 1 5.1324058555727445e+00 1.0625745730467924e+00 1.9832433755477524e+01 2 1 0
3447 1 7.1715315306465648e+00 1.1148615905299092e+01 1.7236155700321831e+01 1 -1 1
169 1 8.9309859870426074e+00 1.0206698679281095e+01 1.9283448685401183e+01 0 0 0
4978 1 1.0189965545176496e+00 9.4237397373743956e+00 2.0899290318786470e+01 0 0 0
1860 1 2.5651660572312256e+00 2.3841248427311625e+00 1.8808649533206463e+01 1 0 0
3207 1 6.3084999996807563e+00 3.3273799436477107e+00 2.1270758475742184e+01 1 1 0
2969 1 2.1133346723395423e+00 4.8201739324055275e+00 2.0532281509476483e+01 -1 1 1
1423 1 3.3114659694171680e+00 1.1138076032350561e+01 2.0991260159651375e+01 1 0 1
2002 1 4.7548243178662961e+00 5.7565701977196255e+00 2.1614154661125205e+01 1 0 0
1871 1 4.7532712358975697e+00 5.5766815744684086e+00 1.6046551640379658e+01 1 1 0
703 2 7.3830000000000009e+00 8.5251540748539991e+00 2.6880292895051006e+01 0 0 0
312 1 6.6046200417830203e+00 3.1747770071307375e+00 2.4253871498659294e+01 0 0 1
4969 1 3.8286053299795801e+00 2.6241737098215259e+00 2.4242951108778787e+01 0 -1 1
3101 1 1.7807093637470168e+00 4.4255034769989416e+00 2.3391725789433234e+01 2 1 1
656 2 4.9220000000000006e+00 1.1366872099805333e+01 2.6880292895051006e+01 0 0 0
5005 1 3.0682064402296749e+00 6.7464463634273271e+00 2.4220121847923707e+01 1 0 0
4585 1 6.5694508531215083e+00 6.0216240717892138e+00 2.4204011541715019e+01 0 1 1
3536 1 3.6265386442423346e+00 1.1119417115622795e+01 2.3880376032125422e+01 0 0 0
2001 1 9.2581796445635529e+00 6.3316316061792222e+00 2.3647771852628757e+01 1 0 0
3469 1 5.0865429153078567e+00 8.8045029160797270e+00 2.4037289990279593e+01 2 0 1
2021 1 7.7350262399836707e+00 1.0520844732069577e+01 2.4152564927419998e+01 0 1 0
572 2 0.0000000000000000e+00 2.8417180249513345e+00 2.6880292895051006e+01 0 0 0
574 2 0.0000000000000000e+00 0.0000000000000000e+00 2.6880292895051006e+01 0 0 0
576 2 1.2305000000000001e+00 7.1042950623783474e-01 2.6880292895051006e+01 0 0 0
583 2 1.2305000000000001e+00 2.1312885187134998e+00 2.6880292895051006e+01 0 0 0
585 2 2.4610000000000003e+00 2.8417180249513345e+00 2.6880292895051006e+01 0 0 0
587 2 2.4610000000000003e+00 0.0000000000000000e+00 2.6880292895051006e+01 0 0 0
589 2 3.6915000000000004e+00 7.1042950623783474e-01 2.6880292895051006e+01 0 0 0
604 2 3.6914999999999996e+00 2.1312885187134998e+00 2.6880292895051006e+01 0 0 0
606 2 4.9220000000000006e+00 2.8417180249513332e+00 2.6880292895051006e+01 0 0 0
608 2 4.9220000000000006e+00 0.0000000000000000e+00 2.6880292895051006e+01 0 0 0
610 2 6.1524999999999999e+00 7.1042950623783407e-01 2.6880292895051006e+01 0 0 0
633 2 6.1524999999999999e+00 2.1312885187134989e+00 2.6880292895051006e+01 0 0 0
635 2 7.3829999999999991e+00 2.8417180249513345e+00 2.6880292895051006e+01 0 0 0
637 2 7.3829999999999991e+00 0.0000000000000000e+00 2.6880292895051006e+01 0 0 0
639 2 8.6134999999999984e+00 7.1042950623783407e-01 2.6880292895051006e+01 0 0 0
670 2 8.6134999999999984e+00 2.1312885187135002e+00 2.6880292895051006e+01 0 0 0
579 2 0.0000000000000000e+00 4.2625770374269996e+00 2.6880292895051006e+01 0 0 0
581 2 1.2305000000000001e+00 4.9730065436648339e+00 2.6880292895051006e+01 0 0 0
596 2 1.2305000000000001e+00 6.3938655561404980e+00 2.6880292895051006e+01 0 0 0
600 2 2.4610000000000003e+00 4.2625770374269996e+00 2.6880292895051006e+01 0 0 0
602 2 3.6914999999999996e+00 4.9730065436648339e+00 2.6880292895051006e+01 0 0 0
625 2 3.6914999999999996e+00 6.3938655561404980e+00 2.6880292895051006e+01 0 0 0
577 2 0.0000000000000000e+00 7.1042950623783341e+00 2.6880292895051006e+01 0 0 0
598 2 2.4610000000000003e+00 7.1042950623783341e+00 2.6880292895051006e+01 0 0 0
629 2 4.9220000000000006e+00 4.2625770374269978e+00 2.6880292895051006e+01 0 0 0
631 2 6.1524999999999999e+00 4.9730065436648339e+00 2.6880292895051006e+01 0 0 0
662 2 6.1524999999999999e+00 6.3938655561404980e+00 2.6880292895051006e+01 0 0 0
666 2 7.3829999999999991e+00 4.2625770374269996e+00 2.6880292895051006e+01 0 0 0
668 2 8.6135000000000002e+00 4.9730065436648339e+00 2.6880292895051006e+01 0 0 0
707 2 8.6135000000000002e+00 6.3938655561404980e+00 2.6880292895051006e+01 0 0 0
627 2 4.9220000000000006e+00 7.1042950623783341e+00 2.6880292895051006e+01 0 0 0
664 2 7.3830000000000009e+00 7.1042950623783341e+00 2.6880292895051006e+01 0 0 0
592 2 0.0000000000000000e+00 8.5251540748539991e+00 2.6880292895051006e+01 0 0 0
594 2 1.2305000000000001e+00 9.2355835810918343e+00 2.6880292895051006e+01 0 0 0
621 2 2.4610000000000003e+00 8.5251540748539991e+00 2.6880292895051006e+01 0 0 0
623 2 3.6915000000000004e+00 9.2355835810918343e+00 2.6880292895051006e+01 0 0 0
590 2 0.0000000000000000e+00 1.1366872099805333e+01 2.6880292895051006e+01 0 0 0
617 2 1.2305000000000001e+00 1.0656442593567498e+01 2.6880292895051006e+01 0 0 0
619 2 2.4610000000000003e+00 1.1366872099805333e+01 2.6880292895051006e+01 0 0 0
654 2 3.6914999999999996e+00 1.0656442593567499e+01 2.6880292895051006e+01 0 0 0
660 2 6.1524999999999999e+00 9.2355835810918343e+00 2.6880292895051006e+01 0 0 0
658 2 4.9220000000000006e+00 8.5251540748539991e+00 2.6880292895051006e+01 0 0 0
705 2 8.6134999999999984e+00 9.2355835810918343e+00 2.6880292895051006e+01 0 0 0
699 2 6.1524999999999999e+00 1.0656442593567499e+01 2.6880292895051006e+01 0 0 0
701 2 7.3829999999999991e+00 1.1366872099805333e+01 2.6880292895051006e+01 0 0 0
746 2 8.6134999999999984e+00 1.0656442593567498e+01 2.6880292895051006e+01 0 0 0
1285 1 1.2116962719834863e+00 8.9044953181653401e+00 2.3874937566505711e+01 0 1 1
2007 1 9.4922845247274541e+00 2.5863528087744059e+00 2.4043678757275792e+01 1 1 0
3086 1 9.3598301139053497e-01 1.1926139807816691e+01 2.3950798349786091e+01 0 0 1
5158 1 2.6282314387855084e+00 2.9223486669217363e-01 2.4148547114134598e+01 1 1 0
573 2 0.0000000000000000e+00 1.4208590124756650e+00 3.0031000000000677e+01 0 0 0
575 2 0.0000000000000000e+00 0.0000000000000000e+00 3.0031000000000677e+01 0 0 0
584 2 1.2305000000000001e+00 2.1312885187134998e+00 3.0031000000000677e+01 0 0 0
586 2 2.4610000000000003e+00 1.4208590124756650e+00 3.0031000000000677e+01 0 0 0
588 2 2.4610000000000003e+00 0.0000000000000000e+00 3.0031000000000677e+01 0 0 0
605 2 3.6914999999999996e+00 2.1312885187134998e+00 3.0031000000000677e+01 0 0 0
582 2 1.2305000000000001e+00 3.5521475311891644e+00 3.0031000000000677e+01 0 0 0
603 2 3.6914999999999996e+00 3.5521475311891644e+00 3.0031000000000677e+01 0 0 0
901 2 0.0000000000000000e+00 2.8417180249513345e+00 3.3181707104950270e+01 0 0 0
902 2 0.0000000000000000e+00 0.0000000000000000e+00 3.3181707104950270e+01 0 0 0
903 2 1.2305000000000001e+00 7.1042950623783474e-01 3.3181707104950270e+01 0 0 0
907 2 1.2305000000000001e+00 2.1312885187134998e+00 3.3181707104950270e+01 0 0 0
908 2 2.4610000000000003e+00 2.8417180249513345e+00 3.3181707104950270e+01 0 0 0
909 2 2.4610000000000003e+00 0.0000000000000000e+00 3.3181707104950270e+01 0 0 0
910 2 3.6915000000000004e+00 7.1042950623783474e-01 3.3181707104950270e+01 0 0 0
918 2 3.6914999999999996e+00 2.1312885187134998e+00 3.3181707104950270e+01 0 0 0
607 2 4.9220000000000006e+00 1.4208590124756650e+00 3.0031000000000677e+01 0 0 0
609 2 4.9220000000000006e+00 0.0000000000000000e+00 3.0031000000000677e+01 0 0 0
634 2 6.1524999999999999e+00 2.1312885187134989e+00 3.0031000000000677e+01 0 0 0
636 2 7.3829999999999991e+00 1.4208590124756659e+00 3.0031000000000677e+01 0 0 0
638 2 7.3829999999999991e+00 0.0000000000000000e+00 3.0031000000000677e+01 0 0 0
671 2 8.6134999999999984e+00 2.1312885187135002e+00 3.0031000000000677e+01 0 0 0
632 2 6.1524999999999999e+00 3.5521475311891644e+00 3.0031000000000677e+01 0 0 0
669 2 8.6134999999999984e+00 3.5521475311891657e+00 3.0031000000000677e+01 0 0 0
919 2 4.9220000000000006e+00 2.8417180249513332e+00 3.3181707104950270e+01 0 0 0
920 2 4.9220000000000006e+00 0.0000000000000000e+00 3.3181707104950270e+01 0 0 0
921 2 6.1524999999999999e+00 7.1042950623783407e-01 3.3181707104950270e+01 0 0 0
933 2 6.1524999999999999e+00 2.1312885187134989e+00 3.3181707104950270e+01 0 0 0
934 2 7.3829999999999991e+00 2.8417180249513345e+00 3.3181707104950270e+01 0 0 0
935 2 7.3829999999999991e+00 0.0000000000000000e+00 3.3181707104950270e+01 0 0 0
936 2 8.6134999999999984e+00 7.1042950623783407e-01 3.3181707104950270e+01 0 0 0
952 2 8.6134999999999984e+00 2.1312885187135002e+00 3.3181707104950270e+01 0 0 0
578 2 0.0000000000000000e+00 5.6834360499026637e+00 3.0031000000000677e+01 0 0 0
580 2 0.0000000000000000e+00 4.2625770374269996e+00 3.0031000000000677e+01 0 0 0
597 2 1.2305000000000001e+00 6.3938655561404980e+00 3.0031000000000677e+01 0 0 0
599 2 2.4610000000000003e+00 5.6834360499026637e+00 3.0031000000000677e+01 0 0 0
601 2 2.4610000000000003e+00 4.2625770374269996e+00 3.0031000000000677e+01 0 0 0
626 2 3.6914999999999996e+00 6.3938655561404980e+00 3.0031000000000677e+01 0 0 0
595 2 1.2305000000000001e+00 7.8147245686161639e+00 3.0031000000000677e+01 0 0 0
624 2 3.6914999999999996e+00 7.8147245686161639e+00 3.0031000000000677e+01 0 0 0
905 2 0.0000000000000000e+00 4.2625770374269996e+00 3.3181707104950270e+01 0 0 0
906 2 1.2305000000000001e+00 4.9730065436648339e+00 3.3181707104950270e+01 0 0 0
914 2 1.2305000000000001e+00 6.3938655561404980e+00 3.3181707104950270e+01 0 0 0
916 2 2.4610000000000003e+00 4.2625770374269996e+00 3.3181707104950270e+01 0 0 0
917 2 3.6914999999999996e+00 4.9730065436648339e+00 3.3181707104950270e+01 0 0 0
929 2 3.6914999999999996e+00 6.3938655561404980e+00 3.3181707104950270e+01 0 0 0
904 2 0.0000000000000000e+00 7.1042950623783341e+00 3.3181707104950270e+01 0 0 0
915 2 2.4610000000000003e+00 7.1042950623783341e+00 3.3181707104950270e+01 0 0 0
628 2 4.9220000000000006e+00 5.6834360499026637e+00 3.0031000000000677e+01 0 0 0
630 2 4.9220000000000006e+00 4.2625770374269978e+00 3.0031000000000677e+01 0 0 0
663 2 6.1524999999999999e+00 6.3938655561404980e+00 3.0031000000000677e+01 0 0 0
665 2 7.3829999999999991e+00 5.6834360499026637e+00 3.0031000000000677e+01 0 0 0
667 2 7.3829999999999991e+00 4.2625770374269996e+00 3.0031000000000677e+01 0 0 0
708 2 8.6135000000000002e+00 6.3938655561404980e+00 3.0031000000000677e+01 0 0 0
661 2 6.1524999999999999e+00 7.8147245686161639e+00 3.0031000000000677e+01 0 0 0
706 2 8.6135000000000002e+00 7.8147245686161639e+00 3.0031000000000677e+01 0 0 0
931 2 4.9220000000000006e+00 4.2625770374269978e+00 3.3181707104950270e+01 0 0 0
932 2 6.1524999999999999e+00 4.9730065436648339e+00 3.3181707104950270e+01 0 0 0
948 2 6.1524999999999999e+00 6.3938655561404980e+00 3.3181707104950270e+01 0 0 0
950 2 7.3829999999999991e+00 4.2625770374269996e+00 3.3181707104950270e+01 0 0 0
951 2 8.6135000000000002e+00 4.9730065436648339e+00 3.3181707104950270e+01 0 0 0
971 2 8.6135000000000002e+00 6.3938655561404980e+00 3.3181707104950270e+01 0 0 0
930 2 4.9220000000000006e+00 7.1042950623783341e+00 3.3181707104950270e+01 0 0 0
949 2 7.3830000000000009e+00 7.1042950623783341e+00 3.3181707104950270e+01 0 0 0
591 2 0.0000000000000000e+00 9.9460130873296642e+00 3.0031000000000677e+01 0 0 0
593 2 0.0000000000000000e+00 8.5251540748539991e+00 3.0031000000000677e+01 0 0 0
620 2 2.4610000000000003e+00 9.9460130873296642e+00 3.0031000000000677e+01 0 0 0
622 2 2.4610000000000003e+00 8.5251540748539991e+00 3.0031000000000677e+01 0 0 0
616 2 1.2305000000000001e+00 1.2077301606043163e+01 3.0031000000000677e+01 0 0 0
618 2 1.2305000000000001e+00 1.0656442593567498e+01 3.0031000000000677e+01 0 0 0
653 2 3.6914999999999996e+00 1.2077301606043163e+01 3.0031000000000677e+01 0 0 0
655 2 3.6914999999999996e+00 1.0656442593567499e+01 3.0031000000000677e+01 0 0 0
912 2 0.0000000000000000e+00 8.5251540748539991e+00 3.3181707104950270e+01 0 0 0
913 2 1.2305000000000001e+00 9.2355835810918343e+00 3.3181707104950270e+01 0 0 0
927 2 2.4610000000000003e+00 8.5251540748539991e+00 3.3181707104950270e+01 0 0 0
928 2 3.6915000000000004e+00 9.2355835810918343e+00 3.3181707104950270e+01 0 0 0
911 2 0.0000000000000000e+00 1.1366872099805333e+01 3.3181707104950270e+01 0 0 0
925 2 1.2305000000000001e+00 1.0656442593567498e+01 3.3181707104950270e+01 0 0 0
926 2 2.4610000000000003e+00 1.1366872099805333e+01 3.3181707104950270e+01 0 0 0
944 2 3.6914999999999996e+00 1.0656442593567499e+01 3.3181707104950270e+01 0 0 0
657 2 4.9220000000000006e+00 9.9460130873296642e+00 3.0031000000000677e+01 0 0 0
659 2 4.9220000000000006e+00 8.5251540748539991e+00 3.0031000000000677e+01 0 0 0
702 2 7.3830000000000009e+00 9.9460130873296642e+00 3.0031000000000677e+01 0 0 0
704 2 7.3830000000000009e+00 8.5251540748539991e+00 3.0031000000000677e+01 0 0 0
698 2 6.1524999999999999e+00 1.2077301606043163e+01 3.0031000000000677e+01 0 0 0
700 2 6.1524999999999999e+00 1.0656442593567499e+01 3.0031000000000677e+01 0 0 0
745 2 8.6135000000000002e+00 1.2077301606043163e+01 3.0031000000000677e+01 0 0 0
747 2 8.6134999999999984e+00 1.0656442593567498e+01 3.0031000000000677e+01 0 0 0
946 2 4.9220000000000006e+00 8.5251540748539991e+00 3.3181707104950270e+01 0 0 0
947 2 6.1524999999999999e+00 9.2355835810918343e+00 3.3181707104950270e+01 0 0 0
969 2 7.3830000000000009e+00 8.5251540748539991e+00 3.3181707104950270e+01 0 0 0
970 2 8.6134999999999984e+00 9.2355835810918343e+00 3.3181707104950270e+01 0 0 0
945 2 4.9220000000000006e+00 1.1366872099805333e+01 3.3181707104950270e+01 0 0 0
967 2 6.1524999999999999e+00 1.0656442593567499e+01 3.3181707104950270e+01 0 0 0
968 2 7.3829999999999991e+00 1.1366872099805333e+01 3.3181707104950270e+01 0 0 0
991 2 8.6134999999999984e+00 1.0656442593567498e+01 3.3181707104950270e+01 0 0 0
3361 1 4.9735446863001211e+00 9.7265276069277160e+00 3.6102630927322615e+01 1 0 -1
1405 1 5.7457703347917519e+00 5.5757644767116359e+00 3.6119822728130551e+01 -1 1 0
3019 1 2.7650442612905173e+00 1.7684786095708185e+00 3.6479687893680826e+01 0 -1 0
1629 1 5.3968364397663544e+00 2.7725474529478831e+00 3.5511457427057579e+01 1 1 0
4612 1 8.1567615207092548e+00 2.5017827859529103e+00 3.6138051826626864e+01 -1 0 -1
5025 1 8.0061101005855289e+00 7.1317174893469577e+00 3.6037577346651211e+01 0 1 -1
2035 1 7.0437755625782728e-01 5.0367936578722388e+00 3.5986168703777913e+01 1 0 -1
4863 1 9.6096411122862886e+00 4.9342118729636333e+00 3.5904762005133456e+01 0 0 0
4647 1 2.0379767019338613e+00 9.2677970416076736e+00 3.6155791994341953e+01 1 0 0
3679 1 7.9870946911587790e+00 1.0051647298489643e+01 3.5646095617522803e+01 -1 1 0
4640 1 3.1436412991874807e+00 6.6534894034433449e+00 3.5558794472894213e+01 0 1 0
4769 1 4.9329100114061976e-02 2.3344294668288139e+00 3.5557791151405624e+01 0 0 -1
4798 1 6.1401210883987223e-01 1.1892144853520172e+01 3.6241799969696800e+01 1 0 0
2120 1 4.7329569901504973e+00 1.2180178849055162e+01 3.6018427181390294e+01 0 1 0
3552 1 6.5882869808696443e+00 6.2918830959316079e+00 4.3570243943022767e+01 0 0 -1
4844 1 2.9900296123926213e+00 3.1000812458473468e+00 3.9209124043725275e+01 0 0 -1
2180 1 1.5345012461873111e+00 1.1839789640912963e+01 3.9025935840468748e+01 0 1 -1
2964 1 5.6820909124302492e+00 9.2500462421451211e+00 4.3269841102226579e+01 0 1 0
227 1 5.7598818410282542e+00 2.3044859783114848e+00 3.8244503877456552e+01 0 1 -1
3113 1 1.0127751048004876e+00 4.6729654410787642e+00 3.8614875717615583e+01 1 0 0
3307 1 2.3024115111936370e+00 7.2909024825946647e+00 3.8446529898196914e+01 0 -1 -1
4820 1 7.4552712199682265e+00 6.8003165899379017e+00 3.9025287787256502e+01 0 0 -1
1307 1 4.7307942893645079e+00 5.8734506597020069e+00 3.9029240604891783e+01 0 0 -1
6174 1 5.5475668808772971e+00 6.4621923842458717e-01 4.2578166563902627e+01 0 1 0
4755 1 3.6265665133966882e+00 9.9111943413913846e+00 3.9112008720139784e+01 1 -1 0
2190 1 6.2556166333940437e+00 1.1096505560274396e+01 3.9620109222894015e+01 0 1 0
3736 1 7.7766671883003513e-01 1.1518396293783149e+00 4.0971583099511854e+01 1 0 0
6147 1 8.0915576688321647e+00 1.3648317823199190e+00 4.1219899125026444e+01 1 0 0
2886 1 7.1339794056094936e+00 3.8005013297880916e+00 4.3879716510940000e+01 1 1 0
1336 1 7.6773399032279048e+00 1.0600841521650510e+01 4.2040844984895898e+01 -1 1 0
1265 1 3.8612996059842906e+00 1.1142610849722148e+01 4.2032417285844119e+01 0 0 0
6271 1 6.4925316176970052e+00 3.7702112945299593e+00 4.0824844405897856e+01 -1 0 0
4770 1 7.9555127048994807e+00 9.4683401030688152e+00 3.8512392449099195e+01 0 0 -1
1758 1 3.6195159032467603e+00 2.4813688465282899e+00 4.1662021797236989e+01 0 0 0
6309 1 4.0502762725299064e+00 6.2179989335412253e+00 4.2102935198305396e+01 1 0 -1
4644 1 8.5347074835003216e+00 6.3518951039605458e+00 4.1627432550092166e+01 -1 1 0
516 1 2.4079574140582514e+00 8.5598547885469110e+00 4.1531576267703791e+01 0 0 0
1686 1 2.3757868714953920e+00 4.3356941713513359e+00 4.3794631932741062e+01 0 2 0
3062 1 8.6670485663306351e+00 3.3979264780477081e-02 3.8695224779993552e+01 1 0 0
4635 1 3.5898038019932637e+00 2.8313676655525324e+00 4.6213146975427890e+01 -1 0 0
6447 1 5.8067657393367273e+00 1.6854352382285622e+00 4.5270268105577706e+01 1 1 0
3677 1 8.8006896869100313e+00 5.4673031246178319e+00 4.7352591529109915e+01 -1 0 0
3128 1 1.9946362056734237e+00 6.0167643089373728e+00 4.6168962568818962e+01 1 1 0
6385 1 7.5609409750791938e+00 7.5480451388713119e+00 4.5875594970090027e+01 0 1 -1
5168 1 9.2670923832715335e+00 1.0669210162012808e+01 4.8490723310728981e+01 1 0 -1
3752 1 9.5231367903062889e+00 3.2199159080241193e+00 4.5357561389315578e+01 0 1 0
5297 1 4.5178811183916077e+00 1.1086673822483622e+01 4.9533295538282815e+01 1 -1 -1
3474 1 9.4298921942630045e+00 8.8740944607300847e+00 5.0686595840487946e+01 2 1 0
4531 1 5.3142497713307399e+00 9.5273004294651997e+00 4.6216531679690789e+01 0 0 -1
3664 1 9.5148716202696644e+00 9.5645598611081510e+00 4.6013710515167197e+01 1 0 -1
4608 1 1.4651391248261125e+00 1.5576012062655293e+00 4.7243455855210506e+01 1 1 0
6316 1 2.8570178099103507e+00 5.4964486474831089e+00 5.0421713901235563e+01 1 0 0
3054 1 4.4567075455284506e+00 4.1851104676231765e+00 4.8260369744464612e+01 0 0 0
3799 1 5.5686358731877439e+00 2.9904284588830721e+00 5.0911856873068054e+01 1 0 -1
4676 1 7.7636510517632109e+00 1.2215629090639946e+00 4.7015327747133277e+01 1 0 0
5299 1 8.0657237359063085e+00 1.8614454813096157e+00 4.9559163053344129e+01 1 1 -1
1457 1 6.7676332506356296e+00 1.1455473091457471e+01 4.7848400128029752e+01 -1 0 -1
6263 1 6.4251294114263413e-01 3.8039668786878047e+00 4.8880398338162792e+01 1 1 0
4964 1 8.7274944373112362e+00 1.2157027354562274e+01 4.4467547852635960e+01 0 0 0
1678 1 5.6359768855949604e+00 6.6082604576790533e+00 4.8013158957781322e+01 1 -1 -1
6262 1 3.0317848017261202e+00 1.1004959194132411e+01 4.6699117259274615e+01 -1 1 -1
4813 1 6.6699877808040569e+00 7.7399290585209108e+00 5.0443534469846519e+01 0 0 0
3199 1 3.3882656225223333e+00 7.9509194278144575e+00 4.9437946024359185e+01 1 -1 -1
3770 1 1.2135758548671582e+00 8.8261305211577632e+00 4.7719715480928990e+01 1 0 0
5060 1 2.1841866488993071e+00 1.0501540569755182e+01 4.4282599290426454e+01 0 1 -1
4705 1 9.7756440542399297e+00 4.0630334380783442e+00 4.9674117133038862e+01 1 1 0
4586 1 7.9100653664255793e-01 8.0759603703212157e+00 4.4547750194380484e+01 0 0 0
5333 1 4.5582756386859105e+00 5.3023042620859977e+00 5.4819707020380889e+01 1 1 0
2910 1 3.4269286834442463e+00 1.5543276768084000e+00 5.2041400029802773e+01 0 1 0
4587 1 5.2323169421160864e+00 9.5506963505350502e+00 5.1862351945170523e+01 1 0 0
89 1 4.5975292369295753e+00 1.0477024274968694e+00 5.7303821825215060e+01 0 0 0
4924 1 5.4815754179534526e+00 5.5414475783793158e+00 5.1820951626025781e+01 0 1 0
1526 1 7.8416808793774742e+00 1.0615081232322513e+01 5.7251860979839805e+01 0 1 0
3675 1 1.1137629935803341e+00 3.4554275079578116e+00 5.2557728304836232e+01 0 1 0
6132 1 2.1345821597605465e+00 6.1919702504491605e+00 5.3318703986423252e+01 0 1 0
2163 1 1.0205453763234924e+00 2.2187428404347793e+00 5.5180669628201166e+01 0 2 -1
3475 1 8.2454724934700678e+00 7.8118193640314377e+00 5.4031145447419114e+01 0 0 0
4741 1 9.0707012003496221e-02 1.0963144820330330e+01 5.3399244957293057e+01 0 0 0
2994 1 8.5293700024467896e+00 5.2751492460372464e+00 5.2218098239420939e+01 0 1 -1
1656 1 6.8874825316216999e+00 1.1993785747043766e+01 5.2071267883577626e+01 0 0 -1
3343 1 6.3548570993528717e+00 9.9455542187121218e+00 5.4711999706885955e+01 1 1 -1
2059 1 1.2024693136970765e+00 1.0260652562364641e+01 5.5874421658800664e+01 1 0 -1
2916 1 4.1293288395664538e+00 1.0500459574251369e+01 5.6080336148190696e+01 1 0 0
1304 1 7.2674098958093425e-01 7.5195610559670811e+00 5.7017225503756613e+01 1 1 0
2901 1 8.0283308039597028e+00 3.8716833296622299e+00 5.6023215444040950e+01 0 1 -1
258 1 3.2957335694757610e+00 3.4597680074973649e+00 5.6553908699030849e+01 0 1 -1
68 1 3.3722263923687161e+00 7.6541721051776923e+00 5.6263074071000119e+01 0 1 0
3450 1 9.0278151610327591e+00 8.1293976786098643e-01 5.6027410252746478e+01 0 0 -1
5063 1 6.6658479781502784e+00 6.1714595393553759e+00 5.6143189550772242e+01 0 1 0
6279 1 9.0093058564638415e+00 3.4342676925286919e-01 5.2263225798380716e+01 0 0 0
3394 1 9.3659564022845831e+00 2.6311863308971142e+00 5.3508730959263765e+01 1 0 0
2868 1 2.3335707840062172e+00 8.9462048404655263e+00 5.2142362847420500e+01 1 1 0
3776 1 9.2741967061143615e+00 1.1533269687080047e+01 5.3513390558960438e+01 1 1 0
1367 1 4.4173052780199296e+00 6.1078459154964349e-01 5.4543361157485208e+01 0 1 0
3321 1 1.9672817739783635e+00 1.1916680024406791e+01 5.1075491252556603e+01 0 0 -1
4803 1 4.5036189625372653e+00 1.6338986885000139e+01 2.8414174300506527e+00 1 0 0
1295 1 5.8593805979803735e+00 1.4022638343222019e+01 3.0889791003562888e+00 0 1 1
2067 1 5.9975480158777303e+00 1.9791124923882560e+01 7.5402050891399117e+00 0 0 1
5163 1 8.5802640250277591e+00 1.9045241474823673e+01 8.2890768112093411e+00 0 0 0
3506 1 8.2474476588104864e+00 1.6702040936871029e+01 2.3754449491651339e+00 1 1 0
4883 1 2.9548790789401282e+00 1.9201370878668644e+01 5.0460549594775772e+00 1 -1 1
6331 1 8.2043530808662535e+00 1.5130052348488659e+01 5.0113933679307019e+00 1 0 1
5152 1 1.1255766309235635e+00 1.9996075649172322e+01 6.8721232324310080e+00 1 0 0
2936 1 6.3315658726481141e+00 2.2148062033504257e+01 6.5053121140171877e+00 0 0 0
6157 1 8.4561238392021405e+00 1.9213193187016099e+01 3.6238620361015075e+00 0 1 1
3714 1 5.3981636652938791e-01 2.2638760982099271e+01 7.4696966238856755e+00 0 0 1
5054 1 8.7893690547876402e-01 2.2190092264288108e+01 2.7686019730883595e+00 1 -1 0
521 1 4.1262130193335125e+00 2.1589780601750871e+01 4.7831492522310750e+00 0 0 1
1654 1 7.1106241095943057e-01 1.3649047314122814e+01 4.7787929534210090e+00 0 1 0
5271 1 1.5950460780202287e+00 1.4150234168084138e+01 8.7095493837263369e+00 0 0 0
28 1 2.5589286963591893e+00 1.2271245125888770e+01 6.4012095187325215e+00 1 0 0
2215 1 5.2120723407676213e+00 1.6503898200674527e+01 7.4332183977282957e+00 0 0 1
2996 1 8.7097080543796057e+00 2.3123321328510190e+01 5.3055969694409058e+00 1 0 1
3539 1 2.0361459071521182e+00 1.6235653825845105e+01 4.2438241628443727e+00 0 -1 1
3004 1 1.3145158457196096e+00 1.8105392225792411e+01 8.8031430563106987e+00 0 0 0
4554 1 6.4010382464346449e+00 1.4147756474952795e+01 6.8128356297057913e+00 0 0 0
1756 1 5.8264175174152788e+00 1.8098466678684026e+01 5.1323570340469420e+00 1 1 0
1544 1 2.5008297521516929e+00 1.6344833753256452e+01 7.0786142031149186e+00 0 0 0
3490 1 5.8476544701226114e+00 2.0760735099591002e+01 2.7663593451668498e+00 1 0 1
1434 1 1.5726408245372288e+00 1.9515384074590337e+01 2.7655668222531178e+00 0 0 1
1770 1 8.2078536244236222e+00 2.2328870173383894e+01 2.7147536498747886e+00 0 0 0
6117 1 2.0766638772559345e+00 2.3688550915471101e+01 4.8330940588599836e+00 1 1 1
1793 1 5.7311427540024242e+00 2.4282111735665680e+01 8.2714964305211325e+00 0 -1 0
3465 1 8.6064977150767419e+00 1.2557768353045574e+01 3.4249440371067728e+00 0 0 0
4822 1 8.0748744813874342e+00 1.2867361224647285e+01 8.7681682428477572e+00 2 1 1
1926 1 3.0831578997253861e+00 2.1700244893869321e+01 1.0861945913658198e+01 1 0 1
3393 1 2.9707821948478181e+00 1.6711315811239533e+01 1.1278859255341191e+01 1 0 0
145 1 4.3201034676865946e-01 2.2207945123542206e+01 1.0618572931007058e+01 1 0 0