
# Create simulation box and atoms

read_data data.ML_graphite_m500atm_240K
  orthogonal box = (0 0 2.16312) to (49.22 49.0196 57.8989)
  5 by 4 by 8 MPI processor grid
  reading atoms ...
  6489 atoms
  reading velocities ...
  6489 velocities
group water type 1
3729 atoms in group water
group graphite type 2
2760 atoms in group graphite

# Define potential

pair_style sw
pair_coeff * * MLC_e.sw mW C


# Fix graphite atoms in place

fix 5 graphite setforce 0.0 0.0 0.0
velocity graphite set 0.0 0.0 0.0


# Equilibration of molecular water

# Add velocity/set timestep

velocity	    water create ${TEMP} ${SEED} rot yes dist gaussian
velocity	    water create 240 ${SEED} rot yes dist gaussian
velocity	    water create 240 21006 rot yes dist gaussian
timestep	    5.0

# Define output

compute			1 water msd
compute			3 water temp
thermo	    	50
thermo_style	custom step temp press vol etotal ke pe c_1[4] c_3

# Neighbor lists

neigh_modify    delay 0 every 1 check yes

# Set fixes

fix             1 water momentum 10 linear 1 1 1 rescale
fix             2 water nve
fix             3 water temp/csvr ${TEMP} ${TEMP} 500.0 ${SEED}
fix             3 water temp/csvr 240 ${TEMP} 500.0 ${SEED}
fix             3 water temp/csvr 240 240 500.0 ${SEED}
fix             3 water temp/csvr 240 240 500.0 21006
fix             4 water press/berendsen z ${PRES} ${PRES} 1000.0 modulus 20000
fix             4 water press/berendsen z -500 ${PRES} 1000.0 modulus 20000
fix             4 water press/berendsen z -500 -500 1000.0 modulus 20000

# Run 0.5 ns equilibration

dump		    1 all atom 2000 ${DIR}/eq.${NAME}-${TEMP}.dump
dump		    1 all atom 2000 run_26/eq.${NAME}-${TEMP}.dump
dump		    1 all atom 2000 run_26/eq.het_freeze_26-${TEMP}.dump
dump		    1 all atom 2000 run_26/eq.het_freeze_26-240.dump

reset_timestep  0

run	            100000
Neighbor list info ...
  update every 1 steps, delay 0 steps, check yes
  max neighbors/atom: 2000, page size: 100000
  master list distance cutoff = 6.67472
  ghost atom cutoff = 6.67472
  binsize = 3.33736, bins = 15 15 17
  1 neighbor lists, perpetual/occasional/extra = 1 0 0
  (1) pair sw, perpetual
      attributes: full, newton on
      pair build: full/bin/atomonly
      stencil: full/bin/3d
      bin: standard
Per MPI rank memory allocation (min/avg/max) = 4.067 | 4.175 | 4.485 Mbytes
Step Temp Press Volume TotEng KinEng PotEng c_1[4] c_3 
       0    137.90382   -585.46729    134476.24   -35583.071    2666.9904   -38250.061            0          240 
      50    138.74647    -413.6837    134559.87   -35599.974    2683.2867    -38283.26   0.52682008    241.46649 
     100    139.23043    -852.1984    134653.66   -35662.642    2692.6462   -38355.288   0.83356079    242.30874 
     150    137.87589   -494.09717    134703.95   -35707.252    2666.4501   -38373.702    1.0268864    239.95138 
     200    137.39774   -803.35665    134736.28   -35695.948    2657.2029   -38353.151    1.2403202    239.11924 
     250    137.35838    -883.1562    134758.21   -35745.226    2656.4417   -38401.668    1.4498925    239.05074 
     300    137.18537   -818.60929    134750.67   -35710.935    2653.0958   -38364.031    1.6117965    238.74964 
     350    134.59579   -742.26368    134718.52   -35766.625    2603.0146    -38369.64    1.7645432    234.24288 
     400    137.38882   -578.22688    134608.16   -35761.285    2657.0305   -38418.315    1.9322312    239.10372 
     450    140.04037    -599.3354    134630.68   -35702.454    2708.3102   -38410.764    2.1115655    243.71833 
     500    139.44258   -848.42939    134653.69   -35631.391    2696.7492    -38328.14    2.2891363    242.67797 
     550    138.70446    -473.7546    134657.19   -35690.094    2682.4742   -38372.568    2.5060317    241.39338 
     600    139.02315   -692.49832     134717.6   -35701.871    2688.6376   -38390.509    2.7014669    241.94802 
     650    137.18775   -566.63003     134757.7   -35729.019    2653.1419   -38382.161     2.901677    238.75379 
     700    133.20862   -870.49773    134769.56   -35708.842    2576.1875    -38285.03    3.0953689    231.82874 
     750    136.32034   -728.50087    134714.15   -35755.679    2636.3666   -38392.045    3.2658824    237.24419 
     800    135.78127   -716.56188     134799.6   -35711.393    2625.9413   -38337.334    3.4693706    236.30603 
     850    139.38782   -599.58087    134856.62    -35686.65    2695.6902    -38382.34    3.6880153    242.58267 
     900    137.14895   -677.32544    134834.15   -35686.786    2652.3915   -38339.178     3.792535    238.68626 
     950    135.96812   -852.85329    134744.13   -35747.914    2629.5549   -38377.469    3.9603636    236.63121 
    1000    134.61501   -691.44457    134723.78   -35724.063    2603.3864   -38327.449    4.1725249    234.27633 
    1050    138.08824   -726.74287    134783.31   -35692.267    2670.5569   -38362.824     4.350987    240.32095 
    1100    140.10408    -565.1286    134735.53   -35750.101    2709.5422   -38459.644    4.5639012     243.8292 
    1150    138.62087   -650.69772    134734.36   -35716.465    2680.8577   -38397.323    4.7694663     241.2479 
    1200    135.33223   -620.47966    134801.82   -35759.346     2617.257   -38376.603    4.9992526    235.52454 
    1250    136.15418   -833.40782    134745.03   -35770.307    2633.1532    -38403.46    5.1071868    236.95502 
    1300    136.39262    -620.5096    134718.41   -35806.835    2637.7645   -38444.599    5.1812787    237.36999 
    1350     137.8905    -428.3451    134767.77   -35758.987    2666.7327   -38425.719    5.2870138    239.97682 
    1400      134.903   -727.21682    134829.19   -35803.476     2608.956   -38412.432    5.4324063    234.77754 
    1450    138.20329    -581.6138    134898.18   -35808.593    2672.7819   -38481.375    5.5930735    240.52118 
    1500    135.80328   -712.47217    134970.71   -35822.139    2626.3669   -38448.506    5.7485677    236.34433 
    1550    135.47906   -771.30654    134902.45   -35820.226    2620.0967   -38440.323    5.8450576    235.78009 
    1600    134.01741   -805.31843    134909.93   -35782.007     2591.829   -38373.836    5.9624867     233.2363 
    1650    135.18479   -530.19657    134944.63   -35819.805    2614.4056   -38434.211    6.0890256    235.26794 
    1700    136.78162   -608.35497     135014.2   -35800.062    2645.2876   -38445.349    6.2219965    238.04699 
    1750     135.6042   -752.08747    135000.24   -35770.482    2622.5169   -38392.999     6.381232    235.99788 
    1800    139.08643   -654.61092    134990.19   -35752.844    2689.8614   -38442.706    6.5270763    242.05814 
    1850    136.35986   -711.13007    134968.95   -35772.205     2637.131   -38409.336    6.6826011    237.31298 
    1900    138.02794   -685.68883    135072.29   -35758.934    2669.3908   -38428.325    6.8170044    240.21601 
    1950    139.57241   -909.82659    135098.69    -35734.49    2699.2599   -38433.749    7.0173526    242.90391 
    2000    141.81606    -808.8267    135059.45   -35676.637    2742.6511   -38419.288    7.1894264    246.80864 
    2050    138.80575   -691.72559    134967.13   -35668.446    2684.4331   -38352.879    7.3965464    241.56966 
    2100    142.21218   -682.55635    135023.73   -35654.865    2750.3119   -38405.177    7.5555115    247.49802 
    2150    136.80861   -821.34929    134990.24   -35676.434    2645.8095   -38322.243    7.7102235    238.09395 
    2200    137.18722   -609.54759       134977   -35715.527    2653.1317   -38368.659     7.900079    238.75287 
    2250    137.92855   -577.52971    135072.28   -35744.794    2667.4686   -38412.263    8.1394838    240.04304 
    2300    139.78923   -679.91708    135191.61   -35746.739    2703.4532   -38450.192    8.2554858    243.28126 
    2350    138.19257   -888.09676    135198.62    -35804.73    2672.5746   -38477.304    8.3950924    240.50252 
    2400    139.26694   -711.36599    135227.83   -35763.467    2693.3523   -38456.819    8.5674379    242.37229 
    2450    134.89789   -718.46753    135250.54   -35807.624    2608.8571   -38416.482    8.6231511    234.76864 
    2500    137.77605   -639.16667    135201.29   -35763.592    2664.5194   -38428.112    8.7716473    239.77764 
    2550    139.17342   -627.91676    135105.67    -35754.94    2691.5437   -38446.484    9.0102657    242.20953 
    2600    141.44925   -660.76022    135183.14   -35714.358    2735.5571   -38449.915    9.1981365    246.17026 
    2650    140.32713   -764.50069       135193   -35725.356     2713.856   -38439.212    9.3061056    244.21739 
    2700     138.3815   -891.14184    135058.32   -35758.532    2676.2283   -38434.761    9.5656134    240.83131 
    2750    138.01085   -855.21426    134966.34   -35785.771    2669.0602   -38454.831    9.7482409    240.18627 
    2800    137.65184   -569.49797    134962.82   -35746.645    2662.1171   -38408.762    9.7711161    239.56146 
    2850    136.53493   -641.74422    134990.16   -35767.847    2640.5167   -38408.364    9.9175648    237.61766 
    2900    137.45073   -583.68411    135130.21    -35709.27    2658.2278   -38367.497    10.099799    239.21146 
    2950    138.44064   -569.50327    135109.52   -35716.692    2677.3722   -38394.064    10.259901    240.93425 
    3000    141.00825   -627.42908    135090.75   -35754.565    2727.0284   -38481.593     10.39165    245.40276 
    3050    137.76852   -852.48531     134992.5   -35734.145    2664.3737   -38398.518    10.471359    239.76453 
    3100    138.67125    -812.5992    134954.92   -35711.041     2681.832   -38392.873    10.484855    241.33559 
    3150    138.85246   -750.21324     134900.1   -35718.341    2685.3365   -38403.678    10.577084    241.65095 
    3200    137.69511   -797.20576    134918.41   -35712.286     2662.954    -38375.24    10.792088    239.63677 
    3250    136.70363    -659.4665    134950.46   -35733.736    2643.7793   -38377.516    11.093625    237.91126 
    3300    134.94669    -574.0851    134947.89   -35778.135     2609.801   -38387.936    11.256401    234.85358 
    3350    139.91088   -611.66173    134951.55   -35696.177    2705.8059   -38401.983    11.478677    243.49298 
    3400    134.43645   -575.43437     135026.6   -35722.171     2599.933   -38322.104    11.665442    233.96557 
    3450     137.5145   -805.51515    135008.51   -35735.589    2659.4611    -38395.05    11.903247    239.32244 
    3500    136.28998   -672.08996    134966.26   -35724.081    2635.7795    -38359.86    12.088293    237.19136 
    3550    137.71571   -651.70908    134844.15   -35749.962    2663.3523   -38413.315    12.211971    239.67262 
    3600    136.87847   -683.87287    134906.55   -35734.227    2647.1606   -38381.388    12.345215    238.21553 
    3650    137.92512   -747.13889    134917.88   -35729.654    2667.4023   -38397.056    12.519866    240.03707 
    3700    137.09246   -632.49284     134765.5   -35718.548     2651.299   -38369.847    12.702095    238.58795 
    3750    136.32125   -748.00501     134705.4   -35682.472    2636.3843   -38318.856    12.883261    237.24579 
    3800    138.93582   -613.81736    134678.43   -35655.001    2686.9488    -38341.95     13.17521    241.79604 
    3850    137.77344   -694.25031    134621.34   -35634.654    2664.4688   -38299.123     13.34512    239.77309 
    3900    138.01305   -740.76233    134598.79   -35645.814    2669.1029   -38314.917    13.571853     240.1901 
    3950    138.56746   -942.89348    134611.07   -35606.366    2679.8247    -38286.19    13.749515    241.15495 
    4000    138.29647   -912.06281    134498.32   -35621.831    2674.5841   -38296.415    13.840423    240.68335 
    4050    139.28253   -495.56206    134473.65   -35603.496    2693.6539    -38297.15    13.945692    242.39943 
    4100    137.87742   -632.04187    134491.58   -35641.434    2666.4798   -38307.914    14.114934    239.95406 
    4150    138.18136   -637.58976    134533.66   -35675.728    2672.3577   -38348.086    14.205051    240.48301 
    4200    140.22811   -792.58195    134497.74   -35657.844     2711.941   -38369.785    14.318819    244.04506 
    4250     139.8811   -353.98386     134464.6   -35618.077    2705.2299   -38323.307    14.521701    243.44114 
    4300    139.14418   -704.19161     134471.8   -35626.354    2690.9783   -38317.332    14.622494    242.15865 
    4350    139.04179   -521.05719    134611.21   -35622.867    2688.9982   -38311.865      14.8061    241.98046 
    4400    139.20767   -792.45812    134710.41   -35608.676    2692.2062   -38300.882    15.088976    242.26915 
    4450    140.10861   -719.83737    134731.23   -35597.462    2709.6299   -38307.092    15.206879    243.83709 
    4500    138.70046   -393.16269    134864.52   -35596.744     2682.397   -38279.141     15.33117    241.38643 
    4550    136.65637   -621.40138    134940.04   -35616.675    2642.8652   -38259.541    15.416049      237.829 
    4600    138.06412   -813.75829    134909.07   -35621.776    2670.0904   -38291.866    15.561304    240.27897 
    4650    136.07834   -804.95685    134971.74   -35651.225    2631.6864   -38282.911    15.827954    236.82303 
    4700    137.14057   -694.03921    134931.92   -35664.153    2652.2295   -38316.382    16.032478    238.67168 
    4750    137.99464    -569.4889    134980.14   -35659.152    2668.7466   -38327.899    16.206481    240.15805 
    4800    137.99385   -411.92863    135037.21   -35691.336    2668.7315   -38360.068    16.427897    240.15668 
    4850    134.60921   -591.05633    135077.49   -35731.595    2603.2742   -38334.869     16.56891    234.26624 
    4900    140.28151   -570.83485    135112.45   -35694.987    2712.9736   -38407.961    16.684663    244.13799 
    4950    138.17261   -616.47006    135145.77    -35652.21    2672.1885   -38324.398    16.821343    240.46778 
    5000    138.61635   -684.69422     135105.9   -35640.155    2680.7703   -38320.925    17.000367    241.24004 
    5050    140.57755   -650.48974    135156.32   -35583.848    2718.6989   -38302.547     17.24971    244.65321 
    5100    138.01302   -921.18613    135115.56   -35556.597    2669.1022   -38225.699    17.282179    240.19004 
    5150    138.12674   -788.85791    135095.16   -35601.692    2671.3014   -38272.993    17.471975    240.38795 
    5200    140.73234   -786.34901    135013.52   -35627.732    2721.6924   -38349.424    17.800588    244.92259 
    5250    140.16117   -922.61649    134979.57   -35650.483    2710.6463    -38361.13    18.026022    243.92856 
    5300    138.35997   -1121.4126     134950.8   -35668.373    2675.8121   -38344.185       18.175    240.79386 
    5350    140.09818   -676.55094    134859.37   -35694.264    2709.4281   -38403.692    18.313459    243.81893 
    5400    139.98715   -714.91599    134944.93   -35699.611    2707.2808   -38406.892    18.322506     243.6257 
    5450    139.42442   -724.35351    134894.74    -35699.91     2696.398   -38396.309    18.470969    242.64637 
    5500      141.127   -771.51786    134915.64   -35684.197     2729.325   -38413.522    18.586408    245.60943 
    5550    137.95959   -799.31378    134890.99   -35741.015     2668.069   -38409.084    18.713006    240.09706 
    5600    139.63003   -613.67807    134910.06   -35679.641    2700.3743   -38380.015    18.959069    243.00419 
    5650    138.80895   -738.85269    134956.36   -35669.124    2684.4951   -38353.619    19.133492    241.57523 
    5700    137.93688   -739.45392    134889.28   -35682.317    2667.6297   -38349.947    19.322615    240.05753 
    5750    139.67122   -456.96575    134840.84   -35719.904    2701.1709   -38421.075    19.519256    243.07588 
    5800    136.47516   -686.45887    134949.21   -35708.912    2639.3608   -38348.273     19.80343    237.51364 
    5850    135.79711   -518.60405    134948.69   -35752.241    2626.2477   -38378.488    20.093958    236.33361 
    5900    139.36827   -660.56623    135030.61   -35743.114     2695.312   -38438.426    20.255767    242.54864 
    5950    137.63983   -899.17505    135098.33   -35759.931    2661.8848   -38421.816    20.519633    239.54056 
    6000    134.26965   -622.21743     135098.1   -35825.286    2596.7072   -38421.994    20.592477    233.67528 
    6050    133.44561   -642.41185    135079.05   -35825.173    2580.7709   -38405.944    20.820615    232.24119 
    6100    138.89719   -642.51456    135049.25    -35789.68    2686.2015   -38475.882    20.912481    241.72879 
    6150    135.79281   -700.37183    135117.26   -35830.152    2626.1645   -38456.317    21.131441    236.32611 
    6200    136.08873     -673.782    135161.42   -35788.899    2631.8873   -38420.786    21.260735    236.84111 
    6250    138.84914   -627.71695     135189.7   -35760.634    2685.2724   -38445.907    21.444656    241.64518 
    6300     135.5093   -601.98233    135192.86   -35788.277    2620.6816   -38408.959    21.620241    235.83272 
    6350    134.75954    -496.0475    135228.65   -35784.862    2606.1816   -38391.043    21.831712    234.52787 
    6400    136.60517   -562.44261    135325.31   -35799.706    2641.8751   -38441.581    21.900704     237.7399 
    6450     135.9974   -726.83891    135434.44   -35731.779    2630.1211     -38361.9    22.020991    236.68217 
    6500    136.01514   -797.80652    135527.28   -35764.347    2630.4642   -38394.811    22.137229    236.71304 
    6550    138.06963   -777.60396     135542.3   -35789.557     2670.197   -38459.754    22.311233    240.28856 
    6600    133.49999   -818.10966    135500.32   -35809.353    2581.8225   -38391.176    22.468803    232.33582 
    6650     137.5182   -652.18989    135458.98   -35755.229    2659.5326   -38414.762    22.653088    239.32888 
    6700    137.88019   -449.76408     135562.5   -35748.957    2666.5333    -38415.49    22.770817    239.95887 
    6750    139.56029   -628.43634     135602.5   -35738.711    2699.0256   -38437.736    22.795409    242.88282 
    6800    136.21119   -597.27534    135650.15   -35749.354    2634.2558    -38383.61    22.951108    237.05424 
    6850    137.03349   -856.25477    135695.15   -35741.903    2650.1585   -38392.062    23.067425    238.48531 
    6900    138.91686   -618.85604    135774.12    -35702.77     2686.582   -38389.352    23.097021    241.76303 
    6950     139.1175   -713.65399     135820.3   -35685.865    2690.4622   -38376.327    23.137095    242.11221 
    7000    139.47611    -954.9102    135823.14   -35627.403    2697.3975     -38324.8    23.442056    242.73631 
    7050    138.51332   -500.82765    135756.06    -35687.04    2678.7778   -38365.818    23.609161    241.06074 
    7100    140.20107   -1070.3642    135741.03   -35653.392     2711.418    -38364.81    23.692842      243.998 
    7150    137.98983   -723.58451    135654.63   -35675.993    2668.6537   -38344.647    23.934974    240.14968 
    7200     138.9371   -873.25421    135633.55   -35662.598    2686.9735   -38349.572    24.088552    241.79826 
    7250    140.96878   -867.41602    135680.14   -35632.377    2726.2651   -38358.642     24.25138    245.33408 
    7300    138.91202   -738.30164    135727.18   -35692.665    2686.4885   -38379.153    24.646379    241.75462 
    7350    141.18924   -843.09266    135689.44   -35680.389    2730.5286   -38410.918    24.808679    245.71775 
    7400    139.16886   -676.69912    135714.51   -35746.485    2691.4556    -38437.94    25.027885     242.2016 
    7450    139.95674   -673.93117    135733.19    -35738.23    2706.6928   -38444.923    25.031068    243.57279 
    7500    138.33134   -718.19569     135727.5   -35692.917    2675.2583   -38368.175    25.202823    240.74402 
    7550    138.80754   -657.34848    135821.27   -35738.774    2684.4679   -38423.242    25.404131    241.57279 
    7600    140.86178   -737.18196    135771.41   -35752.375    2724.1957    -38476.57    25.643814    245.14786 
    7650    140.45143   -443.77445    135731.72   -35749.873    2716.2598   -38466.133    25.875778    244.43371 
    7700    138.35977    -689.3345    135687.84   -35745.228    2675.8081   -38421.036    25.954496     240.7935 
    7750    137.56326   -640.74236    135642.09   -35782.942     2660.404   -38443.346    26.140176     239.4073 
    7800    132.81357   -759.41837    135657.99    -35838.61    2568.5474   -38407.157    26.264037    231.14121 
    7850    138.02146   -687.54685    135563.34   -35826.351    2669.2655   -38495.616    26.341177    240.20473 
    7900    137.85232   -779.55045    135559.21   -35797.633    2665.9943   -38463.628    26.423451    239.91037 
    7950     137.0899    -724.6271    135453.17    -35801.11    2651.2496   -38452.359    26.565615     238.5835 
    8000    138.03989   -595.26229    135347.44   -35732.449    2669.6219   -38402.071    26.888964    240.23681 
    8050    139.07056   -826.54002    135265.61   -35686.787    2689.5545   -38376.342    26.978822    242.03053 
    8100    137.43455   -883.61848    135240.43   -35675.294    2657.9149   -38333.209    27.152522     239.1833 
    8150    138.92521   -725.95034    135202.96   -35637.239    2686.7436   -38323.982    27.359699    241.77757 
    8200    136.50915   -647.80217    135226.63    -35659.05    2640.0181   -38299.068     27.55317    237.57279 
    8250    141.18228   -774.06152    135253.26   -35600.342     2730.394   -38330.736     27.75524    245.70564 
    8300    138.76323   -803.98494    135216.54   -35594.777    2683.6109   -38278.388    28.005139    241.49567 
    8350    137.50728   -743.25942     135089.3   -35692.289    2659.3215   -38351.611    28.070722    239.30989 
    8400    136.36286   -831.29334    135140.96   -35718.069    2637.1889   -38355.258     28.29266    237.31819 
    8450    136.54891   -660.23401    135184.33   -35686.241     2640.787   -38327.028    28.445839    237.64198 
    8500    139.16944     -593.377    135123.22   -35712.709    2691.4667   -38404.176    28.354155     242.2026 
    8550    140.79493   -653.69409    135140.47   -35724.143     2722.903   -38447.046    28.433846    245.03152 
    8600    136.95777   -856.66344    135164.58   -35788.311    2648.6942   -38437.005      28.4823    238.35355 
    8650    138.79392   -508.60096    135133.62   -35721.965    2684.2044   -38406.169    28.651238    241.54907 
    8700    134.47204   -746.77663     135138.4     -35754.9    2600.6215   -38355.521    28.847922    234.02753 
    8750    138.17297   -632.33193    135166.93   -35731.817    2672.1956   -38404.013    29.065356    240.46841 
    8800    139.72449   -582.74407    135204.68    -35718.26    2702.2012   -38420.461    29.260912    243.16859 
    8850    136.22084   -587.93452     135209.2   -35762.737    2634.4424   -38397.179    29.535006    237.07104 
    8900    136.88057   -474.77605    135282.52   -35764.359    2647.2012    -38411.56    29.757401    238.21919 
    8950     137.1077   -772.73386    135304.82   -35764.145    2651.5938   -38415.739    29.911756    238.61448 
    9000    135.75345   -634.04914    135274.18   -35724.862    2625.4032   -38350.265    30.083885    236.25761 
    9050    138.08357   -933.89393    135227.37    -35688.78    2670.4665   -38359.246    30.352634    240.31282 
    9100    140.17563    -987.4581    135258.43   -35667.353    2710.9261   -38378.279    30.489084    243.95373 
    9150    134.65528   -598.29178    135300.41   -35665.861    2604.1651   -38270.026     30.56661    234.34641 
    9200    140.55487    -625.0479    135300.05   -35643.757    2718.2603   -38362.017    30.663477    244.61373 
    9250    140.08628   -665.90303    135321.46   -35660.498     2709.198   -38369.696     30.87627    243.79823 
    9300    137.73492   -821.71901    135302.08   -35652.275    2663.7239   -38315.998    31.006883    239.70605 
    9350     142.9559   -892.80581    135307.67   -35647.053     2764.695   -38411.748    31.099586    248.79235 
    9400    139.74578   -570.62738    135370.87    -35630.64    2702.6129   -38333.253    31.163121    243.20564 
    9450    139.76978   -698.09826    135449.42    -35596.08    2703.0771   -38299.157     31.18837    243.24741 
    9500    139.72256   -864.14771    135492.45   -35661.372    2702.1639   -38363.536    31.409596    243.16523 
    9550    139.30437   -744.03477    135438.35   -35657.168    2694.0762   -38351.244    31.642915    242.43743 
    9600    139.84559   -739.90809    135442.82   -35681.168    2704.5431   -38385.711    31.750142    243.37934 
    9650    137.72663    -675.3807    135421.82   -35719.871    2663.5636   -38383.434    31.904032    239.69163 
    9700    136.16785   -731.68595     135346.1   -35739.749    2633.4175   -38373.166    32.044824    236.97881 
    9750     136.3251   -551.54011    135290.69   -35796.028    2636.4586   -38432.487    32.179014    237.25247 
    9800    138.07545   -799.83596    135383.14    -35782.42    2670.3096    -38452.73    32.214588     240.2987 
    9850    140.17483   -559.83632    135314.96   -35787.653    2710.9105   -38498.564    32.189768    243.95233 
    9900    136.45032   -920.38048    135284.41   -35795.471    2638.8804   -38434.351    32.323944    237.47041 
    9950    134.36761   -621.88714    135337.74   -35789.813    2598.6018   -38388.415    32.334188    233.84577 
   10000    134.69744   -544.92623    135374.62   -35756.269    2604.9805   -38361.249    32.511671    234.41979 
   10050    136.61127    -355.1404    135533.74   -35789.165    2641.9931   -38431.158    32.587595    237.75052 
   10100    134.89118   -674.02307    135664.45   -35809.084    2608.7274   -38417.811    32.720162    234.75697 
   10150    138.80112   -824.65123     135713.7    -35804.81    2684.3436   -38489.153    32.801499     241.5616 
   10200    136.15607   -770.03338    135749.24   -35759.154    2633.1897   -38392.343    33.077945    236.95831 
   10250    135.59868   -763.58956    135765.25   -35694.597    2622.4101   -38317.008    33.239134    235.98826 
   10300    139.80044   -726.21136    135787.58   -35632.104      2703.67   -38335.774    33.343714    243.30077 
   10350    137.26419   -816.89408    135744.67   -35602.342    2654.6202   -38256.962    33.660442    238.88682 
   10400    138.58401   -781.05942    135661.05   -35605.469    2680.1449   -38285.614    33.691357    241.18377 
   10450      139.271   -834.41226    135584.18   -35653.378    2693.4309   -38346.809    33.921306    242.37936 
   10500    139.27066   -706.09434    135599.76   -35621.649    2693.4243   -38315.074    34.151706    242.37877 
   10550    137.75814   -809.76584    135564.84   -35636.759    2664.1729   -38300.932    34.392478    239.74646 
   10600    138.31603   -948.91504    135449.39    -35601.91    2674.9622   -38276.872    34.440356    240.71738 
   10650    139.51542   -625.26046     135462.2    -35611.46    2698.1578   -38309.618    34.679026    242.80473 
   10700     139.8273   -819.01523    135436.18    -35583.48    2704.1895   -38287.669     34.82531    243.34752 
   10750    138.12287   -1016.5384    135390.65   -35627.635    2671.2267   -38298.861    34.925098    240.38122 
   10800    140.29761   -781.58359    135363.55   -35584.211    2713.2851   -38297.496    34.986993    244.16602 
   10850     139.3206   -637.20097    135392.11   -35604.276    2694.3902   -38298.666    35.455792    242.46568 
   10900    138.45209   -845.43354    135394.45   -35637.991    2677.5936   -38315.585    35.616758    240.95418 
   10950    140.16197   -671.99683    135431.29   -35674.028    2710.6618    -38384.69    35.732137    243.92995 
   11000    136.45026   -714.80545    135445.65   -35669.299    2638.8792   -38308.178    35.896658     237.4703 
   11050    138.43999   -926.43863    135419.35   -35641.748    2677.3596   -38319.108    36.041212    240.93312 
   11100    141.22136   -895.77946    135364.25   -35622.755    2731.1499   -38353.905    36.097769    245.77366 
   11150    137.93578   -913.85124    135267.28   -35601.731    2667.6084    -38269.34    36.182552    240.05562 
   11200    140.20414    -758.1556     135301.8   -35570.328    2711.4774   -38281.805    36.297752    244.00335 
   11250    144.03897   -706.82284    135310.33   -35583.506     2785.641   -38369.147     36.49463    250.67726 
   11300    140.13624   -835.37575    135295.83   -35600.582    2710.1641   -38310.746    36.672897    243.88517 
   11350     138.0972   -986.96136    135302.12   -35643.019    2670.7302   -38313.749     36.80974    240.33654 
   11400    138.32266    -965.9204    135248.33   -35608.605    2675.0904   -38283.696    37.151377    240.72892 
   11450    139.54132   -888.46617    135139.52   -35569.801    2698.6587    -38268.46    37.335725    242.84981 
   11500    140.19461   -912.81257    135102.83   -35648.517     2711.293    -38359.81    37.580482    243.98675 
   11550    137.45143   -878.88038    135090.16   -35666.312    2658.2413   -38324.554    37.921759    239.21268 
   11600    136.08882   -618.90432    135095.65   -35681.871    2631.8891    -38313.76    38.193798    236.84127 
   11650    138.58813   -774.53279    135147.91   -35573.293    2680.2246   -38253.518    38.318142    241.19094 
   11700    139.40997    -740.3652    135083.99   -35646.961    2696.1184   -38343.079    38.575201    242.62121 
   11750    137.55713   -483.38094    135057.87    -35623.06    2660.2854   -38283.345     38.81515    239.39663 
   11800    140.56786   -599.91817    135179.63   -35619.294    2718.5115   -38337.805    38.867492    244.63634 
   11850    135.64303   -770.84186    135205.43   -35704.388    2623.2677   -38327.656    38.919484    236.06544 
   11900    137.80246   -674.45531    135155.13    -35703.52    2665.0301    -38368.55    38.974025     239.8236 
   11950    137.36564   -790.82439    135056.16   -35698.384    2656.5821   -38354.966    39.184954    239.06337 
   12000    133.96283     -539.002    134970.04   -35677.846    2590.7735   -38268.619    39.364875    233.14132 
   12050    138.12562   -523.98533    135002.28    -35672.54    2671.2797    -38343.82    39.444427      240.386 
   12100    137.71379   -510.47761    135102.19   -35690.693    2663.3152   -38354.008     39.72437    239.66928 
   12150    136.05148   -687.25251    135191.15   -35781.147     2631.167   -38412.314    39.842606    236.77628 
   12200    136.91613   -564.51773    135176.84   -35750.822    2647.8889   -38398.711    39.841054    238.28108 
   12250    135.44404   -555.22715    135202.46   -35745.965    2619.4194   -38365.384    39.963021    235.71913 
   12300    139.55634   -524.77149    135313.24    -35738.68    2698.9493   -38437.629    40.209249    242.87595 
   12350    138.48028   -721.54425    135328.92   -35737.966    2678.1388   -38416.104    40.578783    241.00324 
   12400    137.71144   -451.22398    135322.71   -35688.217    2663.2698   -38351.486    40.766033    239.66519 
   12450    140.78037   -580.40105    135438.09   -35669.271    2722.6214   -38391.892    41.050798    245.00618 
   12500    139.04284    -499.6234    135498.63    -35658.96    2689.0184   -38347.978    41.194776    241.98229 
   12550     143.3196   -653.41737    135536.35   -35652.771    2771.7288     -38424.5    41.348271    249.42532 
   12600    138.60079   -572.71916    135510.95    -35618.91    2680.4694    -38299.38    41.519048    241.21296 
   12650    137.52806   -695.63411    135509.59   -35650.548    2659.7233   -38310.271    41.700394    239.34605 
   12700    139.37192   -910.43858    135490.26   -35669.201    2695.3826   -38364.584     41.80663    242.55499 
   12750    139.27406   -682.94361    135416.02   -35695.182    2693.4901   -38388.672    41.995058    242.38469 
   12800    137.14772   -863.86456    135450.41   -35735.711    2652.3677   -38388.078    42.047313    238.68412 
   12850    136.83469    -768.7629    135408.08   -35737.643    2646.3139   -38383.957    42.174009    238.13934 
   12900    135.25091   -728.07643    135315.94    -35776.79    2615.6843   -38392.474    42.236067    235.38302 
   12950    135.92243   -637.03827    135263.51   -35805.473    2628.6713   -38434.144    42.543873     236.5517 
   13000    136.03691   -668.04087    135343.89    -35842.22    2630.8852   -38473.105    42.768977    236.75093 
   13050    135.11749   -775.65096    135295.75   -35862.248    2613.1042   -38475.352    43.084139    235.15083 
   13100    136.59913   -810.74735    135311.13   -35828.027    2641.7583   -38469.785    43.405492    237.72939 
   13150    134.44645   -772.91348    135340.53   -35766.912    2600.1266   -38367.038    43.641639    233.98299 
   13200    133.01148   -636.34505    135268.52   -35811.448    2572.3748   -38383.823    43.779947    231.48564 
   13250    136.03769   -788.76062    135207.49   -35807.471    2630.9003   -38438.372    43.889496    236.75229 
   13300    136.29085   -665.89387    135165.53   -35808.978    2635.7963   -38444.774    44.165609    237.19287 
   13350     135.3078   -850.85545    135107.28   -35838.556    2616.7846   -38455.341    44.432739    235.48203 
   13400    135.70431   -615.11425     135110.5    -35817.38    2624.4529   -38441.833    44.772606    236.17209 
   13450    136.49595   -515.84355    135056.04   -35806.153    2639.7629   -38445.916    44.864646    237.54982 
   13500    138.90733   -386.80566    135124.97   -35781.946    2686.3977   -38468.344    44.903907    241.74645 
   13550    137.02318   -653.75875    135166.21   -35779.863    2649.9593   -38429.822     45.25484    238.46739 
   13600    136.62807   -674.61863    135139.12   -35808.184     2642.318   -38450.502    45.425192    237.77975 
   13650    136.48886   -648.91341    135111.56   -35839.798    2639.6257   -38479.423    45.648157    237.53748 
   13700    138.36412   -640.94095    135091.78   -35793.159    2675.8923   -38469.051    45.898541    240.80108 
   13750    137.93391   -398.67649    135069.82   -35774.276    2667.5722   -38441.848    45.975267    240.05235 
   13800    138.29776   -718.35291    135093.56   -35800.817    2674.6089   -38475.426    46.182539    240.68559 
   13850    137.64695   -693.84426    135169.08   -35810.484    2662.0227   -38472.506    46.362634    239.55296 
   13900    136.36164   -515.47047    135106.43    -35801.91    2637.1654   -38439.075    46.522342    237.31608 
   13950     140.3649   -530.30158    135084.05   -35777.004    2714.5865    -38491.59    46.699101    244.28313 
   14000    134.91314   -690.37787    135154.94   -35835.514    2609.1521   -38444.666    47.275239    234.79519 
   14050    135.89337   -596.22722    135096.45   -35827.463    2628.1092   -38455.573    47.424548    236.50112 
   14100    138.60008   -777.23895    135108.81   -35804.959    2680.4557   -38485.415    47.805016    241.21173 
   14150    136.27415   -494.70089    135140.84   -35830.059    2635.4734   -38465.533    48.082463    237.16382 
   14200    139.17398   -720.99661    135142.14   -35847.253    2691.5545   -38538.807    48.212436     242.2105 
   14250    136.13142   -540.55516    135138.76   -35806.649     2632.713   -38439.362    48.418531    236.91541 
   14300    140.22135   -652.80015    135078.34   -35785.635    2711.8102   -38497.445    48.441537     244.0333 
   14350    139.70425   -613.00945    135076.57   -35800.095    2701.8097   -38501.905    48.487988    243.13336 
   14400    137.04049   -738.87044    135107.61   -35788.975    2650.2939   -38439.269    48.670009     238.4975 
   14450    139.65786   -750.78803     135180.6   -35746.832    2700.9126   -38447.745    48.813839    243.05263 
   14500    138.44575   -488.81451    135226.92   -35731.935    2677.4709   -38409.406    48.954671    240.94314 
   14550    140.21965   -641.15983    135319.86   -35756.576    2711.7774   -38468.353    49.347612    244.03034 
   14600    138.09658    -530.5728    135331.71    -35809.19    2670.7181   -38479.908    49.659304    240.33546 
   14650    135.84919   -684.61547    135331.41   -35826.666    2627.2549   -38453.921    49.792341    236.42424 
   14700    137.99798   -697.03063    135356.88   -35814.974    2668.8112   -38483.786     49.91475    240.16386 
   14750    138.58417    -670.4018    135427.95    -35811.07    2680.1479   -38491.218    50.097923    241.18403 
   14800    139.09071   -604.02617    135493.81   -35805.221    2689.9442   -38495.165    50.167812    242.06559 
   14850     139.8999   -600.25848    135537.26   -35778.046    2705.5936    -38483.64    50.428554    243.47386 
   14900    137.99021   -443.02976    135556.47   -35762.534     2668.661   -38431.195    50.606252    240.15034 
   14950    138.04633   -716.80827    135661.85   -35744.463    2669.7464    -38414.21    50.964576    240.24801 
   15000    138.95058   -667.33668    135675.83   -35762.443    2687.2342   -38449.677    51.299322    241.82172 
   15050    139.67825   -718.00364    135704.48   -35769.252    2701.3068   -38470.559    51.603604    243.08811 
   15100    136.46688   -813.28383    135693.04    -35789.17    2639.2007   -38428.371     51.83361    237.49923 
   15150    139.49383   -846.16315    135639.33   -35854.126    2697.7404   -38551.866    51.768587    242.76716 
   15200    137.86978   -673.77394    135581.33   -35866.539     2666.332   -38532.871    51.684566    239.94076 
   15250    138.49324   -520.92818    135561.48   -35798.275    2678.3893   -38476.665     51.83527    241.02578 
   15300    138.12216   -441.10332    135583.79    -35779.98    2671.2129   -38451.192    51.944589    240.37998 
   15350     138.5439   -601.92663    135608.21   -35816.168    2679.3691   -38495.537    52.095188    241.11395 
   15400    136.39832   -745.90366    135645.16   -35891.444    2637.8747   -38529.318    52.270821    237.37991 
   15450    134.63024   -704.75141    135713.12   -35902.037    2603.6809   -38505.718    52.389557    234.30284 
   15500    137.85345   -454.69602    135766.82   -35911.805    2666.0162   -38577.822    52.487208    239.91234 
   15550    136.67853   -771.70864       135767   -35900.217    2643.2939   -38543.511    52.475407    237.86757 
   15600    135.75253   -695.67706    135779.45   -35896.495    2625.3854    -38521.88    52.609584    236.25601 
   15650    137.77039   -865.41783    135762.51   -35855.703    2664.4098   -38520.112    52.742638    239.76778 
   15700    138.93843   -760.67899     135722.2   -35825.669    2686.9992   -38512.668    52.899864    241.80057 
   15750    138.52846   -897.95061    135762.75   -35783.572    2679.0706   -38462.642    52.808398    241.08709 
   15800    138.28179   -742.14673    135734.61   -35802.503       2674.3   -38476.803    52.989396    240.65779 
   15850    137.38022    -872.8583    135813.18   -35755.771    2656.8641   -38412.635    53.226875    239.08875 
   15900    138.12415   -922.97545    135754.04    -35718.98    2671.2514   -38390.232    53.067534    240.38345 
   15950    139.92792   -561.58036    135746.78   -35722.151    2706.1355   -38428.286    53.298422    243.52263 
   16000    142.89224   -760.95552    135857.78   -35725.157    2763.4638   -38488.621    53.629797    248.68155 
   16050    139.94448   -858.08074    135823.43   -35748.389    2706.4556   -38454.844    53.889927    243.55144 
   16100    139.34837   -895.96493    135846.65   -35795.867    2694.9271   -38490.794    54.060486      242.514 
   16150    138.55429   -988.03058    135760.75   -35806.987    2679.5701   -38486.557    54.065465    241.13204 
   16200    136.52609   -854.33565    135666.29   -35847.493    2640.3456   -38487.839    54.193699    237.60226 
   16250     137.3632   -578.08797    135661.01   -35782.523    2656.5351   -38439.058    54.387612    239.05914 
   16300    137.30936   -693.05693    135713.07   -35814.644    2655.4937   -38470.138    54.447911    238.96543 
   16350    139.34267   -764.02958    135745.49   -35805.097     2694.817   -38499.914    54.616039     242.5041 
   16400     137.5953   -845.67447    135754.06   -35780.306    2661.0237    -38441.33    54.793218    239.46307 
   16450    136.15518   -572.30884     135766.2   -35840.903    2633.1725   -38474.076    54.961545    236.95676 
   16500    133.88775   -1045.3202    135790.96   -35875.869    2589.3216    -38465.19    55.257692    233.01066 
   16550    137.86206   -656.69914    135791.06   -35847.403    2666.1828   -38513.586    55.297093    239.92733 
   16600    136.85507    -846.8786    135717.88   -35827.919    2646.7081   -38474.627    55.261754    238.17481 
   16650    137.14719   -957.07357    135638.79   -35836.625    2652.3574   -38488.982    55.467267     238.6832 
   16700    138.51613   -458.77105    135573.94   -35800.169    2678.8322   -38479.001    55.631808    241.06563 
   16750     139.5479   -754.17779    135564.02   -35757.002    2698.7861   -38455.788    55.686493    242.86126 
   16800    137.12067   -597.79102    135448.96   -35809.076    2651.8446   -38460.921    55.969532    238.63705 
   16850    138.50443   -747.41833    135453.45   -35818.353    2678.6059   -38496.959    55.981809    241.04527 
   16900     135.1817   -695.92472    135369.64   -35857.653    2614.3459   -38471.999     56.01858    235.26258 
   16950    131.76011    -770.2052    135323.58    -35917.87    2548.1741   -38466.044    56.160029    229.30784 
   17000    133.43146   -795.91593    135286.03   -35958.308    2580.4971   -38538.805    56.449738    232.21655 
   17050    133.05214   -867.55641    135288.95   -35937.297    2573.1613   -38510.459    56.395686    231.55641 
   17100    135.34912   -607.18212    135266.09     -35886.9    2617.5837   -38504.483    56.553382    235.55394 
   17150    135.82516   -743.96036    135238.97   -35865.819    2626.7902   -38492.609      56.5403    236.38242 
   17200    137.76406   -564.54712    135246.23   -35805.907    2664.2875   -38470.195    56.828133    239.75677 
   17250    137.91898   -605.95154    135269.81   -35807.233    2667.2835   -38474.517     56.88645    240.02637 
   17300    137.86463   -845.13783    135342.96   -35779.925    2666.2324   -38446.157    56.864365    239.93179 
   17350    137.78451   -569.94867    135345.11   -35803.947     2664.683    -38468.63    56.906172    239.79236 
   17400    137.32848   -546.64072    135494.14   -35783.591    2655.8636   -38439.455    57.172815    238.99871 
   17450    140.14441   -768.75139    135537.62   -35757.012    2710.3221   -38467.334    57.226615    243.89939 
   17500     139.3441   -716.71446    135586.89   -35764.918    2694.8446   -38459.762    57.412878    242.50658 
   17550    135.86987   -677.55246    135571.89   -35764.892    2627.6547   -38392.546    57.274574    236.46022 
   17600    139.16375   -615.15595    135702.93   -35757.251    2691.3567   -38448.608    57.314481     242.1927 
   17650    139.07811   -823.67621     135627.5   -35726.092    2689.7005   -38415.793    57.339377    242.04366 
   17700     137.1634   -617.42767    135615.43   -35708.747    2652.6709   -38361.418    57.428002    238.71141 
   17750    138.07402   -834.55273    135650.09   -35729.127    2670.2819   -38399.409    57.455206     240.2962 
   17800     137.1741   -649.69225    135614.66   -35733.189    2652.8778   -38386.067    57.519567    238.73003 
   17850    138.58928   -895.15038    135587.37   -35700.553    2680.2469     -38380.8    57.571402    241.19294 
   17900    140.39599    -516.8628    135587.49   -35719.414    2715.1877   -38434.602    57.540735    244.33723 
   17950    137.72356   -753.19692    135510.41   -35773.718    2663.5041   -38437.222    57.645887    239.68628 
   18000    136.85899   -775.75468    135437.21   -35750.938    2646.7838   -38397.722    57.824144    238.18163 
   18050    137.69679   -554.60809     135493.3    -35766.94    2662.9864   -38429.926    57.918118    239.63969 
   18100    135.34938   -794.88381    135498.98    -35793.99    2617.5887   -38411.579    57.945717    235.55439 
   18150    134.11391   -657.24408    135515.68   -35866.851    2593.6953   -38460.546    58.122072    233.40424 
   18200    137.55553   -647.80737    135573.39    -35776.74    2660.2545   -38436.994    58.373267    239.39385 
   18250    139.47564   -570.59501    135562.32   -35759.369    2697.3886   -38456.757    58.680212     242.7355 
   18300    138.55884   -830.47334    135518.99   -35699.101    2679.6581   -38378.759    58.953688    241.13996 
   18350    138.32216   -681.96429    135529.85    -35740.67    2675.0809   -38415.751    59.272361    240.72806 
   18400    139.51454   -567.28565    135550.15   -35710.037    2698.1409   -38408.178    59.443152     242.8032 
   18450    137.81946   -704.80185    135584.23   -35718.122    2665.3589    -38383.48    59.784732    239.85318 
   18500    135.37652   -637.76318    135611.02   -35780.002    2618.1136   -38398.116    59.988619    235.60163 
   18550    135.54479   -769.19717    135538.33    -35813.46    2621.3678   -38434.828    59.943383    235.89447 
   18600    136.16405   -789.03761    135475.12   -35786.899    2633.3441   -38420.243    59.962576     236.9722 
   18650    137.03388   -572.71565    135568.39   -35734.407    2650.1662   -38384.573    60.109437    238.48601 
   18700    137.15693   -597.95598    135627.11   -35702.393    2652.5459   -38354.939    60.069858    238.70015 
   18750    138.30675   -605.27497    135659.51   -35679.723    2674.7828   -38354.506    59.987738    240.70123 
   18800    140.46064   -895.27266    135669.23   -35673.858    2716.4379   -38390.296    60.171095    244.44974 
   18850    139.16055   -805.61027     135637.5    -35671.69    2691.2948   -38362.985    60.356256    242.18713 
   18900    135.19821   -723.63531    135590.21   -35705.721    2614.6653   -38320.386    60.570916    235.29131 
   18950    139.58126   -926.05164    135569.82   -35663.403    2699.4312   -38362.834    60.592485    242.91932 
   19000    137.35611   -928.39886    135467.43   -35675.224    2656.3978   -38331.622     60.75191    239.04679 
   19050     141.5217   -671.82222    135424.31   -35658.712    2736.9583   -38395.671    60.984916    246.29635 
   19100    140.46978   -680.69155    135373.17   -35694.302    2716.6146   -38410.917    61.256484    244.46564 
   19150    137.20486   -715.67561    135392.96   -35729.746    2653.4729   -38383.219    61.167429    238.78357 
   19200    134.92935   -603.23085    135414.72   -35713.842    2609.4655   -38323.307     61.52108    234.82339 
   19250    133.55727   -604.89988    135435.01   -35726.638    2582.9302   -38309.568    61.704401     232.4355 
   19300    137.31719   -448.19214    135465.13   -35741.573    2655.6452   -38397.218    61.930955    238.97906 
   19350    137.02875   -804.82827     135464.3   -35761.903    2650.0668    -38411.97    62.017776    238.47707 
   19400    134.84613    -552.6359    135463.41   -35748.795    2607.8562   -38356.651    62.187847    234.67857 
   19450    135.57112   -610.06145    135527.93   -35790.871     2621.877   -38412.748      62.3457    235.94029 
   19500    135.38901   -607.46055    135555.07   -35780.153    2618.3552   -38398.509    62.587677    235.62337 
   19550    137.05585   -692.74057    135519.31   -35748.395    2650.5911   -38398.987    62.771661    238.52425 
   19600    137.16967   -774.69332    135462.88   -35699.547    2652.7921   -38352.339     63.05959    238.72231 
   19650    139.53069   -807.41886    135399.14   -35679.556    2698.4533   -38378.009    63.275182    242.83132 
   19700    139.54394   -857.69257     135351.2     -35695.9    2698.7094   -38394.609    63.492396    242.85436 
   19750    138.82749   -649.87825    135373.83   -35743.767    2684.8536    -38428.62    63.646928    241.60749 
   19800    134.54149     -827.657     135376.3   -35749.084    2601.9645   -38351.048     63.85966    234.14838 
   19850    136.19644   -897.07361    135396.08   -35763.859    2633.9704   -38397.829    63.835205    237.02857 
   19900    134.14087   -810.15502    135347.35   -35780.969    2594.2167   -38375.186     63.92667    233.45117 
   19950     134.0582   -1032.9834    135320.08   -35767.345    2592.6179   -38359.963    64.194936    233.30729 
   20000    135.48662   -761.99301    135329.64   -35759.239    2620.2428   -38379.482    64.418962    235.79323 
   20050    141.12036   -706.83671    135286.91   -35668.552    2729.1966   -38397.749    64.583727    245.59788 
   20100    140.79048   -647.13851    135243.21   -35639.994     2722.817   -38362.811    64.774033    245.02378 
   20150    138.81936   -721.95356    135182.91   -35625.184    2684.6965   -38309.881    64.854895    241.59336 
   20200    140.79793   -927.24203    135072.34   -35667.933     2722.961   -38390.894    65.188759    245.03675 
   20250     140.5863   -668.26053    134979.91   -35628.676    2718.8682   -38347.545    65.579137    244.66844 
   20300    136.00627   -878.41131    134908.11   -35698.898    2630.2927    -38329.19    65.976302    236.69761 
   20350    139.73424    -659.1464     134853.8   -35695.061    2702.3897   -38397.451    66.034987    243.18555 
   20400    136.57611   -682.24234    134837.87   -35715.232    2641.3132   -38356.545     66.17404    237.68933 
   20450    137.54374   -601.85311    134828.83   -35700.957    2660.0265   -38360.983    66.126115    239.37333 
   20500    134.86319   -734.05559    134808.06   -35718.394    2608.1862   -38326.581    66.258222    234.70826 
   20550    136.13658    -641.3851    134795.14   -35683.818    2632.8128   -38316.631    66.462679    236.92439 
   20600    138.61708   -465.94977    134747.61   -35623.107    2680.7845   -38303.892    66.389478    241.24132 
   20650    138.81666   -580.57865    134805.52   -35600.783    2684.6441   -38285.427     66.46491    241.58864 
   20700    138.15381   -911.19374    134767.74   -35664.737     2671.825   -38336.562    66.605253    240.43507 
   20750    139.43169   -740.57395    134790.39   -35636.728    2696.5386   -38333.267    66.301972    242.65901 
   20800    136.75266   -866.14607    134780.71   -35650.181    2644.7275   -38294.909     66.29146    237.99659 
   20850    136.56471   -913.94057    134687.89   -35655.224    2641.0927   -38296.316    66.417543    237.66949 
   20900    137.23371   -729.62837    134645.28   -35661.758    2654.0308   -38315.789    66.469235    238.83378 
   20950    138.11073     -711.845    134631.07   -35659.992    2670.9919   -38330.984     66.79658    240.36009 
   21000    137.99578   -843.09584    134648.12   -35649.617    2668.7688   -38318.386    67.022086    240.16004 
   21050    137.71179   -773.16931    134728.14   -35641.695    2663.2765   -38304.972    67.246258    239.66579 
   21100    138.81167   -751.05558    134722.44    -35651.06    2684.5478   -38335.608    67.287617    241.57997 
   21150    139.97472   -692.34792    134700.03    -35677.72    2707.0405    -38384.76    67.375397    243.60407 
   21200    136.09308   -525.91119    134724.15   -35657.081    2631.9715   -38289.053     67.16316    236.84869 
   21250    139.65106   -722.67133    134740.47    -35706.78    2700.7811   -38407.561    67.216356    243.04079 
   21300    137.18165   -573.10642    134802.53   -35681.637     2653.024   -38334.661    67.407867    238.74318 
   21350    137.67988   -813.58909    134812.39   -35682.496    2662.6594   -38345.156    67.485265    239.61026 
   21400    137.75222   -691.14799    134714.99   -35719.075    2664.0584   -38383.133    67.626676    239.73616 
   21450    136.06642   -583.76248    134739.37   -35742.792    2631.4559   -38374.248    67.816852    236.80229 
   21500    136.89158   -556.12128    134792.02   -35751.066    2647.4141    -38398.48     68.26909    238.23835 
   21550    139.32613   -692.11405    134877.88   -35711.697    2694.4971   -38406.194     68.54714     242.4753 
   21600    138.99769   -655.96323    134932.99   -35761.737    2688.1453   -38449.882    68.581196    241.90371 
   21650    137.38344   -734.74873    134888.22   -35751.543    2656.9265   -38408.469    68.754429    239.09436 
   21700    134.65146   -839.74697    134869.45   -35808.565    2604.0914   -38412.656    68.781834    234.33978 
   21750    138.29495    -728.4211    134893.16   -35784.315    2674.5545    -38458.87    69.045125    240.68069 
   21800    136.97157   -658.24247    134887.16   -35791.708    2648.9611   -38440.669    69.312436    238.37756 
   21850    135.51776   -726.13846    134909.46   -35776.886    2620.8451   -38397.731    69.558821    235.84743 
   21900    139.96776   -846.40757    134930.32   -35782.998    2706.9059   -38489.904     69.57347    243.59196 
   21950    134.99164   -833.90352    134856.17   -35770.384    2610.6703   -38381.054    69.706651    234.93181 
   22000    134.27769   -798.55421    134849.89   -35835.726    2596.8629   -38432.589    69.748003    233.68929 
   22050    134.87627   -912.32374    134887.19   -35847.419     2608.439   -38455.858    69.883462    234.73102 
   22100    135.04991   -729.71602    134860.73   -35852.476    2611.7972   -38464.274     69.98086    235.03322 
   22150     136.4146   -800.20501    134844.25   -35844.928    2638.1896   -38483.117    70.068334    237.40824 
   22200    135.14468    -653.0326    134821.79   -35819.803      2613.63   -38433.433    70.325388    235.19815 
   22250    137.92387   -800.45858     134848.2   -35851.892    2667.3781   -38519.271    70.436874    240.03489 
   22300    135.66198   -596.05693    134889.36    -35842.74    2623.6343   -38466.374    70.527326    236.09843 
   22350    135.52175   -826.23699    134890.35   -35832.062    2620.9223   -38452.984     70.61301    235.85438 
   22400    138.89594   -659.26844    134910.83   -35794.257    2686.1775   -38480.434    70.818597    241.72663 
   22450    138.06501   -604.08788    135007.75   -35831.384    2670.1076   -38501.491    70.920733    240.28052 
   22500     137.5111   -782.89743    134994.72   -35776.122    2659.3952   -38435.517     71.08252    239.31652 
   22550    134.76932    -734.2511    135064.83   -35816.548    2606.3706   -38422.918    71.056096    234.54488 
   22600    133.44088   -987.87043    135106.96   -35800.687    2580.6794   -38381.367    71.553046    232.23296 
   22650    136.25884   -801.40325    135086.91   -35747.805    2635.1773   -38382.983    71.727318    237.13717 
   22700    140.34935   -794.91401    135078.78   -35700.465    2714.2857   -38414.751    71.892166    244.25606 
   22750    139.21381   -537.36127    135076.86   -35710.378    2692.3249   -38402.703    71.973164    242.27983 
   22800    136.26218   -809.23509    135101.92   -35732.035    2635.2418   -38367.277    72.344646    237.14298 
   22850    137.53418   -603.18961    135184.01    -35774.07    2659.8417   -38433.911    72.518329     239.3567 
   22900    136.75332   -600.87408    135246.95   -35765.273    2644.7403   -38410.013    72.516399    237.99773 
   22950    137.03646      -697.25    135336.85   -35777.709    2650.2161   -38427.925    72.647425     238.4905 
   23000    135.69963    -713.9028    135359.72   -35785.925    2624.3625   -38410.287    73.031443    236.16395 
   23050    134.69555   -584.08389    135343.22   -35801.664     2604.944   -38406.608    73.230239     234.4165 
   23100    135.48217   -1094.8743     135290.3    -35774.24    2620.1567   -38394.397    73.300539    235.78548 
   23150    138.55651   -707.17816    135207.36    -35673.42    2679.6131   -38353.033    73.481252    241.13591 
   23200    138.66824   -810.51695    135106.29   -35676.134    2681.7738   -38357.908    73.669914    241.33035 
   23250    138.78961    -965.4282    135043.14   -35614.004     2684.121   -38298.125    73.697058    241.54157 
   23300    139.56996   -756.85493    134988.27   -35594.822    2699.2126   -38294.035    73.649971    242.89965 
   23350     139.9509   -713.09644    134967.61   -35616.471    2706.5798    -38323.05    73.640951    243.56261 
   23400    137.52497     -713.886    134985.98   -35635.825    2659.6636   -38295.489    73.700498    239.34067 
   23450    137.88666   -847.46336    134948.38   -35635.934    2666.6584   -38302.593    73.714115    239.97012 
   23500    136.97977   -517.00022    134977.57   -35654.215    2649.1197   -38303.335    73.930869    238.39183 
   23550    139.90674   -431.84702    135065.43   -35614.322    2705.7258   -38320.047    73.908845    243.48577 
   23600    141.56684   -519.94102    135145.58   -35606.443    2737.8313   -38344.274    74.180624    246.37491 
   23650    140.69529   -602.72888    135147.19   -35568.213    2720.9759   -38289.189    74.443965    244.85811 
   23700      141.342   -589.20166    135221.97   -35632.407     2733.483    -38365.89     74.65118    245.98361 
   23750    138.55147   -797.63102    135258.33   -35628.051    2679.5156   -38307.566    74.826536    241.12714 
   23800    137.85897   -830.44402    135305.83   -35594.913    2666.1229   -38261.036    75.118833    239.92194 
   23850    138.81865   -565.92983     135294.6   -35585.269    2684.6827   -38269.952     75.43833    241.59212 
   23900    139.93627   -886.26686    135336.28   -35554.318    2706.2969   -38260.615    75.499136    243.53716 
   23950    137.59545   -806.14516    135321.13   -35580.361    2661.0267   -38241.387    75.618485    239.46333 
   24000    139.67086   -533.17447    135346.71    -35605.49    2701.1641   -38306.654    75.745484    243.07526 
   24050    140.39559   -704.19819       135390   -35616.488    2715.1799   -38331.668    75.736649    244.33653 
   24100    138.67693   -819.07611    135418.32       -35698    2681.9419   -38379.942    76.004336    241.34547 
   24150    136.60653   -833.22084    135445.85   -35704.917    2641.9014   -38346.818    76.080708    237.74227 
   24200    136.29073   -409.91827    135461.68   -35757.913    2635.7939   -38393.707    76.342786    237.19266 
   24250    139.36092   -679.80201    135606.25   -35782.861      2695.17    -38478.03    76.454139    242.53585 
   24300    135.09091   -782.00702    135633.84   -35817.083    2612.5901   -38429.673    76.672484    235.10457 
   24350    136.91365   -527.59632    135640.01   -35785.012    2647.8408   -38432.853    76.716124    238.27675 
   24400    137.43722   -707.94169    135734.51   -35795.559    2657.9665   -38453.526    76.806345    239.18795 
   24450    137.81763   -609.01605    135778.66   -35770.556    2665.3234    -38435.88    76.874533    239.84999 
   24500    139.82027   -564.70072    135782.62   -35683.682    2704.0534   -38387.735    77.294021    243.33527 
   24550    136.84068   -910.54153     135743.4   -35697.646    2646.4297   -38344.075    77.390659    238.14976 
   24600    138.23317   -695.07068    135669.34   -35730.711    2673.3599   -38404.071    77.441998    240.57318 
   24650    140.45699   -783.72453    135692.71   -35738.446    2716.3673   -38454.814    77.688584    244.44338 
   24700    137.26833   -390.05508    135661.28   -35750.474    2654.7002   -38405.174    77.758692    238.89402 
   24750     137.2021   -644.00851    135690.46   -35780.605    2653.4194   -38434.025    77.885259    238.77876 
   24800    136.70826   -534.17198    135743.39   -35757.548    2643.8688   -38401.417    78.119686    237.91932 
   24850    134.97371   -750.75451    135872.65   -35808.658    2610.3235   -38418.982     78.31951     234.9006 
   24900    136.46244   -669.51838    135865.01   -35824.856    2639.1148   -38463.971    78.275007     237.4915 
   24950    138.91255   -665.10171    135886.63    -35796.75    2686.4986   -38483.249    78.488337    241.75552 
   25000    137.31599   -743.21507    135854.97    -35778.39    2655.6221   -38434.012    78.776739    238.97698 
   25050    140.88965   -611.34024    135873.36   -35647.367    2724.7347   -38372.101    78.862799    245.19636 
   25100    137.74859    -656.3409    135946.78   -35686.868    2663.9882   -38350.856    78.967717    239.72984 
   25150    136.97927   -700.53203    135997.58   -35718.415      2649.11   -38367.525    79.138028    238.39096 
   25200    136.97431   -784.37059    136006.65    -35745.65    2649.0141   -38394.664    79.104802    238.38234 
   25250    134.79195   -993.09422    135880.43   -35758.825    2606.8083   -38365.633    79.059819    234.58427 
   25300    138.21419   -832.44988    135789.55   -35767.839    2672.9927   -38440.832    79.103232    240.54015 
   25350    138.30551   -541.70579     135830.6   -35779.045    2674.7588   -38453.804    79.350972    240.69907 
   25400    135.43776   -1020.3736    135863.01   -35778.078     2619.298   -38397.376    79.487505    235.70821 
   25450    137.45794   -641.31789    135836.43   -35754.935    2658.3671   -38413.302    79.289423      239.224 
   25500    138.91937   -807.14771    135878.59   -35771.758    2686.6306   -38458.389    79.549754    241.76741 
   25550    135.63546   -764.50705    135929.34   -35775.448    2623.1213   -38398.569    79.771464    236.05227 
   25600    136.67544   -689.14247    135944.51   -35765.898    2643.2341   -38409.132    79.955346    237.86219 
   25650    137.19756   -599.58285    135957.77    -35749.24    2653.3316   -38402.572     80.02645    238.77086 
   25700      138.746   -957.63389    135973.12    -35719.61    2683.2776   -38402.888    80.286022    241.46568 
   25750    137.27414   -732.69957    135984.29   -35669.289    2654.8127   -38324.102    80.413929    238.90414 
   25800    138.16743     -839.478    135976.92    -35683.02    2672.0885   -38355.109    80.533852    240.45877 
   25850    138.07155    -1114.222       135909   -35724.807    2670.2342   -38395.041    80.636326    240.29191 
   25900    135.67832   -914.87644    135828.29   -35782.254    2623.9504   -38406.204     80.88513    236.12687 
   25950    136.72677   -1112.0414    135689.58   -35774.622    2644.2269   -38418.849    80.615696    237.95153 
   26000    134.34169   -806.15752    135628.58    -35751.42    2598.1006    -38349.52    80.645662    233.80067 
   26050    135.41889   -990.57139    135548.88   -35765.819    2618.9331   -38384.752    80.774823    235.67537 
   26100    136.98677   -813.71187    135590.39   -35764.745    2649.2551       -38414    81.002303    238.40402 
   26150     138.1061   -1021.0939     135511.8    -35767.01    2670.9024   -38437.912    81.146754    240.35204 
   26200     135.6416   -948.84007    135419.52   -35795.044    2623.2402   -38418.284    81.376939    236.06296 
   26250    134.48306   -719.86244    135410.02   -35745.451    2600.8346   -38346.286    81.356121     234.0467 
   26300    136.06921   -828.17954    135362.11   -35796.285    2631.5098   -38427.795    81.294793    236.80714 
   26350    135.87729   -900.17038    135426.95   -35720.841    2627.7982   -38348.639    81.439223    236.47313 
   26400    137.03719   -1059.4333    135419.92    -35670.59    2650.2302    -38320.82    81.680765    238.49177 
   26450     135.6194     -771.532    135342.69    -35646.65    2622.8108   -38269.461    81.682644    236.02432 
   26500    137.43396   -849.09641    135349.85   -35668.164    2657.9035   -38326.068     81.73132    239.18228 
   26550    136.73784   -761.09118    135340.22   -35604.363    2644.4408   -38248.804    81.762022    237.97078 
   26600    139.67722   -727.28152    135442.14   -35599.652    2701.2871   -38300.939     82.04468    243.08633 
   26650    138.04989   -911.07239    135419.25   -35629.811    2669.8152   -38299.627    82.057099     240.2542 
   26700    138.38082   -742.52189    135421.38     -35652.6    2676.2153   -38328.815    82.173729    240.83015 
   26750    137.72687   -847.52283    135430.69   -35652.513    2663.5681   -38316.081    82.347109    239.69204 
   26800    138.14595   -825.51145    135331.88   -35661.485     2671.673   -38333.158    82.433633    240.42139 
   26850    138.08733    -862.0193    135177.81   -35661.984    2670.5393   -38332.523    82.604914    240.31936 
   26900     133.5064   -861.02416    135108.99   -35672.341    2581.9464   -38254.287    82.897936    232.34697 
   26950    137.14014   -558.08002    135019.25   -35710.452    2652.2211   -38362.673    83.041344    238.67093 
   27000    139.14613   -723.30498    135074.06    -35682.95     2691.016   -38373.966    83.126638    242.16205 
   27050    139.24117   -622.23192     135128.4    -35651.51     2692.854   -38344.364    83.326423    242.32745 
   27100    137.67938   -973.36504    135053.41   -35650.568    2662.6497   -38313.218    83.335249    239.60939 
   27150    135.30123   -767.52512    134949.63   -35686.393    2616.6575   -38303.051    83.172292    235.47059 
   27200    136.49835   -776.87936    134913.42   -35716.384    2639.8093   -38356.194    83.108586      237.554 
   27250    137.41049   -1079.9435    134858.41   -35742.761    2657.4495   -38400.211     83.16361    239.14143 
   27300    133.17027   -862.48379    134745.36   -35752.729    2575.4459   -38328.175    83.363181      231.762 
   27350    135.78082   -605.41236    134717.91   -35812.999    2625.9327   -38438.932    83.360998    236.30525 
   27400    133.94878   -662.37484    134764.76   -35831.749    2590.5019   -38422.251    83.399314    233.11687 
   27450    138.62966    -761.7538    134685.94    -35782.45    2681.0278   -38463.477    83.636432    241.26321 
   27500    136.54892   -717.63226    134649.39   -35799.661    2640.7873   -38440.448    83.660992    237.64201 
   27550    135.54692   -809.24073    134679.51   -35826.025     2621.409   -38447.434    83.694499    235.89817 
   27600    134.50953   -670.71663    134673.84   -35818.413    2601.3464    -38419.76    83.931203    234.09276 
   27650     137.8257   -716.44752    134766.76   -35768.304    2665.4795   -38433.784    83.858156    239.86404 
   27700    135.49943   -1047.7596    134710.96   -35768.645    2620.4906   -38389.136    84.068734    235.81553 
   27750    139.26059   -956.69192    134732.11   -35750.571    2693.2296   -38443.801    83.986143    242.36124 
   27800    137.63873   -693.38186    134752.56   -35749.902    2661.8636   -38411.765     84.35252    239.53865 
   27850    138.91655   -576.35742    134756.34   -35704.639     2686.576   -38391.215    84.494084    241.76249 
   27900     137.4496   -679.64489    134811.54   -35712.338    2658.2059   -38370.544    84.557459    239.20949 
   27950    136.19109   -512.59164    134946.21   -35725.788    2633.8671   -38359.655    84.813874    237.01926 
   28000    137.40338    -696.2931    134977.63   -35707.575    2657.3121   -38364.887    84.655651    239.12906 
   28050    138.72989   -515.75457    135031.21   -35698.086    2682.9661   -38381.052    84.833917    241.43764 
   28100    137.01789   -857.02522    135085.84   -35763.863    2649.8568    -38413.72    85.390506    238.45817 
   28150    137.99767   -684.96454    135148.31   -35713.277    2668.8053   -38382.082    85.634014    240.16332 
   28200     137.0562   -792.53512    135164.47   -35688.718    2650.5978   -38339.316    85.889733    238.52485 
   28250    139.18583   -731.69179    135226.48   -35671.079    2691.7837   -38362.862    86.144219    242.23113 
   28300    139.01674   -395.16596    135287.69   -35655.906    2688.5137   -38344.419    86.338789    241.93686 
   28350    140.34938     -600.407    135376.06   -35617.295    2714.2862   -38331.581     86.76022    244.25611 
   28400    141.11974   -986.82586    135377.23   -35617.402    2729.1845   -38346.587     87.15877    245.59679 
   28450    137.71013    -713.4617    135282.73   -35645.701    2663.2445   -38308.946    86.994381    239.66292 
   28500    136.31957    -661.1197    135290.38   -35696.466    2636.3518   -38332.818    87.221199    237.24286 
   28550    138.33104   -743.81982    135212.97   -35648.958    2675.2526   -38324.211    87.218154    240.74351 
   28600    138.57554   -924.94074    135160.78   -35666.026    2679.9811   -38346.007    87.419537    241.16902 
   28650    137.13333   -701.90156    135163.49     -35669.7    2652.0894   -38321.789    87.443818    238.65908 
   28700    136.90271   -808.18101    135100.31   -35699.303    2647.6293   -38346.933    87.572554    238.25772 
   28750    134.45845   -735.48938     135104.1   -35657.174    2600.3586   -38257.532    87.719456    234.00387 
   28800     139.7198   -757.93287    135080.68   -35644.107    2702.1104   -38346.217    88.071686    243.16042 
   28850    138.31774   -679.59759    135047.44    -35652.97    2674.9953   -38327.965    88.263837    240.72036 
   28900    142.88536   -780.59985    135112.57   -35607.876    2763.3307   -38371.207    88.637665    248.66958 
   28950    137.69755   -693.63278    135137.94   -35608.682    2663.0011   -38271.684    88.945638    239.64101 
   29000    139.46565    -778.7565     135147.3   -35597.015    2697.1952    -38294.21    88.937116    242.71811 
   29050    137.61618   -743.18565    135128.87   -35654.952    2661.4276   -38316.379    89.252682    239.49941 
   29100    135.28755   -718.96675    135152.67   -35702.901    2616.3929   -38319.294    89.586342    235.44678 
   29150    136.88787   -638.97189    135203.05   -35734.291    2647.3424   -38381.633    89.937701    238.23189 
   29200    135.48946   -815.40523    135189.83   -35760.893    2620.2978    -38381.19    90.191418    235.79818 
   29250    132.75116   -690.81512    135194.25   -35751.751    2567.3406   -38319.091    90.550704    231.03261 
   29300    137.38877   -475.68738    135308.22   -35748.388    2657.0294   -38405.417    90.558277    239.10362 
   29350    138.03878   -480.04226    135384.55   -35741.831    2669.6004   -38411.431    90.755589    240.23488 
   29400    138.39888   -764.65801    135324.14   -35741.433    2676.5645   -38417.998    90.864077    240.86157 
   29450    137.03589   -651.53493    135213.92   -35708.977     2650.205   -38359.182    90.821256     238.4895 
   29500    134.69829   -673.56383    135235.88   -35744.434    2604.9969   -38349.431    90.665734    234.42127 
   29550    135.79732   -437.24253    135114.43   -35744.599    2626.2516   -38370.851    90.681208    236.33396 
   29600    137.84694   -673.46725    135069.67   -35728.209    2665.8903   -38394.099     90.41981    239.90101 
   29650    137.00581   -722.96502    135031.43   -35755.604    2649.6232   -38405.227    90.805357    238.43715 
   29700    136.30844   -677.19874    134986.79    -35728.23    2636.1365   -38364.366    90.801703    237.22349 
   29750    135.74682   -842.90225    134910.99   -35693.653    2625.2751   -38318.928    90.900294    236.24608 
   29800    138.96383     -874.838    134830.87   -35715.817    2687.4903   -38403.307    90.903779    241.84477 
   29850    138.43449   -766.30057    134682.02   -35709.298    2677.2532   -38386.551    90.805198    240.92354 
   29900    137.04787   -639.59759    134782.33   -35749.869    2650.4366   -38400.305    91.192323    238.51034 
   29950       139.96   -543.57539     134821.6   -35708.347    2706.7558   -38415.103    91.321579    243.57845 
   30000    138.47676   -699.50396    134828.82   -35711.557    2678.0707   -38389.627    91.564724    240.99711 
   30050    138.02637   -834.26466    134784.96   -35715.735    2669.3605   -38385.095    91.678396    240.21328 
   30100    138.72215   -727.15495    134762.39   -35754.805    2682.8164   -38437.621    91.986429    241.42417 
   30150    135.77385   -865.70604     134773.3   -35768.112    2625.7978    -38393.91    92.008508    236.29312 
   30200    137.08895    -603.8435    134766.32   -35810.555    2651.2311   -38461.786    92.025721    238.58184 
   30250    139.32737   -643.58436    134802.88   -35781.846    2694.5211   -38476.367    92.216325    242.47746 
   30300     136.0508   -554.87138    134845.38   -35782.703    2631.1539   -38413.856    92.495413    236.77511 
   30350    133.75495   -524.48071    134888.59   -35786.304    2586.7534   -38373.057    92.753521    232.77954 
   30400    137.12658   -646.79768    134866.34   -35779.929    2651.9588   -38431.888    92.800216    238.64733 
   30450    135.39093   -430.02797    134821.71   -35790.016    2618.3923   -38408.408    92.667183     235.6267 
   30500    137.96399   -558.43428    134915.09   -35784.101     2668.154   -38452.255    92.794727    240.10471 
   30550    134.94905   -802.10203    134998.05   -35841.458    2609.8465   -38451.304    93.166098    234.85768 
   30600    137.70703    -653.7503    135073.22   -35796.634    2663.1845   -38459.818    93.102557    239.65752 
   30650    137.74932   -638.58371    135025.07   -35772.111    2664.0023   -38436.114    93.275126    239.73111 
   30700    139.08479   -607.60552     135035.9   -35781.567    2689.8297   -38471.397    93.494851    242.05529 
   30750    133.98096   -508.86946    135052.73   -35806.298    2591.1243   -38397.422    93.574221    233.17288 
   30800    135.18665   -565.31846    135112.48   -35759.227    2614.4417   -38373.669    93.609518    235.27119 
   30850    137.79044    -562.3307    135145.59   -35758.621    2664.7976   -38423.419    93.676984    239.80268 
   30900    138.17836    -332.7466    135107.79   -35725.855    2672.2997   -38398.155    93.821869    240.47778 
   30950    137.94423   -832.67786    135072.83   -35698.107    2667.7719   -38365.879    94.130154    240.07033 
   31000    137.12694   -509.69936    135051.31   -35713.796    2651.9658   -38365.761    94.192965    238.64795 
   31050    136.22579   -627.31163    135187.09   -35732.521    2634.5381   -38367.059    94.430092    237.07965 
   31100    137.06625   -866.21481    135121.74   -35686.153    2650.7921   -38336.945    94.619405    238.54233 
   31150    138.84309   -784.34866    135058.74    -35709.69    2685.1553   -38394.845    94.824048    241.63464 
   31200    137.54009   -638.54318    135033.71   -35732.285    2659.9559   -38392.241    94.807937    239.36698 
   31250    139.56777   -625.41953    135133.37   -35707.013    2699.1703   -38406.183    95.028938    242.89584 
   31300    139.65147   -511.08823    135170.52   -35633.977     2700.789   -38334.766    95.418693     243.0415 
   31350    139.81173   -564.68969    135144.74    -35643.12    2703.8883   -38347.008    95.633639    243.32041 
   31400    137.72478   -703.57493    135158.12   -35675.234    2663.5278   -38338.762     95.84103     239.6884 
   31450    139.63705   -742.62795    135139.01   -35674.448    2700.5102   -38374.958    95.877563    243.01642 
   31500    135.72177   -678.18919    135173.65   -35700.651    2624.7907   -38325.442    96.137975    236.20249 
   31550     140.2771   -760.45661    135170.85   -35668.493    2712.8883   -38381.381    96.364197    244.13031 
   31600    135.64406   -569.29498    135185.19   -35716.581    2623.2878   -38339.869    96.327173    236.06724 
   31650    139.28962   -489.73019    135244.11   -35678.907    2693.7911   -38372.698    96.253477    242.41177 
   31700    138.63176   -849.79917    135322.16   -35686.735    2681.0683   -38367.804     96.18529    241.26686 
   31750    139.48244   -701.13138    135261.01   -35663.339      2697.52   -38360.859     96.37386    242.74733 
   31800    137.85257   -855.47348    135228.21    -35685.77    2665.9992   -38351.769    96.490149     239.9108 
   31850    138.04322   -840.64142    135170.04   -35688.274    2669.6862   -38357.961    96.658569     240.2426 
   31900    137.73009   -842.64024    135110.77   -35624.941    2663.6305   -38288.572    96.699764    239.69765 
   31950    139.38635   -857.68304    135058.26   -35620.964    2695.6617   -38316.626    96.705101     242.5801 
   32000    135.70757   -825.50094    135075.31       -35672    2624.5159   -38296.516    96.809057    236.17777 
   32050    136.50372   -905.98513    135008.95   -35729.675    2639.9131   -38369.588    97.052784    237.56335 
   32100    138.67754   -842.65112    134928.74   -35717.247    2681.9536   -38399.201     97.30152    241.34653 
   32150     132.8167   -713.35665    134889.21   -35748.935     2568.608   -38317.543    97.549149    231.14666 
   32200    138.35518   -502.88603     134882.3   -35675.055    2675.7195   -38350.774    97.585798    240.78552 
   32250    139.55031   -567.78763    134906.48   -35618.008    2698.8327   -38316.841    97.505253    242.86546 
   32300    137.42064   -882.08401    134845.24   -35639.385     2657.646   -38297.031    97.557514    239.15911 
   32350    139.86427   -622.09802    134964.41    -35647.72    2704.9044   -38352.624    97.577984    243.41185 
   32400     136.8714   -647.07414     134999.9   -35663.322    2647.0239   -38310.346    97.903659    238.20324 
   32450    138.74887   -683.52493    134989.68   -35701.846    2683.3332   -38385.179    98.259657    241.47067 
   32500    137.91074   -626.00149    135021.45   -35661.248    2667.1241   -38328.372    98.274269    240.01203 
   32550    138.39056   -821.45819    135062.25   -35674.266    2676.4037   -38350.669    98.406255     240.8471 
   32600    138.00653   -909.54368    135045.05   -35664.003    2668.9766   -38332.979    98.390887    240.17874 
   32650    139.96432   -873.99112    134940.04   -35605.254    2706.8394   -38312.094    98.466632    243.58598 
   32700    137.51256   -619.46771    134900.44   -35659.432    2659.4236   -38318.856    98.636236    239.31907 
   32750    139.09602   -785.36345    134878.59   -35648.634    2690.0468   -38338.681    99.020549    242.07483 
   32800    136.91161   -777.43748     134883.4   -35645.226    2647.8015   -38293.028    99.088573    238.27321 
   32850    140.37873   -732.98492    134823.21   -35623.335    2714.8537   -38338.189    99.146668    244.30718 
   32900    138.62395   -547.69775    134854.94   -35683.604    2680.9172   -38364.521     99.37203    241.25326 
   32950     140.1185   -722.51965    134893.71   -35710.281    2709.8212   -38420.103    99.658031    243.85431 
   33000    138.25886    -585.7402    134905.88    -35681.88    2673.8567   -38355.737    99.797735    240.61789 
   33050    138.32847   -563.68063    134877.06   -35706.678    2675.2028   -38381.881    99.931919    240.73903 
   33100    137.86108   -759.57418    134880.42   -35714.608    2666.1637   -38380.772    99.723768    239.92561 
   33150    137.80062   -503.97456    134878.41    -35721.44    2664.9945   -38386.434    99.837467    239.82039 
   33200    137.27523   -892.37546    134831.63   -35694.903    2654.8336   -38349.736    100.06527    238.90602 
   33250    136.88716   -771.68237    134772.06   -35682.658    2647.3286   -38329.986    100.24283    238.23065 
   33300    137.92659   -791.21704    134751.88   -35633.914    2667.4306   -38301.345    100.71525    240.03962 
   33350    138.12909   -881.17386    134668.86   -35696.233    2671.3469    -38367.58    100.98501    240.39204 
   33400    140.19035   -815.68837    134643.79   -35622.725    2711.2107   -38333.935     100.9346    243.97935 
   33450    137.09274   -655.64717    134661.79    -35683.41    2651.3045   -38334.714    101.09447    238.58845 
   33500     138.3165   -884.89968    134641.48    -35651.01    2674.9712   -38325.981    101.23646    240.71819 
   33550    137.94116   -944.13141     134658.3   -35620.577    2667.7125    -38288.29    101.36709    240.06498 
   33600     140.8847   -579.33283    134610.95   -35622.441     2724.639    -38347.08    101.17901    245.18775 
   33650    137.88987   -817.23163    134642.73    -35632.58    2666.7205   -38299.301    101.36115    239.97572 
   33700    138.30487   -655.86984     134630.5   -35654.029    2674.7464   -38328.775    101.54548    240.69796 
   33750    140.97299    -538.9271    134675.97   -35705.268    2726.3466   -38431.614     101.6221    245.34141 
   33800    136.45008     -753.641    134635.25   -35734.668    2638.8758   -38373.543    101.69981       237.47 
   33850    138.97221   -689.97635    134671.96   -35730.341    2687.6524   -38417.993    101.62153    241.85935 
   33900    136.60835   -690.60809    134651.41   -35733.316    2641.9365   -38375.253    101.60074    237.74543 
   33950    136.32525   -855.50648    134629.45   -35686.502    2636.4616   -38322.964    101.81878    237.25274 
[...]
   92000    138.63343   -318.08686     134565.1   -35685.408    2681.1006   -38366.509    286.23186    241.26977 
   92050    137.65551   -567.39893    134658.06   -35727.849    2662.1882   -38390.037    286.49763    239.56786 
   92100    137.53115   -715.95763    134647.92   -35714.294    2659.7831   -38374.077    286.28138    239.35142 
   92150    135.73914   -692.23033    134588.04   -35680.115    2625.1266   -38305.242    286.21509    236.23272 
   92200    141.28772   -634.06383    134523.93   -35637.269    2732.4332   -38369.702    286.13992    245.88914 
   92250    138.81926   -597.90678    134532.19   -35671.726    2684.6944    -38356.42    286.49707    241.59317 
   92300    135.97872    -668.3437    134576.71   -35705.888    2629.7598   -38335.648    286.83207    236.64966 
   92350    136.81439   -823.02487    134576.18   -35723.178    2645.9213     -38369.1    286.94462    238.10402 
   92400    139.12969   -762.01636    134539.83   -35720.392    2690.6981    -38411.09    286.55116    242.13344 
   92450    138.70801   -512.57184       134537   -35692.321     2682.543   -38374.864    286.57095    241.39956 
   92500    139.15926   -648.67902    134565.94   -35680.286      2691.27   -38371.556    287.07058     242.1849 
   92550    138.26631   -464.66568    134583.56   -35671.417    2674.0007   -38345.418    287.55081    240.63086 
   92600    138.81999   -807.05452    134626.38   -35655.873    2684.7086   -38340.581    287.99444    241.59444 
   92650    139.08515   -1025.3992    134523.95   -35645.466    2689.8366   -38335.303    287.95161    242.05592 
   92700    138.84804   -675.49343    134567.29   -35650.244    2685.2511   -38335.495    287.92738    241.64327 
   92750    139.95048   -758.86055    134658.16    -35658.32    2706.5717   -38364.891    288.53079    243.56189 
   92800    139.94992   -735.27246    134658.95   -35635.489    2706.5609    -38342.05    288.66669    243.56091 
   92850    138.76934   -577.07996    134582.18   -35671.377    2683.7291   -38355.106    288.59462     241.5063 
   92900    138.20467   -690.43202    134619.56   -35718.754    2672.8085   -38391.563    288.83035    240.52357 
   92950    139.28892   -845.24614    134547.51   -35683.062    2693.7774    -38376.84    288.63129    242.41054 
   93000    137.18041     -625.787    134479.62   -35666.847    2652.9999   -38319.847    288.70201    238.74101 
   93050    135.64329   -844.38915    134523.15   -35665.309    2623.2729   -38288.582    289.27277     236.0659 
   93100    136.81508   -752.46258    134539.41   -35663.601    2645.9346   -38309.536     289.2767    238.10521 
   93150    137.89913   -501.51328    134568.96   -35624.046    2666.8995   -38290.945     289.0498    239.99183 
   93200    139.06737    -883.0619    134636.13   -35623.692    2689.4927   -38313.184    288.97369    242.02497 
   93250    138.09873   -704.41265    134573.63   -35616.949    2670.7598   -38287.708    289.12656    240.33921 
   93300    139.96663   -778.64912    134578.82    -35670.35    2706.8841   -38377.234    289.40614       243.59 
   93350    137.84022   -912.31907    134581.52    -35668.67    2665.7603    -38334.43    289.51171     239.8893 
   93400     136.8227   -660.58864    134592.86   -35687.673     2646.082   -38333.755    289.29839    238.11847 
   93450    136.90572   -865.45016     134518.8   -35760.467    2647.6876   -38408.154    289.47295    238.26296 
   93500    134.42717   -734.46224    134477.39   -35798.797    2599.7536    -38398.55    289.25361    233.94942 
   93550    138.02962   -758.71744    134408.54   -35697.904    2669.4232   -38367.327    289.17728    240.21893 
   93600    135.74418   -597.90224    134461.07   -35697.522    2625.2239   -38322.746     289.2095    236.24147 
   93650    138.68935   -863.31928    134526.38   -35665.232    2682.1821   -38347.414    289.55131    241.36709 
   93700    137.46094   -832.25366    134492.27   -35672.143    2658.4252   -38330.568    289.95427    239.22922 
   93750     134.6652   -1056.2529    134516.88   -35676.839     2604.357   -38281.196    289.58153    234.36368 
   93800    138.11572   -513.68139     134500.7   -35640.222    2671.0884    -38311.31    290.08858    240.36878 
   93850    140.47829   -736.60845    134574.57   -35617.296    2716.7793   -38334.075    290.27674    244.48046 
   93900     137.3543   -728.09892    134594.16    -35604.81    2656.3629   -38261.173    290.12847    239.04364 
   93950    136.07293   -795.79521    134577.24   -35664.147    2631.5819   -38295.728    290.85848    236.81362 
   94000     135.7297   -525.45039    134568.85   -35640.044     2624.944   -38264.988    291.10429    236.21628 
   94050    140.25726   -599.98632    134642.08   -35590.651    2712.5046   -38303.155    291.21531    244.09579 
   94100    140.75687   -608.55717    134760.25   -35561.585    2722.1668   -38283.752    291.26687    244.96528 
   94150    137.00538   -797.98652    134799.85   -35593.444    2649.6149   -38243.059    291.43694    238.43639 
   94200    140.61279   -611.59845     134788.5   -35597.581    2719.3804   -38316.961    291.74838    244.71453 
   94250     138.0338   -588.21809    134795.26   -35621.888    2669.5041   -38291.392    291.92051    240.22621 
   94300    137.25354   -585.17668    134878.57   -35604.421    2654.4142   -38258.836    291.99651    238.86828 
   94350    141.20801   -874.35589    134913.11   -35612.373    2730.8917   -38343.265    292.44526    245.75043 
   94400    137.85437   -840.45781    134851.85   -35621.432     2666.034   -38287.466    292.56195    239.91394 
   94450     136.7112   -714.51276    134861.23   -35633.903    2643.9256   -38277.829    292.81882    237.92442 
   94500    139.05748   -1010.1903    134888.27   -35626.313    2689.3015   -38315.614    292.97582    242.00776 
   94550    138.56489   -681.19862    134890.95   -35675.857    2679.7751   -38355.632    293.07586    241.15049 
   94600    136.21538   -789.26449    134987.28   -35699.167    2634.3367   -38333.503    293.34208    237.06153 
   94650    139.90114   -822.09672    134961.46   -35683.441    2705.6175   -38389.059    293.48237    243.47602 
   94700    138.30396    -755.0091    135032.64   -35700.395    2674.7288   -38375.123    294.09807    240.69637 
   94750    137.01976   -914.24178    135075.08   -35702.994    2649.8931   -38352.887    294.13086    238.46144 
   94800    135.40972   -790.99264    134956.14   -35686.032    2618.7556   -38304.787     293.6325     235.6594 
   94850    136.33349   -744.24102    134923.61   -35698.265     2636.621   -38334.886    293.72055    237.26709 
   94900    136.25599   -734.87674    134874.18   -35691.319    2635.1221   -38326.441    293.86319     237.1322 
   94950    136.64824   -761.66053    134886.66   -35684.144     2642.708   -38326.852    293.98081    237.81485 
   95000     138.1728   -718.82617    134945.12   -35709.356    2672.1922   -38381.548     293.9619    240.46811 
   95050    136.63887    -580.1576    134949.42   -35684.238    2642.5269   -38326.765    294.11807    237.79855 
   95100    136.76871   -805.33289    134965.37   -35676.885    2645.0378   -38321.923    294.38099    238.02451 
   95150    136.40266   -786.33405    134869.17   -35706.696    2637.9587   -38344.654      294.555    237.38746 
   95200    139.53948   -664.68968    134850.39   -35687.189    2698.6231   -38385.812    295.01051     242.8466 
   95250    140.12581    -663.7391    134863.83   -35673.859    2709.9626   -38383.822    295.51687    243.86703 
   95300    140.15604   -646.53247    134874.61   -35707.325    2710.5472   -38417.872    295.63743    243.91964 
   95350    137.76967   -756.57205    134883.76   -35750.132    2664.3959   -38414.528    296.06325    239.76653 
   95400    135.78784   -489.36895    134837.25   -35765.865    2626.0683   -38391.933    295.98369    236.31746 
   95450     135.0646   -826.83929    134832.71   -35734.592    2612.0812   -38346.673    296.50671    235.05878 
   95500    138.62435   -677.93076    134927.27   -35687.035     2680.925    -38367.96    296.90923    241.25396 
   95550    139.29837   -590.76664    135010.56   -35630.786    2693.9602   -38324.746    296.82482    242.42699 
   95600    138.68018   -694.03556     135079.4   -35603.233    2682.0048   -38285.238     296.5036    241.35114 
   95650    138.02966   -697.02316    135091.63     -35611.7    2669.4241   -38281.124    296.65314    240.21901 
   95700    141.53806   -838.62681    135068.72   -35632.557    2737.2748   -38369.832    296.60874    246.32483 
   95750    140.09191   -927.22437    135031.55    -35664.24     2709.307   -38373.547    296.68568    243.80803 
   95800    138.93446   -946.12988    135055.83   -35672.973    2686.9223   -38359.895    297.28926    241.79366 
   95850    137.76232   -755.08889    135038.02   -35693.101    2664.2538   -38357.355     297.4317    239.75374 
   95900    137.82636    -915.3111    135113.39   -35673.342    2665.4924   -38338.835    298.06353     239.8652 
   95950    141.10203   -769.58154    135170.33   -35693.299    2728.8421   -38422.141    298.63686    245.56598 
   96000    140.09073   -772.63399     135231.5   -35639.227     2709.284   -38348.511    298.72493    243.80596 
   96050    138.86585   -478.45639    135333.62   -35647.798    2685.5954   -38333.393    299.01024    241.67425 
   96100    141.95881   -524.72812     135448.1   -35595.103    2745.4117   -38340.515    299.35866    247.05706 
   96150    137.99925   -919.92774    135457.69   -35612.721    2668.8359   -38281.557    299.60303    240.16608 
   96200    138.06498    -730.0149    135402.69   -35578.905    2670.1071   -38249.012    299.52968    240.28047 
   96250    138.98169   -870.82827     135415.8   -35608.948    2687.8358   -38296.784     299.3396    241.87586 
   96300    139.72324   -595.08041    135481.12   -35555.724    2702.1771   -38257.901    299.87313    243.16642 
   96350     140.4028   -656.18053    135543.56   -35536.565    2715.3194   -38251.885    299.85185    244.34908 
   96400    135.46281   -747.52979    135525.92   -35562.433    2619.7825   -38182.216    299.79193     235.7518 
   96450    139.18866   -694.41034    135552.09    -35559.34    2691.8384   -38251.178    300.33553    242.23605 
   96500    139.39837   -703.20152    135586.15   -35521.552    2695.8942   -38217.446    300.72511    242.60103 
   96550    141.04236   -746.25748    135525.48    -35473.56    2727.6881   -38201.249    300.86577    245.46213 
   96600     140.1305     -752.475    135499.42   -35526.334    2710.0531   -38236.387    301.07466    243.87518 
   96650    138.58064   -669.48384    135458.88   -35591.357    2680.0797   -38271.436    301.34021     241.1779 
   96700    139.14646   -814.54712    135397.98   -35638.402    2691.0224   -38329.424    301.31415    242.16262 
   96750    139.34596   -863.73426    135396.21    -35645.29    2694.8806    -38340.17    301.58451    242.50982 
   96800    138.68114   -927.13562    135342.95   -35611.478    2682.0234   -38293.501    301.78944    241.35281 
   96850     138.5341   -818.19114    135330.66   -35632.056    2679.1797   -38311.235    301.91889     241.0969 
   96900    138.81099   -623.36532    135293.84   -35649.403    2684.5346   -38333.938    302.07929    241.57879 
   96950    140.14862   -701.33569    135364.95   -35662.309    2710.4036   -38372.712     302.4875    243.90672 
   97000    134.86993   -812.93441     135444.7   -35715.665    2608.3164   -38323.982    302.89718    234.71998 
   97050    138.09004   -625.52333    135452.78   -35714.666    2670.5917   -38385.257    302.67157    240.32408 
   97100    135.97492   -555.10184       135541   -35698.331    2629.6864   -38328.017     303.1925    236.64305 
   97150    136.47893    -950.5464    135527.24   -35698.864    2639.4336   -38338.298    303.27572     237.5202 
   97200    137.42895   -849.97668    135523.24   -35693.995    2657.8065   -38351.802    303.24714    239.17355 
   97250      136.048   -801.38597    135571.62   -35644.089    2631.0997   -38275.189    303.27249    236.77023 
   97300    139.06424   -798.23864    135550.35   -35597.587    2689.4323   -38287.019    303.10673    242.01952 
   97350    137.18452    -1050.127    135490.49   -35633.485    2653.0793   -38286.565    303.33798    238.74816 
   97400    136.25658   -964.14091    135413.17    -35651.39    2635.1336   -38286.524    303.58806    237.13324 
   97450    135.86555     -947.243    135383.75   -35658.298    2627.5713   -38285.869    303.78903    236.45271 
   97500    135.67878   -908.75775    135387.11   -35657.758    2623.9591   -38281.717    303.87385    236.12766 
   97550    140.61127   -792.71233    135329.13   -35600.972     2719.351   -38320.323    303.89109    244.71188 
   97600    139.87334   -674.54007    135321.68   -35573.824    2705.0799   -38278.904    303.83603    243.42764 
   97650    139.62411   -814.91961     135282.7     -35609.4    2700.2599    -38309.66       304.11    242.99389 
   97700    136.08283   -501.62761    135366.68    -35605.52    2631.7732   -38237.293    304.37634    236.83084 
   97750    142.14969    -827.2351    135398.25   -35573.403    2749.1033   -38322.506    304.76815    247.38927 
   97800    140.21223   -796.06956    135365.05   -35565.693    2711.6339   -38277.327    305.01979    244.01743 
   97850    140.52559   -639.82693    135384.58   -35529.502     2717.694   -38247.196    305.21561    244.56277 
   97900    140.87982   -453.53326    135423.94    -35491.69    2724.5447   -38216.235    305.35635    245.17926 
   97950    141.25228   -636.95317    135530.91   -35529.096    2731.7478   -38260.844    305.78459    245.82747 
   98000    139.78443    -937.7078    135488.47   -35579.105    2703.3603   -38282.466       305.87     243.2729 
   98050    142.24416   -914.94756     135458.2   -35564.947    2750.9302   -38315.878    306.11159    247.55367 
   98100      139.307   -677.40086    135499.63   -35613.859    2694.1272   -38307.986    306.26591    242.44201 
   98150    142.45704   -789.50049    135539.37   -35559.262    2755.0473   -38314.309    306.74315    247.92416 
   98200    136.64576    -784.0155    135542.86   -35649.474    2642.6601   -38292.134    307.28739    237.81054 
   98250    139.75435   -766.14123    135498.41   -35627.207    2702.7787   -38329.985    307.48624    243.22056 
   98300    138.77226   -1038.4502    135440.33    -35627.96    2683.7856   -38311.746    307.73925    241.51138 
   98350    139.73119   -809.09235     135355.7   -35578.685    2702.3308   -38281.016    308.02116    243.18025 
   98400    140.89378   -897.35991    135288.25   -35572.165    2724.8147    -38296.98    307.68984    245.20356 
   98450    141.56502   -951.84728    135365.55   -35530.665     2737.796   -38268.461       307.89    246.37174 
   98500    141.68361   -957.37482    135253.77   -35570.944    2740.0896   -38311.033    308.04054    246.57813 
   98550     137.7808   -701.64983    135229.76    -35578.36    2664.6112   -38242.971    307.83245     239.7859 
   98600     139.9105   -814.73221     135273.1   -35560.871    2705.7986    -38266.67     308.0107    243.49232 
   98650    140.09747   -789.16524     135203.5   -35580.898    2709.4145   -38290.313    307.58993    243.81771 
   98700    137.36471   -965.02428    135128.45   -35574.502    2656.5642   -38231.066    307.77373    239.06176 
   98750    139.56057   -839.62231    135051.98   -35551.709     2699.031    -38250.74     308.1789    242.88331 
   98800    140.26636   -854.98415    135032.15   -35547.672    2712.6807   -38260.353    308.18884    244.11163 
   98850    138.66569   -535.95024    135040.57   -35514.146    2681.7245    -38195.87    308.52845    241.32591 
   98900    140.98768     -487.357    134979.79   -35568.288    2726.6307   -38294.918    308.92101    245.36698 
   98950    136.56663    -607.4839    135072.81   -35596.427    2641.1297   -38237.556    309.00241    237.67282 
   99000    138.72629   -649.11648    135085.32   -35591.907    2682.8965   -38274.803     308.8394    241.43138 
   99050     139.9148   -557.25391    134998.36   -35569.491    2705.8816   -38275.373    308.84171    243.49979 
   99100     139.5216   -777.22013    134959.51   -35552.471    2698.2774   -38250.749    308.64392    242.81549 
   99150    141.40734   -664.90298    134990.98   -35591.499    2734.7466   -38326.246    309.16834    246.09732 
   99200     140.1525   -642.39711    135027.66   -35587.208    2710.4786   -38297.686    309.10014    243.91346 
   99250    139.49671   -656.32506    134982.46    -35563.04     2697.796   -38260.836     309.0772    242.77217 
   99300    137.43602   -423.97033    135038.82   -35601.929    2657.9433   -38259.872    309.40971    239.18586 
   99350    138.53576   -793.02682    135056.55   -35560.717    2679.2118   -38239.929    309.80474     241.0998 
   99400    140.64633   -824.64905    135068.97   -35561.589    2720.0291   -38281.618    309.90733    244.77291 
   99450    139.44157   -596.15663    135043.65   -35566.606    2696.7296   -38263.336    309.71633     242.6762 
   99500    141.76168   -880.01926    135043.21   -35584.831    2741.5993    -38326.43    309.65168    246.71399 
   99550    139.52354   -838.95102    135012.46   -35594.433    2698.3149   -38292.748    309.65266    242.81887 
   99600    138.18397   -544.81778    135079.95    -35629.34    2672.4084   -38301.749     309.8753    240.48756 
   99650    139.30484   -796.34565    135136.87   -35636.149    2694.0854   -38330.235    310.47849    242.43826 
   99700    138.27523   -551.55938    135156.18   -35659.656    2674.1733    -38333.83    310.74845    240.64638 
   99750    137.27626   -648.52695    135191.37   -35670.721    2654.8536   -38325.574    311.29015    238.90783 
   99800    144.08155   -908.20725    135231.77   -35569.347    2786.4645   -38355.812    311.56513    250.75137 
   99850    139.83577   -723.50816    135189.09   -35585.256    2704.3532   -38289.609    311.69645    243.36225 
   99900    137.03278   -694.23379    135144.85   -35635.013    2650.1448   -38285.158    311.77491    238.48409 
   99950    138.93649   -948.76146     135099.6   -35636.836    2686.9617   -38323.798    311.42867     241.7972 
  100000    138.27517   -793.29811    134985.63   -35626.456     2674.172   -38300.628    311.11067    240.64627 
Loop time of 124.796 on 160 procs for 100000 steps with 6489 atoms

Performance: 346.164 ns/day, 0.069 hours/ns, 801.307 timesteps/s
98.0% CPU use with 160 MPI tasks x no OpenMP threads

MPI task timing breakdown:
Section |  min time  |  avg time  |  max time  |%varavg| %total
---------------------------------------------------------------
Pair    | 14.912     | 34.483     | 91.555     | 525.5 | 27.63
Neigh   | 0.37145    | 0.77595    | 2.5006     |  78.6 |  0.62
Comm    | 9.5565     | 34.284     | 94.225     | 567.7 | 27.47
Output  | 0.18913    | 0.19194    | 0.32321    |   2.4 |  0.15
Modify  | 8.6093     | 53.98      | 97.444     | 577.0 | 43.25
Other   |            | 1.081      |            |       |  0.87

Nlocal:    40.5562 ave 109 max 20 min
Histogram: 90 30 0 2 18 0 0 0 3 17
Nghost:    523.075 ave 876 max 352 min
Histogram: 80 0 1 39 0 0 0 0 12 28
Neighs:    0 ave 0 max 0 min
Histogram: 160 0 0 0 0 0 0 0 0 0
FullNghs:  3255.69 ave 13667 max 758 min
Histogram: 120 0 0 0 20 0 0 0 1 19

Total # of neighbors = 520910
Ave neighs/atom = 80.2759
Neighbor list builds = 5991
Dangerous builds = 0

write_data		${DIR}/data.eq-${NAME}-${TEMP}
write_data		run_26/data.eq-${NAME}-${TEMP}
write_data		run_26/data.eq-het_freeze_26-${TEMP}
write_data		run_26/data.eq-het_freeze_26-240
undump          1

reset_timestep  0

unfix           2
unfix           3
unfix           4


################################################
#######         Run Simulation         #########
################################################

log				${DIR}/log.run_${NAME}
log				run_26/log.run_${NAME}
log				run_26/log.run_het_freeze_26
