LAMMPS data file via write_data, version 16 Mar 2018, timestep = 100000

6328 atoms
2 atom types

0.0000000000000000e+00 4.9219999999999999e+01 xlo xhi
0.0000000000000000e+00 4.9019635930410494e+01 ylo yhi
3.7294909467762913e+00 5.6332509053222559e+01 zlo zhi

Masses

1 18.015
2 12.01

Atoms # atomic

6275 1 7.4996377457553254e-01 1.1419500497152670e+00 4.3157182753060681e+00 0 1 1
1554 1 4.8126293352971539e+00 1.0820517430856771e+00 5.2019698418616693e+00 1 1 1
5242 1 1.1168059225488815e+01 1.0311151546930494e+01 6.7742056895511098e+00 1 1 0
1682 1 3.8384846409114077e+00 3.9759049765664543e+00 4.2550133292800529e+00 0 1 0
3412 1 6.7869778667958434e+00 2.9831551605480091e+00 6.0545378741892844e+00 1 0 1
245 1 6.2590427804859754e+00 4.9998408720988854e+00 8.1397974326830784e+00 1 0 0
505 1 9.7027816711234767e+00 3.2301714188887227e+00 4.8331458892586818e+00 -1 1 1
3041 1 7.1130506610566790e-01 7.4502132470993052e+00 5.2819407436537515e+00 1 0 1
2935 1 1.4571792471208040e+00 6.1964563657499570e+00 7.6393865003331634e+00 1 2 1
3609 1 3.5565944468297186e+00 4.2669142800529389e+00 6.8533195396818165e+00 2 -1 0
1380 1 5.5604358381650059e+00 7.4024043864779348e+00 7.1426627804609168e+00 0 1 0
2944 1 3.2804907151354650e+00 8.3554218968567240e-01 1.6260499776061600e+01 0 0 0
1495 1 9.7769061871789442e-01 1.1665907146972465e+01 1.1038354962749324e+01 0 0 1
377 1 9.9001452277677178e+00 7.6819455316904346e+00 7.5304976930013101e+00 0 1 0
1663 1 3.6573775449943509e+00 1.1355721950688869e+01 1.5029903858198283e+01 2 -1 0
5316 1 1.0600838366278491e+00 9.6334040142821991e+00 6.9621766089850876e+00 1 1 1
2871 1 1.0853900268456494e+01 1.1411934239049897e+01 1.1317819265151012e+01 -1 1 1
5060 1 5.0896982354812197e+00 1.0865336049556092e+01 4.9962014512016513e+00 1 0 1
148 1 3.3586005719711105e+00 8.9009407640959832e+00 8.3007548116512773e+00 2 1 0
132 1 7.4971425125594022e+00 9.2752549777472488e+00 7.8962780263485906e+00 1 0 1
5157 1 3.9783277879037753e+00 1.1417240850693442e+01 7.5627508937029777e+00 0 0 0
4791 1 5.1323255215683430e+00 8.2676970742863727e+00 4.5289218678312642e+00 1 0 0
3610 1 3.4769457644070476e+00 1.3974017945354553e+00 7.6838337119032154e+00 -1 0 0
5956 1 5.4788442808252471e+00 7.9534656356864886e-01 9.4964700934392479e+00 0 1 1
264 1 7.6132978403711098e+00 4.2943203324041135e-01 7.8637256654057781e+00 1 -1 0
2897 1 5.5702028768021368e+00 3.0147348504072369e+00 1.1457391017906952e+01 0 1 1
4767 1 9.7627264403664462e+00 5.8481259996665100e+00 5.0348622443286075e+00 1 1 1
1489 1 7.7431785393658110e+00 4.4173939873489791e+00 1.2547396478427940e+01 1 1 0
5083 1 9.5987560136972299e+00 2.0724569637981372e+00 8.8457343572584755e+00 0 0 0
3334 1 1.2300460314518485e-01 8.7060016166389236e+00 9.4581099259947443e+00 1 0 1
178 1 5.0990809725257655e+00 5.5456648261080232e+00 1.0504528720144297e+01 0 1 0
3167 1 6.0333951894071927e+00 8.1888130522161102e+00 1.1550040824945397e+01 0 0 1
1365 1 9.0438265009796286e+00 4.9897950143795091e+00 8.2261640299165499e+00 0 1 1
267 1 1.0490372095342515e+01 8.0932845644783598e+00 1.0609806939925987e+01 0 1 1
449 1 1.7821589097956401e+00 7.5869091254908030e+00 1.2158216607943777e+01 0 0 1
293 1 1.2252360244076501e+01 4.4268427150750940e+00 1.2233971671948067e+01 0 0 0
3649 1 8.0522137532522020e+00 9.7012014145782182e+00 1.0800056994274183e+01 0 0 0
6243 1 8.7205354559283954e+00 1.2058910091176029e+01 1.4550686301180088e+01 0 1 0
3449 1 9.3283650157514959e+00 5.4341233116382153e+00 1.5749647606861561e+01 0 0 0
4606 1 1.0655250811885061e+01 8.8725225823377745e+00 1.3138086963950558e+01 1 1 1
6103 1 3.5132689585820183e+00 9.3140725725515647e+00 1.0977818378165647e+01 1 1 0
1590 1 6.5888798168613807e+00 4.2882013974369446e+00 3.7869945832206415e+00 0 0 0
4690 1 6.5698007223318475e+00 1.0581640168573056e+01 1.3861212022020378e+01 1 0 1
4619 1 1.2810295287239539e+00 1.8288328634150746e+00 1.4482571920223926e+01 0 0 1
1576 1 1.0727571080596785e+00 2.9440220135807271e-01 1.1789382652859823e+01 1 1 1
4955 1 6.4821889506999089e+00 1.0385790012123270e+00 1.3349846967922842e+01 0 0 1
4900 1 2.9661915748530934e+00 3.6473896905856242e+00 1.2840841990953516e+01 0 -1 0
3143 1 5.5696716884194872e+00 3.3384630001394311e+00 1.6552149784854883e+01 -1 0 0
1721 1 7.9432091597130130e+00 2.5075828148060442e+00 1.5240485501863901e+01 -1 1 1
1320 1 2.4301039486774156e+00 5.2573015315600262e+00 1.0499610210828273e+01 0 -1 1
6039 1 1.6755866248825344e+00 5.8835225441595087e+00 1.4854354430183378e+01 1 0 1
5315 1 1.2009025105730627e+01 1.7893238889772485e+00 1.2581787320937035e+01 2 0 0
3519 1 4.5379536868774650e+00 5.2644561495543032e+00 1.5077930719483254e+01 0 0 0
3170 1 6.5092344908022692e+00 6.4102196978589241e+00 1.3584685836807084e+01 1 -1 1
1504 1 9.5806450039300302e+00 5.3708341624353144e+00 1.0915670816655684e+01 0 1 0
2146 1 1.1195997809752019e+01 1.0881266719805334e+01 1.5465675238450974e+01 0 0 0
31 1 8.3996510788965040e+00 7.8575986727631486e+00 1.4690740075734610e+01 0 0 0
3031 1 1.3282474322657698e+00 1.0195916250845393e+01 1.4573504017745766e+01 0 1 1
4530 1 9.7630177117443679e+00 7.9465427718029780e-01 1.6449211273346826e+01 1 1 1
5249 1 1.0278339925902275e+01 3.5877544109135179e-01 1.0919470839477913e+01 -1 0 0
4948 1 7.5962329538772755e-01 9.4933761079847867e-01 7.2877222684843499e+00 1 0 0
362 1 3.3455446682691581e-01 4.0101283401028160e+00 1.6795420010506419e+01 1 -1 0
3197 1 7.5845494784168661e+00 1.1228111181824016e+01 6.0187751972979502e+00 1 0 0
2067 1 1.1685211355360114e+01 2.3529863657720651e+00 6.8823591005177676e+00 2 1 1
3545 1 2.1584880426696165e+00 8.3943239975615214e+00 1.6856606379001647e+01 0 -1 0
1738 1 4.8387757902351608e-01 1.0506014388065239e+01 4.0112890264081029e+00 1 0 0
3450 1 9.2176708295089735e+00 9.4083022718571812e+00 4.5364652052961478e+00 -1 0 0
6145 1 1.2032378813906412e+01 5.7209395892945754e+00 1.4743175929211773e+01 0 0 1
6008 1 7.4739114205339483e+00 1.2245469636534352e+01 1.1311110449121530e+01 1 0 0
1950 1 7.1433937680351374e+00 9.2161073836506713e+00 1.6824114068138947e+01 1 0 0
1847 1 3.7662267465155672e+00 2.1489385691329463e+00 1.8918455000724126e+01 1 1 0
3348 1 1.1505607358823456e+01 2.6141096460914022e+00 2.4474792321141660e+01 0 1 0
1838 1 6.7652047710110290e+00 4.3224913885633161e+00 2.0912492109837469e+01 0 0 0
1830 1 4.7647799129787609e+00 2.4853618834656674e+00 2.1677230699764142e+01 0 1 0
3241 1 4.3481982811502640e+00 1.0077959968914458e+01 1.7286377063129333e+01 0 0 0
4992 1 9.6765926745713422e+00 1.6761654104699142e-01 1.9447255152902208e+01 0 0 1
2106 1 1.0961873234268520e+01 1.1567321180514840e+01 2.0319446728824946e+01 -1 0 0
3559 1 2.3217391516975154e+00 4.2689577590869092e+00 1.8691896475330431e+01 1 1 0
5208 1 4.1900333932323433e+00 6.2305634221305315e+00 1.7930052709940341e+01 -1 1 1
1864 1 4.9432913064558148e+00 7.4857364765009207e+00 2.0750902459724131e+01 2 1 0
308 1 9.5954621648591285e+00 8.2871904057291268e-01 2.3487304606876492e+01 0 0 1
5984 1 7.0319436922270926e+00 5.0808548529802326e+00 1.8377793650410013e+01 0 0 0
3199 1 9.6828985028267365e+00 5.8992915314612295e+00 1.8302496248926609e+01 0 0 1
730 2 9.8440000000000012e+00 8.5251540748539956e+00 2.6891906801479966e+01 0 0 0
405 1 1.4124237476073789e+00 1.0330524129770682e+01 2.1776729312746799e+01 1 1 0
289 1 9.4188503317489403e+00 1.0830024687013182e+01 1.7664783204659802e+01 1 -1 1
332 1 4.0919775009295895e-01 5.0369316394804526e+00 2.3851422331315508e+01 0 1 0
6195 1 4.4085362780782305e+00 1.0050293972634110e+01 2.1378254519308097e+01 0 0 1
185 1 9.3957948083923366e+00 9.3122200148657814e+00 2.1454012888469556e+01 -1 1 0
429 1 7.0268426374185433e-01 8.0750583006857326e+00 2.3414971720814783e+01 0 0 0
732 2 1.1074500000000002e+01 9.2355835810918343e+00 2.6891906801479966e+01 0 0 0
685 2 8.6134999999999984e+00 9.2355835810918343e+00 2.6891906801479966e+01 0 0 0
1435 1 7.1732634696109985e+00 7.9180048730478472e+00 1.9222703648925755e+01 0 0 1
5240 1 3.3569898399546219e+00 1.5134977363046236e+00 2.4023580842050340e+01 1 0 0
454 1 1.0738155623563365e+01 3.4403547322063845e+00 1.9590326378675805e+01 1 0 1
3261 1 1.0595758160002756e+01 8.3291261182292526e+00 1.9224248948385060e+01 0 -1 0
6296 1 3.1868473992508837e+00 4.2982535995634521e+00 2.4820644094195806e+01 1 1 1
439 1 5.9121137248022047e+00 5.1751132663082258e+00 2.4110451532513849e+01 0 0 1
6227 1 6.9443899053223070e+00 2.5211762939239426e+00 2.3997542375293495e+01 1 0 1
5114 1 8.3750292701885964e+00 1.9880344277086712e+00 2.1171451760993236e+01 1 -1 1
5201 1 8.6553299992432098e-01 5.0872846541196939e+00 2.1097000960743085e+01 0 1 0
343 1 4.1701914187539968e+00 1.2022075315274691e+01 1.9058278896736407e+01 1 0 0
4626 1 1.1248465544834795e+01 1.1859321636169391e+01 2.3412497111417157e+01 1 0 0
773 2 1.1074500000000002e+01 1.0656442593567498e+01 2.6891906801479966e+01 0 0 0
3367 1 3.8118290692662380e+00 5.1676779773609720e+00 2.1805840642515051e+01 1 0 0
1855 1 3.1142150906156059e+00 7.2084881028166450e+00 2.4376899945817115e+01 0 0 0
3347 1 8.2694286475193444e+00 6.3644464833033716e+00 2.1857979001421434e+01 1 1 0
4978 1 8.4320277460481190e+00 6.7489569219785803e+00 2.4480434813617805e+01 0 1 0
407 1 1.1202550433856427e+01 5.5278344924972922e+00 2.4387405877554873e+01 0 0 1
6196 1 1.0722698040532434e+01 5.5383332748380987e+00 2.1516615933330669e+01 1 0 1
3142 1 7.2094485596494602e+00 1.0909796361871081e+01 2.1629127309351666e+01 1 0 0
6262 1 2.0864001867070794e+00 1.1380086452500878e+01 2.4199465848296484e+01 1 0 0
728 2 9.8440000000000012e+00 1.1366872099805333e+01 2.6891906801479966e+01 0 0 0
284 1 4.3683256784734352e+00 9.4542273749603396e+00 2.4150084631973133e+01 1 0 1
2985 1 7.2127078584857331e+00 9.1887726166254495e+00 2.4190718728159428e+01 1 0 0
413 1 1.0317027857009881e+01 9.3758875711680449e+00 2.4004665693465160e+01 1 0 0
552 2 0.0000000000000000e+00 2.8417180249513345e+00 2.6891906801479966e+01 0 0 0
554 2 0.0000000000000000e+00 0.0000000000000000e+00 2.6891906801479966e+01 0 0 0
556 2 1.2305000000000001e+00 7.1042950623783474e-01 2.6891906801479966e+01 0 0 0
563 2 1.2305000000000001e+00 2.1312885187134998e+00 2.6891906801479966e+01 0 0 0
565 2 2.4610000000000003e+00 2.8417180249513345e+00 2.6891906801479966e+01 0 0 0
567 2 2.4610000000000003e+00 0.0000000000000000e+00 2.6891906801479966e+01 0 0 0
569 2 3.6915000000000004e+00 7.1042950623783474e-01 2.6891906801479966e+01 0 0 0
584 2 3.6914999999999996e+00 2.1312885187134998e+00 2.6891906801479966e+01 0 0 0
586 2 4.9220000000000006e+00 2.8417180249513332e+00 2.6891906801479966e+01 0 0 0
588 2 4.9220000000000006e+00 0.0000000000000000e+00 2.6891906801479966e+01 0 0 0
590 2 6.1524999999999999e+00 7.1042950623783407e-01 2.6891906801479966e+01 0 0 0
613 2 6.1524999999999999e+00 2.1312885187134989e+00 2.6891906801479966e+01 0 0 0
615 2 7.3829999999999991e+00 2.8417180249513345e+00 2.6891906801479966e+01 0 0 0
617 2 7.3829999999999991e+00 0.0000000000000000e+00 2.6891906801479966e+01 0 0 0
619 2 8.6134999999999984e+00 7.1042950623783407e-01 2.6891906801479966e+01 0 0 0
650 2 8.6134999999999984e+00 2.1312885187135002e+00 2.6891906801479966e+01 0 0 0
652 2 9.8440000000000012e+00 2.8417180249513332e+00 2.6891906801479966e+01 0 0 0
654 2 9.8440000000000012e+00 0.0000000000000000e+00 2.6891906801479966e+01 0 0 0
656 2 1.1074500000000002e+01 7.1042950623783330e-01 2.6891906801479966e+01 0 0 0
695 2 1.1074500000000002e+01 2.1312885187135002e+00 2.6891906801479966e+01 0 0 0
559 2 0.0000000000000000e+00 4.2625770374269996e+00 2.6891906801479966e+01 0 0 0
561 2 1.2305000000000001e+00 4.9730065436648339e+00 2.6891906801479966e+01 0 0 0
576 2 1.2305000000000001e+00 6.3938655561404980e+00 2.6891906801479966e+01 0 0 0
580 2 2.4610000000000003e+00 4.2625770374269996e+00 2.6891906801479966e+01 0 0 0
582 2 3.6914999999999996e+00 4.9730065436648339e+00 2.6891906801479966e+01 0 0 0
605 2 3.6914999999999996e+00 6.3938655561404980e+00 2.6891906801479966e+01 0 0 0
557 2 0.0000000000000000e+00 7.1042950623783341e+00 2.6891906801479966e+01 0 0 0
578 2 2.4610000000000003e+00 7.1042950623783341e+00 2.6891906801479966e+01 0 0 0
609 2 4.9220000000000006e+00 4.2625770374269978e+00 2.6891906801479966e+01 0 0 0
611 2 6.1524999999999999e+00 4.9730065436648339e+00 2.6891906801479966e+01 0 0 0
642 2 6.1524999999999999e+00 6.3938655561404980e+00 2.6891906801479966e+01 0 0 0
646 2 7.3829999999999991e+00 4.2625770374269996e+00 2.6891906801479966e+01 0 0 0
607 2 4.9220000000000006e+00 7.1042950623783341e+00 2.6891906801479966e+01 0 0 0
644 2 7.3830000000000009e+00 7.1042950623783341e+00 2.6891906801479966e+01 0 0 0
648 2 8.6135000000000002e+00 4.9730065436648339e+00 2.6891906801479966e+01 0 0 0
687 2 8.6135000000000002e+00 6.3938655561404980e+00 2.6891906801479966e+01 0 0 0
691 2 9.8440000000000012e+00 4.2625770374270004e+00 2.6891906801479966e+01 0 0 0
693 2 1.1074500000000002e+01 4.9730065436648339e+00 2.6891906801479966e+01 0 0 0
734 2 1.1074500000000002e+01 6.3938655561404980e+00 2.6891906801479966e+01 0 0 0
689 2 9.8440000000000012e+00 7.1042950623783341e+00 2.6891906801479966e+01 0 0 0
572 2 0.0000000000000000e+00 8.5251540748539991e+00 2.6891906801479966e+01 0 0 0
574 2 1.2305000000000001e+00 9.2355835810918343e+00 2.6891906801479966e+01 0 0 0
601 2 2.4610000000000003e+00 8.5251540748539991e+00 2.6891906801479966e+01 0 0 0
603 2 3.6915000000000004e+00 9.2355835810918343e+00 2.6891906801479966e+01 0 0 0
570 2 0.0000000000000000e+00 1.1366872099805333e+01 2.6891906801479966e+01 0 0 0
597 2 1.2305000000000001e+00 1.0656442593567498e+01 2.6891906801479966e+01 0 0 0
599 2 2.4610000000000003e+00 1.1366872099805333e+01 2.6891906801479966e+01 0 0 0
634 2 3.6914999999999996e+00 1.0656442593567499e+01 2.6891906801479966e+01 0 0 0
638 2 4.9220000000000006e+00 8.5251540748539991e+00 2.6891906801479966e+01 0 0 0
683 2 7.3830000000000009e+00 8.5251540748539991e+00 2.6891906801479966e+01 0 0 0
679 2 6.1524999999999999e+00 1.0656442593567499e+01 2.6891906801479966e+01 0 0 0
640 2 6.1524999999999999e+00 9.2355835810918343e+00 2.6891906801479966e+01 0 0 0
636 2 4.9220000000000006e+00 1.1366872099805333e+01 2.6891906801479966e+01 0 0 0
681 2 7.3829999999999991e+00 1.1366872099805333e+01 2.6891906801479966e+01 0 0 0
726 2 8.6134999999999984e+00 1.0656442593567498e+01 2.6891906801479966e+01 0 0 0
775 2 1.2304999999999998e+01 1.1366872099805333e+01 2.6891906801479966e+01 0 0 0
553 2 0.0000000000000000e+00 1.4208590124756650e+00 3.0030999999999480e+01 0 0 0
555 2 0.0000000000000000e+00 0.0000000000000000e+00 3.0030999999999480e+01 0 0 0
564 2 1.2305000000000001e+00 2.1312885187134998e+00 3.0030999999999480e+01 0 0 0
566 2 2.4610000000000003e+00 1.4208590124756650e+00 3.0030999999999480e+01 0 0 0
568 2 2.4610000000000003e+00 0.0000000000000000e+00 3.0030999999999480e+01 0 0 0
585 2 3.6914999999999996e+00 2.1312885187134998e+00 3.0030999999999480e+01 0 0 0
562 2 1.2305000000000001e+00 3.5521475311891644e+00 3.0030999999999480e+01 0 0 0
583 2 3.6914999999999996e+00 3.5521475311891644e+00 3.0030999999999480e+01 0 0 0
881 2 0.0000000000000000e+00 2.8417180249513345e+00 3.3170093198514351e+01 0 0 0
882 2 0.0000000000000000e+00 0.0000000000000000e+00 3.3170093198514351e+01 0 0 0
883 2 1.2305000000000001e+00 7.1042950623783474e-01 3.3170093198514351e+01 0 0 0
887 2 1.2305000000000001e+00 2.1312885187134998e+00 3.3170093198514351e+01 0 0 0
888 2 2.4610000000000003e+00 2.8417180249513345e+00 3.3170093198514351e+01 0 0 0
889 2 2.4610000000000003e+00 0.0000000000000000e+00 3.3170093198514351e+01 0 0 0
890 2 3.6915000000000004e+00 7.1042950623783474e-01 3.3170093198514351e+01 0 0 0
898 2 3.6914999999999996e+00 2.1312885187134998e+00 3.3170093198514351e+01 0 0 0
587 2 4.9220000000000006e+00 1.4208590124756650e+00 3.0030999999999480e+01 0 0 0
589 2 4.9220000000000006e+00 0.0000000000000000e+00 3.0030999999999480e+01 0 0 0
614 2 6.1524999999999999e+00 2.1312885187134989e+00 3.0030999999999480e+01 0 0 0
616 2 7.3829999999999991e+00 1.4208590124756659e+00 3.0030999999999480e+01 0 0 0
618 2 7.3829999999999991e+00 0.0000000000000000e+00 3.0030999999999480e+01 0 0 0
612 2 6.1524999999999999e+00 3.5521475311891644e+00 3.0030999999999480e+01 0 0 0
899 2 4.9220000000000006e+00 2.8417180249513332e+00 3.3170093198514351e+01 0 0 0
900 2 4.9220000000000006e+00 0.0000000000000000e+00 3.3170093198514351e+01 0 0 0
901 2 6.1524999999999999e+00 7.1042950623783407e-01 3.3170093198514351e+01 0 0 0
913 2 6.1524999999999999e+00 2.1312885187134989e+00 3.3170093198514351e+01 0 0 0
914 2 7.3829999999999991e+00 2.8417180249513345e+00 3.3170093198514351e+01 0 0 0
915 2 7.3829999999999991e+00 0.0000000000000000e+00 3.3170093198514351e+01 0 0 0
651 2 8.6134999999999984e+00 2.1312885187135002e+00 3.0030999999999480e+01 0 0 0
653 2 9.8440000000000012e+00 1.4208590124756659e+00 3.0030999999999480e+01 0 0 0
655 2 9.8440000000000012e+00 0.0000000000000000e+00 3.0030999999999480e+01 0 0 0
696 2 1.1074500000000002e+01 2.1312885187135002e+00 3.0030999999999480e+01 0 0 0
649 2 8.6134999999999984e+00 3.5521475311891657e+00 3.0030999999999480e+01 0 0 0
694 2 1.1074500000000002e+01 3.5521475311891644e+00 3.0030999999999480e+01 0 0 0
916 2 8.6134999999999984e+00 7.1042950623783407e-01 3.3170093198514351e+01 0 0 0
932 2 8.6134999999999984e+00 2.1312885187135002e+00 3.3170093198514351e+01 0 0 0
933 2 9.8440000000000012e+00 2.8417180249513332e+00 3.3170093198514351e+01 0 0 0
934 2 9.8440000000000012e+00 0.0000000000000000e+00 3.3170093198514351e+01 0 0 0
935 2 1.1074500000000002e+01 7.1042950623783330e-01 3.3170093198514351e+01 0 0 0
955 2 1.1074500000000002e+01 2.1312885187135002e+00 3.3170093198514351e+01 0 0 0
558 2 0.0000000000000000e+00 5.6834360499026637e+00 3.0030999999999480e+01 0 0 0
560 2 0.0000000000000000e+00 4.2625770374269996e+00 3.0030999999999480e+01 0 0 0
577 2 1.2305000000000001e+00 6.3938655561404980e+00 3.0030999999999480e+01 0 0 0
579 2 2.4610000000000003e+00 5.6834360499026637e+00 3.0030999999999480e+01 0 0 0
581 2 2.4610000000000003e+00 4.2625770374269996e+00 3.0030999999999480e+01 0 0 0
606 2 3.6914999999999996e+00 6.3938655561404980e+00 3.0030999999999480e+01 0 0 0
575 2 1.2305000000000001e+00 7.8147245686161639e+00 3.0030999999999480e+01 0 0 0
604 2 3.6914999999999996e+00 7.8147245686161639e+00 3.0030999999999480e+01 0 0 0
885 2 0.0000000000000000e+00 4.2625770374269996e+00 3.3170093198514351e+01 0 0 0
886 2 1.2305000000000001e+00 4.9730065436648339e+00 3.3170093198514351e+01 0 0 0
894 2 1.2305000000000001e+00 6.3938655561404980e+00 3.3170093198514351e+01 0 0 0
896 2 2.4610000000000003e+00 4.2625770374269996e+00 3.3170093198514351e+01 0 0 0
897 2 3.6914999999999996e+00 4.9730065436648339e+00 3.3170093198514351e+01 0 0 0
909 2 3.6914999999999996e+00 6.3938655561404980e+00 3.3170093198514351e+01 0 0 0
884 2 0.0000000000000000e+00 7.1042950623783341e+00 3.3170093198514351e+01 0 0 0
895 2 2.4610000000000003e+00 7.1042950623783341e+00 3.3170093198514351e+01 0 0 0
608 2 4.9220000000000006e+00 5.6834360499026637e+00 3.0030999999999480e+01 0 0 0
610 2 4.9220000000000006e+00 4.2625770374269978e+00 3.0030999999999480e+01 0 0 0
643 2 6.1524999999999999e+00 6.3938655561404980e+00 3.0030999999999480e+01 0 0 0
645 2 7.3829999999999991e+00 5.6834360499026637e+00 3.0030999999999480e+01 0 0 0
647 2 7.3829999999999991e+00 4.2625770374269996e+00 3.0030999999999480e+01 0 0 0
641 2 6.1524999999999999e+00 7.8147245686161639e+00 3.0030999999999480e+01 0 0 0
911 2 4.9220000000000006e+00 4.2625770374269978e+00 3.3170093198514351e+01 0 0 0
912 2 6.1524999999999999e+00 4.9730065436648339e+00 3.3170093198514351e+01 0 0 0
928 2 6.1524999999999999e+00 6.3938655561404980e+00 3.3170093198514351e+01 0 0 0
930 2 7.3829999999999991e+00 4.2625770374269996e+00 3.3170093198514351e+01 0 0 0
910 2 4.9220000000000006e+00 7.1042950623783341e+00 3.3170093198514351e+01 0 0 0
929 2 7.3830000000000009e+00 7.1042950623783341e+00 3.3170093198514351e+01 0 0 0
688 2 8.6135000000000002e+00 6.3938655561404980e+00 3.0030999999999480e+01 0 0 0
690 2 9.8440000000000012e+00 5.6834360499026637e+00 3.0030999999999480e+01 0 0 0
692 2 9.8440000000000012e+00 4.2625770374270004e+00 3.0030999999999480e+01 0 0 0
735 2 1.1074500000000002e+01 6.3938655561404980e+00 3.0030999999999480e+01 0 0 0
686 2 8.6135000000000002e+00 7.8147245686161639e+00 3.0030999999999480e+01 0 0 0
733 2 1.1074500000000002e+01 7.8147245686161639e+00 3.0030999999999480e+01 0 0 0
931 2 8.6135000000000002e+00 4.9730065436648339e+00 3.3170093198514351e+01 0 0 0
951 2 8.6135000000000002e+00 6.3938655561404980e+00 3.3170093198514351e+01 0 0 0
953 2 9.8440000000000012e+00 4.2625770374270004e+00 3.3170093198514351e+01 0 0 0
954 2 1.1074500000000002e+01 4.9730065436648339e+00 3.3170093198514351e+01 0 0 0
975 2 1.1074500000000002e+01 6.3938655561404980e+00 3.3170093198514351e+01 0 0 0
952 2 9.8440000000000012e+00 7.1042950623783341e+00 3.3170093198514351e+01 0 0 0
571 2 0.0000000000000000e+00 9.9460130873296642e+00 3.0030999999999480e+01 0 0 0
573 2 0.0000000000000000e+00 8.5251540748539991e+00 3.0030999999999480e+01 0 0 0
600 2 2.4610000000000003e+00 9.9460130873296642e+00 3.0030999999999480e+01 0 0 0
602 2 2.4610000000000003e+00 8.5251540748539991e+00 3.0030999999999480e+01 0 0 0
596 2 1.2305000000000001e+00 1.2077301606043163e+01 3.0030999999999480e+01 0 0 0
598 2 1.2305000000000001e+00 1.0656442593567498e+01 3.0030999999999480e+01 0 0 0
633 2 3.6914999999999996e+00 1.2077301606043163e+01 3.0030999999999480e+01 0 0 0
635 2 3.6914999999999996e+00 1.0656442593567499e+01 3.0030999999999480e+01 0 0 0
892 2 0.0000000000000000e+00 8.5251540748539991e+00 3.3170093198514351e+01 0 0 0
893 2 1.2305000000000001e+00 9.2355835810918343e+00 3.3170093198514351e+01 0 0 0
907 2 2.4610000000000003e+00 8.5251540748539991e+00 3.3170093198514351e+01 0 0 0
908 2 3.6915000000000004e+00 9.2355835810918343e+00 3.3170093198514351e+01 0 0 0
891 2 0.0000000000000000e+00 1.1366872099805333e+01 3.3170093198514351e+01 0 0 0
905 2 1.2305000000000001e+00 1.0656442593567498e+01 3.3170093198514351e+01 0 0 0
906 2 2.4610000000000003e+00 1.1366872099805333e+01 3.3170093198514351e+01 0 0 0
924 2 3.6914999999999996e+00 1.0656442593567499e+01 3.3170093198514351e+01 0 0 0
637 2 4.9220000000000006e+00 9.9460130873296642e+00 3.0030999999999480e+01 0 0 0
639 2 4.9220000000000006e+00 8.5251540748539991e+00 3.0030999999999480e+01 0 0 0
682 2 7.3830000000000009e+00 9.9460130873296642e+00 3.0030999999999480e+01 0 0 0
684 2 7.3830000000000009e+00 8.5251540748539991e+00 3.0030999999999480e+01 0 0 0
678 2 6.1524999999999999e+00 1.2077301606043163e+01 3.0030999999999480e+01 0 0 0
680 2 6.1524999999999999e+00 1.0656442593567499e+01 3.0030999999999480e+01 0 0 0
926 2 4.9220000000000006e+00 8.5251540748539991e+00 3.3170093198514351e+01 0 0 0
927 2 6.1524999999999999e+00 9.2355835810918343e+00 3.3170093198514351e+01 0 0 0
949 2 7.3830000000000009e+00 8.5251540748539991e+00 3.3170093198514351e+01 0 0 0
925 2 4.9220000000000006e+00 1.1366872099805333e+01 3.3170093198514351e+01 0 0 0
947 2 6.1524999999999999e+00 1.0656442593567499e+01 3.3170093198514351e+01 0 0 0
948 2 7.3829999999999991e+00 1.1366872099805333e+01 3.3170093198514351e+01 0 0 0
729 2 9.8440000000000012e+00 9.9460130873296642e+00 3.0030999999999480e+01 0 0 0
731 2 9.8440000000000012e+00 8.5251540748539956e+00 3.0030999999999480e+01 0 0 0
725 2 8.6135000000000002e+00 1.2077301606043163e+01 3.0030999999999480e+01 0 0 0
727 2 8.6134999999999984e+00 1.0656442593567498e+01 3.0030999999999480e+01 0 0 0
772 2 1.1074500000000002e+01 1.2077301606043163e+01 3.0030999999999480e+01 0 0 0
774 2 1.1074500000000002e+01 1.0656442593567498e+01 3.0030999999999480e+01 0 0 0
950 2 8.6134999999999984e+00 9.2355835810918343e+00 3.3170093198514351e+01 0 0 0
973 2 9.8440000000000012e+00 8.5251540748539956e+00 3.3170093198514351e+01 0 0 0
974 2 1.1074500000000002e+01 9.2355835810918343e+00 3.3170093198514351e+01 0 0 0
971 2 8.6134999999999984e+00 1.0656442593567498e+01 3.3170093198514351e+01 0 0 0
972 2 9.8440000000000012e+00 1.1366872099805333e+01 3.3170093198514351e+01 0 0 0
995 2 1.1074500000000002e+01 1.0656442593567498e+01 3.3170093198514351e+01 0 0 0
996 2 1.2304999999999998e+01 1.1366872099805333e+01 3.3170093198514351e+01 0 0 0
4743 1 3.7012193480441593e+00 3.1431027205750359e+00 3.5633412975171247e+01 0 0 -1
1422 1 2.5848499415326502e+00 6.3255515880306712e-01 3.6344269573784615e+01 0 0 -1
1697 1 3.6288836018946888e+00 3.4897514369662459e+00 3.8416739455489520e+01 0 1 0
1637 1 8.9220110609791181e+00 3.5960341297366378e+00 3.5846111771870738e+01 1 0 -1
4588 1 6.6014827733002077e+00 1.9003356917728489e-01 4.1135560379981598e+01 0 1 0
1259 1 8.9223408399731952e+00 3.2877685808255883e+00 3.8533432567291413e+01 0 1 0
167 1 1.2556677392621167e+00 1.6494142256006261e+00 3.9142112718279705e+01 0 -1 -1
1799 1 1.1649399524018069e+01 4.1890811188400008e+00 3.5766721398061364e+01 0 0 -1
4412 1 3.5116291937565101e+00 6.1838496641921195e+00 3.8650339063972012e+01 0 -1 -1
3677 1 3.1875456479384781e+00 7.2150778101888280e+00 3.5832080832985113e+01 1 1 0
1389 1 1.6693250618538829e+00 5.0130740306877009e+00 3.5364398380547655e+01 1 1 0
473 1 8.1809715281619493e+00 5.9231536977200232e+00 3.9220261805385903e+01 0 1 0
1685 1 7.9353352825493637e+00 6.3364136831995781e+00 3.6016084444513751e+01 2 0 -1
5977 1 9.6856486797053289e+00 8.7935063570439649e+00 3.5575870316887595e+01 -1 2 0
1276 1 1.0045408159531917e+01 5.9490721664281676e-01 3.8105373309549691e+01 0 0 0
5066 1 2.7394086905586057e-01 4.4042334232421299e+00 4.2670770976241229e+01 1 1 -1
6012 1 4.8729033266580064e+00 9.6136361320067625e+00 4.2830366974711723e+01 1 0 0
1237 1 7.2637230356092042e+00 2.6488966398153861e+00 4.2368097780857880e+01 1 1 0
3256 1 1.1624797014787735e+01 1.8119893150622213e+00 4.2510283126260376e+01 0 1 0
6211 1 6.0500202028648919e+00 1.0062343114187392e+01 3.5297961159794134e+01 1 1 -1
3561 1 5.7881372955544927e+00 8.0070801561365421e+00 3.6637493531548913e+01 1 0 0
1302 1 8.5014864245041739e+00 1.1307479596442484e+01 3.5907769697476780e+01 0 0 0
3061 1 1.0876730598465734e+01 1.1036212243271727e+01 3.7567460859284353e+01 -1 1 -1
349 1 9.8717352633042943e-01 3.3405313027209482e-01 4.3104701372774400e+01 0 1 -1
6274 1 5.9274359533773886e+00 1.1750599276390064e+01 4.1094085200703830e+01 0 1 0
2073 1 3.8371086370040079e+00 1.9539096611388278e+00 4.1227849525902201e+01 0 1 -1
4528 1 1.9566614439176959e+00 9.7076761865442762e+00 3.5413413737006948e+01 -1 0 0
536 1 6.2971265063683424e+00 2.3511177488949588e+00 3.5638102656438519e+01 0 1 0
2907 1 1.1737278554476100e+01 4.7093206621128161e+00 4.1905785240793264e+01 -1 1 0
190 1 5.8613415639458379e+00 3.7317594439751853e+00 3.9899597000806921e+01 0 0 -1
6172 1 6.5505207839283308e+00 1.3795226963632936e+00 3.8292012135739839e+01 1 1 0
198 1 3.9933812820179440e+00 1.1470667695074347e+01 3.6574006750206451e+01 1 0 -1
1578 1 8.6344895372140780e+00 1.1190287427902035e+01 4.1590876463090851e+01 0 2 -1
6014 1 8.9320335204704477e+00 5.1205461829174803e+00 4.2150574543051349e+01 0 1 0
3271 1 1.8961398825610969e+00 6.1893158299785798e+00 4.1070825553870847e+01 1 1 0
156 1 4.5657567359237268e+00 5.2269897493135504e+00 4.1813735111330075e+01 0 0 -1
3151 1 1.0583178380386478e+01 7.2360919282650160e+00 3.8221600363419796e+01 -1 1 -1
186 1 1.2081422682864462e+01 9.2501573776023598e+00 3.9874456554044102e+01 0 1 -1
4718 1 2.0861209320398029e+00 8.8291398399033767e+00 4.2032134491641628e+01 1 0 0
4786 1 1.4750379727523641e+00 1.0538417135735155e+01 3.9684314359608962e+01 1 0 -1
1717 1 4.4028486309330814e+00 1.0843869632979597e+01 3.9077607573760957e+01 0 0 0
1788 1 5.4008786682646024e+00 8.1735380221203737e+00 3.9370966155744924e+01 1 1 -1
3400 1 6.3703485948090615e+00 7.1858755509633880e+00 4.1629291901146942e+01 1 1 0
4710 1 1.1790850537258523e+01 1.4567733489392334e-01 4.0017800211605305e+01 0 1 0
2930 1 1.1104684983666932e-01 6.0535888165160499e+00 3.8691030115858737e+01 0 1 0
501 1 1.1430419141488731e+01 1.7022840340693821e-01 3.5789924307849461e+01 1 1 0
1546 1 9.1609097501756747e+00 5.5245850001075048e-01 4.2687731346393122e+01 0 0 0
1882 1 1.1835336165913885e+01 4.4917183820065549e+00 3.8786058466329223e+01 1 0 -1
3004 1 1.2300962307571622e+01 8.4868632831904272e+00 4.2696366015773222e+01 0 0 -1
6169 1 4.3214063878828259e+00 6.7105901587188474e-02 3.8420339141924600e+01 -1 1 -1
1478 1 1.9035815280067006e+00 2.8836318026505081e+00 4.6679598986413922e+01 1 0 0
3632 1 6.1685700497397766e+00 4.0808088916992720e+00 4.6042003224595121e+01 0 2 0
2814 1 5.4106416321998232e+00 4.4592227661446078e+00 5.3857166675027074e+01 0 2 0
4481 1 1.2209308676241950e+01 2.0255377723217380e+00 4.6211929631581270e+01 1 1 0
1265 1 1.0965182717704652e+01 4.0302316661215487e+00 4.5013075313228256e+01 0 0 0
1350 1 9.9626858890431649e+00 4.5811082844982964e+00 4.8884059838139805e+01 0 -2 -1
4827 1 9.0536798403644720e+00 1.1167225514791504e+01 5.4899294269182008e+01 0 1 0
5204 1 2.3344171289377509e+00 5.6275343730781575e+00 4.6415741078966150e+01 1 0 -1
3198 1 4.4624949175314654e+00 5.8594619110161288e+00 4.4596366451329061e+01 0 0 -1
2990 1 6.0451692741210801e+00 8.0187894960469706e+00 4.5259613077559266e+01 1 1 0
286 1 1.0901578617977325e+01 7.8105112614542795e+00 4.6595698004812775e+01 0 0 -1
4605 1 9.1366965683216392e+00 5.4571292420054895e+00 4.6369417376899321e+01 -1 0 0
414 1 2.2270590176783904e+00 2.7121824883351868e+00 4.4025376522554097e+01 1 0 -1
4642 1 1.1090780915686521e+01 7.1612923790461354e+00 4.9306465264107274e+01 0 2 0
4875 1 5.2019670458987362e+00 1.1034029904823653e+01 4.8814710742239171e+01 1 -1 0
1505 1 1.2121941871639281e+01 2.7691303880731080e+00 4.8890918052326128e+01 1 2 0
3250 1 5.4640355084345718e+00 7.9965447035500359e-01 4.9361335048240960e+01 1 -1 -1
3597 1 3.3708576259099032e-01 9.6876678336656514e+00 5.0817753409239771e+01 0 1 0
4796 1 9.4224942232976279e+00 1.0458473215188990e+01 4.6965049208875442e+01 0 0 0
6031 1 8.8725370564392456e+00 2.1007086519224152e+00 5.4918088518339076e+01 -1 1 0
3616 1 4.4079316417836285e+00 3.0591528531396466e+00 4.8001474708539916e+01 1 1 0