LAMMPS data file via write_data, version 16 Mar 2018, timestep = 8000000

6328 atoms
2 atom types

0.0000000000000000e+00 4.9219999999999999e+01 xlo xhi
0.0000000000000000e+00 4.9019635930410494e+01 ylo yhi
2.1245220237590381e+00 5.7937477976244203e+01 zlo zhi

Masses

1 18.015
2 12.01

Atoms # atomic

346 1 2.5240024201351612e+00 3.9892653749186384e+00 3.1215700311203403e+00 0 2 0
2924 1 2.6377315524447376e+00 3.7381856243183784e+00 5.7261750994476843e+00 4 0 1
4410 1 6.9959230798689322e+00 8.7908408203470625e+00 1.3889960271272065e+01 -2 -2 0
6237 1 1.1806231011077717e+01 1.9504923164349768e+00 9.2936219427827140e+00 -1 2 0
4554 1 1.0178311654962489e+01 6.3929215312871557e-01 5.4059784214168500e+00 0 0 1
2967 1 9.5218848532390119e+00 7.8933595316880618e+00 1.2515482492677103e+01 -1 -3 1
4814 1 1.1630311486083002e+01 9.3986669308936275e+00 1.3591780527904540e+01 -1 1 0
4900 1 7.2845561173318716e+00 3.8764414799716169e+00 3.2592858299432064e+00 0 2 0
365 1 4.6964409330996757e+00 7.6027309804907777e+00 2.8744597777511864e+00 2 4 0
2016 1 4.6617808739199305e+00 7.6923078283508950e+00 5.6776915106388035e+00 2 2 0
290 1 9.2428453561498731e+00 7.7432532004254568e+00 2.9677290497980389e+00 3 -1 0
5305 1 1.1992059260566661e+01 4.1633389016207270e+00 2.7990301833522939e+00 1 0 1
2885 1 2.3159480530727197e+00 1.1380839290578656e+01 2.8159034435854968e+00 -6 -3 1
1765 1 6.9450794540979244e+00 1.1525915887105942e+01 2.7659363270900430e+00 1 -3 0
4922 1 7.3060370144070372e+00 1.1697516715978036e+01 5.2797534897467404e+00 0 1 0
6117 1 2.6062817290245271e-01 3.9260583909306301e-01 5.6921928518544451e+00 5 2 1
4698 1 2.9411755107936699e-01 7.4666951988700108e+00 1.0289183924198367e+01 0 2 0
4463 1 2.6175270716843664e+00 1.0933790990219305e+00 6.8951902780214649e+00 2 0 1
1487 1 7.4093207969920138e+00 1.3336061858982604e+00 6.3723945484619700e+00 -1 6 0
4624 1 7.4291494144803476e+00 4.0638980556817224e+00 6.0456456442084203e+00 5 1 0
5267 1 7.1586715339046698e+00 1.3028551521042480e+00 9.1547902117749729e+00 1 3 1
154 1 1.7879857279862957e-01 7.3397091690009955e+00 5.8431426478202413e+00 3 -3 0
355 1 2.4382331746348029e-01 7.3726104776419277e-02 2.8774951519391321e+00 0 0 0
1328 1 1.8005091727810907e-01 7.3427521752835334e+00 3.0129817526477529e+00 -1 4 1
4490 1 4.9194061520153554e+00 5.0346988170665732e+00 6.4693862732836172e+00 -1 -2 1
3492 1 1.1801739580114377e+01 4.5063611852329366e+00 1.2925322823354364e+01 -1 -5 0
1661 1 9.5071183315413368e+00 7.8183907500489882e+00 5.8112624683653014e+00 2 0 1
1902 1 9.5698122146654203e+00 5.3645628189540586e+00 6.7120358989548636e+00 -1 3 1
1823 1 2.4615712485989163e+00 1.1371035512406433e+01 5.6639606157824112e+00 2 1 0
4825 1 2.2788457262749247e+00 8.6800063189804977e+00 6.4321689564177627e+00 -3 3 0
341 1 6.9994189088327232e+00 9.1315742418975265e+00 6.4177820897044509e+00 0 1 0
3055 1 1.1800209904910316e+01 9.1896313337487836e+00 6.5056696088940775e+00 -1 3 0
4534 1 2.5577406766076853e+00 1.2553498679278052e+00 9.8995763008214865e+00 -1 -2 1
2096 1 2.4549730110742782e+00 3.9421403741401551e+00 1.0030345581571124e+01 -2 -3 1
347 1 2.3102279864196840e+00 8.8182812051677928e+00 1.3589726141597396e+01 0 5 0
2805 1 1.2079818691985160e+01 4.7013584622701687e+00 5.3216726629241276e+00 4 -3 1
6224 1 9.5383520736546448e+00 4.5925774261601804e-01 9.9767801217281757e+00 5 2 0
1909 1 9.4014316486596563e+00 4.8585660621865284e-01 1.2537271277836881e+01 -1 -1 1
5104 1 5.0737068835809991e+00 8.7447174482380666e-02 5.7772210515211011e+00 -1 0 0
1625 1 7.1930683029754903e+00 1.1314231344982632e+01 1.2900177775807958e+01 4 -2 1
1451 1 7.0034963428366384e+00 3.9521478066635534e+00 9.9579924870783074e+00 3 -5 1
6018 1 4.7814675361612764e+00 5.0249180961243294e+00 9.1607058905465060e+00 -1 -4 1
4734 1 4.9090293472585502e+00 7.4658417181940724e+00 9.8214366365590529e+00 -3 -3 1
1980 1 1.2029566907429819e+01 4.5867082612257759e+00 1.0037535778911483e+01 0 3 0
3520 1 9.3571545642868834e+00 5.3574472711928154e+00 9.3990794716742165e+00 3 1 0
2978 1 9.3925704105740078e+00 8.0093156381890598e+00 9.8839833919732012e+00 -4 -1 1
6193 1 2.5275693252151745e+00 8.6420509428551782e+00 8.9710437508533829e+00 -3 1 0
5161 1 2.4822398521476714e+00 1.1247208620128612e+01 1.0087996946644099e+01 3 1 0
6065 1 7.2429496124863570e+00 9.1557776843340157e+00 9.0974417684799818e+00 2 8 0
2984 1 7.1336231152259097e+00 1.1687835284304160e+01 1.0134436612638007e+01 -4 4 1
4654 1 9.7747148307740908e+00 1.4002698721640719e-01 2.8475527064514976e+00 2 0 1
4569 1 1.1627350024428889e+01 9.4252756789777692e+00 9.2640051971433586e+00 3 -2 1
427 1 2.4675652278857934e+00 4.0088993293026229e+00 1.2673042153815045e+01 2 3 0
3503 1 2.3740481998663925e+00 1.4483931537956416e+00 1.3613306586482611e+01 0 1 0
2062 1 6.8991537121767603e+00 1.3224153647562946e+00 1.3745729924360264e+01 3 -1 0
349 1 1.5886466178090708e-01 4.6257428798507485e+00 6.8734455838939379e+00 1 -1 0
3711 1 2.3622866842634407e+00 1.1324130959411409e+01 1.2870530303482665e+01 2 0 1
1624 1 6.9181517549975373e+00 3.9659194942233817e+00 1.2821698844985031e+01 1 2 1
5077 1 4.8031723901241863e+00 7.6976065594062018e+00 1.2515090603380314e+01 0 2 1
6230 1 4.3732376809451079e+00 5.2265962294919763e+00 1.3562795244273646e+01 -2 -2 1
409 1 9.1491989385796320e+00 5.3932070414096618e+00 1.3600521576761992e+01 0 3 0
3007 1 5.1772573217802424e+00 4.1409719829733588e-01 3.0551049778374391e+00 3 -3 1
5164 1 1.1809513692254409e+01 1.2082193764380550e+01 1.2741550872859666e+01 -1 2 1
1590 1 1.1669438349117168e+01 1.2025046934214600e+01 9.9369549657705392e+00 1 -1 0
3284 1 1.1396830330466885e+01 1.6886911820885355e+00 1.3995209669644774e+01 -1 3 0
1455 1 4.4508357306224831e+00 1.8697583706038862e-01 1.2835201054641171e+01 3 3 1
514 1 1.1342508050989764e+01 1.1776289545697312e+01 5.6044941836843396e+00 7 -2 1
6200 1 2.8523415365345990e+00 1.2634312434607851e+00 2.1633993767395765e+00 0 2 1
1341 1 1.1282009935259921e+01 9.5575150835976590e+00 2.1526472357356567e+00 4 -2 1
3231 1 2.1970194027709642e+00 1.1016895063174739e+00 1.6423741969023222e+01 -2 -2 1
685 2 8.6134999999999984e+00 9.2355835810918343e+00 2.6700353266663786e+01 0 0 0
6007 1 4.3933935041651182e+00 2.4768054114804117e+00 1.7024128022633278e+01 0 1 0
5232 1 6.8052255805002977e+00 1.2660729513193896e+00 1.6548709114356015e+01 2 -3 1
3220 1 8.8659833090207378e+00 2.9832645841150889e+00 1.7284484011648654e+01 -3 -1 0
5122 1 1.8381954816166513e-01 2.1075130121369408e+00 1.9489631377063922e+01 2 3 1
1731 1 2.0647425866329718e+00 6.1925573516350418e+00 1.7015696140820417e+01 2 4 0
728 2 9.8440000000000012e+00 1.1366872099805333e+01 2.6700353266663786e+01 0 0 0
5053 1 6.6450687132498061e+00 6.2759053988520730e+00 1.7364620810987169e+01 -6 5 0
3060 1 4.3338007860786512e+00 5.0408691913679684e+00 1.6250814211221574e+01 3 2 0
2904 1 1.1618539111887136e+01 2.0416408798070020e+00 1.6584346869843124e+01 1 2 1
5098 1 1.1477495032446189e+01 6.4882103892056913e+00 1.7408774782550907e+01 -3 3 0
2943 1 2.1271992658755301e+00 8.8778610356732504e+00 1.6400297703339561e+01 1 4 1
1302 1 4.5338135806372906e+00 1.0193535698903284e+01 1.7399557887534165e+01 -3 2 1
3245 1 6.7890301040641967e+00 8.8456373648752464e+00 1.6498569322490042e+01 0 0 0
46 1 1.8694235543645801e-01 1.1423690122756838e+01 2.3565748602715182e+01 4 -3 0
3651 1 9.3349541792943658e+00 1.0184570071920312e+01 1.7307601310787696e+01 0 -2 1
3169 1 2.2988035453709585e+00 7.4415471126117272e-01 2.0638867718655007e+01 2 3 1
4703 1 1.1631049066796585e+01 9.0755850178653716e+00 1.6353660859209430e+01 0 -2 1
5088 1 4.4242854561570457e+00 2.2896049706959509e+00 1.9988541541278185e+01 4 -4 0
33 1 6.9449221994725017e+00 1.6068326544109219e+00 2.1246290993833910e+01 2 -2 1
1788 1 9.3329928185553683e+00 2.6909209359417487e+00 2.0061159726956085e+01 6 2 0
6165 1 1.1826367789044056e+01 1.7866100473731954e+00 2.1008359552729665e+01 1 3 1
3112 1 1.9851231448039637e+00 6.3414988210508350e+00 1.9737393400918101e+01 -2 -4 0
732 2 1.1074500000000002e+01 9.2355835810918343e+00 2.6700353266663786e+01 0 0 0
3449 1 6.4739144344531230e+00 6.3407627370806461e+00 2.0383775982761829e+01 0 -2 0
4887 1 4.1646876427731483e+00 4.9065511960239085e+00 2.1110262117895768e+01 -2 -1 0
4430 1 8.9499652026492118e+00 5.2318249598097513e+00 2.0859864716215441e+01 -3 1 1
4457 1 1.1138428227595581e+01 6.7701911176167968e+00 2.0211371312081329e+01 -1 -1 1
4595 1 1.8037884905294885e+00 8.7254073566589785e+00 2.0773084369957537e+01 1 2 0
5241 1 4.3110425921035400e+00 9.9248995660161050e+00 2.0080530131126988e+01 -3 1 1
205 1 6.7739754699581631e+00 8.9552199809170343e+00 2.1114372510440262e+01 3 -1 0
2841 1 9.3496172461829001e+00 1.0030495516295066e+01 2.0246548472576759e+01 0 1 1
3397 1 1.1701646562667836e+01 9.0621241405886686e+00 2.1223598187196188e+01 2 -2 0
3208 1 2.2166071898750150e+00 3.3588052876485492e+00 2.4536273734987301e+01 5 2 1
4911 1 2.1621801531542393e+00 9.1877147481654620e-01 2.3465727248406367e+01 2 2 0
1674 1 6.9658557016177260e+00 9.3768572603890810e-01 2.3914473420043642e+01 5 0 0
2963 1 6.6925632603041141e+00 3.6522880501904522e+00 2.4516618428249487e+01 -1 -4 1
1519 1 1.1655390772594659e+01 1.3532937917613939e+00 2.3769119076231458e+01 1 -1 1
730 2 9.8440000000000012e+00 8.5251540748539956e+00 2.6700353266663786e+01 0 0 0
2938 1 7.2266921217012516e+00 1.1434222773757348e+01 2.4400217627956284e+01 -1 0 0
726 2 8.6134999999999984e+00 1.0656442593567498e+01 2.6700353266663786e+01 0 0 0
4845 1 4.3035510235766585e+00 4.8737335583196177e+00 2.3807869828147201e+01 1 -2 1
367 1 4.1313983686632705e+00 7.4557544989525404e+00 2.4477050234470042e+01 3 -2 0
3712 1 9.1906150810538545e+00 5.0726596972740587e+00 2.3771386606584382e+01 -4 -6 0
4778 1 9.1415712041148236e+00 7.7479074450308962e+00 2.4257817460118176e+01 3 -1 0
773 2 1.1074500000000002e+01 1.0656442593567498e+01 2.6700353266663786e+01 0 0 0
1293 1 1.5190919594864900e+00 8.7802327285208808e+00 2.3493521488726159e+01 1 3 1
2973 1 8.9716396098539395e+00 5.4907673060679567e+00 1.6260812843930751e+01 -1 2 1
3032 1 6.4832618931680894e+00 8.5192739332662111e+00 2.3755291780266379e+01 3 0 1
5032 1 1.1360107790305337e+01 9.7138860929222783e+00 2.3955049932930532e+01 -4 6 0
775 2 1.2304999999999998e+01 1.1366872099805333e+01 2.6700353266663786e+01 0 0 0
552 2 0.0000000000000000e+00 2.8417180249513345e+00 2.6700353266663786e+01 0 0 0
554 2 0.0000000000000000e+00 0.0000000000000000e+00 2.6700353266663786e+01 0 0 0
556 2 1.2305000000000001e+00 7.1042950623783474e-01 2.6700353266663786e+01 0 0 0
563 2 1.2305000000000001e+00 2.1312885187134998e+00 2.6700353266663786e+01 0 0 0
565 2 2.4610000000000003e+00 2.8417180249513345e+00 2.6700353266663786e+01 0 0 0
567 2 2.4610000000000003e+00 0.0000000000000000e+00 2.6700353266663786e+01 0 0 0
569 2 3.6915000000000004e+00 7.1042950623783474e-01 2.6700353266663786e+01 0 0 0
584 2 3.6914999999999996e+00 2.1312885187134998e+00 2.6700353266663786e+01 0 0 0
586 2 4.9220000000000006e+00 2.8417180249513332e+00 2.6700353266663786e+01 0 0 0
588 2 4.9220000000000006e+00 0.0000000000000000e+00 2.6700353266663786e+01 0 0 0
590 2 6.1524999999999999e+00 7.1042950623783407e-01 2.6700353266663786e+01 0 0 0
613 2 6.1524999999999999e+00 2.1312885187134989e+00 2.6700353266663786e+01 0 0 0
615 2 7.3829999999999991e+00 2.8417180249513345e+00 2.6700353266663786e+01 0 0 0
617 2 7.3829999999999991e+00 0.0000000000000000e+00 2.6700353266663786e+01 0 0 0
619 2 8.6134999999999984e+00 7.1042950623783407e-01 2.6700353266663786e+01 0 0 0
650 2 8.6134999999999984e+00 2.1312885187135002e+00 2.6700353266663786e+01 0 0 0
652 2 9.8440000000000012e+00 2.8417180249513332e+00 2.6700353266663786e+01 0 0 0
654 2 9.8440000000000012e+00 0.0000000000000000e+00 2.6700353266663786e+01 0 0 0
656 2 1.1074500000000002e+01 7.1042950623783330e-01 2.6700353266663786e+01 0 0 0
695 2 1.1074500000000002e+01 2.1312885187135002e+00 2.6700353266663786e+01 0 0 0
559 2 0.0000000000000000e+00 4.2625770374269996e+00 2.6700353266663786e+01 0 0 0
561 2 1.2305000000000001e+00 4.9730065436648339e+00 2.6700353266663786e+01 0 0 0
576 2 1.2305000000000001e+00 6.3938655561404980e+00 2.6700353266663786e+01 0 0 0
580 2 2.4610000000000003e+00 4.2625770374269996e+00 2.6700353266663786e+01 0 0 0
582 2 3.6914999999999996e+00 4.9730065436648339e+00 2.6700353266663786e+01 0 0 0
605 2 3.6914999999999996e+00 6.3938655561404980e+00 2.6700353266663786e+01 0 0 0
557 2 0.0000000000000000e+00 7.1042950623783341e+00 2.6700353266663786e+01 0 0 0
578 2 2.4610000000000003e+00 7.1042950623783341e+00 2.6700353266663786e+01 0 0 0
609 2 4.9220000000000006e+00 4.2625770374269978e+00 2.6700353266663786e+01 0 0 0
611 2 6.1524999999999999e+00 4.9730065436648339e+00 2.6700353266663786e+01 0 0 0
642 2 6.1524999999999999e+00 6.3938655561404980e+00 2.6700353266663786e+01 0 0 0
646 2 7.3829999999999991e+00 4.2625770374269996e+00 2.6700353266663786e+01 0 0 0
607 2 4.9220000000000006e+00 7.1042950623783341e+00 2.6700353266663786e+01 0 0 0
644 2 7.3830000000000009e+00 7.1042950623783341e+00 2.6700353266663786e+01 0 0 0
648 2 8.6135000000000002e+00 4.9730065436648339e+00 2.6700353266663786e+01 0 0 0
687 2 8.6135000000000002e+00 6.3938655561404980e+00 2.6700353266663786e+01 0 0 0
691 2 9.8440000000000012e+00 4.2625770374270004e+00 2.6700353266663786e+01 0 0 0
693 2 1.1074500000000002e+01 4.9730065436648339e+00 2.6700353266663786e+01 0 0 0
734 2 1.1074500000000002e+01 6.3938655561404980e+00 2.6700353266663786e+01 0 0 0
689 2 9.8440000000000012e+00 7.1042950623783341e+00 2.6700353266663786e+01 0 0 0
603 2 3.6915000000000004e+00 9.2355835810918343e+00 2.6700353266663786e+01 0 0 0
597 2 1.2305000000000001e+00 1.0656442593567498e+01 2.6700353266663786e+01 0 0 0
574 2 1.2305000000000001e+00 9.2355835810918343e+00 2.6700353266663786e+01 0 0 0
572 2 0.0000000000000000e+00 8.5251540748539991e+00 2.6700353266663786e+01 0 0 0
570 2 0.0000000000000000e+00 1.1366872099805333e+01 2.6700353266663786e+01 0 0 0
599 2 2.4610000000000003e+00 1.1366872099805333e+01 2.6700353266663786e+01 0 0 0
601 2 2.4610000000000003e+00 8.5251540748539991e+00 2.6700353266663786e+01 0 0 0
634 2 3.6914999999999996e+00 1.0656442593567499e+01 2.6700353266663786e+01 0 0 0
636 2 4.9220000000000006e+00 1.1366872099805333e+01 2.6700353266663786e+01 0 0 0
681 2 7.3829999999999991e+00 1.1366872099805333e+01 2.6700353266663786e+01 0 0 0
638 2 4.9220000000000006e+00 8.5251540748539991e+00 2.6700353266663786e+01 0 0 0
640 2 6.1524999999999999e+00 9.2355835810918343e+00 2.6700353266663786e+01 0 0 0
679 2 6.1524999999999999e+00 1.0656442593567499e+01 2.6700353266663786e+01 0 0 0
683 2 7.3830000000000009e+00 8.5251540748539991e+00 2.6700353266663786e+01 0 0 0
3212 1 1.1682800064281304e+01 3.9428938215949678e+00 2.4431584963470563e+01 -1 4 0
132 1 1.1769409207221315e-01 4.6052730316192454e+00 2.0727603656876923e+01 2 -1 1
553 2 0.0000000000000000e+00 1.4208590124756650e+00 3.0031000000001679e+01 0 0 0
555 2 0.0000000000000000e+00 0.0000000000000000e+00 3.0031000000001679e+01 0 0 0
564 2 1.2305000000000001e+00 2.1312885187134998e+00 3.0031000000001679e+01 0 0 0
566 2 2.4610000000000003e+00 1.4208590124756650e+00 3.0031000000001679e+01 0 0 0
568 2 2.4610000000000003e+00 0.0000000000000000e+00 3.0031000000001679e+01 0 0 0
585 2 3.6914999999999996e+00 2.1312885187134998e+00 3.0031000000001679e+01 0 0 0
562 2 1.2305000000000001e+00 3.5521475311891644e+00 3.0031000000001679e+01 0 0 0
583 2 3.6914999999999996e+00 3.5521475311891644e+00 3.0031000000001679e+01 0 0 0
881 2 0.0000000000000000e+00 2.8417180249513345e+00 3.3361646733305307e+01 0 0 0
882 2 0.0000000000000000e+00 0.0000000000000000e+00 3.3361646733305307e+01 0 0 0
883 2 1.2305000000000001e+00 7.1042950623783474e-01 3.3361646733305307e+01 0 0 0
887 2 1.2305000000000001e+00 2.1312885187134998e+00 3.3361646733305307e+01 0 0 0
888 2 2.4610000000000003e+00 2.8417180249513345e+00 3.3361646733305307e+01 0 0 0
889 2 2.4610000000000003e+00 0.0000000000000000e+00 3.3361646733305307e+01 0 0 0
890 2 3.6915000000000004e+00 7.1042950623783474e-01 3.3361646733305307e+01 0 0 0
898 2 3.6914999999999996e+00 2.1312885187134998e+00 3.3361646733305307e+01 0 0 0
587 2 4.9220000000000006e+00 1.4208590124756650e+00 3.0031000000001679e+01 0 0 0
589 2 4.9220000000000006e+00 0.0000000000000000e+00 3.0031000000001679e+01 0 0 0
614 2 6.1524999999999999e+00 2.1312885187134989e+00 3.0031000000001679e+01 0 0 0
616 2 7.3829999999999991e+00 1.4208590124756659e+00 3.0031000000001679e+01 0 0 0
618 2 7.3829999999999991e+00 0.0000000000000000e+00 3.0031000000001679e+01 0 0 0
612 2 6.1524999999999999e+00 3.5521475311891644e+00 3.0031000000001679e+01 0 0 0
899 2 4.9220000000000006e+00 2.8417180249513332e+00 3.3361646733305307e+01 0 0 0
900 2 4.9220000000000006e+00 0.0000000000000000e+00 3.3361646733305307e+01 0 0 0
901 2 6.1524999999999999e+00 7.1042950623783407e-01 3.3361646733305307e+01 0 0 0
913 2 6.1524999999999999e+00 2.1312885187134989e+00 3.3361646733305307e+01 0 0 0
914 2 7.3829999999999991e+00 2.8417180249513345e+00 3.3361646733305307e+01 0 0 0
915 2 7.3829999999999991e+00 0.0000000000000000e+00 3.3361646733305307e+01 0 0 0
651 2 8.6134999999999984e+00 2.1312885187135002e+00 3.0031000000001679e+01 0 0 0
653 2 9.8440000000000012e+00 1.4208590124756659e+00 3.0031000000001679e+01 0 0 0
655 2 9.8440000000000012e+00 0.0000000000000000e+00 3.0031000000001679e+01 0 0 0
696 2 1.1074500000000002e+01 2.1312885187135002e+00 3.0031000000001679e+01 0 0 0
649 2 8.6134999999999984e+00 3.5521475311891657e+00 3.0031000000001679e+01 0 0 0
694 2 1.1074500000000002e+01 3.5521475311891644e+00 3.0031000000001679e+01 0 0 0
916 2 8.6134999999999984e+00 7.1042950623783407e-01 3.3361646733305307e+01 0 0 0
932 2 8.6134999999999984e+00 2.1312885187135002e+00 3.3361646733305307e+01 0 0 0
933 2 9.8440000000000012e+00 2.8417180249513332e+00 3.3361646733305307e+01 0 0 0
934 2 9.8440000000000012e+00 0.0000000000000000e+00 3.3361646733305307e+01 0 0 0
935 2 1.1074500000000002e+01 7.1042950623783330e-01 3.3361646733305307e+01 0 0 0
955 2 1.1074500000000002e+01 2.1312885187135002e+00 3.3361646733305307e+01 0 0 0
558 2 0.0000000000000000e+00 5.6834360499026637e+00 3.0031000000001679e+01 0 0 0
560 2 0.0000000000000000e+00 4.2625770374269996e+00 3.0031000000001679e+01 0 0 0
577 2 1.2305000000000001e+00 6.3938655561404980e+00 3.0031000000001679e+01 0 0 0
579 2 2.4610000000000003e+00 5.6834360499026637e+00 3.0031000000001679e+01 0 0 0
581 2 2.4610000000000003e+00 4.2625770374269996e+00 3.0031000000001679e+01 0 0 0
606 2 3.6914999999999996e+00 6.3938655561404980e+00 3.0031000000001679e+01 0 0 0
575 2 1.2305000000000001e+00 7.8147245686161639e+00 3.0031000000001679e+01 0 0 0
604 2 3.6914999999999996e+00 7.8147245686161639e+00 3.0031000000001679e+01 0 0 0
885 2 0.0000000000000000e+00 4.2625770374269996e+00 3.3361646733305307e+01 0 0 0
886 2 1.2305000000000001e+00 4.9730065436648339e+00 3.3361646733305307e+01 0 0 0
894 2 1.2305000000000001e+00 6.3938655561404980e+00 3.3361646733305307e+01 0 0 0
896 2 2.4610000000000003e+00 4.2625770374269996e+00 3.3361646733305307e+01 0 0 0
897 2 3.6914999999999996e+00 4.9730065436648339e+00 3.3361646733305307e+01 0 0 0
909 2 3.6914999999999996e+00 6.3938655561404980e+00 3.3361646733305307e+01 0 0 0
884 2 0.0000000000000000e+00 7.1042950623783341e+00 3.3361646733305307e+01 0 0 0
895 2 2.4610000000000003e+00 7.1042950623783341e+00 3.3361646733305307e+01 0 0 0
608 2 4.9220000000000006e+00 5.6834360499026637e+00 3.0031000000001679e+01 0 0 0
610 2 4.9220000000000006e+00 4.2625770374269978e+00 3.0031000000001679e+01 0 0 0
643 2 6.1524999999999999e+00 6.3938655561404980e+00 3.0031000000001679e+01 0 0 0
645 2 7.3829999999999991e+00 5.6834360499026637e+00 3.0031000000001679e+01 0 0 0
647 2 7.3829999999999991e+00 4.2625770374269996e+00 3.0031000000001679e+01 0 0 0
641 2 6.1524999999999999e+00 7.8147245686161639e+00 3.0031000000001679e+01 0 0 0
911 2 4.9220000000000006e+00 4.2625770374269978e+00 3.3361646733305307e+01 0 0 0
912 2 6.1524999999999999e+00 4.9730065436648339e+00 3.3361646733305307e+01 0 0 0
928 2 6.1524999999999999e+00 6.3938655561404980e+00 3.3361646733305307e+01 0 0 0
930 2 7.3829999999999991e+00 4.2625770374269996e+00 3.3361646733305307e+01 0 0 0
910 2 4.9220000000000006e+00 7.1042950623783341e+00 3.3361646733305307e+01 0 0 0
929 2 7.3830000000000009e+00 7.1042950623783341e+00 3.3361646733305307e+01 0 0 0
688 2 8.6135000000000002e+00 6.3938655561404980e+00 3.0031000000001679e+01 0 0 0
690 2 9.8440000000000012e+00 5.6834360499026637e+00 3.0031000000001679e+01 0 0 0
692 2 9.8440000000000012e+00 4.2625770374270004e+00 3.0031000000001679e+01 0 0 0
735 2 1.1074500000000002e+01 6.3938655561404980e+00 3.0031000000001679e+01 0 0 0
686 2 8.6135000000000002e+00 7.8147245686161639e+00 3.0031000000001679e+01 0 0 0
733 2 1.1074500000000002e+01 7.8147245686161639e+00 3.0031000000001679e+01 0 0 0
931 2 8.6135000000000002e+00 4.9730065436648339e+00 3.3361646733305307e+01 0 0 0
951 2 8.6135000000000002e+00 6.3938655561404980e+00 3.3361646733305307e+01 0 0 0
953 2 9.8440000000000012e+00 4.2625770374270004e+00 3.3361646733305307e+01 0 0 0
954 2 1.1074500000000002e+01 4.9730065436648339e+00 3.3361646733305307e+01 0 0 0
975 2 1.1074500000000002e+01 6.3938655561404980e+00 3.3361646733305307e+01 0 0 0
952 2 9.8440000000000012e+00 7.1042950623783341e+00 3.3361646733305307e+01 0 0 0
571 2 0.0000000000000000e+00 9.9460130873296642e+00 3.0031000000001679e+01 0 0 0
573 2 0.0000000000000000e+00 8.5251540748539991e+00 3.0031000000001679e+01 0 0 0
600 2 2.4610000000000003e+00 9.9460130873296642e+00 3.0031000000001679e+01 0 0 0
602 2 2.4610000000000003e+00 8.5251540748539991e+00 3.0031000000001679e+01 0 0 0
596 2 1.2305000000000001e+00 1.2077301606043163e+01 3.0031000000001679e+01 0 0 0
598 2 1.2305000000000001e+00 1.0656442593567498e+01 3.0031000000001679e+01 0 0 0
633 2 3.6914999999999996e+00 1.2077301606043163e+01 3.0031000000001679e+01 0 0 0
635 2 3.6914999999999996e+00 1.0656442593567499e+01 3.0031000000001679e+01 0 0 0
892 2 0.0000000000000000e+00 8.5251540748539991e+00 3.3361646733305307e+01 0 0 0
893 2 1.2305000000000001e+00 9.2355835810918343e+00 3.3361646733305307e+01 0 0 0
907 2 2.4610000000000003e+00 8.5251540748539991e+00 3.3361646733305307e+01 0 0 0
908 2 3.6915000000000004e+00 9.2355835810918343e+00 3.3361646733305307e+01 0 0 0
891 2 0.0000000000000000e+00 1.1366872099805333e+01 3.3361646733305307e+01 0 0 0
905 2 1.2305000000000001e+00 1.0656442593567498e+01 3.3361646733305307e+01 0 0 0
906 2 2.4610000000000003e+00 1.1366872099805333e+01 3.3361646733305307e+01 0 0 0
924 2 3.6914999999999996e+00 1.0656442593567499e+01 3.3361646733305307e+01 0 0 0
637 2 4.9220000000000006e+00 9.9460130873296642e+00 3.0031000000001679e+01 0 0 0
639 2 4.9220000000000006e+00 8.5251540748539991e+00 3.0031000000001679e+01 0 0 0
682 2 7.3830000000000009e+00 9.9460130873296642e+00 3.0031000000001679e+01 0 0 0
684 2 7.3830000000000009e+00 8.5251540748539991e+00 3.0031000000001679e+01 0 0 0
678 2 6.1524999999999999e+00 1.2077301606043163e+01 3.0031000000001679e+01 0 0 0
680 2 6.1524999999999999e+00 1.0656442593567499e+01 3.0031000000001679e+01 0 0 0
926 2 4.9220000000000006e+00 8.5251540748539991e+00 3.3361646733305307e+01 0 0 0
927 2 6.1524999999999999e+00 9.2355835810918343e+00 3.3361646733305307e+01 0 0 0
949 2 7.3830000000000009e+00 8.5251540748539991e+00 3.3361646733305307e+01 0 0 0
925 2 4.9220000000000006e+00 1.1366872099805333e+01 3.3361646733305307e+01 0 0 0
947 2 6.1524999999999999e+00 1.0656442593567499e+01 3.3361646733305307e+01 0 0 0
948 2 7.3829999999999991e+00 1.1366872099805333e+01 3.3361646733305307e+01 0 0 0
729 2 9.8440000000000012e+00 9.9460130873296642e+00 3.0031000000001679e+01 0 0 0
731 2 9.8440000000000012e+00 8.5251540748539956e+00 3.0031000000001679e+01 0 0 0
725 2 8.6135000000000002e+00 1.2077301606043163e+01 3.0031000000001679e+01 0 0 0
727 2 8.6134999999999984e+00 1.0656442593567498e+01 3.0031000000001679e+01 0 0 0
772 2 1.1074500000000002e+01 1.2077301606043163e+01 3.0031000000001679e+01 0 0 0
774 2 1.1074500000000002e+01 1.0656442593567498e+01 3.0031000000001679e+01 0 0 0
950 2 8.6134999999999984e+00 9.2355835810918343e+00 3.3361646733305307e+01 0 0 0
973 2 9.8440000000000012e+00 8.5251540748539956e+00 3.3361646733305307e+01 0 0 0
974 2 1.1074500000000002e+01 9.2355835810918343e+00 3.3361646733305307e+01 0 0 0
971 2 8.6134999999999984e+00 1.0656442593567498e+01 3.3361646733305307e+01 0 0 0
972 2 9.8440000000000012e+00 1.1366872099805333e+01 3.3361646733305307e+01 0 0 0
995 2 1.1074500000000002e+01 1.0656442593567498e+01 3.3361646733305307e+01 0 0 0
996 2 1.2304999999999998e+01 1.1366872099805333e+01 3.3361646733305307e+01 0 0 0
3408 1 1.7997799393732370e+00 7.4372629587806871e-01 3.6212155285522329e+01 2 -4 -1
537 1 3.8379642422350209e+00 2.6759653377012147e+00 3.5386494683468271e+01 -2 -2 0
6112 1 6.2795208726322658e+00 9.1465985842738140e-01 3.6332813006355465e+01 1 -1 -1
1860 1 8.8703275095253691e+00 1.7025149331390441e+00 3.5580677770692660e+01 1 2 -1
201 1 1.1204159023871092e+01 7.9420526219648535e-01 3.6490835580211481e+01 1 7 -1
62 1 1.5880922344475890e+00 6.4893902156042076e+00 3.5718367214752874e+01 0 1 -1
89 1 3.6574401614180254e+00 5.1080270301460624e+00 3.6539324194946843e+01 -1 0 -1
5191 1 6.0588660857174359e+00 6.3366950915266047e+00 3.5880363597594581e+01 -3 4 -1
3471 1 8.2818590244011627e+00 4.4405920851472311e+00 3.6336911302141218e+01 1 2 -1
2871 1 1.0618114836612358e+01 5.7865671514928989e+00 3.5568840189260925e+01 -1 4 0
3277 1 1.6942866627771562e+00 9.0719768924776911e+00 3.6525786841599981e+01 2 -5 -1
1497 1 3.9046415835249739e+00 1.0637984096808081e+01 3.5806825816003538e+01 1 1 0
3345 1 6.0784721198435179e+00 9.1052760742501082e+00 3.6060175808698091e+01 0 4 0
4578 1 8.4047790345328615e+00 1.0187371893088720e+01 3.5822609066062938e+01 -2 2 -1
2026 1 1.0579216408332014e+01 8.5124983917493768e+00 3.6304512998264983e+01 -1 1 0
3443 1 1.9888737530544114e+00 5.5692251662569225e-01 3.8992021337749634e+01 -2 1 -1
3399 1 6.6002402546808847e+00 2.9965724448886583e-01 3.8977068065086584e+01 -3 -4 -1
4812 1 4.4403317006323935e+00 1.4479453208992417e+00 3.9837718365920665e+01 1 -1 -1
4842 1 8.6071979783812242e+00 1.6688231694223989e+00 3.9972159844291554e+01 -1 -1 -1
4567 1 1.1025690356037257e+01 4.5786227312186156e-01 3.9196463226873178e+01 0 -2 0
3519 1 1.9325038678458335e+00 8.2371277085831931e+00 3.9392275957135183e+01 -2 1 -1
3213 1 2.0135018919010981e+00 5.7480238714817684e+00 4.0224199257307788e+01 0 2 0
402 1 3.9718226037175066e+00 4.2455867652241652e+00 3.9224970504022878e+01 1 0 -1
3435 1 6.0990034254553978e+00 5.6712112205377636e+00 4.0097161239061478e+01 0 3 0
4562 1 6.4242771781074097e+00 8.0434725951899093e+00 3.8855027642131262e+01 -4 2 -1
3098 1 8.5505147216419903e+00 4.2024893617310974e+00 3.9073030325690311e+01 -2 1 -1
4564 1 1.0597834825908334e+01 5.3620060436096626e+00 4.0118138982377545e+01 5 2 -1
5995 1 4.5384668105053203e+00 9.2903371733128104e+00 4.0079616649048631e+01 0 4 0
2030 1 4.3626607319391137e+00 9.4296887477480666e+00 4.2704987184957091e+01 3 2 0
38 1 4.1148335526695075e+00 1.1912423664072229e+01 3.8819432214408081e+01 2 -4 -1
1542 1 1.0194359907751940e+01 7.7379579488159296e+00 3.8844274620526775e+01 2 2 0
5206 1 8.4165249881449924e+00 9.2773430218590871e+00 4.0146447801442434e+01 2 0 -1
3131 1 6.5275196368523405e+00 8.3562685826666936e+00 4.3925776854525623e+01 2 0 0
5205 1 1.0919509117253101e+01 8.2458427253420457e+00 4.3399611353229204e+01 -1 2 0
1904 1 6.7260802829007948e+00 6.7100067472587965e-01 4.3787920012884683e+01 2 1 0
2827 1 4.4423035721861925e+00 1.6342774210500493e+00 4.2601126050425151e+01 3 1 -1
4468 1 8.4294499506721916e+00 1.1823687079721624e+01 3.8904302365018566e+01 2 2 0
4580 1 8.8795818517897995e+00 2.0448517824759151e+00 4.2687691325500168e+01 -1 3 -1
2846 1 1.0605584817168495e+01 5.5454578482941210e+00 4.3007466143767928e+01 -3 0 0
51 1 2.3722512793886268e+00 5.4751693535604717e+00 4.3074058408829970e+01 -2 0 0
6168 1 6.0793556603445262e+00 5.8586095591301879e+00 4.2778500491048362e+01 -2 3 -1
4822 1 8.5468582282931767e+00 9.3174413076097409e+00 4.2811692512531678e+01 -3 -2 -1
1475 1 8.3009320859082898e+00 4.2108073277095199e+00 4.3928845234679486e+01 -1 4 0
5961 1 8.4433927270195053e+00 1.1706139849009604e+01 4.3924406626898943e+01 4 1 0
4708 1 1.1192750116916313e+01 3.6644253281462508e-01 4.3795051799028812e+01 1 2 -1
1537 1 4.0153949180279875e+00 1.1857052049053955e+01 4.3730657410841872e+01 3 3 0
1655 1 1.1167061444892971e-01 1.7640196307920781e+00 4.3321282726645535e+01 -1 -1 0
5971 1 2.2670526577695962e+00 8.2227535610524569e+00 4.3954108600526411e+01 1 3 0
4420 1 2.2769025009490709e+00 5.1206178974935357e-01 4.7106346690382168e+01 3 0 0
3031 1 1.8465051536025296e+00 3.0501838246816955e+00 4.7764062099522917e+01 0 1 0
2065 1 6.8007209756724372e+00 5.0170003252357498e-01 4.6648450225456543e+01 3 1 -1
2070 1 1.1318159250112378e+01 7.2902263081822782e-01 4.6533938061623303e+01 3 -1 -1
1672 1 8.6841205844159539e+00 4.4830883226204650e+00 4.6621353297350907e+01 1 1 0
5979 1 2.0497560370932804e+00 8.0999611891389112e+00 4.6763134233505099e+01 0 1 0
5064 1 9.4772214585097068e+00 5.0401832394016068e+00 5.7750133275810938e+01 -1 -4 -1
4729 1 4.3471600433728064e+00 4.0223127213443224e+00 4.6757049626746451e+01 1 4 0
4831 1 4.4893733359194856e+00 7.0346171759339189e+00 4.7328151293693793e+01 -2 3 -1
4443 1 1.0979416644904569e+01 7.9325822172617961e+00 4.6206628167736895e+01 -4 1 0
3514 1 6.9549438348911625e+00 8.4787298647485141e+00 5.5147282905189286e+01 -1 1 -1
5033 1 6.5969169267814376e+00 8.3672186148989010e+00 4.6633003954511040e+01 -3 -2 -1
3045 1 6.8305896836379905e+00 8.8993318804641799e+00 5.7818072311286514e+01 0 -2 -1
1685 1 2.7541697789399072e-01 4.8648327787895695e+00 5.7833578590596716e+01 0 -3 -1
526 1 2.2025223683926685e+00 3.4463464687509480e+00 5.0429574679496127e+01 -5 1 0
4628 1 6.6332607250037601e+00 2.9029037557615380e+00 4.7811059928629859e+01 6 -2 0