LAMMPS data file via write_data, version 16 Mar 2018, timestep = 100000

6589 atoms
2 atom types

0.0000000000000000e+00 4.9219999999999999e+01 xlo xhi
0.0000000000000000e+00 4.9019635930410494e+01 ylo yhi
1.5600175188533392e+00 5.8501982481147131e+01 zlo zhi

Masses

1 18.015
2 12.01

Atoms # atomic

3004 1 9.5730391110160695e-01 2.8131483200942142e+00 4.9874016435883757e+00 0 0 1
6280 1 3.0737573771421238e+00 1.6028068497724224e+00 3.0084519445756213e+00 0 -1 1
1937 1 2.9657030479662909e+00 1.4642564418378201e+00 6.3917020968515317e+00 -1 0 1
3059 1 5.5563540710175738e+00 6.4074422363108008e-01 6.5406166776515446e+00 0 0 1
513 1 6.9807774625328953e+00 2.5271210389557250e+00 5.1157273988317638e+00 1 0 0
462 1 7.1261495908189598e+00 1.9498126320428759e+00 2.4143737519262407e+00 1 0 0
5295 1 9.8196195967954871e+00 1.8344462275608953e+00 5.4407040797916810e+00 2 3 0
5054 1 1.0036439460131534e+01 3.3572052791690732e-01 3.1159859836133741e+00 0 1 0
3041 1 7.8628108962174836e-01 5.5181793568879867e+00 4.6369772659878370e+00 0 0 1
1800 1 2.6036223413890225e+00 6.1702099259762759e+00 6.7402083437694902e+00 -1 1 0
199 1 1.7753837245112101e+00 6.0533979166921856e+00 2.0091054942267812e+00 0 -1 1
5135 1 5.7858164299322601e+00 4.6137454836493941e+00 6.2719791065783665e+00 2 1 0
1340 1 7.7117358772809714e+00 7.8694476297847107e+00 7.1780805021125147e+00 -1 0 1
3624 1 4.9666908887858270e+00 7.6945344259767205e+00 5.9209911309878018e+00 1 1 1
1625 1 6.0083001124133659e+00 7.5874970302185600e+00 3.0039684498635872e+00 0 1 1
1738 1 9.0059741238949016e+00 6.4649774714753168e+00 4.6985793981724404e+00 -1 -1 0
2186 1 1.0473490445130585e+01 4.5619108757357623e+00 6.0725996777479168e+00 0 0 0
5390 1 9.7071795705902932e+00 5.6451870943296649e+00 2.1294307770896688e+00 0 2 0
2102 1 1.1985583597869782e+01 8.1634435237896419e+00 2.7675814349713295e+00 2 0 0
4744 1 3.8205063218874393e+00 9.6094393088413117e+00 2.7605118308157706e+00 0 0 1
3827 1 2.9434168297038479e+00 9.8841908172486086e+00 5.4442436819470448e+00 0 0 1
5091 1 1.3284597061382186e-01 1.2088713396783298e+01 5.0990714007301747e+00 1 1 1
1976 1 7.7509227168415045e+00 1.0245373546964696e+01 3.3275937980094739e+00 0 1 0
6227 1 5.4411019970144441e+00 1.2023043273220992e+01 3.1380021392922322e+00 0 -1 1
210 1 8.6587337755739728e+00 1.1643041736690547e+01 6.0991363233669036e+00 1 0 0
1982 1 1.0122084044924707e+01 9.0067203612970967e+00 4.7937858374808124e+00 1 1 1
1355 1 2.6440342873222016e+00 1.2729940160603949e+01 4.1723088547138598e+00 0 0 1
6253 1 2.8738763041708406e+00 1.5321610613295787e+01 4.7886451434545796e+00 2 2 1
2947 1 6.4119795595994926e+00 1.3365670319809023e+01 5.5152311552133089e+00 1 0 1
219 1 4.5364056721569819e+00 1.6120005636410554e+01 2.8456826296380386e+00 1 1 0
5062 1 7.0981633104261519e+00 1.5695994407610703e+01 3.7026539937636724e+00 -1 -1 0
518 1 9.7486465428385429e+00 1.5553359274890068e+01 4.7443729374270927e+00 -1 0 0
3540 1 9.5299335107301424e+00 1.2272358521814240e+01 2.0413530268457745e+00 0 1 0
3137 1 1.0743372062179859e+01 1.2864078094309795e+01 4.6030642466909608e+00 0 0 1
1958 1 2.3990249113313822e+00 9.1492013348350820e-01 1.2889410814382844e+01 1 1 0
572 1 3.3762863128636278e-01 2.0434151681723081e+00 1.0968238069376666e+01 -1 0 1
303 1 3.3068597324974904e+00 3.8054828798291442e+00 8.1137460685166261e+00 1 1 0
1333 1 5.6069739866710666e+00 3.3994666495370698e+00 9.8232267046841120e+00 1 0 1
527 1 6.7414790842039753e+00 9.8555385820968922e-01 8.9762172650332701e+00 -1 0 1
5020 1 5.2187326271306738e+00 2.1827655538629425e+00 1.2411824429049464e+01 0 1 0
1805 1 1.1675225280271626e+01 2.8942425784615828e+00 1.2632298582924520e+01 0 -1 0
1534 1 9.3739766675626495e+00 7.9005768047436487e-01 8.0798525062533884e+00 0 1 1
4867 1 1.0774863592311053e+01 2.4106229976278688e+00 9.8350735345364839e+00 2 0 0
1655 1 1.4955026623297527e+00 4.3381098515174843e+00 9.9520859088183009e+00 2 1 1
3127 1 2.6130391856090855e+00 6.1181369883989936e+00 1.2140221132595769e+01 -1 0 1
6497 1 3.8376969111764878e+00 7.8223141672668328e+00 1.0410025313835771e+01 0 1 0
2208 1 6.0526357415393095e+00 6.1853055013043123e+00 1.1003415708393973e+01 3 1 1
4673 1 7.5129873355499273e+00 5.4934005297428117e+00 8.3934805765926548e+00 0 1 1
1750 1 1.1350512942782844e+01 6.9020124647783643e+00 1.0382211179194002e+01 0 2 0
3253 1 1.0000330542824793e+01 4.9661824078932657e+00 8.6766402165680603e+00 0 0 1
5306 1 8.8605468306383717e+00 7.2419321616347982e+00 1.1895076709263027e+01 1 1 0
3465 1 8.8827058790358766e+00 4.2344056311673546e+00 1.1677610130984309e+01 2 1 0
317 1 1.5952474906132288e+00 8.4980468752375593e+00 8.2685533967271319e+00 0 1 0
67 1 2.1642372536480368e+00 1.1140608290755578e+01 7.8699797494064132e+00 -1 1 0
1933 1 3.1241749626276385e+00 1.1062875709130646e+01 1.0559996049199322e+01 1 2 0
4820 1 8.1874100755263957e-01 1.0632136334769841e+01 1.2049267820930179e+01 0 0 1
3596 1 5.4890027463563911e+00 9.9014076251881811e+00 1.1859086223910328e+01 1 0 0
3384 1 8.0473630965898018e+00 1.0391132536241896e+01 1.0831099922897630e+01 0 -1 0
3551 1 9.4905094110837549e+00 8.6241834672183781e+00 9.0003439731343704e+00 0 1 0
5461 1 9.4659117616421007e+00 1.1501027283215903e+01 1.2882181242956923e+01 0 0 1
2075 1 1.1447194272405758e+01 1.0194919366803173e+01 7.3059023048846523e+00 0 0 0
1553 1 1.2156405712705403e+01 1.2047989096777702e+01 1.2490245009323202e+01 0 0 1
3700 1 6.6810913126231622e-02 1.4964384684742534e+01 9.1701884631358901e+00 1 0 0
6587 1 2.2683278949167027e+00 1.5679176654987531e+01 1.0519055985658660e+01 1 0 1
1336 1 4.2328878141284196e+00 1.3517199239446377e+01 1.0674680799722930e+01 0 1 1
2178 1 6.2028040480515045e+00 1.4705907080706380e+01 9.0542517271228693e+00 0 0 0
580 1 7.1150473800466782e+00 1.5884739794593292e+01 1.1116387652049163e+01 0 0 0
1419 1 9.9408861619388098e+00 1.4608775212412157e+01 1.1528310713739867e+01 1 0 1
4743 1 8.2257291971093132e+00 1.2571376780372614e+01 8.8012408510648044e+00 1 1 1
3584 1 1.0854844418979852e+01 1.3293161760163994e+01 9.2679318540799791e+00 1 1 0
6366 1 1.1756754718085038e+01 1.4748139779224159e+01 7.3439610230650185e+00 0 0 1
277 1 1.4127457009095397e+00 6.5433556374591184e-01 1.6898208736442658e+01 1 1 0
5007 1 2.2418460806380738e+00 3.7101273160540940e+00 1.5817870516890784e+01 1 0 0
227 1 7.1154217145661400e-03 3.3470344303579638e+00 1.3904660548991988e+01 1 -1 1
201 1 4.1326809236867765e+00 2.0435496787438008e+00 1.7586228727197078e+01 1 1 0
3544 1 8.1962965294286434e+00 1.7122794830243038e-02 1.6901530456680728e+01 0 1 0
2201 1 6.8920219304138799e+00 2.1029741858826867e+00 1.7539110838412675e+01 2 1 0
3617 1 7.5531110908938670e+00 2.9754233304318638e+00 1.3642606552245386e+01 0 0 0
4990 1 8.3275358435513311e+00 4.5492992288674289e-01 1.4171844557411902e+01 1 1 0
3471 1 1.1065539083511537e+01 9.2959971206735126e-01 1.7095979399681767e+01 0 1 0
323 1 1.0616192012318109e+01 3.6447928895934045e+00 1.6811191317967577e+01 0 0 0
1346 1 1.0898661302486119e+01 5.2138855371771275e-01 1.3977069327577130e+01 -2 0 1
1935 1 1.9473518665477505e+00 5.8533568515082974e+00 1.7636564679339617e+01 2 0 0
5507 1 7.9670861552896344e-01 7.9623819342830169e+00 1.6023564861965660e+01 2 1 1
2160 1 6.6755299939512369e-01 7.7792004284087133e+00 1.3186461890169277e+01 0 -1 1
3375 1 8.0288420362598583e+00 4.1169672860954636e+00 1.6050110201934885e+01 0 1 0
144 1 5.1629165860136288e+00 7.0712798740351781e+00 1.3854418571305834e+01 1 0 0
5307 1 7.3108208669580907e+00 7.2259122415000689e+00 1.8572154860529057e+01 1 1 0
1846 1 7.3914053905207799e+00 6.7242611888601216e+00 1.5715763744831539e+01 1 0 0
214 1 4.3691350091199324e+00 4.4748529562058401e+00 1.3966738562293704e+01 1 1 0
3277 1 2.5758792261129231e+00 1.0400038920321624e+01 1.7318620712770059e+01 0 1 0
2109 1 7.7605007742768528e-01 1.1300363481691488e+01 1.4718634459444692e+01 2 1 0
3734 1 5.7393535308153112e+00 1.0923005663688153e+01 1.4414544023166416e+01 1 0 0
5016 1 4.6079138728288456e+00 8.9023958111382058e+00 1.6084374963797018e+01 1 -1 0
1930 1 7.0262646393200363e+00 1.0063014740310908e+01 1.7749804058474172e+01 0 0 0
4715 1 8.5894997933317221e+00 1.0718072150749752e+01 1.5669690845435099e+01 1 0 1
5115 1 9.4449647749127905e+00 8.2071735536408443e+00 1.4344536683045753e+01 1 0 0
519 1 3.5577157206670069e+00 1.2591250493963164e+01 1.4808408360557195e+01 1 2 1
3515 1 3.6524936366103340e+00 1.5149370955932957e+01 1.6624509984235068e+01 0 -1 0
3564 1 8.0694316302565934e+00 1.3756118404499109e+01 1.3672962286230916e+01 0 -1 0
2957 1 5.2738310749353570e+00 1.3948902859418917e+01 1.3014815495976640e+01 0 1 1
545 1 6.0856487386688949e+00 1.2944267383943661e+01 1.6698914223727485e+01 1 0 1
3738 1 7.7869229338345862e+00 1.5540775150109855e+01 1.7675213555287392e+01 1 1 1
1631 1 4.2286697606911439e+00 1.6260775065372570e+01 1.4030305523155995e+01 2 -1 1
3263 1 1.0283312138490063e+01 1.2411464824778431e+01 1.6889735545551950e+01 0 0 1
1686 1 9.3175062882924369e+00 1.5763367834534380e+01 1.5524258253578951e+01 0 1 0
3133 1 1.2133289207240605e+01 1.4508616917826158e+01 1.3372635954162799e+01 0 1 1
1564 1 1.1732955767817380e+01 1.5059599507775076e+01 1.6378185509124346e+01 1 1 1
1871 1 1.3571817458420561e+00 1.3270075678726261e+00 2.1947154278962266e+01 1 0 0
3846 1 3.7771112231334243e+00 9.6167195609339673e-01 2.3133921413268205e+01 -1 1 1
142 1 1.1840631495472007e+00 4.0261202373987892e+00 2.1209031341008849e+01 2 0 0
6463 1 3.5793185088226553e+00 3.5749787708173102e+00 1.9801562098725032e+01 1 1 1
1601 1 1.6150342619313620e+00 1.4482018074671590e-01 1.9456994473531449e+01 0 0 0
3813 1 4.4500963912939202e+00 3.4451272804455590e+00 2.4177880695787191e+01 -2 1 1
150 1 7.0846279660850433e+00 2.1479353305444002e+00 2.0211618842345086e+01 2 2 0
3661 1 1.1455538518742475e+01 1.1293143846633136e+00 1.9677511024897921e+01 -1 1 0
2094 1 9.4569783959895481e+00 3.0540488294503993e+00 2.1273801950700349e+01 0 -1 0
1357 1 1.0655279244499889e+01 2.3307124895107791e+00 2.3679051895084442e+01 1 -1 1
4872 1 1.7427413738696012e+00 4.5185556522585442e+00 2.4014906394976322e+01 1 1 1
130 1 3.7596756569516696e+00 8.0453238333504355e+00 2.0975112000917139e+01 0 -1 1
4790 1 1.5005526870163244e+00 7.3394386426938567e+00 2.4169923784904711e+01 1 1 1
1371 1 4.6609945949695684e+00 6.1055980138927133e+00 1.8729465266766706e+01 0 1 1
3768 1 6.7974316883464416e+00 6.7084703581770277e+00 2.1485700224285026e+01 2 1 0
404 1 5.6028859377643485e+00 4.0936063820783195e+00 2.1519439351000170e+01 -1 0 1
5212 1 6.6835502873989334e+00 8.1588620637601217e+00 2.3867937116651717e+01 0 0 0
3859 1 1.0324404921437775e+01 8.0190050799072772e+00 1.9368462598793311e+01 1 1 1
3279 1 9.4850833924938840e+00 4.7300478106187684e+00 2.4159558885997722e+01 1 -1 1
3405 1 1.1167979476658182e+01 4.4184650709307984e+00 1.9134093087057973e+01 0 -1 1
3402 1 9.6111761769429656e+00 6.1109844489836451e+00 2.1316784383911799e+01 1 0 0
6486 1 1.2184408496027697e+01 5.7972925363924466e+00 2.3745590882428999e+01 0 0 1
6260 1 1.9385633088364229e+00 1.1161101765755495e+01 2.2053397949832377e+01 0 0 1
5230 1 1.7555648649791018e+00 9.3851090659063310e+00 1.9946600355946000e+01 0 1 0
2205 1 4.0849835803186449e+00 8.8391668134830610e+00 2.3733046961891155e+01 0 0 0
129 1 3.6709333615501962e+00 1.1716102171169615e+01 2.4131506679154604e+01 1 -1 0
2981 1 5.7977553282002496e+00 1.0129774930548614e+01 2.0992979903773158e+01 1 0 1
3602 1 4.6453645665781726e+00 1.1661087914991311e+01 1.8923838809919786e+01 2 0 0
6393 1 6.1839826028036367e+00 1.1772657084821649e+01 2.3218678659330180e+01 1 0 0
5300 1 8.7497625083581916e+00 9.8419855902972948e+00 2.3005227248651785e+01 1 1 0
1854 1 8.6247703553737463e+00 1.0172166542287115e+01 2.0476466042033231e+01 -1 -1 1
3620 1 1.0747296259319928e+01 8.5511649550449231e+00 2.3981315943778988e+01 1 1 0
4965 1 3.0696363183905917e+00 1.3602221657294871e+01 2.0819956634804132e+01 0 0 0
5139 1 5.9187191649568593e-01 1.2325096394242498e+01 1.9135996232154564e+01 1 1 0
6254 1 3.0961070659378533e+00 1.4437716666114746e+01 2.3738033780871202e+01 0 0 1
1638 1 5.6142301045060572e-01 1.4740672098967460e+01 2.3941650500581261e+01 1 0 1
460 1 6.3438425748882157e+00 1.3651067238841977e+01 2.0791092986831160e+01 0 -1 1
4586 1 7.7116016818624695e+00 1.4094444251979807e+01 2.3633012057729530e+01 1 0 1
3099 1 1.1184460991214307e+01 1.5681414588192371e+01 2.1193627348930598e+01 0 0 1
3789 1 9.8918236991169923e+00 1.2325400896997644e+01 2.3343206079743194e+01 1 0 0
5151 1 8.5165251193971372e+00 1.2718991783768944e+01 1.9348436254241737e+01 0 0 0
3225 1 1.0637597963234420e+01 1.5728685324489186e+01 2.4011338668216670e+01 2 1 0
3147 1 1.0808573603758296e+01 1.2959791431116651e+01 2.1128862430763725e+01 -1 -1 1
594 2 0.0000000000000000e+00 2.8417180249513345e+00 2.6835303908602253e+01 0 0 0
596 2 0.0000000000000000e+00 0.0000000000000000e+00 2.6835303908602253e+01 0 0 0
598 2 1.2305000000000001e+00 7.1042950623783474e-01 2.6835303908602253e+01 0 0 0
605 2 1.2305000000000001e+00 2.1312885187134998e+00 2.6835303908602253e+01 0 0 0
607 2 2.4610000000000003e+00 2.8417180249513345e+00 2.6835303908602253e+01 0 0 0
609 2 2.4610000000000003e+00 0.0000000000000000e+00 2.6835303908602253e+01 0 0 0
611 2 3.6915000000000004e+00 7.1042950623783474e-01 2.6835303908602253e+01 0 0 0
626 2 3.6914999999999996e+00 2.1312885187134998e+00 2.6835303908602253e+01 0 0 0
628 2 4.9220000000000006e+00 2.8417180249513332e+00 2.6835303908602253e+01 0 0 0
630 2 4.9220000000000006e+00 0.0000000000000000e+00 2.6835303908602253e+01 0 0 0
632 2 6.1524999999999999e+00 7.1042950623783407e-01 2.6835303908602253e+01 0 0 0
655 2 6.1524999999999999e+00 2.1312885187134989e+00 2.6835303908602253e+01 0 0 0
657 2 7.3829999999999991e+00 2.8417180249513345e+00 2.6835303908602253e+01 0 0 0
659 2 7.3829999999999991e+00 0.0000000000000000e+00 2.6835303908602253e+01 0 0 0
661 2 8.6134999999999984e+00 7.1042950623783407e-01 2.6835303908602253e+01 0 0 0
692 2 8.6134999999999984e+00 2.1312885187135002e+00 2.6835303908602253e+01 0 0 0
694 2 9.8440000000000012e+00 2.8417180249513332e+00 2.6835303908602253e+01 0 0 0
696 2 9.8440000000000012e+00 0.0000000000000000e+00 2.6835303908602253e+01 0 0 0
698 2 1.1074500000000002e+01 7.1042950623783330e-01 2.6835303908602253e+01 0 0 0
737 2 1.1074500000000002e+01 2.1312885187135002e+00 2.6835303908602253e+01 0 0 0
599 2 0.0000000000000000e+00 7.1042950623783341e+00 2.6835303908602253e+01 0 0 0
601 2 0.0000000000000000e+00 4.2625770374269996e+00 2.6835303908602253e+01 0 0 0
603 2 1.2305000000000001e+00 4.9730065436648339e+00 2.6835303908602253e+01 0 0 0
618 2 1.2305000000000001e+00 6.3938655561404980e+00 2.6835303908602253e+01 0 0 0
620 2 2.4610000000000003e+00 7.1042950623783341e+00 2.6835303908602253e+01 0 0 0
622 2 2.4610000000000003e+00 4.2625770374269996e+00 2.6835303908602253e+01 0 0 0
624 2 3.6914999999999996e+00 4.9730065436648339e+00 2.6835303908602253e+01 0 0 0
647 2 3.6914999999999996e+00 6.3938655561404980e+00 2.6835303908602253e+01 0 0 0
649 2 4.9220000000000006e+00 7.1042950623783341e+00 2.6835303908602253e+01 0 0 0
651 2 4.9220000000000006e+00 4.2625770374269978e+00 2.6835303908602253e+01 0 0 0
653 2 6.1524999999999999e+00 4.9730065436648339e+00 2.6835303908602253e+01 0 0 0
684 2 6.1524999999999999e+00 6.3938655561404980e+00 2.6835303908602253e+01 0 0 0
686 2 7.3830000000000009e+00 7.1042950623783341e+00 2.6835303908602253e+01 0 0 0
688 2 7.3829999999999991e+00 4.2625770374269996e+00 2.6835303908602253e+01 0 0 0
6549 1 6.6423361245293657e+00 5.3489437545072649e+00 2.4490641279306669e+01 0 0 0
690 2 8.6135000000000002e+00 4.9730065436648339e+00 2.6835303908602253e+01 0 0 0
729 2 8.6135000000000002e+00 6.3938655561404980e+00 2.6835303908602253e+01 0 0 0
731 2 9.8440000000000012e+00 7.1042950623783341e+00 2.6835303908602253e+01 0 0 0
733 2 9.8440000000000012e+00 4.2625770374270004e+00 2.6835303908602253e+01 0 0 0
735 2 1.1074500000000002e+01 4.9730065436648339e+00 2.6835303908602253e+01 0 0 0
776 2 1.1074500000000002e+01 6.3938655561404980e+00 2.6835303908602253e+01 0 0 0
612 2 0.0000000000000000e+00 1.1366872099805333e+01 2.6835303908602253e+01 0 0 0
614 2 0.0000000000000000e+00 8.5251540748539991e+00 2.6835303908602253e+01 0 0 0
616 2 1.2305000000000001e+00 9.2355835810918343e+00 2.6835303908602253e+01 0 0 0
639 2 1.2305000000000001e+00 1.0656442593567498e+01 2.6835303908602253e+01 0 0 0
641 2 2.4610000000000003e+00 1.1366872099805333e+01 2.6835303908602253e+01 0 0 0
643 2 2.4610000000000003e+00 8.5251540748539991e+00 2.6835303908602253e+01 0 0 0
645 2 3.6915000000000004e+00 9.2355835810918343e+00 2.6835303908602253e+01 0 0 0
676 2 3.6914999999999996e+00 1.0656442593567499e+01 2.6835303908602253e+01 0 0 0
678 2 4.9220000000000006e+00 1.1366872099805333e+01 2.6835303908602253e+01 0 0 0
680 2 4.9220000000000006e+00 8.5251540748539991e+00 2.6835303908602253e+01 0 0 0
682 2 6.1524999999999999e+00 9.2355835810918343e+00 2.6835303908602253e+01 0 0 0
721 2 6.1524999999999999e+00 1.0656442593567499e+01 2.6835303908602253e+01 0 0 0
723 2 7.3829999999999991e+00 1.1366872099805333e+01 2.6835303908602253e+01 0 0 0
725 2 7.3830000000000009e+00 8.5251540748539991e+00 2.6835303908602253e+01 0 0 0
727 2 8.6134999999999984e+00 9.2355835810918343e+00 2.6835303908602253e+01 0 0 0
768 2 8.6134999999999984e+00 1.0656442593567498e+01 2.6835303908602253e+01 0 0 0
770 2 9.8440000000000012e+00 1.1366872099805333e+01 2.6835303908602253e+01 0 0 0
772 2 9.8440000000000012e+00 8.5251540748539956e+00 2.6835303908602253e+01 0 0 0
774 2 1.1074500000000002e+01 9.2355835810918343e+00 2.6835303908602253e+01 0 0 0
815 2 1.1074500000000002e+01 1.0656442593567498e+01 2.6835303908602253e+01 0 0 0
817 2 1.2304999999999998e+01 1.1366872099805333e+01 2.6835303908602253e+01 0 0 0
633 2 0.0000000000000000e+00 1.5629449137232333e+01 2.6835303908602253e+01 0 0 0
635 2 0.0000000000000000e+00 1.2787731112280996e+01 2.6835303908602253e+01 0 0 0
637 2 1.2305000000000001e+00 1.3498160618518829e+01 2.6835303908602253e+01 0 0 0
668 2 1.2305000000000001e+00 1.4919019630994494e+01 2.6835303908602253e+01 0 0 0
670 2 2.4610000000000003e+00 1.5629449137232328e+01 2.6835303908602253e+01 0 0 0
672 2 2.4610000000000003e+00 1.2787731112280996e+01 2.6835303908602253e+01 0 0 0
674 2 3.6915000000000004e+00 1.3498160618518829e+01 2.6835303908602253e+01 0 0 0
713 2 3.6915000000000004e+00 1.4919019630994494e+01 2.6835303908602253e+01 0 0 0
715 2 4.9220000000000006e+00 1.5629449137232333e+01 2.6835303908602253e+01 0 0 0
717 2 4.9220000000000006e+00 1.2787731112280996e+01 2.6835303908602253e+01 0 0 0
719 2 6.1524999999999990e+00 1.3498160618518829e+01 2.6835303908602253e+01 0 0 0
760 2 6.1524999999999990e+00 1.4919019630994494e+01 2.6835303908602253e+01 0 0 0
762 2 7.3829999999999991e+00 1.5629449137232333e+01 2.6835303908602253e+01 0 0 0
764 2 7.3829999999999991e+00 1.2787731112280996e+01 2.6835303908602253e+01 0 0 0
6263 1 5.5740503994690664e+00 1.5990421962757093e+01 2.4774967356711631e+01 1 2 1
766 2 8.6135000000000002e+00 1.3498160618518835e+01 2.6835303908602253e+01 0 0 0
807 2 8.6135000000000002e+00 1.4919019630994494e+01 2.6835303908602253e+01 0 0 0
809 2 9.8440000000000012e+00 1.5629449137232328e+01 2.6835303908602253e+01 0 0 0
811 2 9.8440000000000012e+00 1.2787731112280996e+01 2.6835303908602253e+01 0 0 0
813 2 1.1074500000000002e+01 1.3498160618518829e+01 2.6835303908602253e+01 0 0 0
849 2 1.1074500000000002e+01 1.4919019630994494e+01 2.6835303908602253e+01 0 0 0
595 2 0.0000000000000000e+00 1.4208590124756650e+00 3.0031000000000251e+01 0 0 0
597 2 0.0000000000000000e+00 0.0000000000000000e+00 3.0031000000000251e+01 0 0 0
604 2 1.2305000000000001e+00 3.5521475311891644e+00 3.0031000000000251e+01 0 0 0
606 2 1.2305000000000001e+00 2.1312885187134998e+00 3.0031000000000251e+01 0 0 0
608 2 2.4610000000000003e+00 1.4208590124756650e+00 3.0031000000000251e+01 0 0 0
610 2 2.4610000000000003e+00 0.0000000000000000e+00 3.0031000000000251e+01 0 0 0
625 2 3.6914999999999996e+00 3.5521475311891644e+00 3.0031000000000251e+01 0 0 0
627 2 3.6914999999999996e+00 2.1312885187134998e+00 3.0031000000000251e+01 0 0 0
923 2 0.0000000000000000e+00 2.8417180249513345e+00 3.3226696091400356e+01 0 0 0
924 2 0.0000000000000000e+00 0.0000000000000000e+00 3.3226696091400356e+01 0 0 0
925 2 1.2305000000000001e+00 7.1042950623783474e-01 3.3226696091400356e+01 0 0 0
929 2 1.2305000000000001e+00 2.1312885187134998e+00 3.3226696091400356e+01 0 0 0
930 2 2.4610000000000003e+00 2.8417180249513345e+00 3.3226696091400356e+01 0 0 0
931 2 2.4610000000000003e+00 0.0000000000000000e+00 3.3226696091400356e+01 0 0 0
932 2 3.6915000000000004e+00 7.1042950623783474e-01 3.3226696091400356e+01 0 0 0
940 2 3.6914999999999996e+00 2.1312885187134998e+00 3.3226696091400356e+01 0 0 0
629 2 4.9220000000000006e+00 1.4208590124756650e+00 3.0031000000000251e+01 0 0 0
631 2 4.9220000000000006e+00 0.0000000000000000e+00 3.0031000000000251e+01 0 0 0
654 2 6.1524999999999999e+00 3.5521475311891644e+00 3.0031000000000251e+01 0 0 0
656 2 6.1524999999999999e+00 2.1312885187134989e+00 3.0031000000000251e+01 0 0 0
658 2 7.3829999999999991e+00 1.4208590124756659e+00 3.0031000000000251e+01 0 0 0
660 2 7.3829999999999991e+00 0.0000000000000000e+00 3.0031000000000251e+01 0 0 0
941 2 4.9220000000000006e+00 2.8417180249513332e+00 3.3226696091400356e+01 0 0 0
942 2 4.9220000000000006e+00 0.0000000000000000e+00 3.3226696091400356e+01 0 0 0
943 2 6.1524999999999999e+00 7.1042950623783407e-01 3.3226696091400356e+01 0 0 0
955 2 6.1524999999999999e+00 2.1312885187134989e+00 3.3226696091400356e+01 0 0 0
956 2 7.3829999999999991e+00 2.8417180249513345e+00 3.3226696091400356e+01 0 0 0
957 2 7.3829999999999991e+00 0.0000000000000000e+00 3.3226696091400356e+01 0 0 0
691 2 8.6134999999999984e+00 3.5521475311891657e+00 3.0031000000000251e+01 0 0 0
693 2 8.6134999999999984e+00 2.1312885187135002e+00 3.0031000000000251e+01 0 0 0
695 2 9.8440000000000012e+00 1.4208590124756659e+00 3.0031000000000251e+01 0 0 0
697 2 9.8440000000000012e+00 0.0000000000000000e+00 3.0031000000000251e+01 0 0 0
736 2 1.1074500000000002e+01 3.5521475311891644e+00 3.0031000000000251e+01 0 0 0
738 2 1.1074500000000002e+01 2.1312885187135002e+00 3.0031000000000251e+01 0 0 0
958 2 8.6134999999999984e+00 7.1042950623783407e-01 3.3226696091400356e+01 0 0 0
974 2 8.6134999999999984e+00 2.1312885187135002e+00 3.3226696091400356e+01 0 0 0
975 2 9.8440000000000012e+00 2.8417180249513332e+00 3.3226696091400356e+01 0 0 0
976 2 9.8440000000000012e+00 0.0000000000000000e+00 3.3226696091400356e+01 0 0 0
977 2 1.1074500000000002e+01 7.1042950623783330e-01 3.3226696091400356e+01 0 0 0
997 2 1.1074500000000002e+01 2.1312885187135002e+00 3.3226696091400356e+01 0 0 0
3183 1 1.0732514046715041e+01 3.0087144122871030e+00 3.5721944613242187e+01 1 2 -1
600 2 0.0000000000000000e+00 5.6834360499026637e+00 3.0031000000000251e+01 0 0 0
602 2 0.0000000000000000e+00 4.2625770374269996e+00 3.0031000000000251e+01 0 0 0
617 2 1.2305000000000001e+00 7.8147245686161639e+00 3.0031000000000251e+01 0 0 0
619 2 1.2305000000000001e+00 6.3938655561404980e+00 3.0031000000000251e+01 0 0 0
621 2 2.4610000000000003e+00 5.6834360499026637e+00 3.0031000000000251e+01 0 0 0
623 2 2.4610000000000003e+00 4.2625770374269996e+00 3.0031000000000251e+01 0 0 0
646 2 3.6914999999999996e+00 7.8147245686161639e+00 3.0031000000000251e+01 0 0 0
648 2 3.6914999999999996e+00 6.3938655561404980e+00 3.0031000000000251e+01 0 0 0
926 2 0.0000000000000000e+00 7.1042950623783341e+00 3.3226696091400356e+01 0 0 0
927 2 0.0000000000000000e+00 4.2625770374269996e+00 3.3226696091400356e+01 0 0 0
928 2 1.2305000000000001e+00 4.9730065436648339e+00 3.3226696091400356e+01 0 0 0
936 2 1.2305000000000001e+00 6.3938655561404980e+00 3.3226696091400356e+01 0 0 0
937 2 2.4610000000000003e+00 7.1042950623783341e+00 3.3226696091400356e+01 0 0 0
938 2 2.4610000000000003e+00 4.2625770374269996e+00 3.3226696091400356e+01 0 0 0
939 2 3.6914999999999996e+00 4.9730065436648339e+00 3.3226696091400356e+01 0 0 0
951 2 3.6914999999999996e+00 6.3938655561404980e+00 3.3226696091400356e+01 0 0 0
650 2 4.9220000000000006e+00 5.6834360499026637e+00 3.0031000000000251e+01 0 0 0
652 2 4.9220000000000006e+00 4.2625770374269978e+00 3.0031000000000251e+01 0 0 0
683 2 6.1524999999999999e+00 7.8147245686161639e+00 3.0031000000000251e+01 0 0 0
685 2 6.1524999999999999e+00 6.3938655561404980e+00 3.0031000000000251e+01 0 0 0
687 2 7.3829999999999991e+00 5.6834360499026637e+00 3.0031000000000251e+01 0 0 0
689 2 7.3829999999999991e+00 4.2625770374269996e+00 3.0031000000000251e+01 0 0 0
952 2 4.9220000000000006e+00 7.1042950623783341e+00 3.3226696091400356e+01 0 0 0
953 2 4.9220000000000006e+00 4.2625770374269978e+00 3.3226696091400356e+01 0 0 0
954 2 6.1524999999999999e+00 4.9730065436648339e+00 3.3226696091400356e+01 0 0 0
970 2 6.1524999999999999e+00 6.3938655561404980e+00 3.3226696091400356e+01 0 0 0
971 2 7.3830000000000009e+00 7.1042950623783341e+00 3.3226696091400356e+01 0 0 0
972 2 7.3829999999999991e+00 4.2625770374269996e+00 3.3226696091400356e+01 0 0 0
728 2 8.6135000000000002e+00 7.8147245686161639e+00 3.0031000000000251e+01 0 0 0
730 2 8.6135000000000002e+00 6.3938655561404980e+00 3.0031000000000251e+01 0 0 0
732 2 9.8440000000000012e+00 5.6834360499026637e+00 3.0031000000000251e+01 0 0 0
734 2 9.8440000000000012e+00 4.2625770374270004e+00 3.0031000000000251e+01 0 0 0
775 2 1.1074500000000002e+01 7.8147245686161639e+00 3.0031000000000251e+01 0 0 0
777 2 1.1074500000000002e+01 6.3938655561404980e+00 3.0031000000000251e+01 0 0 0
973 2 8.6135000000000002e+00 4.9730065436648339e+00 3.3226696091400356e+01 0 0 0
993 2 8.6135000000000002e+00 6.3938655561404980e+00 3.3226696091400356e+01 0 0 0
994 2 9.8440000000000012e+00 7.1042950623783341e+00 3.3226696091400356e+01 0 0 0
995 2 9.8440000000000012e+00 4.2625770374270004e+00 3.3226696091400356e+01 0 0 0
996 2 1.1074500000000002e+01 4.9730065436648339e+00 3.3226696091400356e+01 0 0 0
1017 2 1.1074500000000002e+01 6.3938655561404980e+00 3.3226696091400356e+01 0 0 0
4982 1 9.2275791510303620e+00 5.4337743648690626e+00 3.5681062555285010e+01 1 0 0
613 2 0.0000000000000000e+00 9.9460130873296642e+00 3.0031000000000251e+01 0 0 0
615 2 0.0000000000000000e+00 8.5251540748539991e+00 3.0031000000000251e+01 0 0 0
638 2 1.2305000000000001e+00 1.2077301606043163e+01 3.0031000000000251e+01 0 0 0
640 2 1.2305000000000001e+00 1.0656442593567498e+01 3.0031000000000251e+01 0 0 0
642 2 2.4610000000000003e+00 9.9460130873296642e+00 3.0031000000000251e+01 0 0 0
644 2 2.4610000000000003e+00 8.5251540748539991e+00 3.0031000000000251e+01 0 0 0
675 2 3.6914999999999996e+00 1.2077301606043163e+01 3.0031000000000251e+01 0 0 0
677 2 3.6914999999999996e+00 1.0656442593567499e+01 3.0031000000000251e+01 0 0 0
933 2 0.0000000000000000e+00 1.1366872099805333e+01 3.3226696091400356e+01 0 0 0
934 2 0.0000000000000000e+00 8.5251540748539991e+00 3.3226696091400356e+01 0 0 0
935 2 1.2305000000000001e+00 9.2355835810918343e+00 3.3226696091400356e+01 0 0 0
947 2 1.2305000000000001e+00 1.0656442593567498e+01 3.3226696091400356e+01 0 0 0
948 2 2.4610000000000003e+00 1.1366872099805333e+01 3.3226696091400356e+01 0 0 0
949 2 2.4610000000000003e+00 8.5251540748539991e+00 3.3226696091400356e+01 0 0 0
950 2 3.6915000000000004e+00 9.2355835810918343e+00 3.3226696091400356e+01 0 0 0
966 2 3.6914999999999996e+00 1.0656442593567499e+01 3.3226696091400356e+01 0 0 0
3236 1 3.4169219251830389e+00 9.7754564231109189e+00 3.5546203419568286e+01 -2 0 0
679 2 4.9220000000000006e+00 9.9460130873296642e+00 3.0031000000000251e+01 0 0 0
681 2 4.9220000000000006e+00 8.5251540748539991e+00 3.0031000000000251e+01 0 0 0
720 2 6.1524999999999999e+00 1.2077301606043163e+01 3.0031000000000251e+01 0 0 0
722 2 6.1524999999999999e+00 1.0656442593567499e+01 3.0031000000000251e+01 0 0 0
724 2 7.3830000000000009e+00 9.9460130873296642e+00 3.0031000000000251e+01 0 0 0
726 2 7.3830000000000009e+00 8.5251540748539991e+00 3.0031000000000251e+01 0 0 0
967 2 4.9220000000000006e+00 1.1366872099805333e+01 3.3226696091400356e+01 0 0 0
968 2 4.9220000000000006e+00 8.5251540748539991e+00 3.3226696091400356e+01 0 0 0
969 2 6.1524999999999999e+00 9.2355835810918343e+00 3.3226696091400356e+01 0 0 0
989 2 6.1524999999999999e+00 1.0656442593567499e+01 3.3226696091400356e+01 0 0 0
990 2 7.3829999999999991e+00 1.1366872099805333e+01 3.3226696091400356e+01 0 0 0
991 2 7.3830000000000009e+00 8.5251540748539991e+00 3.3226696091400356e+01 0 0 0
767 2 8.6135000000000002e+00 1.2077301606043163e+01 3.0031000000000251e+01 0 0 0
769 2 8.6134999999999984e+00 1.0656442593567498e+01 3.0031000000000251e+01 0 0 0
771 2 9.8440000000000012e+00 9.9460130873296642e+00 3.0031000000000251e+01 0 0 0
773 2 9.8440000000000012e+00 8.5251540748539956e+00 3.0031000000000251e+01 0 0 0
814 2 1.1074500000000002e+01 1.2077301606043163e+01 3.0031000000000251e+01 0 0 0
816 2 1.1074500000000002e+01 1.0656442593567498e+01 3.0031000000000251e+01 0 0 0
992 2 8.6134999999999984e+00 9.2355835810918343e+00 3.3226696091400356e+01 0 0 0
1013 2 8.6134999999999984e+00 1.0656442593567498e+01 3.3226696091400356e+01 0 0 0
1014 2 9.8440000000000012e+00 1.1366872099805333e+01 3.3226696091400356e+01 0 0 0
1015 2 9.8440000000000012e+00 8.5251540748539956e+00 3.3226696091400356e+01 0 0 0
1016 2 1.1074500000000002e+01 9.2355835810918343e+00 3.3226696091400356e+01 0 0 0
1037 2 1.1074500000000002e+01 1.0656442593567498e+01 3.3226696091400356e+01 0 0 0
1038 2 1.2304999999999998e+01 1.1366872099805333e+01 3.3226696091400356e+01 0 0 0
634 2 0.0000000000000000e+00 1.4208590124756663e+01 3.0031000000000251e+01 0 0 0
636 2 0.0000000000000000e+00 1.2787731112280996e+01 3.0031000000000251e+01 0 0 0
669 2 1.2305000000000001e+00 1.4919019630994494e+01 3.0031000000000251e+01 0 0 0
671 2 2.4610000000000003e+00 1.4208590124756663e+01 3.0031000000000251e+01 0 0 0
673 2 2.4610000000000003e+00 1.2787731112280996e+01 3.0031000000000251e+01 0 0 0
714 2 3.6915000000000004e+00 1.4919019630994494e+01 3.0031000000000251e+01 0 0 0