LAMMPS data file via write_data, version 16 Mar 2018, timestep = 6000000

6589 atoms
2 atom types

0.0000000000000000e+00 4.9219999999999999e+01 xlo xhi
0.0000000000000000e+00 4.9019635930410494e+01 ylo yhi
-5.5580567282557780e-02 6.0117580567286041e+01 zlo zhi

Masses

1 18.015
2 12.01

Atoms # atomic

1474 1 2.2156201139449005e+00 3.3378688208841929e+00 2.2350066472052528e+00 1 1 1
2974 1 2.7044868278064982e+00 8.4140066518283585e-01 1.2662371534264949e+00 1 1 1
3581 1 6.7389203205155050e+00 1.1579154575451662e+00 9.1489001117286772e-01 0 -1 0
152 1 6.4834341599494767e+00 3.8565971227512272e+00 2.0619965066604284e+00 2 -2 1
212 1 1.1216857497189956e+01 2.1025001789621989e+00 7.4671916722410747e-01 -2 -1 0
4759 1 2.8745152394291290e-01 1.3661940347520989e+00 8.4628272849472310e+00 2 0 1
6383 1 3.5645084446173465e+00 7.5065391564142425e+00 2.0518297272759054e+00 0 2 1
3440 1 4.1754480897654389e+00 4.9188261882644371e+00 1.2298767072967054e+00 0 1 0
1280 1 8.2725885721630803e+00 5.7615548022688179e+00 1.1001072167767612e+00 0 0 1
2150 1 1.0885571526618710e+01 4.6424413978060768e+00 2.1341817723416661e+00 0 0 0
4563 1 1.2495446742479746e+00 8.6974320812451378e+00 1.0818759132802400e+00 1 0 1
6442 1 8.8727490171811862e-01 1.1315780948837606e+01 2.3056064534792102e+00 2 1 1
3702 1 8.0093549011409575e+00 8.4291869527340690e+00 2.2055342578805082e+00 1 2 0
1518 1 5.4223105565247760e+00 9.2708744667702092e+00 1.0473882417280025e+00 0 -1 1
6226 1 5.4641808040114048e+00 1.1953512669114982e+01 2.3087994251564123e+00 0 3 1
2017 1 9.8633473093277590e+00 1.0224865454220021e+01 1.0392923688315949e+00 1 2 0
5363 1 4.6281253604234589e+00 1.4324015415051790e+01 8.7378216547320005e+00 -1 -1 0
2927 1 2.8460451753511515e+00 1.2682916804205908e+01 1.4674620906079168e+00 1 0 1
6423 1 2.4908552147077936e+00 1.5219491487146566e+01 2.1448072494653916e+00 2 -4 1
6341 1 7.2815215864317286e+00 1.3613374215097371e+01 1.0246072328332334e+00 -1 -1 1
6373 1 7.0841027265946481e+00 1.3287508657563501e+01 9.5719600919504799e+00 1 1 1
3116 1 9.4651115697972550e+00 1.2629158288679260e+01 2.1468050293354182e+00 -1 1 1
2098 1 1.1514081464346983e+01 1.4224840457368446e+01 1.2773083672983194e+00 -1 1 0
4661 1 1.8974463565804809e+00 3.3577670386185376e+00 5.1506376074403244e+00 0 -1 1
4999 1 5.5146500889632320e-02 1.3326725586766208e+00 5.8269987643642871e+00 0 1 0
3488 1 4.4826041796519709e+00 2.2859347014721214e+00 5.6438494562784260e+00 0 4 0
1581 1 6.3830783157880591e+00 3.8782044210054698e+00 4.7865466307741649e+00 -1 0 0
6445 1 8.7884151373610564e+00 3.1939752576421045e+00 5.7189133427916330e+00 -1 0 1
1374 1 9.1432154051304284e+00 5.0873392082977442e-01 1.8569595056740922e+00 -2 -1 1
1626 1 1.6718814913747213e+00 6.1211449367906772e+00 5.8607354326064067e+00 -1 -2 1
3462 1 3.7580641159387129e+00 7.6059646121354252e+00 4.9009785318985433e+00 0 -1 0
6471 1 5.9509611144871064e+00 6.4273625997562212e+00 5.9627518343640418e+00 2 2 1
6501 1 7.8936483287569787e+00 8.2360786243897373e+00 5.0289742579614929e+00 0 0 1
416 1 1.0848367195478161e+01 4.7989599764040252e+00 4.8800646729844841e+00 2 -1 0
4816 1 1.0479815160181230e+01 7.2942435694893586e+00 5.7811330629862239e+00 1 1 0
1678 1 5.2909143248544965e-01 1.1280377613518530e+01 4.8138991190088776e+00 1 0 0
172 1 2.8741093408904987e+00 1.0360120845122585e+01 5.9805317659681467e+00 0 2 0
4784 1 5.0491764290772787e+00 1.2069699157557130e+01 5.1695199565174805e+00 0 0 1
3297 1 7.5931673343102197e+00 1.0791285447946892e+01 5.9183980420651476e+00 1 0 1
4574 1 1.1903748967287971e+01 1.1437944662964549e+01 5.7514523160579314e+00 -1 3 1
5214 1 2.1046404142243161e-01 1.3827202172820064e+01 5.5289061349314688e+00 0 3 0
116 1 2.2802238188035533e+00 1.5532484984651125e+01 4.7753854112463179e+00 0 0 0
82 1 1.2207893368278679e+01 9.1267045328163761e+00 1.8912779785614500e+00 0 -3 1
6486 1 4.7981002726289512e+00 1.4644679083961009e+01 5.9418652198604240e+00 1 0 1
6279 1 9.4727636987820460e+00 1.2532262724944362e+01 4.9119752841032724e+00 1 -4 1
5374 1 9.0328661405782462e+00 1.5251760315103429e+01 5.6912504262683239e+00 1 3 1
3825 1 2.8395899532545079e+00 3.7732472622857294e-01 9.5271398797695284e+00 2 1 1
3671 1 8.8579440903789983e+00 1.5180891491262328e+01 8.5715942811090855e+00 0 1 0
3737 1 4.3936905060708753e+00 2.1385044433990306e+00 8.3032964549861354e+00 3 2 0
337 1 6.8761961968889400e+00 1.4277732103836163e+00 9.4398822346503994e+00 -1 0 1
1747 1 8.9206951868560438e+00 3.2133806567933325e+00 8.4696767545378666e+00 0 1 0
4751 1 1.1245273597056041e+01 1.9602152120076881e+00 9.3213174439715232e+00 2 -1 1
537 1 1.8684534756778055e+00 5.4317339817585175e+00 8.5893979046387958e+00 2 1 1
1443 1 4.4087825826879738e+00 4.7521030400423481e+00 9.5797878433751098e+00 0 3 1
5521 1 6.1758938025797780e+00 6.6008658459161085e+00 8.8778267590390669e+00 -1 1 1
3632 1 8.5850732733501154e+00 5.5577810996107067e+00 9.5367461086346665e+00 0 1 0
5134 1 1.0550322361343831e+01 6.9923825519104783e+00 8.4547776382188538e+00 0 0 0
407 1 1.1062043498975445e+01 1.3901925188820719e+01 9.5664972188152220e+00 3 0 1
3834 1 1.3213495267576676e+00 8.3610580817138942e+00 9.3547698064829348e+00 -1 -1 0
78 1 3.2883381344912146e+00 1.0131837149571597e+01 8.7370094276434678e+00 3 0 0
3217 1 5.6370533260889308e+00 9.1221513693710605e+00 9.6334515108756094e+00 0 3 0
240 1 7.8043441470567840e+00 1.1012729052784143e+01 8.4796248291726570e+00 1 1 0
5320 1 2.5716532742003344e+00 1.2930995809093334e+01 9.5887166068579059e+00 -1 3 1
5319 1 1.0242181032028206e+01 9.7603312577031449e+00 9.3365039970229251e+00 1 2 1
3848 1 1.2101380478965911e+01 1.1356407653226563e+01 8.5696157334191039e+00 0 2 1
5488 1 9.0454613929486545e+00 5.6838022377692443e-01 4.7270537711620753e+00 -1 0 0
4812 1 4.5704314985317479e-01 1.3756881685897792e+01 8.1759052096023375e+00 0 2 0
491 1 6.7240310030231853e+00 1.6208672272714111e+01 1.7141820661224105e+00 0 -1 1
1630 1 2.0292147199961588e+00 2.9150258071533446e+00 1.3201367367444025e+01 0 1 1
1607 1 2.3858277071465346e+00 3.4518409942011226e+00 1.5783432667082321e+01 0 4 1
6420 1 7.2890234852409677e+00 1.3097686059602353e+01 2.0734715573197622e+01 -1 3 1
2030 1 3.8485827865870521e-02 1.5756468390323121e+01 2.0591131942863829e+01 1 1 0
3619 1 3.5978613391517505e-01 1.3252186420941559e+01 1.9531081466714802e+01 2 0 0
6321 1 4.2282886183644450e+00 4.1390767641635016e+00 1.2386413193715200e+01 -1 0 0
198 1 2.9582841475118240e+00 1.2674041661390367e+01 1.2189826837378634e+01 1 -1 0
524 1 5.3559952270476172e+00 8.7474646156946001e+00 1.2317325387765123e+01 -2 2 1
74 1 6.8227516277505096e+00 3.7123990104576583e+00 1.3497295575769549e+01 1 0 1
5000 1 6.6311558059047266e+00 3.8762176133955215e+00 1.6171814786085712e+01 0 0 0
554 1 8.3189664389370623e+00 8.2563010396553835e+00 1.3010484276320076e+01 0 0 1
349 1 8.2839647667812919e+00 7.9316845075239657e+00 1.5908318838809008e+01 0 -1 0
238 1 1.0925685184241885e+01 4.5307134288437387e+00 1.3181629714749624e+01 1 -1 1
1521 1 1.0973853205950400e+01 4.2481477327594890e+00 1.5893735784901391e+01 0 0 1
4634 1 3.4836138424529905e+00 6.8862129175698437e+00 1.3099400765429214e+01 2 1 1
5217 1 7.3955842102011471e-01 1.0936967856144690e+01 1.2862585683833579e+01 3 1 0
6209 1 7.8800391305879680e-01 1.1149956234822275e+01 1.5729796248229906e+01 -1 1 1
6470 1 7.1990719150815305e+00 1.3125064845284202e+01 2.3393903271157221e+01 -2 -1 0
6543 1 5.2532782809268124e+00 1.1255344942487993e+01 1.3053220023445711e+01 -2 1 1
2039 1 5.1989199733093772e+00 1.1465738243092497e+01 1.5821483800622506e+01 -1 1 0
1275 1 1.1464844779553017e+01 1.4177699816988953e+01 2.3432282432682698e+01 -1 1 1
1781 1 6.5410789162512986e+00 1.6184105717622697e+00 1.2142616545513356e+01 1 -1 0
1645 1 1.2103233830372480e+01 1.1269448363345042e+01 1.9837446005457128e+01 0 0 1
3100 1 2.3494899404409457e+00 1.5344646301374652e+01 1.3016599954424661e+01 -1 2 1
2999 1 2.4513649671138191e+00 1.5074369033103212e+01 1.5816253299479126e+01 -2 1 1
1428 1 2.6763599000102221e+00 1.2358884507868840e+01 2.0698307641990432e+01 -2 0 1
5148 1 1.1899804224960063e+01 1.1230458326575718e+01 1.7016602544864217e+01 1 2 0
1489 1 3.4500458261090883e-01 1.4942431557986648e+00 1.6836280103452928e+01 1 0 1
2010 1 9.5157626653612990e+00 1.2471709099383231e+01 1.3210920421013935e+01 -2 0 0
1446 1 6.6752394476716388e+00 1.5823807304453249e+01 1.3215867880697616e+01 2 0 0
313 1 9.5402622895622411e+00 1.2374602416312529e+01 1.6066083831803127e+01 0 0 0
6298 1 5.8198546655450283e+00 8.7120219861787707e+00 2.3098179744877076e+01 2 1 0
3439 1 8.8493077289778714e+00 2.6397384506649613e-01 1.2875223811871624e+01 1 0 0
90 1 4.6756806125545776e+00 2.0792643961083477e+00 1.6519225772137823e+01 0 1 1
2102 1 4.6094918255727908e+00 2.1520677703465525e+00 1.9169674907306177e+01 1 0 0
3596 1 9.0678608639461267e+00 2.7525220782549948e+00 1.6736498491659503e+01 1 -1 0
545 1 8.9377944302525343e+00 2.5355780075626546e+00 1.9541495055799583e+01 2 0 1
5345 1 3.6880372878879690e+00 7.4658271742160842e+00 1.5935175518022739e+01 -3 0 0
6553 1 1.5005890862457991e+00 5.7955907861476961e+00 1.6938919582671954e+01 1 2 1
3748 1 1.8384616974853503e+00 5.8027926479995990e+00 1.9841134925487605e+01 -3 1 0
6550 1 6.1104120356883511e+00 6.4363364459747325e+00 1.7113037449993268e+01 1 2 1
1688 1 6.3310101732892203e+00 6.0895692035761790e+00 1.9754136086699717e+01 2 -1 0
2173 1 1.0318902691929924e+01 6.7570558396350897e+00 1.6898372531983007e+01 1 3 0
3587 1 1.0489830965363751e+01 7.0594352308116139e+00 1.9597446370599268e+01 2 1 0
3316 1 2.9161771506027878e+00 9.8543371155493471e+00 1.6797522423268266e+01 3 1 0
402 1 3.4851539407839649e+00 9.8213915295112599e+00 1.9429974446866844e+01 -1 0 1
4765 1 1.3754577805404591e+00 8.5236729732844161e+00 2.0488413759605510e+01 1 1 1
4881 1 7.7697201455930358e+00 1.0497568752504710e+01 1.6795242262382548e+01 2 -3 0
3490 1 7.8047632753885718e+00 1.0598117547588558e+01 1.9751660831444703e+01 1 0 1
6556 1 2.8114696354931503e+00 1.2624816020485561e+01 2.3456454567559273e+01 1 2 1
1342 1 1.0988595620991514e+01 2.0095973637318454e+00 1.2113082049783205e+01 1 1 1
1389 1 1.1542293124049673e+01 1.3945468814730594e+01 1.2321588388959528e+01 0 0 1
5028 1 9.0589144085608133e+00 3.4274053502712998e-01 1.5548675484121704e+01 -1 0 1
3578 1 4.8159295068529753e+00 1.3781765793595593e+01 1.9821563799347288e+01 2 0 1
1741 1 4.9338604736932323e+00 1.3848400120333878e+01 1.6782368159125340e+01 2 1 0
6357 1 8.9398736568862187e+00 1.5076040048292949e+01 1.9623317189079657e+01 3 1 1
1656 1 9.5809321615726262e+00 1.4957026908990088e+01 1.6914671671941882e+01 0 3 1
1491 1 2.5653093071710389e+00 6.5208594773254769e-01 2.0086886500535091e+01 -1 2 1
4680 1 2.4140321858684759e+00 7.0271854330236760e-01 2.2933764120369620e+01 0 -2 1
1968 1 6.9138986659202946e+00 9.7875963294949087e-01 2.0154362811599356e+01 -1 2 0
1981 1 6.7812195179217527e+00 1.1136735900745354e+00 2.2847581917243552e+01 1 1 0
3770 1 1.1239229602161362e+01 1.3158930798086499e+00 2.0563226211251646e+01 1 2 1
6450 1 1.1303025231633615e+01 1.5285662656401910e+00 2.3497277747041771e+01 2 1 1
1529 1 1.0227900491921492e+01 9.5835096240136330e+00 2.3204763277798758e+01 -1 1 0
1649 1 4.0297816514086513e+00 4.7393897607339639e+00 2.3298549606495190e+01 2 2 1
6367 1 4.1323829842805964e+00 4.4290934937791988e+00 2.0504682971934390e+01 1 1 0
1816 1 1.0266865732890773e+01 9.5673249361208192e+00 2.0452425708276014e+01 0 1 0
2237 1 8.9964654339366597e+00 5.0744186625672860e+00 2.0303314947018720e+01 -2 1 0
4687 1 6.0861124378033846e+00 8.7285969704710222e+00 2.0403215922099168e+01 -1 1 1
1725 1 1.1327606697729630e+01 1.3915450935655851e+01 2.0389015274235248e+01 0 2 0
3688 1 8.2374979912700237e+00 5.5111820634816393e+00 2.3132308134516322e+01 1 1 0
1698 1 1.4241495419166694e+00 8.3687680476603994e+00 2.3526405700335978e+01 -3 0 0
17 1 6.8535505441492939e+00 1.5586818528876057e+01 1.6018873561424375e+01 1 1 1
4646 1 5.1130166730178159e-02 1.7617208324085336e+00 1.9619046117272969e+01 -2 0 1
3530 1 2.9571911008439362e+00 5.2019394092592386e-01 1.2184473495988678e+01 -1 4 0
4894 1 1.3117658206132670e+00 8.3251369652867684e+00 1.2096286537171540e+01 3 2 0
3433 1 3.4402145310664745e-01 1.3358661568007758e+01 1.6885338535318358e+01 2 -1 0
2128 1 7.0359235131021594e+00 1.3212436923544121e+01 1.2306729885834299e+01 -3 1 0
1732 1 1.2291483930661215e+01 8.8826887429664598e+00 1.5597766047947685e+01 0 1 0
1566 1 8.5912384849859560e+00 2.8351805197135289e+00 2.3806183732672341e+01 1 0 1
3029 1 5.0238270390260376e-01 1.3596517096485409e+01 2.3904788188320786e+01 2 -2 1
1745 1 8.7083466300127199e+00 5.5993970016643964e+00 1.2168529451525549e+01 0 0 0
5017 1 1.1737337195291023e+01 1.1536014190997722e+01 2.3947670742802686e+01 0 -1 0
4875 1 7.7654614785879339e+00 1.0496061191701660e+01 2.3984980329556496e+01 -4 4 1
3218 1 1.0506704800897436e+01 1.0095497579802119e+01 1.2016109406375008e+01 1 -1 0
594 2 0.0000000000000000e+00 2.8417180249513345e+00 2.6653962766181326e+01 0 0 0
596 2 0.0000000000000000e+00 0.0000000000000000e+00 2.6653962766181326e+01 0 0 0
598 2 1.2305000000000001e+00 7.1042950623783474e-01 2.6653962766181326e+01 0 0 0
605 2 1.2305000000000001e+00 2.1312885187134998e+00 2.6653962766181326e+01 0 0 0
607 2 2.4610000000000003e+00 2.8417180249513345e+00 2.6653962766181326e+01 0 0 0
609 2 2.4610000000000003e+00 0.0000000000000000e+00 2.6653962766181326e+01 0 0 0
611 2 3.6915000000000004e+00 7.1042950623783474e-01 2.6653962766181326e+01 0 0 0
626 2 3.6914999999999996e+00 2.1312885187134998e+00 2.6653962766181326e+01 0 0 0
4780 1 1.0272887271972021e+01 6.8059478698652365e+00 2.4104147706129840e+01 -2 -1 1
628 2 4.9220000000000006e+00 2.8417180249513332e+00 2.6653962766181326e+01 0 0 0
630 2 4.9220000000000006e+00 0.0000000000000000e+00 2.6653962766181326e+01 0 0 0
632 2 6.1524999999999999e+00 7.1042950623783407e-01 2.6653962766181326e+01 0 0 0
655 2 6.1524999999999999e+00 2.1312885187134989e+00 2.6653962766181326e+01 0 0 0
657 2 7.3829999999999991e+00 2.8417180249513345e+00 2.6653962766181326e+01 0 0 0
659 2 7.3829999999999991e+00 0.0000000000000000e+00 2.6653962766181326e+01 0 0 0
1034 2 9.8440000000000012e+00 1.5629449137232328e+01 3.3408037233833909e+01 0 0 0
661 2 8.6134999999999984e+00 7.1042950623783407e-01 2.6653962766181326e+01 0 0 0
692 2 8.6134999999999984e+00 2.1312885187135002e+00 2.6653962766181326e+01 0 0 0
694 2 9.8440000000000012e+00 2.8417180249513332e+00 2.6653962766181326e+01 0 0 0
696 2 9.8440000000000012e+00 0.0000000000000000e+00 2.6653962766181326e+01 0 0 0
698 2 1.1074500000000002e+01 7.1042950623783330e-01 2.6653962766181326e+01 0 0 0
737 2 1.1074500000000002e+01 2.1312885187135002e+00 2.6653962766181326e+01 0 0 0
599 2 0.0000000000000000e+00 7.1042950623783341e+00 2.6653962766181326e+01 0 0 0
601 2 0.0000000000000000e+00 4.2625770374269996e+00 2.6653962766181326e+01 0 0 0
603 2 1.2305000000000001e+00 4.9730065436648339e+00 2.6653962766181326e+01 0 0 0
618 2 1.2305000000000001e+00 6.3938655561404980e+00 2.6653962766181326e+01 0 0 0
620 2 2.4610000000000003e+00 7.1042950623783341e+00 2.6653962766181326e+01 0 0 0
622 2 2.4610000000000003e+00 4.2625770374269996e+00 2.6653962766181326e+01 0 0 0
624 2 3.6914999999999996e+00 4.9730065436648339e+00 2.6653962766181326e+01 0 0 0
647 2 3.6914999999999996e+00 6.3938655561404980e+00 2.6653962766181326e+01 0 0 0
649 2 4.9220000000000006e+00 7.1042950623783341e+00 2.6653962766181326e+01 0 0 0
651 2 4.9220000000000006e+00 4.2625770374269978e+00 2.6653962766181326e+01 0 0 0
653 2 6.1524999999999999e+00 4.9730065436648339e+00 2.6653962766181326e+01 0 0 0
684 2 6.1524999999999999e+00 6.3938655561404980e+00 2.6653962766181326e+01 0 0 0
686 2 7.3830000000000009e+00 7.1042950623783341e+00 2.6653962766181326e+01 0 0 0
688 2 7.3829999999999991e+00 4.2625770374269996e+00 2.6653962766181326e+01 0 0 0
690 2 8.6135000000000002e+00 4.9730065436648339e+00 2.6653962766181326e+01 0 0 0
729 2 8.6135000000000002e+00 6.3938655561404980e+00 2.6653962766181326e+01 0 0 0
731 2 9.8440000000000012e+00 7.1042950623783341e+00 2.6653962766181326e+01 0 0 0
733 2 9.8440000000000012e+00 4.2625770374270004e+00 2.6653962766181326e+01 0 0 0
735 2 1.1074500000000002e+01 4.9730065436648339e+00 2.6653962766181326e+01 0 0 0
776 2 1.1074500000000002e+01 6.3938655561404980e+00 2.6653962766181326e+01 0 0 0
612 2 0.0000000000000000e+00 1.1366872099805333e+01 2.6653962766181326e+01 0 0 0
614 2 0.0000000000000000e+00 8.5251540748539991e+00 2.6653962766181326e+01 0 0 0
616 2 1.2305000000000001e+00 9.2355835810918343e+00 2.6653962766181326e+01 0 0 0
639 2 1.2305000000000001e+00 1.0656442593567498e+01 2.6653962766181326e+01 0 0 0
641 2 2.4610000000000003e+00 1.1366872099805333e+01 2.6653962766181326e+01 0 0 0
643 2 2.4610000000000003e+00 8.5251540748539991e+00 2.6653962766181326e+01 0 0 0
645 2 3.6915000000000004e+00 9.2355835810918343e+00 2.6653962766181326e+01 0 0 0
676 2 3.6914999999999996e+00 1.0656442593567499e+01 2.6653962766181326e+01 0 0 0
2135 1 6.0092127396103185e+00 6.4732512551525705e+00 2.4492157770823315e+01 1 -1 1
678 2 4.9220000000000006e+00 1.1366872099805333e+01 2.6653962766181326e+01 0 0 0
680 2 4.9220000000000006e+00 8.5251540748539991e+00 2.6653962766181326e+01 0 0 0
682 2 6.1524999999999999e+00 9.2355835810918343e+00 2.6653962766181326e+01 0 0 0
721 2 6.1524999999999999e+00 1.0656442593567499e+01 2.6653962766181326e+01 0 0 0
723 2 7.3829999999999991e+00 1.1366872099805333e+01 2.6653962766181326e+01 0 0 0
725 2 7.3830000000000009e+00 8.5251540748539991e+00 2.6653962766181326e+01 0 0 0
1036 2 1.1074500000000002e+01 1.3498160618518829e+01 3.3408037233833909e+01 0 0 0
727 2 8.6134999999999984e+00 9.2355835810918343e+00 2.6653962766181326e+01 0 0 0
768 2 8.6134999999999984e+00 1.0656442593567498e+01 2.6653962766181326e+01 0 0 0
770 2 9.8440000000000012e+00 1.1366872099805333e+01 2.6653962766181326e+01 0 0 0
772 2 9.8440000000000012e+00 8.5251540748539956e+00 2.6653962766181326e+01 0 0 0
774 2 1.1074500000000002e+01 9.2355835810918343e+00 2.6653962766181326e+01 0 0 0
815 2 1.1074500000000002e+01 1.0656442593567498e+01 2.6653962766181326e+01 0 0 0
817 2 1.2304999999999998e+01 1.1366872099805333e+01 2.6653962766181326e+01 0 0 0
1012 2 8.6135000000000002e+00 1.3498160618518835e+01 3.3408037233833909e+01 0 0 0
633 2 0.0000000000000000e+00 1.5629449137232333e+01 2.6653962766181326e+01 0 0 0
635 2 0.0000000000000000e+00 1.2787731112280996e+01 2.6653962766181326e+01 0 0 0
637 2 1.2305000000000001e+00 1.3498160618518829e+01 2.6653962766181326e+01 0 0 0
668 2 1.2305000000000001e+00 1.4919019630994494e+01 2.6653962766181326e+01 0 0 0
670 2 2.4610000000000003e+00 1.5629449137232328e+01 2.6653962766181326e+01 0 0 0
672 2 2.4610000000000003e+00 1.2787731112280996e+01 2.6653962766181326e+01 0 0 0
674 2 3.6915000000000004e+00 1.3498160618518829e+01 2.6653962766181326e+01 0 0 0
713 2 3.6915000000000004e+00 1.4919019630994494e+01 2.6653962766181326e+01 0 0 0
1054 2 1.1074500000000002e+01 1.4919019630994494e+01 3.3408037233833909e+01 0 0 0
715 2 4.9220000000000006e+00 1.5629449137232333e+01 2.6653962766181326e+01 0 0 0
717 2 4.9220000000000006e+00 1.2787731112280996e+01 2.6653962766181326e+01 0 0 0
719 2 6.1524999999999990e+00 1.3498160618518829e+01 2.6653962766181326e+01 0 0 0
760 2 6.1524999999999990e+00 1.4919019630994494e+01 2.6653962766181326e+01 0 0 0
762 2 7.3829999999999991e+00 1.5629449137232333e+01 2.6653962766181326e+01 0 0 0
764 2 7.3829999999999991e+00 1.2787731112280996e+01 2.6653962766181326e+01 0 0 0
1009 2 6.1524999999999990e+00 1.4919019630994494e+01 3.3408037233833909e+01 0 0 0
1033 2 8.6135000000000002e+00 1.4919019630994494e+01 3.3408037233833909e+01 0 0 0
766 2 8.6135000000000002e+00 1.3498160618518835e+01 2.6653962766181326e+01 0 0 0
807 2 8.6135000000000002e+00 1.4919019630994494e+01 2.6653962766181326e+01 0 0 0
809 2 9.8440000000000012e+00 1.5629449137232328e+01 2.6653962766181326e+01 0 0 0
811 2 9.8440000000000012e+00 1.2787731112280996e+01 2.6653962766181326e+01 0 0 0
813 2 1.1074500000000002e+01 1.3498160618518829e+01 2.6653962766181326e+01 0 0 0
849 2 1.1074500000000002e+01 1.4919019630994494e+01 2.6653962766181326e+01 0 0 0
595 2 0.0000000000000000e+00 1.4208590124756650e+00 3.0031000000001772e+01 0 0 0
597 2 0.0000000000000000e+00 0.0000000000000000e+00 3.0031000000001772e+01 0 0 0
604 2 1.2305000000000001e+00 3.5521475311891644e+00 3.0031000000001772e+01 0 0 0
606 2 1.2305000000000001e+00 2.1312885187134998e+00 3.0031000000001772e+01 0 0 0
608 2 2.4610000000000003e+00 1.4208590124756650e+00 3.0031000000001772e+01 0 0 0
610 2 2.4610000000000003e+00 0.0000000000000000e+00 3.0031000000001772e+01 0 0 0
625 2 3.6914999999999996e+00 3.5521475311891644e+00 3.0031000000001772e+01 0 0 0
627 2 3.6914999999999996e+00 2.1312885187134998e+00 3.0031000000001772e+01 0 0 0
629 2 4.9220000000000006e+00 1.4208590124756650e+00 3.0031000000001772e+01 0 0 0
631 2 4.9220000000000006e+00 0.0000000000000000e+00 3.0031000000001772e+01 0 0 0
654 2 6.1524999999999999e+00 3.5521475311891644e+00 3.0031000000001772e+01 0 0 0
656 2 6.1524999999999999e+00 2.1312885187134989e+00 3.0031000000001772e+01 0 0 0
658 2 7.3829999999999991e+00 1.4208590124756659e+00 3.0031000000001772e+01 0 0 0
660 2 7.3829999999999991e+00 0.0000000000000000e+00 3.0031000000001772e+01 0 0 0
691 2 8.6134999999999984e+00 3.5521475311891657e+00 3.0031000000001772e+01 0 0 0
693 2 8.6134999999999984e+00 2.1312885187135002e+00 3.0031000000001772e+01 0 0 0
695 2 9.8440000000000012e+00 1.4208590124756659e+00 3.0031000000001772e+01 0 0 0
697 2 9.8440000000000012e+00 0.0000000000000000e+00 3.0031000000001772e+01 0 0 0
736 2 1.1074500000000002e+01 3.5521475311891644e+00 3.0031000000001772e+01 0 0 0
738 2 1.1074500000000002e+01 2.1312885187135002e+00 3.0031000000001772e+01 0 0 0
600 2 0.0000000000000000e+00 5.6834360499026637e+00 3.0031000000001772e+01 0 0 0
602 2 0.0000000000000000e+00 4.2625770374269996e+00 3.0031000000001772e+01 0 0 0
617 2 1.2305000000000001e+00 7.8147245686161639e+00 3.0031000000001772e+01 0 0 0
619 2 1.2305000000000001e+00 6.3938655561404980e+00 3.0031000000001772e+01 0 0 0
621 2 2.4610000000000003e+00 5.6834360499026637e+00 3.0031000000001772e+01 0 0 0
623 2 2.4610000000000003e+00 4.2625770374269996e+00 3.0031000000001772e+01 0 0 0
646 2 3.6914999999999996e+00 7.8147245686161639e+00 3.0031000000001772e+01 0 0 0
648 2 3.6914999999999996e+00 6.3938655561404980e+00 3.0031000000001772e+01 0 0 0
650 2 4.9220000000000006e+00 5.6834360499026637e+00 3.0031000000001772e+01 0 0 0
652 2 4.9220000000000006e+00 4.2625770374269978e+00 3.0031000000001772e+01 0 0 0
683 2 6.1524999999999999e+00 7.8147245686161639e+00 3.0031000000001772e+01 0 0 0
685 2 6.1524999999999999e+00 6.3938655561404980e+00 3.0031000000001772e+01 0 0 0
687 2 7.3829999999999991e+00 5.6834360499026637e+00 3.0031000000001772e+01 0 0 0
689 2 7.3829999999999991e+00 4.2625770374269996e+00 3.0031000000001772e+01 0 0 0
728 2 8.6135000000000002e+00 7.8147245686161639e+00 3.0031000000001772e+01 0 0 0
730 2 8.6135000000000002e+00 6.3938655561404980e+00 3.0031000000001772e+01 0 0 0
732 2 9.8440000000000012e+00 5.6834360499026637e+00 3.0031000000001772e+01 0 0 0
734 2 9.8440000000000012e+00 4.2625770374270004e+00 3.0031000000001772e+01 0 0 0
775 2 1.1074500000000002e+01 7.8147245686161639e+00 3.0031000000001772e+01 0 0 0
777 2 1.1074500000000002e+01 6.3938655561404980e+00 3.0031000000001772e+01 0 0 0
613 2 0.0000000000000000e+00 9.9460130873296642e+00 3.0031000000001772e+01 0 0 0
615 2 0.0000000000000000e+00 8.5251540748539991e+00 3.0031000000001772e+01 0 0 0
638 2 1.2305000000000001e+00 1.2077301606043163e+01 3.0031000000001772e+01 0 0 0
640 2 1.2305000000000001e+00 1.0656442593567498e+01 3.0031000000001772e+01 0 0 0
642 2 2.4610000000000003e+00 9.9460130873296642e+00 3.0031000000001772e+01 0 0 0
644 2 2.4610000000000003e+00 8.5251540748539991e+00 3.0031000000001772e+01 0 0 0
675 2 3.6914999999999996e+00 1.2077301606043163e+01 3.0031000000001772e+01 0 0 0
677 2 3.6914999999999996e+00 1.0656442593567499e+01 3.0031000000001772e+01 0 0 0
679 2 4.9220000000000006e+00 9.9460130873296642e+00 3.0031000000001772e+01 0 0 0
681 2 4.9220000000000006e+00 8.5251540748539991e+00 3.0031000000001772e+01 0 0 0
720 2 6.1524999999999999e+00 1.2077301606043163e+01 3.0031000000001772e+01 0 0 0
722 2 6.1524999999999999e+00 1.0656442593567499e+01 3.0031000000001772e+01 0 0 0
724 2 7.3830000000000009e+00 9.9460130873296642e+00 3.0031000000001772e+01 0 0 0
726 2 7.3830000000000009e+00 8.5251540748539991e+00 3.0031000000001772e+01 0 0 0
767 2 8.6135000000000002e+00 1.2077301606043163e+01 3.0031000000001772e+01 0 0 0
769 2 8.6134999999999984e+00 1.0656442593567498e+01 3.0031000000001772e+01 0 0 0
771 2 9.8440000000000012e+00 9.9460130873296642e+00 3.0031000000001772e+01 0 0 0
773 2 9.8440000000000012e+00 8.5251540748539956e+00 3.0031000000001772e+01 0 0 0
814 2 1.1074500000000002e+01 1.2077301606043163e+01 3.0031000000001772e+01 0 0 0
816 2 1.1074500000000002e+01 1.0656442593567498e+01 3.0031000000001772e+01 0 0 0
634 2 0.0000000000000000e+00 1.4208590124756663e+01 3.0031000000001772e+01 0 0 0
636 2 0.0000000000000000e+00 1.2787731112280996e+01 3.0031000000001772e+01 0 0 0
669 2 1.2305000000000001e+00 1.4919019630994494e+01 3.0031000000001772e+01 0 0 0
671 2 2.4610000000000003e+00 1.4208590124756663e+01 3.0031000000001772e+01 0 0 0
673 2 2.4610000000000003e+00 1.2787731112280996e+01 3.0031000000001772e+01 0 0 0
714 2 3.6915000000000004e+00 1.4919019630994494e+01 3.0031000000001772e+01 0 0 0
716 2 4.9220000000000006e+00 1.4208590124756663e+01 3.0031000000001772e+01 0 0 0
718 2 4.9220000000000006e+00 1.2787731112280996e+01 3.0031000000001772e+01 0 0 0
761 2 6.1524999999999990e+00 1.4919019630994494e+01 3.0031000000001772e+01 0 0 0
763 2 7.3830000000000009e+00 1.4208590124756663e+01 3.0031000000001772e+01 0 0 0
765 2 7.3829999999999991e+00 1.2787731112280996e+01 3.0031000000001772e+01 0 0 0
812 2 9.8440000000000012e+00 1.2787731112280996e+01 3.0031000000001772e+01 0 0 0
848 2 1.1074500000000002e+01 1.6339878643470161e+01 3.0031000000001772e+01 0 0 0
810 2 9.8440000000000012e+00 1.4208590124756663e+01 3.0031000000001772e+01 0 0 0
808 2 8.6135000000000002e+00 1.4919019630994494e+01 3.0031000000001772e+01 0 0 0
850 2 1.1074500000000002e+01 1.4919019630994494e+01 3.0031000000001772e+01 0 0 0
852 2 1.2304999999999998e+01 1.4208590124756658e+01 3.0031000000001772e+01 0 0 0
923 2 0.0000000000000000e+00 2.8417180249513345e+00 3.3408037233833909e+01 0 0 0
924 2 0.0000000000000000e+00 0.0000000000000000e+00 3.3408037233833909e+01 0 0 0
925 2 1.2305000000000001e+00 7.1042950623783474e-01 3.3408037233833909e+01 0 0 0
929 2 1.2305000000000001e+00 2.1312885187134998e+00 3.3408037233833909e+01 0 0 0
930 2 2.4610000000000003e+00 2.8417180249513345e+00 3.3408037233833909e+01 0 0 0
931 2 2.4610000000000003e+00 0.0000000000000000e+00 3.3408037233833909e+01 0 0 0
932 2 3.6915000000000004e+00 7.1042950623783474e-01 3.3408037233833909e+01 0 0 0
940 2 3.6914999999999996e+00 2.1312885187134998e+00 3.3408037233833909e+01 0 0 0
529 1 1.7278811106716634e+00 6.0563447145815692e+00 3.5924672897888385e+01 0 -1 -1
988 2 6.1524999999999990e+00 1.3498160618518829e+01 3.3408037233833909e+01 0 0 0
941 2 4.9220000000000006e+00 2.8417180249513332e+00 3.3408037233833909e+01 0 0 0
942 2 4.9220000000000006e+00 0.0000000000000000e+00 3.3408037233833909e+01 0 0 0
943 2 6.1524999999999999e+00 7.1042950623783407e-01 3.3408037233833909e+01 0 0 0
955 2 6.1524999999999999e+00 2.1312885187134989e+00 3.3408037233833909e+01 0 0 0
956 2 7.3829999999999991e+00 2.8417180249513345e+00 3.3408037233833909e+01 0 0 0
957 2 7.3829999999999991e+00 0.0000000000000000e+00 3.3408037233833909e+01 0 0 0
958 2 8.6134999999999984e+00 7.1042950623783407e-01 3.3408037233833909e+01 0 0 0
974 2 8.6134999999999984e+00 2.1312885187135002e+00 3.3408037233833909e+01 0 0 0
975 2 9.8440000000000012e+00 2.8417180249513332e+00 3.3408037233833909e+01 0 0 0
976 2 9.8440000000000012e+00 0.0000000000000000e+00 3.3408037233833909e+01 0 0 0
977 2 1.1074500000000002e+01 7.1042950623783330e-01 3.3408037233833909e+01 0 0 0
997 2 1.1074500000000002e+01 2.1312885187135002e+00 3.3408037233833909e+01 0 0 0
926 2 0.0000000000000000e+00 7.1042950623783341e+00 3.3408037233833909e+01 0 0 0
927 2 0.0000000000000000e+00 4.2625770374269996e+00 3.3408037233833909e+01 0 0 0
928 2 1.2305000000000001e+00 4.9730065436648339e+00 3.3408037233833909e+01 0 0 0
936 2 1.2305000000000001e+00 6.3938655561404980e+00 3.3408037233833909e+01 0 0 0
937 2 2.4610000000000003e+00 7.1042950623783341e+00 3.3408037233833909e+01 0 0 0
938 2 2.4610000000000003e+00 4.2625770374269996e+00 3.3408037233833909e+01 0 0 0
939 2 3.6914999999999996e+00 4.9730065436648339e+00 3.3408037233833909e+01 0 0 0
951 2 3.6914999999999996e+00 6.3938655561404980e+00 3.3408037233833909e+01 0 0 0
1035 2 9.8440000000000012e+00 1.2787731112280996e+01 3.3408037233833909e+01 0 0 0
952 2 4.9220000000000006e+00 7.1042950623783341e+00 3.3408037233833909e+01 0 0 0
953 2 4.9220000000000006e+00 4.2625770374269978e+00 3.3408037233833909e+01 0 0 0
954 2 6.1524999999999999e+00 4.9730065436648339e+00 3.3408037233833909e+01 0 0 0
970 2 6.1524999999999999e+00 6.3938655561404980e+00 3.3408037233833909e+01 0 0 0
971 2 7.3830000000000009e+00 7.1042950623783341e+00 3.3408037233833909e+01 0 0 0
972 2 7.3829999999999991e+00 4.2625770374269996e+00 3.3408037233833909e+01 0 0 0
1011 2 7.3829999999999991e+00 1.2787731112280996e+01 3.3408037233833909e+01 0 0 0
973 2 8.6135000000000002e+00 4.9730065436648339e+00 3.3408037233833909e+01 0 0 0
993 2 8.6135000000000002e+00 6.3938655561404980e+00 3.3408037233833909e+01 0 0 0
994 2 9.8440000000000012e+00 7.1042950623783341e+00 3.3408037233833909e+01 0 0 0
995 2 9.8440000000000012e+00 4.2625770374270004e+00 3.3408037233833909e+01 0 0 0
996 2 1.1074500000000002e+01 4.9730065436648339e+00 3.3408037233833909e+01 0 0 0
1017 2 1.1074500000000002e+01 6.3938655561404980e+00 3.3408037233833909e+01 0 0 0