
# Create simulation box and atoms

read_data data.graphite_ML_1atm_e
  orthogonal box = (0 0 0.848635) to (49.22 49.0196 59.2134)
  4 by 3 by 5 MPI processor grid
  reading atoms ...
  6589 atoms
  reading velocities ...
  6589 velocities
group water type 1
3829 atoms in group water
group graphite type 2
2760 atoms in group graphite

# Define potential

pair_style sw
pair_coeff * * MLC_e.sw mW C


# Fix graphite atoms in place

fix 5 graphite setforce 0.0 0.0 0.0
velocity graphite set 0.0 0.0 0.0


# Equilibration of molecular water

# Add velocity/set timestep

velocity	    water create ${TEMP} ${SEED} rot yes dist gaussian
velocity	    water create 230 ${SEED} rot yes dist gaussian
velocity	    water create 230 18171 rot yes dist gaussian
timestep	    5.0

# Define output

compute			1 water msd
compute			3 water temp
thermo	    	50
thermo_style	custom step temp press vol etotal ke pe c_1[4] c_3

# Neighbor lists

neigh_modify    delay 0 every 1 check yes

# Set fixes

fix             1 water momentum 10 linear 1 1 1 rescale
fix             2 water nve
fix             3 water temp/csvr ${TEMP} ${TEMP} 500.0 ${SEED}
fix             3 water temp/csvr 230 ${TEMP} 500.0 ${SEED}
fix             3 water temp/csvr 230 230 500.0 ${SEED}
fix             3 water temp/csvr 230 230 500.0 18171
fix             4 water press/berendsen z ${PRES} ${PRES} 1000.0 modulus 20000
fix             4 water press/berendsen z 1 ${PRES} 1000.0 modulus 20000
fix             4 water press/berendsen z 1 1 1000.0 modulus 20000

# Run 0.5 ns equilibration

dump		    1 all atom 2000 ${DIR}/eq.${NAME}-${TEMP}.dump
dump		    1 all atom 2000 run_3/eq.${NAME}-${TEMP}.dump
dump		    1 all atom 2000 run_3/eq.het_freeze_3-${TEMP}.dump
dump		    1 all atom 2000 run_3/eq.het_freeze_3-230.dump

reset_timestep  0

run	            100000
Neighbor list info ...
  update every 1 steps, delay 0 steps, check yes
  max neighbors/atom: 2000, page size: 100000
  master list distance cutoff = 7.76
  ghost atom cutoff = 7.76
  binsize = 3.88, bins = 13 13 16
  1 neighbor lists, perpetual/occasional/extra = 1 0 0
  (1) pair sw, perpetual
      attributes: full, newton on
      pair build: full/bin/atomonly
      stencil: full/bin/3d
      bin: standard
Per MPI rank memory allocation (min/avg/max) = 4.091 | 4.192 | 4.513 Mbytes
Step Temp Press Volume TotEng KinEng PotEng c_1[4] c_3 
       0    133.64299   -536.31266     140819.3   -33204.401    2624.4244   -35828.825            0          230 
      50    182.95092   -675.92251    140376.59   -33648.708    3592.7128   -37241.421   0.80539009    314.85911 
     100    173.82974   -795.43461    140016.56    -34018.39    3413.5948   -37431.985    1.7492381    299.16152 
     150    165.63242   -1416.4098     139511.4   -34381.748    3252.6194   -37634.368    2.5376027    285.05392 
     200    162.45492   -850.61327    138997.13   -34754.643     3190.221   -37944.864    3.3186662    279.58543 
     250    160.23307    -879.1922    138707.25   -34933.216    3146.5891   -38079.806    4.0022586    275.76161 
     300    155.62148   -866.44028    138325.69   -35100.796    3056.0288   -38156.825    4.6052037    267.82506 
     350     156.4171   -862.07354    137947.43   -35350.812    3071.6528   -38422.465    5.1244635    269.19432 
     400    150.06259   -828.21966    137626.18   -35557.829    2946.8657   -38504.695    5.7076585    258.25819 
     450    151.66802   -378.04567    137490.71   -35725.584    2978.3924   -38703.977    6.1466142    261.02114 
     500     143.0784   -688.50064     137303.6   -35871.353    2809.7131   -38681.066    6.6311794    246.23838 
     550    142.66633   -472.43508    137034.86    -35990.04     2801.621   -38791.661    7.1298381     245.5292 
     600    142.17606   -364.04374    136867.21     -36032.4    2791.9933   -38824.393    7.5309666    244.68545 
     650    142.62216   -412.43761    136798.03    -36111.94    2800.7536   -38912.693    7.9625045    245.45318 
     700    139.22593   -364.87071    136586.77   -36200.465    2734.0598   -38934.524    8.4842001    239.60825 
     750    140.11851   -467.72725    136470.07   -36278.387    2751.5879   -39029.975    8.8209838    241.14439 
     800    138.72076   -597.79127    136379.73   -36384.204    2724.1396   -39108.344     9.175947    238.73887 
     850     136.3845   -551.44316    136283.72   -36457.826    2678.2611   -39136.087    9.5211329    234.71815 
     900    136.70449   -181.82799    136362.31   -36457.406    2684.5448   -39141.951    9.7069315    235.26885 
     950    133.86847   -352.65166    136327.69   -36551.107    2628.8524   -39179.959    9.9299699    230.38806 
    1000    136.27902   -91.455956    136335.05   -36562.989    2676.1898   -39239.179    10.069145    234.53663 
    1050    135.43306   -477.46722    136345.96   -36564.726    2659.5771   -39224.304    10.287722    233.08073 
    1100    138.98357    -454.9979    136261.56   -36632.963    2729.3005   -39362.264    10.495635    239.19116 
    1150    134.32404    45.791675    136288.09   -36645.234    2637.7987   -39283.033    10.754544     231.1721 
    1200    135.88776   -348.92258    136406.18   -36692.957    2668.5063   -39361.463    11.024168    233.86326 
    1250    136.14777   -350.93262    136350.47   -36709.092    2673.6123   -39382.704    11.245755    234.31074 
    1300    137.70512    -39.66872    136348.56   -36708.101    2704.1948   -39412.296    11.459581    236.99094 
    1350    137.87512   -186.50754    136362.22   -36715.834    2707.5332   -39423.367    11.659469    237.28351 
    1400    135.21813   -31.362084    136342.46   -36727.875    2655.3563   -39383.232    11.939253    232.71082 
    1450    135.08251   -220.19434    136343.06    -36696.35    2652.6931   -39349.043    12.205611    232.47742 
    1500    134.56451   -271.01163    136256.74   -36749.432    2642.5209   -39391.953    12.472077    231.58594 
    1550     134.2139    -258.3596    136149.33   -36828.864    2635.6357     -39464.5    12.707396    230.98254 
    1600    135.70805   -375.56735    136062.19     -36861.7    2664.9773   -39526.677    13.053287    233.55398 
    1650    133.14736   -273.52731    136026.29   -36876.953    2614.6914   -39491.644    13.332978    229.14702 
    1700    134.13151   -271.96143    135974.43   -36859.533    2634.0178   -39493.551    13.519233    230.84075 
    1750    133.26846   -254.70792    135974.14   -36837.122    2617.0695   -39454.192    13.770263    229.35543 
    1800    137.11337    2.0900893    135915.66    -36832.25    2692.5743   -39524.824     14.04861    235.97254 
    1850    134.36277   -91.366408    135941.97   -36806.274    2638.5592   -39444.833    14.270909    231.23875 
    1900    135.81048   -422.83796    135929.92   -36845.781    2666.9887    -39512.77    14.310778    233.73026 
    1950    134.81375   -488.27888    135788.89   -36839.022    2647.4154   -39486.438    14.474523    232.01489 
    2000    133.23427   -68.344291    135690.04   -36878.084    2616.3982   -39494.482    14.727804     229.2966 
    2050     132.5608   -104.44583    135629.15   -36863.863    2603.1728   -39467.036    15.005748    228.13755 
    2100    132.26409   -125.96362     135595.2   -36928.482    2597.3462   -39525.828    15.168907    227.62691 
    2150    134.29471   -113.01294    135622.56   -36908.561    2637.2226   -39545.784    15.304314    231.12161 
    2200    133.54371   -203.76847    135679.75   -36915.057    2622.4747   -39537.532      15.4884    229.82914 
    2250    133.73341   -139.65131    135792.18   -36926.059    2626.2001    -39552.26    15.466094    230.15562 
    2300    134.57665    65.917464    135848.13   -36906.868    2642.7592   -39549.627    15.701326    231.60683 
    2350    134.20548   -45.138522    135811.49   -36941.432    2635.4704   -39576.903    15.942294    230.96805 
    2400    131.65644     51.61238    135877.71   -36915.584    2585.4135   -39500.998    16.089878    226.58115 
    2450    132.37373   -90.235968    135925.94   -36933.105    2599.4992   -39532.604    16.348834     227.8156 
    2500    134.98274    71.133954    136001.47   -36911.212     2650.734   -39561.946    16.463631    232.30573 
    2550     135.9944     251.1708     136162.9    -36951.44    2670.6004   -39622.041    16.531935    234.04678 
    2600    133.96749   -154.68166    136192.57    -37012.54    2630.7968   -39643.337    16.679274    230.55847 
    2650    134.32154   -175.95437    136226.61   -36996.685    2637.7496   -39634.434    16.781164     231.1678 
    2700    134.09488    95.485997    136255.57   -36987.844    2633.2985   -39621.143    16.901082    230.77771 
    2750    132.84443    -110.7337    136373.32   -36991.355    2608.7427   -39600.098    16.955531    228.62568 
    2800    134.65961   -457.09827    136429.13   -37012.266    2644.3884   -39656.655    17.121013    231.74961 
    2850    133.42215   -217.73194    136536.42   -36989.725    2620.0878   -39609.813    17.330197    229.61994 
    2900    132.85404   -230.73786    136532.61   -36972.727    2608.9313   -39581.658    17.432707    228.64221 
    2950    136.06511   -224.28331    136496.24   -36996.131     2671.989    -39668.12    17.536466    234.16848 
    3000    133.12999   -131.72627    136468.24   -37038.493    2614.3503   -39652.843    17.795102    229.11712 
    3050    131.60791    -304.6376    136477.81   -37041.188    2584.4604   -39625.649    17.932449    226.49762 
    3100    131.44767   -24.907396    136550.84   -37052.695    2581.3137   -39634.009    17.968823    226.22185 
    3150    133.21934   -331.81335    136584.45    -37059.14     2616.105   -39675.245    18.244799     229.2709 
    3200    134.41541   -181.57704    136541.78   -37000.063    2639.5929   -39639.656    18.556859    231.32934 
    3250    130.24943   -420.90022    136513.86   -37029.962    2557.7832   -39587.745    18.763681    224.15968 
    3300    132.87561   -569.17418    136437.27   -37078.859    2609.3549   -39688.214    18.877288    228.67934 
    3350    132.30845   -460.83422    136459.12   -37092.595    2598.2173   -39690.812    18.901401    227.70326 
    3400    132.24646   -281.24662    136451.94   -37074.288    2596.9999   -39671.287    19.111307    227.59656 
    3450    134.93311   -279.01041    136448.93   -37037.339    2649.7593   -39687.098    19.263635    232.22031 
    3500    133.42912   -134.68504    136508.83   -37050.582    2620.2245   -39670.807    19.422759    229.63193 
    3550    135.46412   -167.72746    136596.46   -37043.686    2660.1871   -39703.873    19.546584    233.13418 
    3600      133.831   -331.59412    136612.74   -36990.683    2628.1165   -39618.799    19.580053    230.32357 
    3650    135.65084   -387.49327    136552.53   -37022.372    2663.8537   -39686.225    19.683401    233.45552 
    3700    132.78279   -178.74365    136583.79   -37021.462    2607.5321   -39628.995    20.019872    228.51959 
    3750    132.83011    106.57248    136633.85   -37083.856    2608.4616   -39692.318     20.14861    228.60104 
    3800    133.75918   -256.24504    136600.18   -37077.736    2626.7061   -39704.443    20.261631    230.19997 
    3850    137.08235    -333.9296    136576.34   -37061.573    2691.9651   -39753.539     20.39584    235.91915 
    3900    135.15041   -176.80752    136582.09   -37062.034    2654.0265   -39716.061    20.433082    232.59428 
    3950    131.75046   -367.41792    136540.47   -37087.594    2587.2598   -39674.854    20.678872    226.74295 
    4000    134.28209   -132.12856    136520.78   -37124.972    2636.9749   -39761.947     20.93564     231.0999 
    4050    131.29448   -89.241845    136557.36   -37149.099    2578.3054   -39727.404    20.919277    225.95821 
    4100    131.27166   -204.03975    136570.64   -37200.552    2577.8573   -39778.409    21.026454    225.91894 
    4150    131.31908   -152.42101    136552.54   -37216.585    2578.7885   -39795.374    21.359176    226.00055 
    4200    128.59321   -177.63419    136589.11    -37252.32     2525.259   -39777.579    21.479658    221.30932 
    4250    131.61709    -130.5363    136659.14   -37192.858    2584.6407   -39777.499    21.618873    226.51343 
    4300    135.92495   -183.30698    136734.48   -37124.729    2669.2366   -39793.966    21.744385    233.92726 
    4350    134.27095   -159.41664    136769.04   -37088.486     2636.756   -39725.242    21.980198    231.08072 
    4400    136.31926   -59.291289    136777.95   -37106.605    2676.9799   -39783.585    22.164743    234.60587 
    4450    134.51816   -382.96443    136787.17   -37064.302    2641.6107   -39705.912    22.404609    231.50618 
    4500    131.64635   -127.00775    136774.62   -37068.199    2585.2154   -39653.415    22.605036    226.56379 
    4550    135.55463   -111.74057    136802.52   -37093.858    2661.9644   -39755.822    22.710711    233.28994 
    4600    131.68273   -246.09914    136781.42   -37099.209    2585.9296   -39685.138    22.852001    226.62638 
    4650    133.46441   -131.26069    136708.76   -37076.542    2620.9176    -39697.46    23.036583    229.69267 
    4700    134.49405   -204.71377    136742.05   -37115.671    2641.1372   -39756.808    23.137886    231.46468 
    4750    132.10258   -349.87329    136664.98   -37091.519    2594.1746   -39685.693    23.257588    227.34896 
    4800    131.37974   -272.74889    136615.94    -37097.62    2579.9797   -39677.599     23.33203    226.10495 
    4850    132.65372   -248.57991    136647.75     -37119.9    2604.9976   -39724.898    23.447034    228.29747 
    4900    130.74186   -338.74579    136637.48   -37135.378    2567.4533   -39702.832    23.523123    225.00715 
    4950    133.67069   -404.65891    136509.53   -37148.884    2624.9683   -39773.853    23.726564    230.04767 
    5000    132.00957   -278.82797    136477.89   -37174.218     2592.348   -39766.566    23.947542    227.18888 
    5050    133.28613   -88.977953    136531.47   -37145.774    2617.4167   -39763.191     24.09878    229.38585 
    5100    133.80119   -238.51814    136583.56   -37142.719    2627.5311    -39770.25    24.207805    230.27227 
    5150     131.8274   -335.99921    136672.94   -37183.794    2588.7707   -39772.565    24.320909    226.87537 
    5200    133.95783   -4.9205568    136734.86   -37144.432    2630.6072   -39775.039    24.414052    230.54185 
    5250    131.68778   -349.70006    136710.93   -37115.989    2586.0289   -39702.017    24.475021    226.63509 
    5300    134.46292   -192.01664    136587.59   -37092.345     2640.526   -39732.871    24.793561    231.41112 
    5350    134.91391   -301.76883    136560.49   -37085.868    2649.3822    -39735.25    24.896675    232.18725 
    5400    133.67751   -179.20337    136552.15    -37066.88    2625.1023   -39691.982    25.198853    230.05941 
    5450    132.79518   -205.20887    136574.63   -37079.839    2607.7755   -39687.615    25.339379    228.54092 
    5500    134.95448     33.49389    136638.62   -37046.307    2650.1789   -39696.486    25.435528    232.25708 
    5550    135.90446   -159.91568    136707.42   -37004.094    2668.8342   -39672.928    25.582356      233.892 
    5600    133.97488   -202.71361    136706.32   -37011.856    2630.9419   -39642.798    25.695285    230.57118 
    5650    135.71192   -274.95015    136731.34   -36980.923    2665.0531   -39645.976    25.864624    233.56063 
    5700    136.35006   -319.66319    136678.59   -36992.499    2677.5847   -39670.083    26.099738    234.65888 
    5750    135.80232   -109.09245     136691.4   -37003.806    2666.8285   -39670.634    26.266974    233.71622 
    5800    136.96414   -357.32091    136709.66   -37014.068    2689.6438   -39703.712    26.557223    235.71571 
    5850    134.96394   -252.83066    136685.77   -37037.351    2650.3648   -39687.716    26.775223    232.27337 
    5900    133.35427   -154.24153    136656.45   -37045.059    2618.7548   -39663.813    26.925224    229.50312 
    5950    132.83233   -353.59149    136665.86   -37048.043    2608.5051   -39656.548    27.075052    228.60486 
    6000    134.12388   -232.26471    136610.93   -37053.308    2633.8679   -39687.176    27.129461    230.82761 
    6050    135.23359   -387.71898    136606.76   -37028.132    2655.6599   -39683.792    27.291167    232.73743 
    6100    134.51323   -262.13322    136536.48   -37013.478    2641.5139   -39654.992    27.465414     231.4977 
    6150    134.57516    32.679506    136559.01   -37012.616    2642.7301   -39655.346    27.554707    231.60428 
    6200    135.02925   -251.19618    136593.82   -36976.138    2651.6473   -39627.785    27.765522    232.38576 
    6250    132.77136   -221.20798    136566.79   -36962.494    2607.3077   -39569.801    27.874098    228.49992 
    6300    136.25296   -68.991412    136642.99   -36983.395    2675.6779   -39659.073    27.919773    234.49177 
    6350    133.64164   -177.49069    136708.17   -37023.921    2624.3979   -39648.319    28.078865    229.99768 
    6400     131.0411   -295.42881    136768.62   -37053.188    2573.3295   -39626.518    28.155873    225.52214 
    6450    134.11423   -87.169182    136698.23   -37047.304    2633.6785   -39680.983    28.388795    230.81101 
    6500    136.27481   -42.997605    136781.95   -37020.639     2676.107   -39696.746    28.616412    234.52938 
    6550    135.14677    14.574732    136925.05   -36970.998     2653.955   -39624.953    28.702928    232.58801 
    6600    136.88276   -133.06969    137008.33   -37007.813    2688.0456   -39695.859     28.83695    235.57565 
    6650    133.45244   -161.23198    137063.82   -37073.651    2620.6825   -39694.334    29.104827    229.67206 
    6700     132.5739   -306.12274    137067.04   -37036.811      2603.43   -39640.242    29.326633    228.16009 
    6750    134.73929   -188.91389    137070.65   -36986.233    2645.9531   -39632.187     29.44249    231.88674 
    6800    134.52371   -332.98286    137037.25   -37011.429    2641.7196   -39653.149    29.579018    231.51572 
    6850    133.24898   -295.58932    136917.33   -37014.475     2616.687   -39631.162    29.699341    229.32191 
    6900    133.89617   -272.37309     136909.9   -36993.412    2629.3963   -39622.808    29.907719    230.43573 
    6950    135.57698   -295.68411    136872.75   -37038.014    2662.4034   -39700.418    29.960182    233.32841 
    7000     133.4701   -76.052433    136903.94   -37063.481    2621.0293    -39684.51     30.06821    229.70246 
    7050    132.78701   -225.17789    136843.18   -37082.143    2607.6151   -39689.758    30.312342    228.52686 
    7100    130.72709   -221.41545    136841.97    -37038.03    2567.1633   -39605.193    30.490723    224.98174 
    7150    132.36971      -84.401     136940.2   -37053.203    2599.4204   -39652.624    30.678534    227.80869 
    7200    133.61996   -397.08136    136982.07   -37044.806    2623.9721   -39668.778    30.698731    229.96036 
    7250    135.12805   -161.80542    136989.01   -36961.153    2653.5875    -39614.74    30.836796     232.5558 
    7300    131.56787   -343.97817    136977.68   -36960.188    2583.6742   -39543.862    30.835871    226.42872 
    7350    131.71135   -303.36046    136978.55   -36971.014    2586.4917   -39557.506    31.030594    226.67565 
    7400    131.98524     -237.503    136947.39   -37008.377    2591.8703   -39600.248    31.117772    227.14702 
    7450    131.99268   -304.45024    136967.53   -37026.867    2592.0163   -39618.883    31.230571    227.15981 
    7500    134.05186   -271.09855    136889.56   -37011.541    2632.4537   -39643.995    31.457455    230.70368 
    7550    135.35286   -251.20574    136905.76    -36991.37    2658.0022   -39649.372    31.628413     232.9427 
    7600    134.48594   -348.84742    136890.77   -36959.517    2640.9779   -39600.495    31.793941    231.45072 
    7650    134.27414   -171.81142     136841.3   -36994.155    2636.8187   -39630.974    31.994707    231.08622 
    7700    135.97047   -260.81457    136898.98    -36929.71    2670.1305    -39599.84    32.146144    234.00561 
    7750    134.95492   -157.78708     136927.5   -36996.748    2650.1876   -39646.936     32.34396    232.25784 
    7800    132.42483   -167.10009    136964.59   -37014.841    2600.5028   -39615.344    32.450925    227.90355 
    7850    134.83218   -27.687613    137030.22   -36965.048    2647.7773   -39612.826    32.665873    232.04661 
    7900    133.28529   -344.28962    137123.15   -36969.268    2617.4001   -39586.668    32.904754    229.38441 
    7950    134.26879    -15.20951       137178   -36966.418    2636.7137   -39603.132    32.985724    231.07701 
    8000    133.20958   -207.67914       137228   -37031.104    2615.9134   -39647.017     33.16975    229.25411 
    8050    135.67998    82.351591    137291.51   -37049.403    2664.4261   -39713.829    33.287638    233.50568 
    8100    129.89659   -151.49253    137399.88   -37080.371    2550.8543   -39631.226    33.329932    223.55244 
    8150    132.37478    37.241366    137403.85   -37059.533    2599.5198   -39659.053    33.261206    227.81741 
    8200    135.12013   -327.57425    137393.24   -37095.114     2653.432   -39748.546    33.356408    232.54218 
    8250    134.80463   -195.68391    137400.78   -37068.261    2647.2363   -39715.498    33.525832     231.9992 
    8300    135.27422   -387.15733    137368.65   -37088.918    2656.4578   -39745.376    33.773305    232.80735 
    8350    133.40861   -218.58931    137299.65   -37093.983    2619.8219   -39713.805    34.067326    229.59664 
    8400     130.8959   -82.650502    137258.56    -37080.44    2570.4782   -39650.919    34.228248    225.27225 
    8450    132.16818    -387.2402    137244.21   -37138.142    2595.4627   -39733.605    34.261123    227.46185 
    8500    134.97521   -219.32438    137213.56   -37128.415     2650.586   -39779.001    34.241865    232.29275 
    8550    132.88888   -131.40636    137217.65   -37122.659    2609.6157   -39732.274    34.374574    228.70219 
    8600     131.8527   -441.89525    137149.95   -37123.063    2589.2675   -39712.331    34.651691    226.91891 
    8650    132.08975   -419.08107    137098.06   -37116.564    2593.9226   -39710.487    34.782862    227.32687 
    8700    134.17901   -259.07968    137061.33    -37159.31    2634.9506    -39794.26    35.079593     230.9225 
    8750    136.54849   -360.54145    137039.94    -37130.48    2681.4814   -39811.961    35.230837    235.00038 
    8800     131.0511   -239.28342    137064.27   -37121.703    2573.5261   -39695.229    35.443578    225.53936 
    8850    132.45868   -94.922637    137085.11   -37090.492    2601.1675   -39691.659    35.533207     227.9618 
    8900    132.86227   -362.15544    137164.72    -37105.84     2609.093   -39714.933    35.566727    228.65638 
    8950    134.32731    -156.5382    137117.44   -37119.946    2637.8628   -39757.808    35.603378    231.17771 
    9000    133.62182   -240.19623    137175.52   -37131.555    2624.0087   -39755.564    35.704995    229.96357 
    9050    133.14146   -68.601322    137197.55   -37108.563    2614.5755   -39723.138    35.832085    229.13686 
    9100    135.51048   -259.06356    137249.77   -37039.343    2661.0975   -39700.441    35.855499    233.21397 
    9150    134.98658   -315.47676    137313.71   -37092.033    2650.8093   -39742.842     35.94186    232.31232 
    9200    134.43733   -336.75589    137291.14   -37050.733    2640.0234   -39690.757    36.120535    231.36707 
    9250    137.38933   -345.94496     137232.9   -37020.955    2697.9935   -39718.949    36.347449    236.44747 
    9300    136.90482   -258.20073    137161.86   -37037.351    2688.4788    -39725.83    36.462148    235.61362 
    9350    134.20432    162.71136    137226.73   -37007.443    2635.4476    -39642.89    36.731195    230.96606 
    9400    133.14013    11.438354    137283.55   -37041.658    2614.5494   -39656.208    36.809582    229.13458 
    9450    132.32368   -252.27685    137430.42   -37063.555    2598.5164   -39662.072    37.008086    227.72947 
    9500    134.49275   -92.228774    137493.77   -37059.332    2641.1117   -39700.444     37.12157    231.46244 
    9550    134.51628   -21.750515    137565.69    -37081.96    2641.5737   -39723.533    37.304526    231.50294 
    9600    135.79209   -227.84483    137560.86   -37101.759    2666.6275   -39768.386    37.348159    233.69861 
    9650    135.63045   -246.83592    137526.55   -37137.729    2663.4534   -39801.182    37.413279    233.42044 
    9700    132.83995   -465.48215    137557.61   -37183.887    2608.6547   -39792.542    37.580914    228.61797 
    9750     133.6784   -249.78183    137423.16   -37218.654    2625.1198   -39843.773    37.658203    230.06094 
    9800    131.91346   -219.01752     137361.9   -37196.998    2590.4606   -39787.459    37.963591    227.02347 
    9850    129.67794   -340.95621    137287.29   -37177.952    2546.5604   -39724.512    38.151929    223.17614 
    9900    134.48135   -178.12056    137311.36   -37118.851    2640.8879   -39759.739    38.209072    231.44283 
    9950    133.66184   -271.01403    137379.96   -37188.071    2624.7947   -39812.865    38.229164    230.03245 
   10000    132.67884   -284.07502    137416.01   -37184.588    2605.4908   -39790.079    38.272083     228.3407 
   10050    131.71394   -183.84018    137439.82   -37179.646    2586.5426   -39766.188    38.343264     226.6801 
   10100     133.3124   -180.42351    137374.99   -37151.735    2617.9324   -39769.667    38.719598    229.43105 
   10150      133.177    -26.80775    137486.46   -37146.985    2615.2735   -39762.259    38.892959    229.19803 
   10200    134.32469   -300.67072    137576.36   -37165.974    2637.8114   -39803.785    38.936408    231.17322 
   10250    132.99429    -404.6028    137553.43   -37139.936    2611.6856   -39751.621    39.157366    228.88359 
   10300    132.46259   -206.59426    137544.99   -37126.919    2601.2442   -39728.163    39.312154    227.96852 
   10350    135.28624   -188.96982    137614.53   -37160.013    2656.6939   -39816.706    39.348144    232.82804 
   10400     133.3208    49.203881    137656.97   -37186.731    2618.0975   -39804.828    39.454672    229.44552 
   10450    135.35311   -322.26681    137683.78   -37210.119    2658.0071   -39868.126    39.605449    232.94313 
   10500    133.82964   -278.38332    137635.67   -37193.852    2628.0898   -39821.942    39.613958    230.32123 
   10550    134.19854     -233.198    137606.91   -37149.285    2635.3342    -39784.62    39.686945    230.95611 
   10600    133.35613    6.4294382    137565.58   -37177.163    2618.7912   -39795.954    39.720945    229.50632 
   10650    131.51095   -310.53374    137510.47   -37169.892    2582.5564   -39752.449    39.935568    226.33076 
   10700    133.43699   -248.45234    137450.44   -37145.995     2620.379   -39766.374     40.07784    229.64547 
   10750    133.41535   -282.19474     137349.8   -37131.753    2619.9542   -39751.707    40.202336    229.60824 
   10800    133.80266   -136.18538    137433.46   -37111.975    2627.5599   -39739.535    40.272429    230.27479 
   10850    134.34808   -159.72696    137435.45   -37100.578    2638.2708   -39738.849    40.381728    231.21347 
   10900    135.72943   -102.88882    137475.96   -37130.332    2665.3971   -39795.729    40.445479    233.59078 
   10950    131.59143   -399.22488    137546.58   -37203.273    2584.1367    -39787.41    40.499041    226.46926 
   11000    132.79955   -398.15321    137504.86   -37150.434    2607.8613   -39758.296    40.625068    228.54844 
   11050    133.95574   -372.33691    137527.54   -37131.331    2630.5662   -39761.897    40.720623    230.53825 
   11100    132.88345   -385.75818    137522.97   -37136.699    2609.5089   -39746.208    40.892208    228.69284 
   11150     136.1477   -152.99377    137567.04   -37107.635    2673.6108   -39781.246    41.050667    234.31061 
   11200    133.83545   -346.48355    137622.77   -37128.471    2628.2038   -39756.675    41.235806    230.33122 
   11250    135.89922    -118.7929    137575.86    -37081.52    2668.7314   -39750.251    41.378615    233.88299 
   11300    135.04596   -282.12182    137450.53   -37082.883    2651.9753   -39734.858    41.603867    232.41452 
   11350    131.21051   -249.86397    137515.55   -37056.569    2576.6565   -39633.225    41.628927    225.81371 
   11400    135.01305   -414.73459     137543.6   -37017.232    2651.3291   -39668.561    41.853685    232.35788 
   11450    135.49263   -237.37193    137580.73   -37007.751    2660.7469   -39668.498    42.014364    233.18324 
   11500    133.90673   -191.06056    137550.02   -37068.811    2629.6037   -39698.414    42.096394    230.45391 
   11550    133.26518   -341.31178    137580.35   -37022.795    2617.0051     -39639.8    42.072044    229.34979 
   11600    132.53386   -108.90932    137448.08   -37016.624    2602.6439   -39619.268    42.049721     228.0912 
   11650    132.95935   -301.03349    137463.76   -37056.427    2610.9994   -39667.427    42.184052    228.82346 
   11700    134.24458   -445.20659    137471.14   -37031.423    2636.2383   -39667.662    42.332149    231.03535 
   11750    134.87626   -280.54167    137446.82   -37023.171    2648.6429   -39671.814     42.50391    232.12246 
   11800    135.06805   -310.75991    137385.83    -36999.72    2652.4092   -39652.129    42.678824    232.45254 
   11850     133.6179   -354.54071    137366.18   -37006.588    2623.9317   -39630.519    42.902688    229.95682 
   11900    135.22402    -95.08629    137451.85     -37012.8    2655.4721   -39668.272    43.179419    232.72097 
   11950    133.72216   -279.55451    137463.13   -36997.698    2625.9792   -39623.677    43.400243    230.13626 
   12000    135.30215   -361.50731    137462.93   -37049.365    2657.0063   -39706.371    43.489399    232.85542 
   12050    133.66058   -203.76314    137407.22   -37059.389    2624.7698   -39684.159    43.612917    230.03027 
   12100    130.37392   -245.48658     137313.5   -37078.533    2560.2278   -39638.761    43.767894    224.37392 
   12150    134.71271   -110.31004    137355.24   -37084.543    2645.4312   -39729.974    43.781328      231.841 
   12200    134.20806   -92.259071    137325.48   -37064.405    2635.5211   -39699.927     43.98857     230.9725 
   12250    132.81188    -292.9615    137352.29   -37049.681    2608.1035   -39657.784    44.271424    228.56966 
   12300    133.42712   -26.331328    137372.07   -37092.021    2620.1854   -39712.206    44.554553     229.6285 
   12350    132.08233    50.699699    137397.32   -37107.703    2593.7768    -39701.48    44.630171     227.3141 
   12400    135.80255   -184.71386    137414.71   -37074.241    2666.8329   -39741.074     44.74965    233.71661 
   12450    134.53005   -188.27446    137336.34   -37098.404    2641.8442   -39740.248    44.752536    231.52664 
   12500    132.98329   -4.9175047    137318.81   -37084.858    2611.4696   -39696.327    44.827357    228.86467 
   12550    132.26774   -64.879039    137223.56    -37140.05    2597.4179   -39737.468    45.139064     227.6332 
   12600    130.90204    127.33763    137218.76   -37103.612    2570.5989   -39674.211    45.382391    225.28282 
   12650     131.9381   -413.82907    137126.58   -37080.428    2590.9446   -39671.372    45.746552    227.06589 
   12700     134.6608   -286.27252    136963.14   -37027.703    2644.4117   -39672.114    45.928855    231.75165 
   12750    132.63779   -274.38301    136954.33   -36987.118    2604.6847   -39591.803    46.033683    228.27005 
   12800    137.23821   -183.63925    136950.39   -36959.065    2695.0258   -39654.091    46.214079    236.18738 
   12850    135.23447   -125.90262    136982.31   -36994.696    2655.6774   -39650.373    46.454229    232.73895 
   12900    135.14726   -190.64883    137024.96   -37000.039    2653.9646   -39654.004    46.494054    232.58885 
   12950    134.77527   -60.346075    137166.76   -37005.776    2646.6598   -39652.435    46.420057    231.94867 
   13000    132.47924   -175.92806    137181.61   -37012.878    2601.5711   -39614.449    46.716266    227.99718 
   13050    134.35893   -357.89643    137079.26   -37028.971    2638.4838   -39667.455    46.795426    231.23214 
   13100    135.10138   -60.486939     137157.3   -37069.466    2653.0638   -39722.529    46.929832     232.5099 
   13150     134.6747   -401.71025    137174.96   -37106.176    2644.6847   -39750.861    47.019798    231.77558 
   13200    132.48505   -302.45399     137200.8   -37106.467    2601.6853   -39708.152    47.306217    228.00718 
   13250    133.89821   -102.24563    137184.02   -37126.396    2629.4363   -39755.832    47.451838    230.43923 
   13300    132.71874   -461.51346    137109.88   -37141.368    2606.2744   -39747.643     47.58877    228.40937 
   13350    132.15586   -184.63612     136999.5   -37111.476    2595.2208   -39706.697    47.634265    227.44065 
   13400    131.85048   -479.62404    136939.02   -37107.782    2589.2238   -39697.006    47.759453    226.91508 
   13450    133.68961   -530.73197    136836.94   -37098.912      2625.34   -39724.252    47.893851    230.08024 
   13500    133.08111   -355.49454    136767.93   -37157.311    2613.3905   -39770.701     48.15416    229.03301 
   13550    136.33648   -341.35507     136795.3   -37101.027    2677.3181   -39778.345    48.248247    234.63551 
   13600    136.16513   -407.87733    136771.35   -37109.357    2673.9532    -39783.31    48.399761    234.34062 
   13650    132.89691   -317.69237    136834.66   -37135.591    2609.7732   -39745.364    48.478056      228.716 
   13700      131.679   -109.17394    136821.66   -37136.025    2585.8565   -39721.881    48.570302    226.61998 
   13750    133.73981    14.274777    136785.49   -37044.223    2626.3258   -39670.549     48.87731    230.16663 
   13800    134.84579   -210.15185    136853.55    -37047.27    2648.0445   -39695.315    48.950421    232.07003 
   13850    135.94829   -325.98817    136863.29   -37074.575    2669.6949    -39744.27    49.268571    233.96743 
   13900    132.40368   -259.89343    136894.03   -37098.881    2600.0875   -39698.969    49.489081    227.86716 
   13950    134.13976   -244.45886    136931.34   -37084.154    2634.1799   -39718.334    49.737941    230.85495 
   14000     132.3986   -286.49967    137007.54   -37121.965    2599.9876   -39721.953    49.953066     227.8584 
   14050    136.66929   -164.66414    137094.25   -37046.333    2683.8536   -39730.186    50.314414    235.20827 
   14100    133.54983   -235.94466    137012.92   -37004.627     2622.595   -39627.221    50.582208    229.83967 
   14150    135.48343    -334.6482    136941.16   -37027.838    2660.5663   -39688.405    50.701071    233.16742 
   14200    134.01047   -370.31381    136898.59   -37091.144    2631.6408   -39722.785    50.821419    230.63244 
   14250    135.31201   -197.23066       136803   -37092.723       2657.2   -39749.923    50.943456    232.87239 
   14300     133.4812   -302.77887    136803.14   -37132.756    2621.2473   -39754.003    51.085081    229.72156 
   14350    130.81607   -180.87615    136854.98   -37163.494    2568.9106   -39732.405    51.193403    225.13486 
   14400    136.45762   -321.64006    136878.34   -37145.025    2679.6969   -39824.722    51.301051    234.84398 
   14450    130.73608   -34.924043    136913.93   -37151.931    2567.3399   -39719.271    51.474304    224.99721 
   14500    134.69947   -146.16608    136889.79   -37114.283    2645.1712   -39759.454    51.659515    231.81821 
   14550     134.3424   -317.13826    136895.68   -37110.582    2638.1593   -39748.741    51.877665     231.2037 
   14600    136.99914   -205.39063    136931.15   -37082.499    2690.3311    -39772.83    51.976069    235.77595 
   14650    133.86833   -115.90437    136916.62   -37097.314    2628.8496   -39726.164    52.085505    230.38782 
   14700    133.34462   -18.368397    136974.18    -37069.64    2618.5652   -39688.205    52.238981    229.48651 
   14750    131.98355   -121.08668    137038.59   -37130.683    2591.8371   -39722.521    52.097483    227.14411 
   14800    132.30377   -257.14113    137071.57   -37122.551    2598.1254   -39720.677    52.281342     227.6952 
   14850     131.7869   -255.28595    137039.87   -37085.177    2587.9753   -39673.152    52.298024    226.80566 
   14900    132.32145   -228.35526    136990.89   -37097.962    2598.4725   -39696.435    52.451296    227.72562 
   14950    132.07852    -129.0379    136967.59   -37108.056     2593.702   -39701.758    52.463444    227.30754 
   15000    132.54539   -418.01713    136886.35   -37133.982    2602.8703   -39736.852     52.74439    228.11103 
   15050    131.16049   -120.18663    136764.41   -37112.323    2575.6742   -39687.997     52.90188    225.72762 
   15100    130.79124   -285.52348    136691.09   -37127.676    2568.4229   -39696.099    52.837733    225.09213 
   15150    129.43039   -55.238458    136696.27   -37133.769    2541.6992   -39675.468    53.035981    222.75011 
   15200    130.64666   -130.48186    136769.31   -37093.035    2565.5838   -39658.618    53.189125    224.84331 
   15250     132.6092    -323.5316    136818.55   -37125.441    2604.1233   -39729.565    53.467465    228.22084 
   15300    131.43281   -103.30138    136827.17   -37094.709    2581.0218   -39675.731    53.435739    226.19627 
   15350    135.33308   -51.228825    136803.27   -36992.117    2657.6137    -39649.73    53.524475    232.90865 
   15400    133.44305    -38.38732     136738.1   -36986.513    2620.4982   -39607.012    53.712539    229.65591 
   15450    134.09005   -330.42437    136733.88   -37011.097    2633.2036     -39644.3    54.006129    230.76939 
   15500    131.26921   -393.22083    136620.83    -37032.61    2577.8092   -39610.419    54.280582    225.91472 
   15550    129.37045   -192.86775    136514.13   -37123.445    2540.5221   -39663.968    54.441038    222.64695 
   15600    133.62815   -368.01314    136477.82   -37090.524     2624.133   -39714.657     54.31394    229.97446 
   15650    136.18593   -143.73116    136468.17   -37084.645    2674.3616   -39759.007     54.40397    234.37641 
   15700    131.60359   -195.55034    136474.37   -37077.383    2584.3756   -39661.758    54.766128    226.49019 
   15750    133.05584   -500.93863    136417.61   -37055.085    2612.8943    -39667.98    55.059726    228.98952 
   15800    131.45786   -93.142795    136437.47   -37048.227    2581.5139   -39629.741    55.253466     226.2394 
   15850    133.84552   -272.93838     136388.1   -37102.021    2628.4016   -39730.422    55.437379    230.34856 
   15900     134.0273   -87.406343    136364.95    -37128.19    2631.9713   -39760.161     55.47473     230.6614 
   15950    132.21281   -298.40407    136433.91   -37144.903    2596.3393   -39741.243    55.739002    227.53867 
   16000    133.48597   -9.5219851    136405.56   -37104.911    2621.3409   -39726.252    55.718329    229.72977 
   16050    132.98415   -152.63281     136428.2   -37090.165    2611.4865   -39701.652     55.89246    228.86614 
   16100    134.47108   -340.19738    136331.35    -37080.04    2640.6861   -39720.726     56.18377    231.42515 
   16150    133.67879   -102.44794    136248.57   -37098.801    2625.1275   -39723.929    56.475733    230.06162 
   16200    137.21976   -316.60883    136239.21   -37031.725    2694.6635   -39726.388    56.499196    236.15563 
   16250    135.51381    118.92349    136343.42   -37007.679    2661.1628   -39668.842    56.685646    233.21969 
   16300    132.21077    5.2729567    136477.34   -37067.871    2596.2991    -39664.17    56.690947    227.53515 
   16350    134.70888   -181.67019    136433.18   -37060.564     2645.356    -39705.92    56.664036    231.83441 
   16400    134.94941   -26.878948    136423.51   -37012.831    2650.0794   -39662.911    56.920807    232.24836 
   16450    135.83176   -122.47832    136438.55   -36973.562    2667.4067   -39640.969    57.351817    233.76689 
   16500    135.72049   -128.28073    136447.11   -36947.899    2665.2215    -39613.12    57.457566    233.57539 
   16550    137.91085    127.92665    136461.11   -36975.692     2708.235   -39683.927    57.704029    237.34501 
   16600    134.62275    36.356169    136516.82   -36984.322    2643.6646   -39627.987    57.787819    231.68618 
   16650    133.85018   -137.03085    136483.54   -37011.371    2628.4931   -39639.864    57.938145    230.35658 
   16700    135.19062    83.396232    136540.84    -37030.64    2654.8161   -39685.457    58.011788    232.66348 
   16750    132.20645   -75.953655    136596.69   -37006.751    2596.2143   -39602.965    58.003105    227.52771 
   16800    135.39206    -81.59184    136615.27   -36990.704    2658.7719   -39649.476    58.272315    233.01015 
   16850    134.32432    100.94571    136572.61   -36977.647    2637.8042   -39615.451    58.398976    231.17258 
   16900     134.9507     62.66498    136585.79   -36979.111    2650.1047   -39629.216    58.670177    232.25058 
   16950    136.17252   -75.359068    136608.32   -36985.762    2674.0982    -39659.86    58.984618    234.35333 
   17000    136.63895    -234.3753    136645.61   -36980.029    2683.2579   -39663.287     58.99363    235.15606 
   17050     134.8425    -171.3244    136595.36   -36986.193    2647.9799   -39634.173    59.336945    232.06436 
   17100    135.83514   -173.01017    136610.11   -36967.079    2667.4729   -39634.551    59.548127     233.7727 
   17150    138.14418   -170.16077    136600.04   -37033.884    2712.8169   -39746.701    59.584623    237.74656 
   17200    133.94172   -370.77771     136595.6   -37065.496    2630.2908   -39695.787    59.693972    230.51412 
   17250    132.66891   -264.25457    136623.99   -37019.483    2605.2959   -39624.778    59.935955    228.32361 
   17300    133.78254    29.133461    136648.64   -37025.479    2627.1648   -39652.644    60.084395    230.24017 
   17350    134.42526    120.61517    136711.32   -37016.111    2639.7863   -39655.897    60.127613    231.34629 
   17400    133.63919   -75.886049    136745.31    -37007.49    2624.3498   -39631.839    60.334626    229.99346 
   17450    138.50057   -276.52587    136838.23   -36958.065    2719.8155    -39677.88    60.482036    238.35991 
   17500     132.3505   -428.97683    136825.81    -37001.95     2599.043   -39600.993    60.460762    227.77562 
   17550    134.02127   -208.85191    136810.63   -37005.494     2631.853   -39637.347    60.387811    230.65103 
   17600    133.95879    -226.2455    136866.22   -37022.177    2630.6259   -39652.803     60.52644    230.54349 
   17650    134.81044   -492.54978    136766.45   -37015.741    2647.3503   -39663.092    60.615163    232.00918 
   17700    132.49219   -348.22681    136682.12   -37018.415    2601.8255   -39620.241    60.867102    228.01947 
   17750        134.6    -192.8667    136632.68   -37006.016    2643.2178   -39649.234    61.170617    231.64702 
   17800    134.71366    120.42304    136735.15   -36983.405    2645.4497   -39628.855    61.331891    231.84262 
   17850    136.31995   -96.852661    136758.46   -36978.467    2676.9934   -39655.461    61.438601    234.60705 
   17900    136.64922   -699.46591    136632.44   -36966.861    2683.4595    -39650.32    61.650682    235.17374 
   17950    137.56809   -105.18924     136538.3   -36999.677    2701.5038   -39701.181    61.908301    236.75511 
   18000    134.17316    88.863607    136677.13   -37018.981    2634.8358   -39653.817    61.997698    230.91244 
   18050    135.79515   -98.804863    136745.28   -36974.312    2666.6876       -39641    62.105007    233.70387 
   18100    131.94248   -131.47126    136766.29   -37061.613    2591.0306   -39652.643    62.232946    227.07342 
   18150    132.04232   -226.02889     136748.5   -37091.422    2592.9911   -39684.413    62.495741    227.24524 
   18200    132.16736   -231.44035    136730.69   -37039.053    2595.4466   -39634.499    62.805135    227.46044 
   18250    135.80407   -161.04255     136802.6   -37022.973    2666.8627   -39689.836    62.911581    233.71922 
   18300    134.91078   -189.27102    136911.39   -37014.525    2649.3208   -39663.846    63.065132    232.18188 
   18350    132.37009     5.103379    136904.59   -37067.821    2599.4278   -39667.249    63.081409    227.80935 
   18400    132.17939   -323.37239    136887.26   -37122.033    2595.6829   -39717.716    63.353179    227.48115 
   18450    131.71265   -286.86587    136862.46   -37115.192    2586.5172    -39701.71    63.600371    226.67788 
   18500    133.28673   -178.90807     136873.6   -37137.838    2617.4283   -39755.267    63.965577    229.38687 
   18550     132.1765   -295.69212    136823.85   -37156.651    2595.6261   -39752.277    64.295354    227.47617 
   18600    132.66644   -133.24587    136854.24    -37159.35    2605.2473   -39764.597    64.204954    228.31935 
   18650    133.52531   -120.96919    136882.05   -37133.712    2622.1135   -39755.826    64.222898    229.79747 
   18700    131.37231   -317.38427    136892.15   -37167.303    2579.8338   -39747.137    64.411961    226.09216 
   18750     130.7007   -263.62511    136902.01    -37099.59     2566.645   -39666.235    64.477225    224.93632 
   18800    132.25067   -107.95564    136920.71   -37114.659    2597.0826   -39711.741    64.632743    227.60381 
   18850     135.1417   -289.87876    136955.43   -37072.955    2653.8554    -39726.81    64.867956    232.57929 
   18900    137.04154   -151.90547     137027.7     -37018.5    2691.1638   -39709.664    64.952751    235.84892 
   18950    135.55615   -457.92845    137053.42    -37009.72    2661.9943   -39671.714    65.064597    233.29256 
   19000    133.07655   -380.08841     137025.3   -37011.378    2613.3009   -39624.679    65.298394    229.02516 
   19050    134.89195   -462.19184    136874.98   -37011.918    2648.9511   -39660.869    65.409933    232.14947 
   19100    135.26989   -180.49647    136798.24   -36989.135    2656.3729   -39645.508    65.637735    232.79991 
   19150    132.93916   -130.30849     136786.1   -37025.692    2610.6029   -39636.295    65.982011    228.78871 
   19200    131.81607   -404.60865    136674.77    -37039.99    2588.5482   -39628.538    66.046276    226.85587 
   19250    134.50666   -321.30644    136607.77   -37027.054    2641.3848   -39668.438    66.369491    231.48638 
   19300    133.58278   -377.12249    136572.13   -36983.715    2623.2421   -39606.958    66.626835    229.89639 
   19350    133.49429   -369.55521    136433.51   -36919.492    2621.5044   -39540.996    66.784552    229.74409 
   19400    134.42753   -400.21202    136438.39   -36900.001    2639.8309   -39539.832     67.04509     231.3502 
   19450    136.63362   -108.40796    136477.03   -36872.552    2683.1531   -39555.705    67.129149    235.14688 
   19500    133.35983   -305.41685    136491.44   -36984.584    2618.8639   -39603.448    67.310141    229.51269 
   19550    132.67346   -175.10591    136491.04   -37030.472    2605.3853   -39635.857    67.717565    228.33145 
   19600    136.19403   -173.25333    136569.83   -36949.393    2674.5207   -39623.913    67.927987    234.39036 
   19650    135.87463   -321.34956    136613.92   -36946.061    2668.2484    -39614.31    67.985465    233.84066 
   19700    136.65005   -271.53778    136647.49   -36928.893    2683.4758   -39612.369    68.001022    235.17516 
   19750    134.43983   -267.12798    136639.47   -37034.866    2640.0724   -39674.938     68.06955    231.37137 
   19800    135.47605   -447.64699    136683.26   -36999.374    2660.4213   -39659.795    68.089715    233.15471 
   19850    134.49215   -300.50885    136664.01   -36999.929    2641.0998   -39641.029    68.419158    231.46141 
   19900    134.75745   -374.57858    136636.56   -36989.491    2646.3098     -39635.8    68.653373      231.918 
   19950      135.255   -100.35759    136668.52   -37026.032    2656.0804   -39682.113    68.867533    232.77428 
   20000    132.07281   -420.06257    136660.86   -37086.921    2593.5899   -39680.511    68.998978    227.29772 
   20050    130.55641   -160.97652    136649.56   -37111.988    2563.8114   -39675.799    69.089891    224.68798 
   20100    132.61933   -202.75173    136695.44   -37155.751    2604.3223   -39760.073    69.071934    228.23829 
   20150    134.36063   -390.64817    136538.25   -37094.691    2638.5171   -39733.208    69.043418    231.23506 
   20200    130.13662    -278.0927    136500.88   -37094.524    2555.5678   -39650.092    69.204837    223.96553 
   20250    131.98269   -323.95729    136506.96   -37080.957    2591.8201   -39672.777    69.475357    227.14262 
   20300    133.48244   -301.68862    136456.68   -37098.767    2621.2717   -39720.039    69.472433     229.7237 
   20350    134.86164   -253.32097    136377.25   -37078.718    2648.3558   -39727.073    69.581294    232.09731 
   20400    134.20883   -151.67927    136468.44   -37017.307    2635.5362   -39652.844      69.8453    230.97382 
   20450    133.04559   -207.69804    136517.56   -37011.451     2612.693   -39624.144     70.12816    228.97188 
   20500    132.21457   -109.45938     136521.6   -37003.285    2596.3737   -39599.659    70.397146    227.54169 
   20550    133.17483   -128.87527    136608.36   -37010.046     2615.231   -39625.277    70.462007    229.19431 
   20600    133.46193   -116.30523    136661.63   -36988.121    2620.8688    -39608.99     70.59968    229.68839 
   20650    132.30723   -286.84804    136751.08   -37016.642    2598.1933   -39614.835    70.907816    227.70115 
   20700     131.5042   -204.87701    136762.54   -37033.042    2582.4238   -39615.466    70.984525    226.31914 
   20750    134.19404   -376.10253    136746.26   -37056.192    2635.2458   -39691.438    71.302235    230.94837 
   20800     132.6871   -353.27303    136668.68   -37024.295     2605.653   -39629.948    71.370042    228.35491 
   20850    133.78745   -176.84404     136703.7   -36982.664    2627.2614   -39609.925    71.480619    230.24863 
   20900    134.08356   -212.39705    136749.28   -37021.446    2633.0763   -39654.523     71.69599    230.75824 
   20950    133.88654   -79.120468    136672.06   -37049.201    2629.2071   -39678.409    71.646553    230.41915 
   21000    134.64578    64.684875    136662.97   -37044.041    2644.1168   -39688.157     71.82424     231.7258 
   21050    133.54741   -11.714644    136769.39   -37032.824    2622.5474   -39655.371    72.034046    229.83551 
   21100    135.95563   -26.528859    136778.13   -37009.422    2669.8392   -39679.261    72.227873    233.98007 
   21150    135.59864   -219.65784    136773.46   -37037.413    2662.8286   -39700.242    72.299854    233.36568 
   21200    132.11204   -272.69018    136876.45    -37076.95    2594.3603    -39671.31     72.63418    227.36524 
   21250    131.49864   -156.08002    136897.31   -37068.636    2582.3146    -39650.95    72.627334    226.30957 
   21300    133.46594   -59.656798    136951.99   -37023.785    2620.9477   -39644.733    72.801059    229.69531 
   21350    133.25107     39.17209    137042.52   -37041.153    2616.7281   -39657.881    72.928349    229.32551 
   21400    133.96714    -345.4869    137123.15   -37018.989    2630.7899   -39649.779     72.79584    230.55786 
   21450    135.02706    34.731664    137121.59   -37011.632    2651.6043   -39663.237    72.906312      232.382 
   21500    134.06037   -187.06178    137106.95    -37011.12    2632.6208   -39643.741    73.365166    230.71832 
   21550    133.46358   -282.11954     137103.3    -37018.41    2620.9013   -39639.311    73.513699    229.69124 
   21600    133.89546    -413.3099    137077.35    -37060.58    2629.3823   -39689.962    73.578533     230.4345 
   21650    134.05509    -371.9262    137093.89    -37045.39     2632.517   -39677.907    73.599963    230.70923 
   21700    131.92547   -275.36582    137078.93   -37012.849    2590.6964   -39603.545      73.7096    227.04414 
   21750    132.75687   -44.046789    137076.97   -37013.045    2607.0232   -39620.068    73.940847    228.47499 
   21800    135.50881   -432.40741     137092.5   -37000.831    2661.0646   -39661.896    74.022523    233.21108 
   21850    133.54486    -400.0565     137028.8   -37025.443    2622.4975   -39647.941    74.121574    229.83113 
   21900    134.52856   -130.29329    137098.71   -37035.426     2641.815   -39677.241    74.196463    231.52408 
   21950      132.825   -333.83725    137025.86   -37031.576    2608.3611   -39639.937    74.543311    228.59224 
   22000    133.82006   -113.86818    137080.74   -37032.585    2627.9016   -39660.486    75.006626    230.30473 
   22050    134.76303   -357.56787    137030.48   -37015.975    2646.4193   -39662.394    75.260591     231.9276 
   22100    133.29516   -185.91877    137006.08   -37049.067     2617.594   -39666.661    75.730549    229.40139 
   22150     131.6462   -201.65487    137010.69   -37063.975    2585.2122   -39649.187    76.034475    226.56352 
   22200     137.8747   -306.67874    136940.47   -37017.689     2707.525   -39725.214    76.239579    237.28279 
   22250    133.66038   -240.44427    136970.84   -37017.978     2624.766   -39642.744    76.446719    230.02994 
   22300    137.31816   -232.43563     136942.8   -36975.851    2696.5959   -39672.447    76.625198    236.32498 
   22350    134.07659   -274.81642    136842.78   -36975.755    2632.9392   -39608.694    76.523341    230.74622 
   22400    135.55627   -53.981603    136785.76   -36996.277    2661.9967   -39658.274     76.54621    233.29277 
   22450    136.04608   -115.94499    136773.01    -36964.47    2671.6153   -39636.085      76.7837    234.13573 
   22500    136.35769   -273.32139    136739.67    -36958.95    2677.7345   -39636.684    76.871934    234.67201 
   22550    133.65385    11.082143    136736.58   -37015.113    2624.6377   -39639.751    77.120156    230.01869 
   22600    135.01192    61.299555    136752.16   -37002.532    2651.3068   -39653.838    77.241081    232.35593 
   22650    132.82998   -110.64215    136813.44   -37027.669    2608.4588   -39636.128    77.480802     228.6008 
   22700    131.38119   -139.44379    136849.79   -37045.724    2580.0082   -39625.732    77.853379    226.10745 
   22750    132.93914   -157.54765    136843.53   -37093.544    2610.6026   -39704.147    77.716642    228.78868 
   22800    133.84442    -279.5139    136862.94   -37114.004    2628.3801   -39742.384     77.50055    230.34667 
   22850    129.46795   -173.54206    136843.19   -37097.095    2542.4367   -39639.532     77.84597    222.81474 
   22900    132.83997   -75.496143    136875.23   -37057.191    2608.6552   -39665.846    78.212751    228.61801 
   22950     132.0478   -165.88536    136852.02   -37045.333    2593.0987   -39638.431    78.328683    227.25467 
   23000    135.63963   -381.38865    136803.69    -37058.48    2663.6336   -39722.114    78.404453    233.43622 
   23050    135.50675   -50.985743    136847.31   -37068.246    2661.0243    -39729.27    78.410919    233.20755 
   23100    133.47419    27.401167    136920.34   -37032.169    2621.1097   -39653.278    78.621879    229.70951 
   23150    132.51981   -12.616748    137022.95   -37046.543    2602.3678   -39648.911    78.597031      228.067 
   23200    134.76132   -227.66453    137073.59   -37016.745    2646.3858   -39663.131     78.58188    231.92466 
   23250    133.81479   -42.215478    137130.46   -37058.971    2627.7981   -39686.769    78.777364    230.29567 
   23300    133.74785   -243.30442    137178.27   -37093.731    2626.4837   -39720.215    78.913658    230.18047 
   23350    133.06893   -157.24172    137159.17   -37062.758    2613.1512   -39675.909     78.86971    229.01204 
   23400    130.94737   -387.42139    137147.83    -37131.98    2571.4891   -39703.469    78.902575    225.36084 
   23450    134.40897   -124.59533    137181.22   -37126.884    2639.4665   -39766.351    78.962705    231.31826 
   23500    135.28775   -165.08204    137206.24   -37102.718    2656.7235   -39759.442    78.982988    232.83064 
   23550    133.17465   -266.86258     137205.3   -37108.332    2615.2274    -39723.56    79.103884    229.19399 
   23600    130.99759   -338.52728    137228.83   -37142.138    2572.4751   -39714.614    79.481712    225.44726 
   23650    133.66162    -312.3766    137209.66   -37120.464    2624.7904   -39745.255    79.603363    230.03207 
   23700    133.76381    20.117372    137234.52   -37106.502    2626.7971   -39733.299    79.856534    230.20794 
   23750    132.72063   -232.04138    137304.22   -37096.892    2606.3115   -39703.204    80.127049    228.41261 
   23800    131.35487   -93.370187    137352.78   -37099.894    2579.4913   -39679.385    80.013025    226.06214 
   23850    132.99327   -252.35506    137344.87   -37122.271    2611.6655   -39733.937    80.385872    228.88183 
   23900    133.58027   -221.56663    137289.82   -37066.357    2623.1928    -39689.55    80.678874    229.89206 
   23950    133.64615   -493.63382    137199.84   -37027.049    2624.4864   -39651.536    80.831378    230.00544 
   24000    135.17905   -179.08427    137195.56     -37052.2    2654.5889   -39706.789     80.95138    232.64356 
   24050    137.06475    -281.4687    137187.39    -37043.69    2691.6195   -39735.309    81.119223    235.88886 
   24100    135.41288   -276.92651    137115.77   -37000.498    2659.1808   -39659.679     81.07024    233.04599 
   24150    133.65728   -124.41745    137099.42    -36972.14    2624.7051   -39596.845    81.172296     230.0246 
   24200    136.78198   -86.851916     137114.6   -36983.902    2686.0667   -39669.968    81.214753    235.40222 
   24250    135.70748    -123.1825    137066.58   -36959.148     2664.966   -39624.114    81.355454    233.55299 
   24300    135.01355   -2.5307606     137052.4    -36946.11     2651.339   -39597.449    81.818867    232.35874 
   24350    135.09726   -165.32999    137078.57    -36951.68    2652.9828   -39604.663    81.888813    232.50281 
   24400    134.70079    -198.7657    137110.12   -37043.051    2645.1971   -39688.248     81.87509    231.82048 
   24450    135.95793   -217.70339    137133.91   -37048.785    2669.8842   -39718.669    82.170248    233.98402 
   24500    134.84999    145.85608    137165.05   -37043.918    2648.1269   -39692.045    82.352809    232.07725 
   24550    132.08338   -30.636092    137211.02    -37092.47    2593.7975   -39686.268    82.502801    227.31591 
   24600    132.15737   -318.21079    137246.37   -37094.404    2595.2504   -39689.654    82.382587    227.44324 
   24650    133.74373   -158.45105    137302.83   -37107.254    2626.4028   -39733.657    82.426584    230.17339 
   24700    132.36915    -238.0554    137272.22   -37125.135    2599.4094   -39724.544    82.571834    227.80773 
   24750    134.87774   -260.09183    137233.59   -37073.033    2648.6719   -39721.704    82.609414    232.12501 
   24800    132.90162    5.5540728    137275.01   -37103.311    2609.8658   -39713.177    82.986305    228.72411 
   24850    134.03315   -295.04732    137371.18   -37046.666    2632.0863   -39678.753    83.190167    230.67147 
   24900    133.79156   -286.16458    137302.29   -37012.026    2627.3421   -39639.368    83.509774     230.2557 
   24950    134.78401   -324.72229    137277.15   -37017.436    2646.8313   -39664.267    83.648245     231.9637 
   25000    134.39478    90.224296    137273.53   -37012.544    2639.1878   -39651.732    83.405557    231.29384 
   25050     133.8191   -197.91084    137296.39   -37051.809    2627.8827   -39679.692     83.54814    230.30308 
   25100    133.67892    19.438167    137365.84   -36991.528      2625.13   -39616.658    83.798048    230.06184 
   25150    131.89084   0.27874813    137398.38   -36987.112    2590.0165   -39577.128    83.995871    226.98455 
   25200    132.37622   -239.11941    137440.37   -37015.369    2599.5482   -39614.917    84.151549    227.81989 
   25250    133.19172   -230.90329    137421.58   -37023.873    2615.5626   -39639.436    84.057627    229.22337 
   25300    133.71461   -89.531005    137448.38   -37058.183     2625.831   -39684.014    83.917026    230.12327 
   25350    134.26154   -371.43382    137440.86   -37006.419    2636.5713    -39642.99    84.111249    231.06453 
   25400    132.16636   -342.47806    137414.51   -37041.879    2595.4271   -39637.306    83.923007    227.45873 
   25450    137.09895   -34.790819    137406.16    -37060.48    2692.2911   -39752.771    84.133711    235.94772 
   25500    133.05635   -452.27042    137439.59   -37070.799    2612.9043   -39683.703    84.346107    228.99039 
   25550    132.68797   -318.05454    137445.26   -37098.283    2605.6703   -39703.953    84.341288    228.35642 
   25600    133.47293   -205.81403    137332.67   -37082.388    2621.0848   -39703.473    84.475408    229.70732 
   25650    135.39666   -357.94431    137273.52   -37076.222    2658.8624   -39735.085     84.54121    233.01808 
   25700    133.49778   -347.88869    137260.66    -37118.78    2621.5728   -39740.352    84.623286    229.75009 
   25750    132.03531   -265.69461    137192.33   -37105.236    2592.8535    -39698.09    84.606774    227.23318 
   25800    135.00564    -380.1651    137234.91   -37055.645    2651.1835   -39706.828    84.295176    232.34512 
   25850    134.24133   -192.51856    137220.21   -37021.273    2636.1745   -39657.448    84.725577    231.02976 
   25900    136.60189   -9.3797306    137335.02   -37019.406    2682.5301   -39701.936    84.839515    235.09229 
   25950    136.40149   -240.50027    137310.39   -37080.138    2678.5946   -39758.733     85.08983    234.74738 
   26000     133.7226    -511.9993    137294.71    -37067.69    2625.9878   -39693.678     85.12308    230.13701 
   26050    134.65619   -294.39203    137222.54   -37056.317    2644.3212   -39700.638     85.19433    231.74372 
   26100     135.3153   -277.09906    137144.72   -37090.141    2657.2645   -39747.405    85.275956    232.87805 
   26150    133.90561   -74.319076    137175.26   -37126.009    2629.5816    -39755.59    85.342943    230.45197 
   26200    131.17535   -172.24287    137210.89   -37176.842     2575.966   -39752.808     85.44262    225.75319 
   26250    133.98943   -311.68109    137182.04   -37143.998    2631.2277   -39775.226    85.521269    230.59623 
   26300    131.94412   -179.83974    137178.86   -37128.121    2591.0627   -39719.184     85.47098    227.07624 
   26350    132.33007    -27.68845    137236.21   -37104.989    2598.6418   -39703.631     85.67575    227.74046 
   26400    134.47257   -156.97273    137291.44   -37072.828    2640.7154   -39713.544     85.78724    231.42772 
   26450    134.09827   -234.82918    137327.72   -37072.299    2633.3651   -39705.664    85.949834    230.78355 
   26500    132.96685   -39.064744    137427.88   -37085.446    2611.1467   -39696.593    86.165488    228.83636 
   26550    132.55381   -324.05884     137422.4   -37130.751    2603.0355   -39733.786    86.364097    228.12552 
   26600    133.91422   -222.50717    137439.88   -37115.015    2629.7508   -39744.766    86.496144    230.46679 
   26650    133.24891   -254.80732    137482.42   -37139.098    2616.6856   -39755.783    86.551912    229.32179 
   26700    134.79459    -125.0607    137466.28   -37102.055    2647.0391   -39749.094    86.601743    231.98192 
   26750    134.71465   -86.631346    137413.79   -37103.699    2645.4693   -39749.169    86.660635    231.84434 
   26800    133.74957   -225.78364    137366.31   -37174.585    2626.5174   -39801.103    86.828422    230.18342 
   26850    131.74261    21.472814    137365.35   -37173.338    2587.1056   -39760.444    86.989555    226.72945 
   26900    129.71578   -273.06924    137374.78   -37152.155    2547.3036   -39699.458    87.256435    223.24127 
   26950    132.37127   -133.88992    137374.57   -37138.972    2599.4509   -39738.422    87.385196    227.81136 
   27000     132.6208   -425.38711    137337.41   -37147.115    2604.3511   -39751.466     87.60685    228.24081 
   27050    132.01197   -199.16594    137394.76   -37127.781    2592.3951   -39720.176    88.004598    227.19301 
   27100     134.0229    -270.3483    137476.91   -37125.627     2631.885   -39757.512    88.120234    230.65384 
   27150    133.69265   -305.98535    137400.25   -37154.631    2625.3996   -39780.031    88.258853    230.08546 
   27200    135.30658    -276.7413    137361.47   -37139.385    2657.0933   -39796.478    88.540257    232.86304 
   27250    131.97295   -141.07095    137349.84   -37138.416    2591.6289   -39730.045    88.843419    227.12586 
   27300    134.63754   -186.34519    137336.14   -37088.777     2643.955   -39732.732    88.850866    231.71163 
   27350    137.82008   -99.358988    137365.69   -37063.499    2706.4525   -39769.951    88.770719     237.1888 
   27400    137.16326   -65.424145    137422.52   -37062.794    2693.5541   -39756.348    88.855741     236.0584 
   27450    136.61862   -87.898271    137355.71   -37068.587    2682.8586   -39751.446    89.098054    235.12107 
   27500     136.2816   -15.194682    137390.93   -37040.988    2676.2403   -39717.229    89.169165    234.54106 
   27550    136.40681   -341.04063    137388.53   -37069.381    2678.6991    -39748.08    89.110206    234.75654 
   27600    133.75401   -133.13316    137388.34   -37112.419    2626.6047   -39739.024    89.390882    230.19108 
   27650    133.52953   -484.59101    137321.11   -37119.139    2622.1964   -39741.336    89.580234    229.80474 
   27700    135.16731   -180.08517    137299.03   -37113.512    2654.3584   -39767.871     89.89187    232.62336 
   27750    134.62143   -164.01648    137295.76    -37082.61    2643.6387   -39726.249    90.037258    231.68391 
   27800    133.77901   -192.09816    137260.37   -37104.258    2627.0955   -39731.353    90.211852    230.23409 
   27850    132.10871   -261.08598    137286.07    -37156.81    2594.2949   -39751.104    90.321577     227.3595 
   27900    129.93717   -273.32719    137315.56   -37211.592    2551.6512   -39763.243    90.514704    223.62228 
   27950    133.71497   -193.95212    137331.75   -37193.106    2625.8381   -39818.944    90.704151    230.12389 
   28000    128.61393   -261.22194    137317.87    -37190.11     2525.666   -39715.776     91.10262    221.34498 
   28050    131.87675   -167.15957    137385.14   -37230.642    2589.7397   -39820.382    91.151532    226.96029 
   28100    133.66432   -68.595363    137395.11   -37183.261    2624.8433   -39808.104     91.01841    230.03671 
   28150     134.6322   -277.31528    137385.15   -37200.764    2643.8501   -39844.615    91.134734    231.70244 
   28200     129.6875   -97.377367    137306.77   -37160.528    2546.7482   -39707.276    91.298495     223.1926 
   28250    133.44343    63.722261    137272.66   -37163.643    2620.5056   -39784.149    91.102772    229.65656 
   28300    135.45493   -104.50216    137327.32   -37171.125    2660.0066   -39831.132    91.370603    233.11836 
   28350    133.76769    -385.8662    137232.43   -37159.471    2626.8732   -39786.344    91.554227    230.21461 
   28400    134.00523   -131.80567    137126.03   -37119.219    2631.5379   -39750.757    92.120461    230.62342 
   28450    132.57155    -145.9236    137180.15   -37143.843     2603.384   -39747.227    92.362054    228.15606 
   28500    132.99527   -418.92394    137136.93   -37166.349    2611.7047   -39778.054    92.542556    228.88527 
   28550    133.03006   -313.27877    137081.78   -37104.664     2612.388   -39717.052    92.609061    228.94515 
   28600    131.59671    -370.3432    137027.01   -37129.833    2584.2406   -39714.074    92.708104    226.47836 
   28650    133.25231    -268.8223    137067.35   -37175.959    2616.7525   -39792.711    92.965512    229.32765 
   28700    131.64954   -304.09777    137056.23   -37207.311    2585.2779   -39792.589     93.07165    226.56927 
   28750    130.43237   -281.39821    137067.96   -37183.669    2561.3756   -39745.045    93.129943    224.47451 
   28800    131.59309   -471.05818    137016.53   -37178.045    2584.1694   -39762.214    93.257178    226.47212 
   28850    130.84207   -115.37607    137002.04   -37163.922    2569.4212   -39733.343     93.56936    225.17962 
   28900    133.56842   -173.39415    136980.88    -37133.91    2622.9601   -39756.871    93.667194    229.87167 
   28950    131.24752   -43.114478     137028.7    -37151.58    2577.3833   -39728.964    93.846652     225.8774 
   29000    132.66998   -101.74362    137025.92    -37129.77    2605.3168   -39735.087    94.244887    228.32545 
   29050    132.37955    166.31992    137094.96   -37130.407    2599.6136    -39730.02    94.655449    227.82562 
   29100    132.68106    -278.3968    137050.29   -37127.428    2605.5345   -39732.962    94.887794    228.34452 
   29150    133.24868   -257.60929    137126.74   -37088.062    2616.6811   -39704.743    95.012787    229.32139 
   29200     131.2245   -181.67784    137162.28   -37098.664    2576.9311   -39675.596    95.297733    225.83777 
   29250    133.50204   -253.10196    137168.07   -37056.361    2621.6566   -39678.018    95.365605    229.75743 
   29300    133.61649   -293.88466    137228.92   -37040.713    2623.9041   -39664.617    95.737605     229.9544 
   29350    134.30901   -99.149484    137225.38   -37102.945    2637.5034   -39740.449    96.003083    231.14622 
   29400    133.29296   -217.85629    137287.96   -37055.595    2617.5507   -39673.145    96.138124     229.3976 
   29450    131.75742   -232.74329    137323.97   -37098.325    2587.3965   -39685.721    96.342362    226.75494 
   29500    134.71188   -306.14037    137354.39   -37108.703    2645.4148   -39754.118    96.406331    231.83956 
   29550    132.44586   -231.69883    137387.79   -37131.086    2600.9157   -39732.002    96.751904    227.93974 
   29600    133.99223   -319.03807    137384.16   -37115.794    2631.2828   -39747.076    96.913745    230.60105 
   29650    133.97037    -272.4145     137440.1   -37136.187    2630.8534    -39767.04    97.068953    230.56343 
   29700    131.35716   -280.11835    137475.41   -37148.136    2579.5363   -39727.673     97.28611    226.06609 
   29750    134.31243   -142.73079    137494.95   -37159.925    2637.5706   -39797.495    97.608938    231.15211 
   29800    129.49064    10.482362    137494.69   -37183.828    2542.8823    -39726.71    97.754963    222.85379 
   29850     134.5122   -214.63885    137484.95   -37180.584    2641.4937   -39822.078    98.088885    231.49592 
   29900    134.35465   -220.54335    137490.27   -37174.033    2638.3997   -39812.433    98.274626    231.22477 
   29950    132.59121   -235.80688    137494.15   -37174.458      2603.77   -39778.228    98.537133    228.18989 
   30000    130.86305   -139.80063     137465.3   -37213.555    2569.8333   -39783.389    98.511899    225.21573 
   30050    131.39933   -187.27907    137476.17    -37250.11    2580.3645   -39830.474    98.832635    226.13866 
   30100    133.00535    20.304191    137568.13   -37211.346    2611.9028   -39823.248    98.894301    228.90263 
   30150    134.12175   -273.78868     137483.3   -37209.866    2633.8261   -39843.692    99.188926    230.82395 
   30200    134.14596   -161.20139    137494.79   -37226.029    2634.3015    -39860.33    99.433507    230.86561 
   30250    131.98068    -128.0083    137491.49   -37260.202    2591.7808   -39851.983    99.602472    227.13917 
   30300    133.83719   -29.990657    137607.73   -37200.866     2628.238   -39829.104    99.503045    230.33422 
   30350    130.16591   -227.58233    137663.74   -37256.488    2556.1431   -39812.631    99.686422    224.01594 
   30400    132.82088   -421.48383    137684.48   -37281.408    2608.2803   -39889.689    99.875698    228.58516 
   30450    134.12515   -304.16287    137636.93   -37243.775     2633.893   -39877.668    99.868807    230.82981 
   30500    133.85759   -159.13542    137595.82   -37224.171    2628.6387    -39852.81     99.70491    230.36934 
   30550     132.2858     -88.1302    137579.52    -37238.31    2597.7725   -39836.082    99.844796    227.66427 
   30600    133.29281    181.05024    137681.91   -37206.993    2617.5477   -39824.541    99.988736    229.39734 
   30650    131.71002   -149.52329    137662.18   -37217.264    2586.4655    -39803.73    100.27516    226.67335 
   30700    134.19117   -187.83037    137610.63   -37193.109    2635.1895   -39828.298    100.20902    230.94343 
   30750    134.30075   -338.18681     137576.2   -37158.568    2637.3413    -39795.91    100.23626    231.13202 
   30800    132.72053   -250.85068    137579.79   -37125.764    2606.3095   -39732.073    100.24346    228.41244 
   30850    133.08838   -279.38135    137494.14   -37157.865    2613.5332   -39771.398    100.19867    229.04552 
   30900    132.81324   -302.16063    137466.06   -37162.104    2608.1302   -39770.234    100.42852      228.572 
   30950    138.20642   -38.477764    137500.07   -37152.583    2714.0392   -39866.622    100.77044    237.85368 
   31000    132.50062   -359.19858    137626.12   -37231.094    2601.9911   -39833.085    100.84309    228.03398 
   31050    132.43608   -385.66795    137588.09   -37241.601    2600.7237   -39842.325    101.07007    227.92291 
   31100    131.98964   -344.29064    137541.46   -37221.448    2591.9567   -39813.404    101.17193    227.15459 
   31150    135.26654   -180.12743    137489.86    -37236.56     2656.307   -39892.867    101.26352    232.79414 
   31200    134.61509   -256.32595    137547.27   -37161.565    2643.5141   -39805.079    101.27985    231.67299 
   31250     130.8588   -48.939927    137662.37   -37215.192    2569.7497   -39784.941    101.42004    225.20841 
   31300    133.56794   -400.86816    137738.75    -37191.78    2622.9506   -39814.731    101.45758    229.87084 
   31350    132.05564   -153.32555    137795.24   -37140.402    2593.2528   -39733.655    101.27957    227.26818 
   31400    133.33805   -120.63441    137862.45   -37170.358    2618.4362   -39788.794    101.61333    229.47521 
   31450    136.26505     -178.613    137899.97   -37140.983    2675.9154   -39816.899    101.49877    234.51258 
   31500    133.94259   -379.88097    137895.54   -37131.951     2630.308   -39762.259    101.63834    230.51563 
   31550    133.27176   -427.90914    137942.96   -37161.563    2617.1345   -39778.697    101.71685    229.36112 
   31600     133.9277   -239.03474    137887.59   -37136.139    2630.0155   -39766.154    101.70776       230.49 
   31650    136.31916   -343.02817    137926.75   -37147.161     2676.978   -39824.139    101.82235    234.60571 
   31700    134.50165   -88.373878     137952.3   -37063.123    2641.2864   -39704.409    101.70228    231.47776 
   31750    134.94575   -238.82271    137940.67   -37070.481    2650.0074   -39720.488    101.58942    232.24205 
   31800    134.42477   -228.32888     137887.6   -37051.543    2639.7767    -39691.32    101.93173    231.34545 
   31850    133.44732     -214.398    137770.97   -37096.964     2620.582   -39717.546    101.93824    229.66326 
   31900     133.9776   -88.889983     137850.2   -37184.479    2630.9954   -39815.474    102.51112    230.57587 
   31950     133.5175   -475.53951    137782.48    -37153.43    2621.9601    -39775.39    102.73381    229.78403 
   32000    130.32464   -398.81015    137754.93   -37175.373      2559.26   -39734.633    102.79843    224.28911 
   32050    134.19034   -581.62996    137722.55   -37163.598    2635.1732   -39798.772    102.87742      230.942 
   32100    132.34636   -248.48436    137663.69   -37192.691    2598.9617   -39791.652    103.08182     227.7685 
   32150    132.91726   -184.33741    137666.13   -37214.933    2610.1728   -39825.106    103.08666    228.75102 
   32200    135.39786   -31.710804    137625.26   -37180.473    2658.8859   -39839.359    103.14296    233.02014 
   32250     134.7368   -213.17506    137666.11   -37141.515    2645.9042   -39787.419    102.93867    231.88245 
   32300    134.43856   -201.86817    137687.15   -37118.054    2640.0475   -39758.102    102.81064    231.36918 
   32350    134.12751   -144.51214    137682.73   -37121.581    2633.9393    -39755.52    103.05779    230.83387 
   32400    134.60252   -257.06283    137744.44   -37056.971    2643.2672   -39700.238    103.33002    231.65135 
   32450    132.83578   -342.47861    137754.19   -37070.807    2608.5729    -39679.38    103.54172     228.6108 
   32500    135.11955   -234.15694    137783.89   -37104.638    2653.4205   -39758.058    103.73981    232.54117 
   32550    135.64207   -153.92593    137852.76    -37136.73    2663.6815   -39800.411    103.90913    233.44043 
   32600     134.9744   -285.49153    137898.87   -37131.069    2650.5701   -39781.639     104.1049    232.29136 
   32650    132.96331   -395.22866    137847.83   -37146.537    2611.0772   -39757.614    104.48861    228.83027 
   32700    131.86237   -299.32207     137802.4   -37200.052    2589.4574    -39789.51    104.61571    226.93556 
   32750    131.93576   -69.914688    137763.77   -37210.207    2590.8986   -39801.106    104.49169    227.06186 
   32800    132.31874   -140.86209     137688.5   -37190.413    2598.4195   -39788.833    104.46745    227.72097 
   32850    132.85738   -317.54055       137700   -37172.353    2608.9969    -39781.35     104.7735    228.64796 
   32900    134.30003   -364.24374    137692.18   -37153.839     2637.327   -39791.166    104.91814    231.13077 
   32950     130.8886   -355.78294    137647.96   -37160.973    2570.3348   -39731.308    105.24806    225.25969 
   33000    133.70719   -202.28716    137595.38   -37182.009    2625.6853   -39807.695    105.36889     230.1105 
   33050    132.83111   -48.535473    137587.27   -37123.155    2608.4811   -39731.636    105.66194    228.60276 
   33100    132.35499   -413.51117    137601.56   -37147.606    2599.1313   -39746.737    105.84959    227.78335 
   33150    132.39869   -330.88619    137556.37   -37136.051    2599.9895   -39736.041    106.01258    227.85856 
   33200    133.54528   -309.39098       137556   -37136.157    2622.5057   -39758.663    106.33248    229.83185 
   33250     131.8261   -263.36683    137575.47   -37159.176    2588.7451   -39747.922    106.45664    226.87313 
   33300    131.30329   -167.36037    137561.06   -37222.561    2578.4783   -39801.039    106.46205    225.97337 
   33350    129.79329    -273.1006     137491.6   -37259.591    2548.8258   -39808.417    106.54978    223.37467 
   33400    131.55727    -152.6468    137404.31   -37212.716     2583.466   -39796.182    106.40127    226.41047 
   33450    129.05482     -597.458    137437.54   -37195.491    2534.3239   -39729.815    106.62705    222.10375 
   33500    132.33115    -143.6051    137381.82   -37198.436    2598.6631   -39797.099    106.90651    227.74232 
   33550    131.79643   -55.880345    137376.73   -37208.679    2588.1625   -39796.842    107.04563    226.82207 
   33600    134.38877   -51.636504    137454.02   -37171.483    2639.0697   -39810.553    107.37298    231.28349 
   33650    132.89787   -17.012817     137545.3   -37149.794    2609.7921   -39759.586    107.71092    228.71765 
   33700    134.62144   -252.75583    137526.86   -37165.221    2643.6389    -39808.86    107.68664    231.68392 
   33750    132.26806   -255.71601    137527.03    -37147.81    2597.4241   -39745.234    107.68604    227.63374 
   33800    131.47867   -62.866878    137571.35   -37182.094    2581.9224   -39764.016     107.6545     226.2752 
   33850    133.00908   -205.34511    137575.62   -37191.242     2611.976   -39803.219    107.69013    228.90905 
   33900    134.94319    -37.95205    137604.67   -37156.704    2649.9572   -39806.661    108.03868    232.23765 
   33950    134.49996   -16.928443    137612.78   -37137.649    2641.2533   -39778.902    108.06955    231.47486 
[...]
   92000    136.37551   -248.70249    137135.58   -37029.567    2678.0845   -39707.652    269.50328    234.70268 
   92050    131.78117   -254.42736    137075.39   -37058.534    2587.8629   -39646.396    269.37529    226.79581 
   92100    136.05412   -191.37505    137048.65   -37063.236    2671.7731   -39735.009    269.10004    234.14956 
   92150    136.45133   -295.54355    136995.05   -37041.188    2679.5735   -39720.761     269.5087    234.83317 
   92200    133.60942   -176.25894    136980.32   -37059.796    2623.7652   -39683.561    269.45175    229.94223 
   92250    133.94071   -113.39935    136984.44   -37088.475    2630.2709   -39718.746    269.29132    230.51238 
   92300    134.38415   -108.86935    136948.79   -37091.935     2638.979   -39730.914    269.56533    231.27554 
   92350    134.65326   -254.16946    136839.97    -37114.59    2644.2636   -39758.853     269.1411    231.73868 
   92400    132.78516   -28.288309    136759.31   -37148.867    2607.5787   -39756.446    269.26284    228.52367 
   92450    133.86008   -382.59768    136738.75   -37134.122    2628.6875   -39762.809    269.19674    230.37361 
   92500    132.93506   -319.38494    136722.56   -37131.831    2610.5225   -39742.353     269.2558    228.78166 
   92550    131.86796   -140.54134    136741.76   -37139.195    2589.5671   -39728.762    269.80581    226.94517 
   92600    134.06778   -293.53233    136693.06   -37145.053    2632.7664    -39777.82    269.97654    230.73108 
   92650    132.90996   -241.65222    136623.58   -37182.099    2610.0296   -39792.129    270.19174    228.73846 
   92700    135.77524    3.4566287    136727.33   -37165.466    2666.2967   -39831.763    270.43762    233.66961 
   92750    133.46297   -92.044075     136861.7   -37175.975    2620.8894   -39796.865    270.46962     229.6902 
   92800    130.62696   -155.50199    136869.68   -37214.676     2565.197   -39779.872    270.36713    224.80941 
   92850    132.17736   -104.08413    136916.81   -37202.056     2595.643   -39797.699    270.68689    227.47765 
   92900    131.91885    -145.4386    136990.13   -37174.612    2590.5666   -39765.178    271.08067    227.03276 
   92950    131.98991   -17.009858    137023.08   -37129.545    2591.9619   -39721.507    271.43341    227.15504 
   93000      132.909   -97.588465    137070.27   -37193.191    2610.0106   -39803.201    271.55241     228.7368 
   93050    132.51514   -202.26456     137074.9   -37191.638    2602.2763   -39793.915    271.51065    228.05898 
   93100    132.19594   -145.99399    137059.94   -37146.687    2596.0078   -39742.695    271.44361    227.50962 
   93150    133.03068   -77.396622    137076.73    -37192.78    2612.4002    -39805.18    271.73975    228.94622 
   93200    130.79876   -235.24573    137101.83   -37207.434    2568.5706   -39776.005    271.80523    225.10507 
   93250    133.55515   -245.99071    137137.17   -37199.027    2622.6994   -39821.726    272.37773    229.84883 
   93300    130.95347   -150.99413    137158.39   -37174.041    2571.6089    -39745.65    272.64129    225.37134 
   93350    133.41445   -325.98814    137188.93   -37160.881    2619.9366   -39780.818    272.37698    229.60669 
   93400    133.89509   -95.822907     137237.1    -37142.84     2629.375   -39772.215    272.46817    230.43386 
   93450     132.6889   -149.25784    137347.22   -37157.275    2605.6885   -39762.964    272.52297    228.35802 
   93500    134.28895   -211.77418    137427.34   -37130.601    2637.1095    -39767.71    272.94369     231.1117 
   93550    134.96633   -285.85843    137480.79   -37121.812    2650.4117   -39772.224    273.23733    232.27748 
   93600    135.51798    -204.6382    137536.81   -37105.452    2661.2447   -39766.696    273.02456    233.22687 
   93650    137.36914    -390.1924     137536.9   -37126.243     2697.597    -39823.84    272.98116    236.41272 
   93700    135.95966   -279.01719    137534.34   -37128.889    2669.9182   -39798.808    273.22392    233.98699 
   93750    136.28871    -249.7823    137542.45   -37131.684    2676.3799   -39808.064     273.1155    234.55329 
   93800    134.71426   -305.75157    137599.91   -37098.788    2645.4617   -39744.249    273.00914    231.84367 
   93850     137.9634   -357.83621    137567.58   -37106.019    2709.2668   -39815.286    272.97979    237.43544 
   93900    134.86099   -401.50648    137510.21    -37171.85    2648.3431   -39820.193    272.77052    232.09619 
   93950    134.32769   -350.34068    137509.89   -37181.873    2637.8703   -39819.743    272.75014    231.17838 
   94000    135.41299   -138.31198    137540.66   -37158.863     2659.183   -39818.046    273.25969    233.04619 
   94050    134.27232      -272.52    137649.14   -37189.542     2636.783   -39826.325    273.63298    231.08309 
   94100    134.07218   -226.31087    137687.61   -37197.415    2632.8527   -39830.268    273.95835    230.73865 
   94150    136.50285   -76.877272    137772.21   -37218.546    2680.5852   -39899.131    274.01987    234.92183 
   94200    134.81963    -35.36888    137777.52   -37216.479    2647.5307   -39864.009    274.16954      232.025 
   94250    132.81193   -118.02954       137794   -37187.491    2608.1044   -39795.595    274.19518    228.56974 
   94300     134.0185   -271.51632     137761.5   -37162.213    2631.7986   -39794.012    274.56397    230.64626 
   94350     132.7366   -595.42325    137822.23   -37199.108    2606.6252   -39805.733    275.00883    228.44011 
   94400    132.97011   -436.65406    137803.62    -37188.08    2611.2108   -39799.291    275.06269    228.84198 
   94450    134.72345   -492.53313    137739.17   -37179.074    2645.6421   -39824.716    275.41422    231.85948 
   94500    133.26456    -532.1043    137677.49    -37174.55    2616.9931   -39791.543     275.4162    229.34873 
   94550     136.1242   -314.04704    137733.16   -37158.733    2673.1494   -39831.882    275.32447    234.27017 
   94600    133.41473   -254.77579    137727.67   -37231.535     2619.942   -39851.477    275.38968    229.60717 
   94650     131.8269   -309.60714    137706.42   -37214.782    2588.7608   -39803.543    275.60719    226.87451 
   94700    134.33089   -264.59895    137733.09   -37196.706    2637.9332   -39834.639    275.62146    231.18389 
   94750    134.33764    -230.8289    137694.37   -37210.101    2638.0657   -39848.167    275.72512     231.1955 
   94800    130.47815   -549.04971     137687.8   -37205.309    2562.2747   -39767.584     275.5973     224.5533 
   94850    132.40548   -406.83184    137712.44   -37223.746    2600.1228   -39823.869    275.78246    227.87025 
   94900     136.1443   -337.76797    137696.23   -37200.268    2673.5441   -39873.812    276.13744    234.30476 
   94950    134.74797   -396.24337    137705.98   -37163.589    2646.1236   -39809.713    276.21499    231.90168 
   95000    134.37029   -415.15219    137659.59   -37188.682    2638.7068   -39827.388    276.33915    231.25168 
   95050    134.62938   -517.22034    137673.17   -37179.455    2643.7948    -39823.25    276.31138    231.69759 
   95100    132.70345   -452.21594    137664.56   -37204.849    2605.9742   -39810.823    276.54747    228.38305 
   95150    133.10805   -413.76222    137697.82    -37177.26    2613.9196   -39791.179    276.63586    229.07938 
   95200    130.57735   -37.986046    137759.41   -37222.501    2564.2228   -39786.723    276.96795    224.72403 
   95250    133.14877   -265.30457    137758.02   -37202.178    2614.7192   -39816.897    276.95885    229.14945 
   95300    134.41156   -66.346572    137823.45    -37230.38    2639.5173   -39869.898    276.89235    231.32271 
   95350    137.50261   -159.82645    137808.11   -37216.143    2700.2181   -39916.361    276.89148    236.64243 
   95400    132.92739   -180.58426    137806.34   -37213.394    2610.3718   -39823.766    277.02568    228.76846 
   95450    134.35708   -248.05336    137848.26   -37213.118    2638.4475   -39851.566    277.19783    231.22896 
   95500    132.21838   -170.48449    137873.31   -37251.383    2596.4486   -39847.831    277.76979    227.54825 
   95550    133.43908   -73.037373    137878.87   -37238.265    2620.4201   -39858.686    277.89079    229.64907 
   95600    136.49227   -169.75421    137913.24   -37180.427    2680.3774   -39860.804    277.46574    234.90362 
   95650    133.53459   -263.73804    137966.49   -37181.368    2622.2958   -39803.664     277.5866    229.81346 
   95700    133.06202   -376.65508    137903.39   -37172.766    2613.0156   -39785.781    278.00082    229.00015 
   95750    135.41814   -205.61319    137967.15   -37144.429     2659.284   -39803.713    278.17897    233.05504 
   95800    135.21709   -222.12677    137952.89   -37140.069     2655.336   -39795.405    278.38711    232.70904 
   95850    134.86053   -156.83103    137946.37   -37158.687     2648.334   -39807.021     278.2871     232.0954 
   95900    133.92814   -250.21415    138020.21    -37153.51    2630.0241   -39783.534    278.35641    230.49074 
   95950    134.56466   -365.27922    138066.21   -37144.232    2642.5237   -39786.755    278.75166    231.58619 
   96000    135.62373   -208.32803    137997.97   -37109.847    2663.3213   -39773.169    278.84625    233.40886 
   96050    133.14727   -363.74651    137965.81   -37144.527    2614.6897   -39759.217    278.94569    229.14687 
   96100    136.00076   -334.89486    137806.76   -37075.033    2670.7253   -39745.758    278.77285    234.05773 
   96150    135.28767   -292.31236    137709.35   -37064.889    2656.7219   -39721.611    279.15667     232.8305 
   96200    137.09494   -317.09642     137666.6   -37037.881    2692.2125   -39730.093    279.18838    235.94083 
   96250    135.87096    -404.1744    137580.16   -37027.101    2668.1764   -39695.277    279.35351    233.83435 
   96300    135.19604   -232.80881    137541.47   -37073.736    2654.9227   -39728.659    279.84877    232.67282 
   96350    133.55956   -199.84781    137540.88   -37126.189    2622.7861   -39748.975    279.99971    229.85642 
   96400    134.49107   -404.12505    137519.88   -37134.734    2641.0786   -39775.813    280.19414    231.45955 
   96450    132.47921   -328.65066    137490.36   -37130.641    2601.5706   -39732.211    280.18187    227.99713 
   96500    134.75053   -320.36786    137473.64   -37173.712    2646.1739   -39819.886    280.14448    231.90609 
   96550    133.03889    -187.9055    137487.18   -37176.041    2612.5614   -39788.603    280.80062    228.96035 
   96600    134.57097    -366.2181    137541.72   -37136.183    2642.6478    -39778.83      281.337    231.59707 
   96650    133.57286   -49.580367    137529.74   -37132.145    2623.0473   -39755.192    281.71525    229.87931 
   96700    131.97435   -162.51896    137622.66   -37167.441    2591.6565   -39759.097    281.79853    227.12828 
   96750    132.35022    66.392029    137710.64    -37162.19    2599.0377   -39761.228    281.87137    227.77515 
   96800    132.68518   -29.113078    137850.76   -37142.324    2605.6154   -39747.939    281.99212    228.35161 
   96850    134.78874   -374.40896    137866.27   -37100.946    2646.9242   -39747.871    282.23052    231.97185 
   96900    132.06107   -6.0091291    137871.35   -37138.848    2593.3594   -39732.208    282.40506    227.27752 
   96950    135.48622   -172.08645    137813.88   -37117.981     2660.621   -39778.602    282.57263    233.17221 
   97000    132.41615   -56.164385    137798.44   -37104.528    2600.3323    -39704.86    283.07804    227.88861 
   97050    133.52813   -21.001763    137791.98   -37156.223    2622.1688   -39778.391    283.15038    229.80232 
   97100     133.4196   -227.57472    137843.96   -37158.244    2620.0377   -39778.282     283.0235    229.61556 
   97150    134.40649   -166.09082    137856.15   -37124.125    2639.4178   -39763.543    282.87261      231.314 
   97200    131.08721   -195.70422    137916.09   -37200.377    2574.2351   -39774.612    283.08672     225.6015 
   97250    136.91752   -223.35302    137950.68   -37135.913    2688.7282   -39824.641    283.21381    235.63548 
   97300    133.28884   -399.72673    137972.26    -37175.32    2617.4699    -39792.79    283.60817    229.39052 
   97350    136.34987   -255.49486    137889.34   -37172.107    2677.5809   -39849.688    283.81448    234.65855 
   97400    134.00169   -69.289084    137872.43   -37227.164    2631.4685   -39858.633    284.12065    230.61733 
   97450    132.76074   -377.88523    137808.79   -37262.304    2607.0992   -39869.403    284.21165    228.48165 
   97500     133.9612   -196.03298    137853.94   -37262.394    2630.6732   -39893.067    284.41697    230.54764 
   97550    130.47371   -381.23625    137881.81   -37254.557    2562.1875   -39816.745     284.4197    224.54566 
   97600    132.34767   -493.75809    137913.86   -37285.783    2598.9876   -39884.771    285.07495    227.77076 
   97650    133.95787   -444.37084    137810.81   -37250.209    2630.6079   -39880.817    285.23069    230.54191 
   97700    132.74169   -120.46452     137807.9   -37234.765    2606.7252    -39841.49    284.91102    228.44887 
   97750    132.46841   -294.61231    137781.44   -37234.902    2601.3585    -39836.26    285.20876    227.97855 
   97800    132.81012   -240.92728    137755.53   -37193.194    2608.0688   -39801.263    285.41839    228.56663 
   97850    136.14848   -297.64466     137757.5   -37175.772    2673.6263   -39849.399    285.28062    234.31197 
   97900    133.26849   -246.82714    137844.49   -37137.455    2617.0703   -39754.525    285.72394     229.3555 
   97950      133.519   -284.38877    137801.03   -37173.124    2621.9897   -39795.114    285.94317    229.78662 
   98000     130.5997   -426.15765    137767.41   -37234.294    2564.6616   -39798.956    285.66539    224.76249 
   98050    131.70182   -126.78751    137815.57   -37228.714    2586.3046   -39815.019    286.01226    226.65924 
   98100    130.69636   -137.63582     137862.2   -37195.955    2566.5598   -39762.515    286.07296    224.92884 
   98150    131.58908   -546.41119    137828.96   -37200.361    2584.0906   -39784.452    286.02055    226.46521 
   98200    133.19124   -2.4508411     137869.6   -37155.295    2615.5533   -39770.848    286.18761    229.22255 
   98250    133.78692   -261.48887    137943.19    -37130.38    2627.2509   -39757.631    286.32264    230.24771 
   98300     136.6005   -123.47888    137902.71    -37071.56    2682.5027   -39754.062    286.55988    235.08988 
   98350     133.2802   -165.30058    137825.46   -37159.765    2617.3002   -39777.065    286.32403    229.37564 
   98400    137.09301   -317.40909    137801.36   -37156.518    2692.1744   -39848.693    286.44841     235.9375 
   98450     133.4307   -235.04834     137795.4   -37158.893    2620.2555   -39779.149    286.64639    229.63465 
   98500    134.95645   -88.185036    137837.22   -37124.733    2650.2177    -39774.95    286.94475    232.26048 
   98550    132.98683   -400.67891    137793.68   -37121.988     2611.539   -39733.527    287.26224    228.87075 
   98600    130.93338   -81.553895    137839.48   -37182.549    2571.2144   -39753.764    287.73715    225.33676 
   98650    133.52115   -230.04715    137851.33   -37148.027    2622.0318   -39770.059     288.0563    229.79032 
   98700    133.71763   -183.45595    137869.69    -37164.95    2625.8902    -39790.84    287.87255    230.12846 
   98750    132.26811   -135.97599    137931.77   -37182.131    2597.4251   -39779.557    288.05511    227.63383 
   98800    133.30943   -172.19198    137967.77   -37147.603    2617.8742   -39765.477    287.98298    229.42595 
   98850    134.13805   -358.87969    137907.73   -37161.996    2634.1462   -39796.142    288.20952    230.85201 
   98900    134.35507   -368.68143    137862.38    -37193.71     2638.408   -39832.118    288.49666     231.2255 
   98950    135.09357   -166.39873    137831.74   -37151.629    2652.9103    -39804.54    288.93873    232.49646 
   99000    133.38928   -19.008891    137855.04   -37237.696    2619.4422   -39857.138    288.81518    229.56336 
   99050    131.82023   -240.23559    137818.58   -37226.252    2588.6299   -39814.882    289.03852    226.86303 
   99100    132.51098   -6.3131679    137847.17   -37210.691    2602.1944   -39812.886    289.02013     228.0518 
   99150    135.04106   -422.30448     137792.7   -37157.918    2651.8793   -39809.797    289.25762     232.4061 
   99200    133.19963   -305.55121    137751.62   -37209.408    2615.7179   -39825.126    289.15702    229.23698 
   99250    136.02427   -250.29196    137740.89   -37185.982     2671.187   -39857.169    289.39559     234.0982 
   99300    137.01873   -214.04586    137779.28   -37192.733    2690.7157   -39883.449    289.81886    235.80966 
   99350    134.53991   -305.13722    137786.86   -37198.321    2642.0377   -39840.359    289.55035     231.5436 
   99400    132.32742   -504.41591    137735.45   -37228.512    2598.5899   -39827.102    289.65524    227.73591 
   99450    136.06114   -354.60512    137647.91   -37185.564     2671.911   -39857.475    289.93009    234.16164 
   99500    135.88905   -199.07307     137578.1   -37171.586    2668.5317   -39840.118     289.8991    233.86548 
   99550    130.40446    -322.0363    137559.33   -37183.287    2560.8276   -39744.115    289.99908    224.42649 
   99600     132.4389   -264.43269    137608.88   -37201.201     2600.779    -39801.98    290.39213    227.92776 
   99650    133.99134   -249.23899    137571.49   -37203.562    2631.2652   -39834.827    290.22588    230.59951 
   99700    134.83043   -87.248568    137574.55   -37132.715    2647.7429   -39780.458    290.24752    232.04359 
   99750    133.22577   -289.91823    137528.21   -37125.171    2616.2313   -39741.402    290.04207    229.28197 
   99800    134.61018   -298.49555    137477.55   -37108.903    2643.4177    -39752.32    290.48558    231.66454 
   99850    133.47988   -243.75546    137521.86   -37140.814    2621.2214   -39762.035    290.45908    229.71929 
   99900      134.163   -479.65347    137453.16   -37105.454    2634.6362   -39740.091    290.50504    230.89494 
   99950    133.91499   -367.18874    137400.91   -37136.351    2629.7658   -39766.117    290.51372    230.46811 
  100000    135.41603   -328.78673    137386.53    -37134.71    2659.2426   -39793.953    290.55955    233.05141 
Loop time of 186.647 on 60 procs for 100000 steps with 6589 atoms

Performance: 231.453 ns/day, 0.104 hours/ns, 535.770 timesteps/s
99.5% CPU use with 60 MPI tasks x no OpenMP threads

MPI task timing breakdown:
Section |  min time  |  avg time  |  max time  |%varavg| %total
---------------------------------------------------------------
Pair    | 19.762     | 82.02      | 136.11     | 553.0 | 43.94
Neigh   | 1.2288     | 2.5601     | 7.185      | 132.3 |  1.37
Comm    | 31.486     | 79.11      | 128.17     | 445.6 | 42.38
Output  | 0.20952    | 0.21353    | 0.22887    |   0.5 |  0.11
Modify  | 10.013     | 21.319     | 36.42      | 253.8 | 11.42
Other   |            | 1.425      |            |       |  0.76

Nlocal:    109.817 ave 250 max 70 min
Histogram: 48 0 0 0 0 0 0 0 2 10
Nghost:    1024.48 ave 1340 max 692 min
Histogram: 24 0 0 0 0 0 0 23 1 12
Neighs:    0 ave 0 max 0 min
Histogram: 60 0 0 0 0 0 0 0 0 0
FullNghs:  13359.3 ave 46172 max 4270 min
Histogram: 48 0 0 0 0 0 0 0 2 10

Total # of neighbors = 801558
Ave neighs/atom = 121.651
Neighbor list builds = 5807
Dangerous builds = 0

write_data		${DIR}/data.eq-${NAME}-${TEMP}
write_data		run_3/data.eq-${NAME}-${TEMP}
write_data		run_3/data.eq-het_freeze_3-${TEMP}
write_data		run_3/data.eq-het_freeze_3-230
undump          1

reset_timestep  0

unfix           2
unfix           3
unfix           4


################################################
#######         Run Simulation         #########
################################################

log				${DIR}/log.run_${NAME}
log				run_3/log.run_${NAME}
log				run_3/log.run_het_freeze_3
