LAMMPS data file via write_data, version 16 Mar 2018, timestep = 8000000

4990 atoms
2 atom types

0.0000000000000000e+00 4.9219999999999999e+01 xlo xhi
0.0000000000000000e+00 4.9019635930410494e+01 ylo yhi
1.3034907050010709e+00 3.8696509294995572e+01 zlo zhi

Masses

1 18.015
2 12.01

Atoms # atomic

160 1 1.1605209479497066e+01 1.7972848221641671e+00 1.0302487847695890e+01 1 6 1
2051 1 9.3334760679026374e+00 6.5438118092298214e-02 2.5664447170727378e+00 0 -1 1
2988 1 9.2934209948714415e+00 5.6599179755315241e+00 1.0360864009751685e+01 2 -4 0
4619 1 5.0133410896890611e+00 2.9949379989728295e+00 3.9144276658290220e+00 0 1 1
4184 1 9.4413376480656126e+00 2.5355557822153081e+00 3.8395794073937282e+00 -1 1 0
991 1 6.9974497899418511e+00 9.1185998226975702e+00 1.0597993787430930e+01 1 -1 1
2685 1 2.9690507134436737e+00 4.3101000851837776e+00 2.5748166921869395e+00 -5 -2 0
1372 1 2.7766699816749840e+00 6.5743778524814580e+00 3.7681013054141426e+00 1 1 1
4631 1 2.6902695707810287e-01 7.8002485255729228e+00 3.2085951108191155e+00 -2 -2 1
2883 1 7.3166801792398131e+00 4.1212107233206465e+00 3.1062925422359138e+00 1 4 1
4186 1 7.2533669396925946e+00 6.7139334442154039e+00 3.9715591298912485e+00 -1 1 0
2681 1 4.9929383566453351e+00 8.0479488920002673e+00 2.8570006125847440e+00 0 -1 0
362 1 1.1618096281549603e+01 3.9466765057975564e+00 2.6906324310040706e+00 -2 -4 1
3856 1 9.6095550992103931e+00 7.7712485685641308e+00 2.7169974346654810e+00 -3 3 0
1203 1 1.1645350861857271e+01 6.4254744427512671e+00 3.5186261586322303e+00 -1 1 1
968 1 2.9517608021312642e+00 8.9345145535721375e+00 1.0239290031502192e+01 3 2 0
1207 1 2.5178256785619095e+00 1.1704626235369272e+01 2.4902466506461343e+00 -1 -4 1
2615 1 4.8957853090878665e+00 1.0525001983529163e+01 3.6028798960088237e+00 3 6 1
2168 1 7.0928825513493070e+00 1.1582271609193327e+01 2.5034304700522676e+00 4 -4 1
2604 1 1.1285312406310036e+01 1.1739695599828094e+01 2.6533178041244518e+00 0 1 1
3772 1 9.2203413857043692e+00 1.0382936911739284e+01 3.6450694010095863e+00 2 6 1
2944 1 6.9269513621021139e-01 3.1527987851533061e+00 6.4202795573784570e+00 -2 -1 0
1338 1 2.6834250094142922e+00 1.7634205866253667e+00 7.5908487400482976e+00 0 4 1
4207 1 4.9992293395805030e+00 4.8376861807597143e-01 2.6903306241325349e+00 4 3 1
887 1 5.0300096244366728e+00 2.6629367575718326e+00 6.5856164605529370e+00 2 4 0
1354 1 7.4862941073488924e+00 1.5002417121655407e+00 7.4951352855932107e+00 1 -3 1
2692 1 1.1823745972868112e+01 1.3809863829156632e+00 7.5451276008379287e+00 1 -4 0
529 1 9.1921637498637221e-01 5.1274863135563231e-01 3.0111281447642404e+00 -2 3 1
2715 1 9.6906875019517553e+00 2.9682360055348140e+00 6.4198518588115183e+00 2 0 0
3833 1 9.1852140549215697e+00 1.0830515885431904e+01 6.2738016458065662e+00 0 -5 0
2958 1 7.7230805191776253e-01 5.4448321625454890e+00 7.7237647642234730e+00 2 1 1
3507 1 2.7826493268042229e+00 6.7796792925633858e+00 6.6685838814363478e+00 3 -3 1
392 1 2.8901494741610034e+00 1.9987208119406683e+00 1.0316313860810583e+01 2 2 0
2671 1 5.0096349636448299e+00 5.1132647595582226e+00 7.6480057774422479e+00 1 4 0
4185 1 7.2352483103526808e+00 6.8443534597812192e+00 6.7813874986421379e+00 1 1 0
395 1 5.1699518742269630e+00 5.3931416085292891e+00 1.0339825884528519e+01 -2 5 1
4355 1 9.4592749735751269e+00 5.5114171864814709e+00 7.4890143284416748e+00 -4 3 0
886 1 1.1499837103465202e+01 6.7203591998657037e+00 6.3454834781920466e+00 -2 3 0
2693 1 1.1537116294368495e+01 9.2859783473405475e+00 1.0155776462984594e+01 -6 1 1
2594 1 2.8777823947839525e+00 9.4059969269620485e+00 7.5117513268624059e+00 0 -1 1
3417 1 1.1280262386651234e+01 9.4308377597880124e+00 7.4177323109613260e+00 -3 0 1
2205 1 7.4013560443604725e+00 1.7364887921712870e+00 1.0303152949184852e+01 0 2 0
1342 1 7.2320120508520951e+00 9.4145007204318691e+00 7.6165286313158864e+00 3 0 2
3413 1 5.2515313553631584e+00 1.0782859351211522e+01 6.3255458573264933e+00 -2 4 0
3492 1 6.1461441110381332e-01 5.1960406567441764e+00 1.0379588441210267e+01 -1 3 0
1396 1 6.3712938825976873e-01 3.0411659508168789e+00 3.6248231809347766e+00 -3 -1 0
4315 1 4.6178804577158855e-01 1.0504915262139068e+01 3.9176180730666923e+00 2 1 0
3508 1 4.7133191061999413e-01 1.0572277325077209e+01 6.6997750271795429e+00 3 -3 1
3810 1 6.8881322221359997e-01 2.3682653729097569e+00 1.4126372396704499e+01 -2 -1 0
2689 1 2.7494226087484512e+00 4.0864912009445273e+00 1.3777830174792497e+01 1 0 0
1252 1 2.9422230523496089e+00 4.3038914184672175e+00 1.1241124261129709e+01 -1 -2 0
307 2 1.1074500000000002e+01 1.0656442593567498e+01 1.6867208279447350e+01 0 0 0
283 2 8.6134999999999984e+00 1.0656442593567498e+01 1.6867208279447350e+01 0 0 0
398 1 4.8926976225007044e+00 2.8306426721933833e+00 1.4304928885596022e+01 3 1 0
115 1 7.3470607331148541e+00 4.1978084919963301e+00 1.1244214830259294e+01 -5 2 1
262 2 8.6134999999999984e+00 9.2355835810918343e+00 1.6867208279447350e+01 0 0 0
3453 1 2.9565218612301520e+00 1.2134785839005009e+01 1.3880560962222701e+01 -1 -1 1
2677 1 9.9785212648283022e+00 3.2223832547195239e+00 1.4487758136440457e+01 2 -1 0
1222 1 4.5027371539039102e-01 7.8967868017151543e+00 1.0743859025097688e+01 4 1 0
286 2 1.1074500000000002e+01 9.2355835810918343e+00 1.6867208279447350e+01 0 0 0
284 2 9.8440000000000012e+00 1.1366872099805333e+01 1.6867208279447350e+01 0 0 0
2909 1 2.4254022803609550e+00 6.5885547784346654e+00 1.4485154572735533e+01 2 2 0
3778 1 1.8567375440291586e-01 7.8034332306643668e+00 1.3583861722271656e+01 0 1 0
1778 1 7.3746429896549666e+00 4.1151312412011496e+00 1.3839518925853600e+01 -4 6 0
4578 1 7.3344735151921219e+00 6.6589695232191861e+00 1.4573882846139778e+01 -2 0 0
3388 1 1.1638540219603634e+01 4.2945113018363505e+00 1.1221500806648423e+01 4 2 0
4595 1 4.8611868219779613e+00 7.8566832883323476e+00 1.4297008276580854e+01 -1 1 1
477 1 9.8439949784406302e+00 4.9738205270705815e-01 1.4226054065764295e+01 -3 -1 1
2612 1 9.3132235862783830e+00 8.0792500468138897e+00 1.1203834927190009e+01 -4 4 0
285 2 9.8440000000000012e+00 8.5251540748539956e+00 1.6867208279447350e+01 0 0 0
4261 1 5.3151669934062795e+00 2.0831666311517544e-01 1.4027311375663475e+01 1 -3 1
1272 1 2.7280255025947495e+00 1.1701769119477420e+01 1.1191466791189791e+01 3 -2 0
990 1 5.0435142484177498e-01 1.0684761358538353e+01 1.4438467176764657e+01 0 1 0
4584 1 7.0861566118772057e+00 1.1589631810427514e+01 1.1775266190499625e+01 -1 1 1
920 1 4.9150477890866977e+00 1.0536117934291932e+01 1.4735404486963601e+01 2 -2 0
1308 1 1.1452014824693890e+01 1.1780330268076739e+01 1.1613874357445599e+01 5 -3 1
1723 1 9.5840788436512394e+00 8.3654174970721904e+00 1.4102261696505652e+01 -1 -1 1
2142 1 1.0200538633457478e+01 1.1199240305648464e+01 1.4108862172497679e+01 -4 2 1
193 2 0.0000000000000000e+00 2.8417180249513345e+00 1.6867208279447350e+01 0 0 0
194 2 0.0000000000000000e+00 0.0000000000000000e+00 1.6867208279447350e+01 0 0 0
195 2 1.2305000000000001e+00 7.1042950623783474e-01 1.6867208279447350e+01 0 0 0
199 2 1.2305000000000001e+00 2.1312885187134998e+00 1.6867208279447350e+01 0 0 0
200 2 2.4610000000000003e+00 2.8417180249513345e+00 1.6867208279447350e+01 0 0 0
201 2 2.4610000000000003e+00 0.0000000000000000e+00 1.6867208279447350e+01 0 0 0
202 2 3.6915000000000004e+00 7.1042950623783474e-01 1.6867208279447350e+01 0 0 0
210 2 3.6914999999999996e+00 2.1312885187134998e+00 1.6867208279447350e+01 0 0 0
211 2 4.9220000000000006e+00 2.8417180249513332e+00 1.6867208279447350e+01 0 0 0
212 2 4.9220000000000006e+00 0.0000000000000000e+00 1.6867208279447350e+01 0 0 0
213 2 6.1524999999999999e+00 7.1042950623783407e-01 1.6867208279447350e+01 0 0 0
225 2 6.1524999999999999e+00 2.1312885187134989e+00 1.6867208279447350e+01 0 0 0
226 2 7.3829999999999991e+00 2.8417180249513345e+00 1.6867208279447350e+01 0 0 0
227 2 7.3829999999999991e+00 0.0000000000000000e+00 1.6867208279447350e+01 0 0 0
228 2 8.6134999999999984e+00 7.1042950623783407e-01 1.6867208279447350e+01 0 0 0
244 2 8.6134999999999984e+00 2.1312885187135002e+00 1.6867208279447350e+01 0 0 0
245 2 9.8440000000000012e+00 2.8417180249513332e+00 1.6867208279447350e+01 0 0 0
246 2 9.8440000000000012e+00 0.0000000000000000e+00 1.6867208279447350e+01 0 0 0
247 2 1.1074500000000002e+01 7.1042950623783330e-01 1.6867208279447350e+01 0 0 0
267 2 1.1074500000000002e+01 2.1312885187135002e+00 1.6867208279447350e+01 0 0 0
197 2 0.0000000000000000e+00 4.2625770374269996e+00 1.6867208279447350e+01 0 0 0
198 2 1.2305000000000001e+00 4.9730065436648339e+00 1.6867208279447350e+01 0 0 0
206 2 1.2305000000000001e+00 6.3938655561404980e+00 1.6867208279447350e+01 0 0 0
208 2 2.4610000000000003e+00 4.2625770374269996e+00 1.6867208279447350e+01 0 0 0
209 2 3.6914999999999996e+00 4.9730065436648339e+00 1.6867208279447350e+01 0 0 0
221 2 3.6914999999999996e+00 6.3938655561404980e+00 1.6867208279447350e+01 0 0 0
196 2 0.0000000000000000e+00 7.1042950623783341e+00 1.6867208279447350e+01 0 0 0
207 2 2.4610000000000003e+00 7.1042950623783341e+00 1.6867208279447350e+01 0 0 0
223 2 4.9220000000000006e+00 4.2625770374269978e+00 1.6867208279447350e+01 0 0 0
224 2 6.1524999999999999e+00 4.9730065436648339e+00 1.6867208279447350e+01 0 0 0
240 2 6.1524999999999999e+00 6.3938655561404980e+00 1.6867208279447350e+01 0 0 0
242 2 7.3829999999999991e+00 4.2625770374269996e+00 1.6867208279447350e+01 0 0 0
222 2 4.9220000000000006e+00 7.1042950623783341e+00 1.6867208279447350e+01 0 0 0
241 2 7.3830000000000009e+00 7.1042950623783341e+00 1.6867208279447350e+01 0 0 0
243 2 8.6135000000000002e+00 4.9730065436648339e+00 1.6867208279447350e+01 0 0 0
263 2 8.6135000000000002e+00 6.3938655561404980e+00 1.6867208279447350e+01 0 0 0
265 2 9.8440000000000012e+00 4.2625770374270004e+00 1.6867208279447350e+01 0 0 0
266 2 1.1074500000000002e+01 4.9730065436648339e+00 1.6867208279447350e+01 0 0 0
287 2 1.1074500000000002e+01 6.3938655561404980e+00 1.6867208279447350e+01 0 0 0
264 2 9.8440000000000012e+00 7.1042950623783341e+00 1.6867208279447350e+01 0 0 0
203 2 0.0000000000000000e+00 1.1366872099805333e+01 1.6867208279447350e+01 0 0 0
217 2 1.2305000000000001e+00 1.0656442593567498e+01 1.6867208279447350e+01 0 0 0
218 2 2.4610000000000003e+00 1.1366872099805333e+01 1.6867208279447350e+01 0 0 0
236 2 3.6914999999999996e+00 1.0656442593567499e+01 1.6867208279447350e+01 0 0 0
204 2 0.0000000000000000e+00 8.5251540748539991e+00 1.6867208279447350e+01 0 0 0
205 2 1.2305000000000001e+00 9.2355835810918343e+00 1.6867208279447350e+01 0 0 0
219 2 2.4610000000000003e+00 8.5251540748539991e+00 1.6867208279447350e+01 0 0 0
220 2 3.6915000000000004e+00 9.2355835810918343e+00 1.6867208279447350e+01 0 0 0
260 2 7.3829999999999991e+00 1.1366872099805333e+01 1.6867208279447350e+01 0 0 0
237 2 4.9220000000000006e+00 1.1366872099805333e+01 1.6867208279447350e+01 0 0 0
261 2 7.3830000000000009e+00 8.5251540748539991e+00 1.6867208279447350e+01 0 0 0
239 2 6.1524999999999999e+00 9.2355835810918343e+00 1.6867208279447350e+01 0 0 0
238 2 4.9220000000000006e+00 8.5251540748539991e+00 1.6867208279447350e+01 0 0 0
259 2 6.1524999999999999e+00 1.0656442593567499e+01 1.6867208279447350e+01 0 0 0
308 2 1.2304999999999998e+01 1.1366872099805333e+01 1.6867208279447350e+01 0 0 0
2081 1 4.9305706422588278e+00 7.7543143453490604e+00 1.1522622688015526e+01 -3 -1 0
2881 1 9.4817251765854085e+00 3.5646257919420138e-01 1.1551133794224047e+01 2 1 1
3741 1 8.6637926050265601e-01 4.9657857603827005e-01 1.1504882285324205e+01 0 3 0
935 1 1.2212230376857944e+01 7.1305026422226918e+00 1.3960263224068688e+01 5 1 0
2175 1 7.6861169620490939e+00 1.2134484191111369e+01 1.4497220502324302e+01 -1 1 1
4537 1 5.2049280602430157e+00 6.6994063355625488e-01 1.1147764283112119e+01 -1 1 1
549 2 0.0000000000000000e+00 1.4208590124756650e+00 2.0029225562244541e+01 0 0 0
550 2 0.0000000000000000e+00 0.0000000000000000e+00 2.0029225562244541e+01 0 0 0
554 2 1.2305000000000001e+00 2.1312885187134998e+00 2.0029225562244541e+01 0 0 0
555 2 2.4610000000000003e+00 1.4208590124756650e+00 2.0029225562244541e+01 0 0 0
556 2 2.4610000000000003e+00 0.0000000000000000e+00 2.0029225562244541e+01 0 0 0
564 2 3.6914999999999996e+00 2.1312885187134998e+00 2.0029225562244541e+01 0 0 0
710 2 0.0000000000000000e+00 2.8417180249513345e+00 2.3191242845036104e+01 0 0 0
711 2 0.0000000000000000e+00 0.0000000000000000e+00 2.3191242845036104e+01 0 0 0
712 2 1.2305000000000001e+00 7.1042950623783474e-01 2.3191242845036104e+01 0 0 0
716 2 1.2305000000000001e+00 2.1312885187134998e+00 2.3191242845036104e+01 0 0 0
717 2 2.4610000000000003e+00 2.8417180249513345e+00 2.3191242845036104e+01 0 0 0
718 2 2.4610000000000003e+00 0.0000000000000000e+00 2.3191242845036104e+01 0 0 0
719 2 3.6915000000000004e+00 7.1042950623783474e-01 2.3191242845036104e+01 0 0 0
727 2 3.6914999999999996e+00 2.1312885187134998e+00 2.3191242845036104e+01 0 0 0
553 2 1.2305000000000001e+00 3.5521475311891644e+00 2.0029225562244541e+01 0 0 0
563 2 3.6914999999999996e+00 3.5521475311891644e+00 2.0029225562244541e+01 0 0 0
565 2 4.9220000000000006e+00 1.4208590124756650e+00 2.0029225562244541e+01 0 0 0
566 2 4.9220000000000006e+00 0.0000000000000000e+00 2.0029225562244541e+01 0 0 0
578 2 6.1524999999999999e+00 2.1312885187134989e+00 2.0029225562244541e+01 0 0 0
579 2 7.3829999999999991e+00 1.4208590124756659e+00 2.0029225562244541e+01 0 0 0
580 2 7.3829999999999991e+00 0.0000000000000000e+00 2.0029225562244541e+01 0 0 0
728 2 4.9220000000000006e+00 2.8417180249513332e+00 2.3191242845036104e+01 0 0 0
729 2 4.9220000000000006e+00 0.0000000000000000e+00 2.3191242845036104e+01 0 0 0
730 2 6.1524999999999999e+00 7.1042950623783407e-01 2.3191242845036104e+01 0 0 0
742 2 6.1524999999999999e+00 2.1312885187134989e+00 2.3191242845036104e+01 0 0 0
743 2 7.3829999999999991e+00 2.8417180249513345e+00 2.3191242845036104e+01 0 0 0
744 2 7.3829999999999991e+00 0.0000000000000000e+00 2.3191242845036104e+01 0 0 0
577 2 6.1524999999999999e+00 3.5521475311891644e+00 2.0029225562244541e+01 0 0 0
596 2 8.6134999999999984e+00 2.1312885187135002e+00 2.0029225562244541e+01 0 0 0
597 2 9.8440000000000012e+00 1.4208590124756659e+00 2.0029225562244541e+01 0 0 0
598 2 9.8440000000000012e+00 0.0000000000000000e+00 2.0029225562244541e+01 0 0 0
618 2 1.1074500000000002e+01 2.1312885187135002e+00 2.0029225562244541e+01 0 0 0
745 2 8.6134999999999984e+00 7.1042950623783407e-01 2.3191242845036104e+01 0 0 0
761 2 8.6134999999999984e+00 2.1312885187135002e+00 2.3191242845036104e+01 0 0 0
762 2 9.8440000000000012e+00 2.8417180249513332e+00 2.3191242845036104e+01 0 0 0
763 2 9.8440000000000012e+00 0.0000000000000000e+00 2.3191242845036104e+01 0 0 0
764 2 1.1074500000000002e+01 7.1042950623783330e-01 2.3191242845036104e+01 0 0 0
784 2 1.1074500000000002e+01 2.1312885187135002e+00 2.3191242845036104e+01 0 0 0
595 2 8.6134999999999984e+00 3.5521475311891657e+00 2.0029225562244541e+01 0 0 0
617 2 1.1074500000000002e+01 3.5521475311891644e+00 2.0029225562244541e+01 0 0 0
551 2 0.0000000000000000e+00 5.6834360499026637e+00 2.0029225562244541e+01 0 0 0
552 2 0.0000000000000000e+00 4.2625770374269996e+00 2.0029225562244541e+01 0 0 0
560 2 1.2305000000000001e+00 6.3938655561404980e+00 2.0029225562244541e+01 0 0 0
561 2 2.4610000000000003e+00 5.6834360499026637e+00 2.0029225562244541e+01 0 0 0
562 2 2.4610000000000003e+00 4.2625770374269996e+00 2.0029225562244541e+01 0 0 0
574 2 3.6914999999999996e+00 6.3938655561404980e+00 2.0029225562244541e+01 0 0 0
714 2 0.0000000000000000e+00 4.2625770374269996e+00 2.3191242845036104e+01 0 0 0
715 2 1.2305000000000001e+00 4.9730065436648339e+00 2.3191242845036104e+01 0 0 0
723 2 1.2305000000000001e+00 6.3938655561404980e+00 2.3191242845036104e+01 0 0 0
725 2 2.4610000000000003e+00 4.2625770374269996e+00 2.3191242845036104e+01 0 0 0
726 2 3.6914999999999996e+00 4.9730065436648339e+00 2.3191242845036104e+01 0 0 0
738 2 3.6914999999999996e+00 6.3938655561404980e+00 2.3191242845036104e+01 0 0 0
559 2 1.2305000000000001e+00 7.8147245686161639e+00 2.0029225562244541e+01 0 0 0
573 2 3.6914999999999996e+00 7.8147245686161639e+00 2.0029225562244541e+01 0 0 0
713 2 0.0000000000000000e+00 7.1042950623783341e+00 2.3191242845036104e+01 0 0 0
724 2 2.4610000000000003e+00 7.1042950623783341e+00 2.3191242845036104e+01 0 0 0
575 2 4.9220000000000006e+00 5.6834360499026637e+00 2.0029225562244541e+01 0 0 0
576 2 4.9220000000000006e+00 4.2625770374269978e+00 2.0029225562244541e+01 0 0 0
592 2 6.1524999999999999e+00 6.3938655561404980e+00 2.0029225562244541e+01 0 0 0
593 2 7.3829999999999991e+00 5.6834360499026637e+00 2.0029225562244541e+01 0 0 0
594 2 7.3829999999999991e+00 4.2625770374269996e+00 2.0029225562244541e+01 0 0 0
740 2 4.9220000000000006e+00 4.2625770374269978e+00 2.3191242845036104e+01 0 0 0
741 2 6.1524999999999999e+00 4.9730065436648339e+00 2.3191242845036104e+01 0 0 0
757 2 6.1524999999999999e+00 6.3938655561404980e+00 2.3191242845036104e+01 0 0 0
759 2 7.3829999999999991e+00 4.2625770374269996e+00 2.3191242845036104e+01 0 0 0
591 2 6.1524999999999999e+00 7.8147245686161639e+00 2.0029225562244541e+01 0 0 0
739 2 4.9220000000000006e+00 7.1042950623783341e+00 2.3191242845036104e+01 0 0 0
758 2 7.3830000000000009e+00 7.1042950623783341e+00 2.3191242845036104e+01 0 0 0
614 2 8.6135000000000002e+00 6.3938655561404980e+00 2.0029225562244541e+01 0 0 0
615 2 9.8440000000000012e+00 5.6834360499026637e+00 2.0029225562244541e+01 0 0 0
616 2 9.8440000000000012e+00 4.2625770374270004e+00 2.0029225562244541e+01 0 0 0
637 2 1.1074500000000002e+01 6.3938655561404980e+00 2.0029225562244541e+01 0 0 0
760 2 8.6135000000000002e+00 4.9730065436648339e+00 2.3191242845036104e+01 0 0 0
780 2 8.6135000000000002e+00 6.3938655561404980e+00 2.3191242845036104e+01 0 0 0
782 2 9.8440000000000012e+00 4.2625770374270004e+00 2.3191242845036104e+01 0 0 0
783 2 1.1074500000000002e+01 4.9730065436648339e+00 2.3191242845036104e+01 0 0 0
804 2 1.1074500000000002e+01 6.3938655561404980e+00 2.3191242845036104e+01 0 0 0
613 2 8.6135000000000002e+00 7.8147245686161639e+00 2.0029225562244541e+01 0 0 0
636 2 1.1074500000000002e+01 7.8147245686161639e+00 2.0029225562244541e+01 0 0 0
781 2 9.8440000000000012e+00 7.1042950623783341e+00 2.3191242845036104e+01 0 0 0
557 2 0.0000000000000000e+00 9.9460130873296642e+00 2.0029225562244541e+01 0 0 0
558 2 0.0000000000000000e+00 8.5251540748539991e+00 2.0029225562244541e+01 0 0 0
571 2 2.4610000000000003e+00 9.9460130873296642e+00 2.0029225562244541e+01 0 0 0
572 2 2.4610000000000003e+00 8.5251540748539991e+00 2.0029225562244541e+01 0 0 0
721 2 0.0000000000000000e+00 8.5251540748539991e+00 2.3191242845036104e+01 0 0 0
722 2 1.2305000000000001e+00 9.2355835810918343e+00 2.3191242845036104e+01 0 0 0
736 2 2.4610000000000003e+00 8.5251540748539991e+00 2.3191242845036104e+01 0 0 0
737 2 3.6915000000000004e+00 9.2355835810918343e+00 2.3191242845036104e+01 0 0 0
569 2 1.2305000000000001e+00 1.2077301606043163e+01 2.0029225562244541e+01 0 0 0
570 2 1.2305000000000001e+00 1.0656442593567498e+01 2.0029225562244541e+01 0 0 0
587 2 3.6914999999999996e+00 1.2077301606043163e+01 2.0029225562244541e+01 0 0 0
588 2 3.6914999999999996e+00 1.0656442593567499e+01 2.0029225562244541e+01 0 0 0
720 2 0.0000000000000000e+00 1.1366872099805333e+01 2.3191242845036104e+01 0 0 0
734 2 1.2305000000000001e+00 1.0656442593567498e+01 2.3191242845036104e+01 0 0 0
735 2 2.4610000000000003e+00 1.1366872099805333e+01 2.3191242845036104e+01 0 0 0
753 2 3.6914999999999996e+00 1.0656442593567499e+01 2.3191242845036104e+01 0 0 0
589 2 4.9220000000000006e+00 9.9460130873296642e+00 2.0029225562244541e+01 0 0 0
590 2 4.9220000000000006e+00 8.5251540748539991e+00 2.0029225562244541e+01 0 0 0
611 2 7.3830000000000009e+00 9.9460130873296642e+00 2.0029225562244541e+01 0 0 0
612 2 7.3830000000000009e+00 8.5251540748539991e+00 2.0029225562244541e+01 0 0 0
755 2 4.9220000000000006e+00 8.5251540748539991e+00 2.3191242845036104e+01 0 0 0
756 2 6.1524999999999999e+00 9.2355835810918343e+00 2.3191242845036104e+01 0 0 0
778 2 7.3830000000000009e+00 8.5251540748539991e+00 2.3191242845036104e+01 0 0 0
609 2 6.1524999999999999e+00 1.2077301606043163e+01 2.0029225562244541e+01 0 0 0
610 2 6.1524999999999999e+00 1.0656442593567499e+01 2.0029225562244541e+01 0 0 0
754 2 4.9220000000000006e+00 1.1366872099805333e+01 2.3191242845036104e+01 0 0 0
776 2 6.1524999999999999e+00 1.0656442593567499e+01 2.3191242845036104e+01 0 0 0
777 2 7.3829999999999991e+00 1.1366872099805333e+01 2.3191242845036104e+01 0 0 0
634 2 9.8440000000000012e+00 9.9460130873296642e+00 2.0029225562244541e+01 0 0 0
635 2 9.8440000000000012e+00 8.5251540748539956e+00 2.0029225562244541e+01 0 0 0
779 2 8.6134999999999984e+00 9.2355835810918343e+00 2.3191242845036104e+01 0 0 0
802 2 9.8440000000000012e+00 8.5251540748539956e+00 2.3191242845036104e+01 0 0 0
803 2 1.1074500000000002e+01 9.2355835810918343e+00 2.3191242845036104e+01 0 0 0
632 2 8.6135000000000002e+00 1.2077301606043163e+01 2.0029225562244541e+01 0 0 0
633 2 8.6134999999999984e+00 1.0656442593567498e+01 2.0029225562244541e+01 0 0 0
655 2 1.1074500000000002e+01 1.2077301606043163e+01 2.0029225562244541e+01 0 0 0
656 2 1.1074500000000002e+01 1.0656442593567498e+01 2.0029225562244541e+01 0 0 0
800 2 8.6134999999999984e+00 1.0656442593567498e+01 2.3191242845036104e+01 0 0 0
801 2 9.8440000000000012e+00 1.1366872099805333e+01 2.3191242845036104e+01 0 0 0
824 2 1.1074500000000002e+01 1.0656442593567498e+01 2.3191242845036104e+01 0 0 0
825 2 1.2304999999999998e+01 1.1366872099805333e+01 2.3191242845036104e+01 0 0 0
3494 1 1.1381161783227641e+01 6.9438182486342166e+00 2.9289889269395797e+01 3 -1 0
4307 1 9.3381745017571820e+00 2.9987426010791780e+00 2.8925165727277118e+01 -1 -1 -1
4288 1 2.6413119406802097e+00 6.7949301115403307e+00 2.8502337934676124e+01 3 4 -1
492 1 5.1517449092379914e+00 6.6722175691196395e-01 2.5574033674210945e+01 0 0 -1
1363 1 4.8017193195728325e+00 3.2167064339638518e+00 2.6079223204266192e+01 -2 -1 0
2045 1 5.2669363136611809e+00 2.9960692818015451e+00 2.8754905178742895e+01 5 -1 0
2074 1 7.1724567909599068e+00 7.2274748139445437e+00 2.9077943171793606e+01 2 2 -1
1713 1 9.4385862386221682e+00 3.3355774436966974e+00 2.6188235081206749e+01 0 -6 -1
2876 1 9.7096371159535568e+00 6.2597037153379986e-01 2.5676088924680421e+01 2 1 -1
2216 1 2.7411851600526669e+00 4.8367618053937296e+00 2.5488365565611147e+01 2 2 0
2669 1 2.8550061481768654e+00 7.4488326610062998e+00 2.5875170531524830e+01 3 -7 -1
3878 1 5.2063844923222125e-01 2.9138251793681089e+00 2.8789141326143195e+01 0 2 0
4598 1 4.8733441428668263e+00 8.9246296518039845e+00 2.5607285085701744e+01 0 -1 1
4623 1 7.0001435015633762e+00 4.7880789730002542e+00 2.5630793751377976e+01 2 -2 0
3047 1 6.8132154739377162e+00 7.4723180734085393e+00 2.6469123578261630e+01 -2 -5 -1
2574 1 8.9755857082531545e+00 8.6427597607965634e+00 2.5361526242107750e+01 4 5 0
185 1 1.1152897982235659e+01 7.2481118597292209e+00 2.6533906181772583e+01 1 2 -1
1828 1 1.1573794680562989e+01 4.8062209621620067e+00 2.5610089097361698e+01 1 3 0
2060 1 6.7377556225898150e-01 3.4129449761574797e+00 2.6239049435350822e+01 3 -4 0
1294 1 6.7425340766848940e-01 8.4711693568991175e-01 2.5437000374154152e+01 -2 -2 0
2096 1 8.7702488934892884e+00 1.1354819835622267e+01 2.5796673947727168e+01 2 2 0
1837 1 4.5056449136089558e+00 1.1804418668341594e+01 2.6077729813338646e+01 0 -2 -1
3419 1 4.5009539685835129e+00 1.0727575228233805e+01 2.8782145631735794e+01 1 0 0
1257 1 9.0729442710741246e+00 1.0672963108248476e+01 2.8648771882704732e+01 6 -4 0
4375 1 3.3371763888843359e-01 8.8800450439956258e+00 2.5398965093648656e+01 -3 -2 -1
4549 1 1.9742713810664006e-01 1.0621754233245580e+01 2.8932693358314772e+01 1 1 0
896 1 1.2898180740124587e-01 1.1493700436951656e+01 2.6305888765233679e+01 1 -2 -1
2553 1 2.7045103281829630e+00 1.7497464667410869e+00 3.2498435625363300e+01 -1 0 -1
3384 1 2.8305998168559983e+00 1.3995243188621715e+00 2.9600661022864013e+01 -1 -3 -1
999 1 4.6221524771360256e-01 3.0074584193375316e+00 3.3677046595423192e+01 2 7 -1
4594 1 6.9314528923041756e+00 1.7992587895374206e+00 3.2625792544857489e+01 1 -1 1
3536 1 7.0250491610584413e+00 1.5038012255514601e+00 3.0003775989966808e+01 0 3 0
2044 1 1.1496474527864006e+01 1.7063802387773470e+00 3.2638669110290394e+01 -1 1 -1
518 1 1.1394625133512193e+01 1.6931258781572842e+00 2.9961465763814420e+01 -1 -1 0
2201 1 2.6708677275441333e+00 7.2267466036583397e+00 3.3761769811035776e+01 3 1 0
15 1 5.0699344949745262e-01 5.6939309513232788e+00 3.2725437140109449e+01 0 1 -1
2160 1 1.1221751344569071e+01 1.1725122920590724e+01 3.7347080958480333e+01 -3 1 -1
1863 1 4.5620153368078107e+00 5.6236562538374164e+00 3.2944722761535637e+01 2 -1 0
143 1 7.1716416208908704e+00 6.6344526748396282e+00 3.3072809703209188e+01 1 -3 -1
3715 1 4.8682264518258531e+00 5.7300756066119680e+00 2.9873946530140604e+01 0 1 -1
2608 1 9.1737875475183763e+00 1.0230640148540529e+01 3.6234085695961753e+01 1 0 -1
4647 1 9.3737902993176654e+00 5.6395274481980016e+00 3.2507740674256880e+01 -1 0 0
1788 1 9.2839015696818041e+00 5.6276212043392846e+00 2.9747131752306757e+01 -2 0 -1
934 1 1.1467227574063893e+01 6.8119272204152095e+00 3.3875444586164079e+01 1 -1 -1
2879 1 2.2979828098864039e+00 9.3218954268394860e+00 2.9653200362976971e+01 0 1 0
2905 1 2.4502990378199772e+00 9.6126880616537420e+00 3.2366444535854860e+01 1 -3 -1
3393 1 7.7743305268950258e-01 2.5912637264407146e-01 3.7696277312964455e+01 3 -2 -1
2869 1 6.8769861493797277e+00 9.4520938795607279e+00 3.2477437809808478e+01 1 -1 -1
2660 1 4.7158065738339303e+00 1.0448055504633041e+01 3.3589782987656093e+01 -2 -1 -1
4701 1 6.9011850536056887e+00 9.6228465942160870e+00 2.9786893745728996e+01 1 -5 -1
3511 1 9.0488901622460123e+00 1.0328723030734880e+01 3.3457420032111301e+01 -2 -2 -1
46 1 1.1580013202142466e+01 9.2009962463386543e+00 3.2277954998796311e+01 2 1 -2
1265 1 1.1342047788627482e+01 9.5196817148839994e+00 2.9420109874938785e+01 -4 -3 0
2662 1 5.7949869506665497e-01 2.7489143291323308e+00 3.6603690985601276e+01 0 1 -1
3026 1 5.2128974164758830e+00 7.4688006425755251e+00 3.7298913668954100e+01 3 -1 -1
2690 1 4.9739650653900815e+00 2.9770953123695518e+00 3.3692162861045247e+01 -4 -1 -1
4577 1 4.8520220909380587e+00 3.2022276775376408e+00 3.6300793837739420e+01 -4 -4 0
71 1 6.8337905171587403e+00 1.1558087819545079e+01 3.7154875571962066e+01 1 -1 -1
3427 1 9.1423062036506604e+00 3.0251142939566034e+00 3.3255181426762391e+01 -1 3 0
2987 1 9.2997925062747910e+00 2.7486404038879337e+00 3.6073522870392836e+01 1 4 0
949 1 1.1508839502620443e+01 3.9725134436059766e+00 3.7313740882626519e+01 0 2 -1
461 1 7.0460041008653607e-01 5.4358688360611538e+00 2.9962916592534633e+01 -1 -2 0
1738 1 2.5798587525087942e+00 4.4375834872413700e+00 3.7228352309699758e+01 -1 2 0
527 1 2.4415746510576386e+00 7.0486585714006793e+00 3.6637775289772947e+01 -1 0 -1
1254 1 9.3704748214694771e+00 3.8473326688915821e-01 3.7306787089938467e+01 -1 2 0
4530 1 7.3025085685723115e+00 4.1662930829262717e+00 3.7455465821996938e+01 -1 -4 -1
171 1 7.2711224729145094e+00 6.3680009388543430e+00 3.5961402144664362e+01 -1 -4 -1
2614 1 9.3363832950215500e+00 7.7056255533324842e+00 3.7306186943034049e+01 -3 5 0
4338 1 1.1834690283686564e+01 6.5784783100626196e+00 3.6677578391349272e+01 -2 2 0
1292 1 4.9567650431656638e+00 6.8594150019046107e-01 3.7335765261948197e+01 5 -4 1
1362 1 2.5331908311164626e+00 1.1551425485419806e+01 3.7230924142652071e+01 -2 1 0
40 1 4.7306324463546501e+00 1.0037885729772769e+01 3.6246516601493781e+01 1 -5 -1
4573 1 3.3632502473005516e-01 1.0477041995443241e+01 3.6478294721812247e+01 -1 -1 -1
1793 1 2.4261800720346116e-01 1.0423817955733211e+01 3.3815156553594136e+01 0 -3 -1
72 1 5.1511341626877538e-03 8.0097757754374044e+00 3.7715272402318917e+01 -1 1 -1
494 1 2.2357959906259719e+00 1.4313333798935894e+01 3.6802893891618300e+00 0 1 1
993 1 3.5601297826349432e-01 1.2903642113288498e+01 1.0249513257561954e+01 0 -3 1
366 1 4.6692552229343427e+00 1.5503442800256154e+01 3.0149478422026514e+00 1 1 1
4580 1 7.1425209754352048e+00 1.4140075910015462e+01 3.5947875059393972e+00 0 1 1
2110 1 9.2122999417940186e+00 1.5504374710541708e+01 2.8697413266503098e+00 0 0 0
3542 1 1.1475135358450459e+01 1.4322071764738643e+01 3.5955058771549560e+00 0 -2 0
970 1 2.1937387142360034e+00 1.9091292366739527e+01 2.6332490940833155e+00 -3 1 0
2111 1 4.5515657855359750e+00 1.8055984953549416e+01 4.1173965829857728e+00 1 -3 1
3759 1 6.7824455848032610e+00 1.8927636624654262e+01 2.8268813099727135e+00 3 3 0
2960 1 9.2336492421011034e+00 1.7870180931176154e+01 3.9739557175005622e+00 3 2 1
4299 1 1.1366062625241732e+01 1.9217463709554075e+01 2.8852609789080015e+00 -3 0 0
1027 1 1.9551094039446293e+00 2.1749281157221070e+01 3.7853727105761394e+00 3 -2 0
2049 1 4.1110076617572595e+00 2.2843264489975766e+01 2.7344262249384750e+00 4 0 1
96 1 6.2847431705284844e+00 2.1629557701353193e+01 3.8350933408873447e+00 -4 -1 1
4339 1 1.0829935548020426e+01 2.1723099947898774e+01 3.8243955355658792e+00 0 -4 0
942 1 8.5672825370567036e+00 2.3090201199538967e+01 2.9132837336599433e+00 -1 0 0
3403 1 2.7841605761959509e+00 1.4496000763702291e+01 6.4219340444376529e+00 0 2 0
1366 1 6.8230535402729124e+00 1.6756519831906385e+01 1.0516405578706427e+01 2 2 1
459 1 6.0455801790016288e+00 2.4271197326952194e+01 9.8841306339301838e+00 1 1 1
2236 1 9.2741656517913320e+00 1.2882818841078000e+01 1.0388192968568823e+01 -2 2 0
3785 1 4.9216161127075022e+00 1.3061387782616833e+01 1.0177317541164683e+01 1 2 1
1260 1 5.0618067945237106e+00 1.3342724111726893e+01 7.5130157490102114e+00 -2 -2 1
4664 1 7.2058693028401084e+00 1.4568230784400544e+01 6.2262225857992863e+00 0 1 2
2233 1 1.1498075247087717e+01 1.4173340428036525e+01 6.4370806022956879e+00 2 -5 0
513 1 9.1953608201898493e+00 1.3171006299822224e+01 7.3116116046094248e+00 -2 -1 1
157 1 4.2808965076754504e+00 2.0354656362128349e+01 1.0409267632921601e+01 0 -1 0
1812 1 1.1073431189257017e+01 1.6614289299746897e+01 1.0196874341274237e+01 2 0 0