LAMMPS data file via write_data, version 16 Mar 2018, timestep = 100000

4990 atoms
2 atom types

0.0000000000000000e+00 4.9219999999999999e+01 xlo xhi
0.0000000000000000e+00 4.9019635930410494e+01 ylo yhi
2.1870897287001192e+00 3.7812910271301391e+01 zlo zhi

Masses

1 18.015
2 12.01

Atoms # atomic

372 1 2.4537206689348832e+00 1.7195022728773806e+00 4.3138722857487277e+00 1 1 1
4599 1 8.5211571739375747e-01 1.1562436991471898e+01 4.1708872738692735e+00 0 1 1
402 1 3.1136950419117513e+00 9.8491990184671767e+00 7.6617075108022652e+00 -1 0 0
982 1 1.9898280936233688e+00 4.6060432871962957e+00 5.5007632373703634e+00 0 2 0
135 1 9.1455249195461956e+00 4.2621164448368032e-01 1.0119328856545987e+01 1 0 0
2565 1 7.5384878923198606e+00 1.1058075663298485e+01 1.0549448830456704e+01 0 0 1
4677 1 6.8251108934444833e+00 1.0061112295049481e+01 3.5779889569328249e+00 1 0 1
147 1 9.2360790541792568e+00 7.3492989194250402e+00 8.6644393557533270e+00 0 0 0
4194 1 2.0817169229954220e+00 7.3753715233398793e+00 7.0530765933458790e+00 -1 1 0
4700 1 8.4689732324178513e-01 6.2346039546563370e+00 3.0457333558189794e+00 0 1 1
983 1 8.5677873600761227e+00 6.9231727812932065e-01 3.2456365575975585e+00 0 2 0
3044 1 6.3240751145921630e+00 3.8322777485574102e+00 3.3227860571428676e+00 0 1 1
1727 1 8.8494995589985805e+00 5.6574743291810936e+00 2.5488395485554745e+00 0 0 1
4530 1 7.0417553123826482e-01 5.5077564673517887e-01 2.3210998439338613e+00 1 0 0
2546 1 3.5839831036797620e+00 7.2523335885113553e+00 4.3918283179244852e+00 1 0 1
515 1 7.2993779302899089e+00 1.1206145732976807e+01 7.8449766111272821e+00 1 1 0
1815 1 3.0441304490869014e+00 1.0019817633171686e+01 3.3870562148433998e+00 0 0 0
1243 1 1.4318487049207713e+00 3.1608004499014708e+00 8.8470159197322964e+00 0 -1 0
4277 1 6.0475898320833767e+00 7.3232553147775610e+00 5.6533468430607261e+00 0 -1 1
523 1 6.6302139274441094e+00 8.2242154327235646e+00 8.1396502925171745e+00 0 -1 1
3541 1 1.1060050418548639e+00 1.1637919485375594e+01 7.2136767736070739e+00 1 0 1
3485 1 8.1647141203670497e+00 7.9052743327778225e+00 4.1157911501355899e+00 0 0 0
1270 1 1.0632601634521750e+01 1.1494540298314011e+01 1.0181128151203144e+01 -1 0 1
1810 1 1.0710581898540896e+01 8.7543621163105954e+00 4.8477247400782453e+00 -1 0 1
447 1 1.1055813343826914e+01 1.1449174668128721e+01 4.7656483527202163e+00 1 1 1
3431 1 1.0867962660448169e+01 2.1403243255254263e+00 6.4839125620429732e+00 -1 1 1
1717 1 5.2901393935666912e+00 1.0584089229318106e+01 6.0816224890662447e+00 1 1 0
4336 1 5.0910824044011287e+00 2.2002911190815411e+00 9.3007412277162391e+00 1 0 1
3803 1 8.4586552081162445e+00 3.6809113320888596e+00 7.3903869055092111e+00 0 1 1
3350 1 7.2804894855505902e+00 1.6257305048499069e+00 7.8389455598874340e+00 0 0 1
1838 1 4.5277549443424219e+00 6.4376809890869167e+00 8.8094305862413318e+00 0 0 0
463 1 4.0609643012055736e+00 4.0833771884720731e+00 7.3588506666314819e+00 1 0 1
993 1 1.1926579351554729e+01 8.0112285990789509e+00 7.2877124924166727e+00 1 0 1
3000 1 6.2581843516613285e+00 4.5029474981070212e+00 5.8864316912762327e+00 0 1 1
3363 1 6.3958798759012581e+00 5.2825426413742855e+00 1.0519601689491726e+01 2 0 0
3754 1 9.5398916001374143e+00 3.2667774989762326e+00 4.0336327801749388e+00 0 1 1
3783 1 3.9783024430277947e-01 5.8310505962045607e+00 8.7579477898548586e+00 1 0 1
492 1 9.0838090707647741e+00 4.9058132684678535e+00 9.6796595640280518e+00 0 0 0
3851 1 5.2371409137448035e+00 1.4089905452595446e+00 3.8707502813005426e+00 1 0 1
1702 1 8.4761836187687081e+00 1.2098302878282755e+01 3.3753675004957984e+00 0 1 0
2081 1 3.3549380787127778e+00 1.0131403695410036e+01 1.0550687454514602e+01 0 1 0
3449 1 4.5746413672165920e+00 5.7363428828811598e+00 2.4152930021602188e+00 1 0 0
902 1 1.2291990787159385e+01 2.3449879003763874e+00 3.4356958392748882e+00 0 1 0
3760 1 5.8424284838926548e+00 8.9214484403207184e+00 1.0757967133618877e+01 0 1 1
1780 1 9.8650590231425141e+00 8.7663091883383206e+00 1.0973776420524414e+01 -1 1 0
127 1 3.5494517761960811e+00 4.6721467846492898e-01 1.4285613269488406e+01 0 0 0
1843 1 2.2670749053804964e+00 2.7673514401768364e+00 1.4525547129824048e+01 -1 1 0
25 1 5.9092280481682407e+00 1.9971138384803888e+00 1.4727391945028804e+01 0 0 1
2939 1 1.1366042109113279e+01 1.5247699165228645e+00 1.4341363912277496e+01 0 1 0
3881 1 5.8846245891110973e+00 4.7230190288844449e+00 1.4335695198240558e+01 0 0 1
3419 1 8.9207040609533390e+00 5.7153317782837663e+00 1.4505998539013998e+01 1 0 1
886 1 3.4798684256373256e+00 6.3363173739221690e+00 1.4160048768291114e+01 0 1 0
103 1 8.9042670012741798e+00 2.6083550764330394e+00 1.2062827679140506e+01 1 0 0
262 2 8.6134999999999984e+00 9.2355835810918343e+00 1.7015264350348964e+01 0 0 0
3489 1 7.5969977195376570e+00 7.1463790798998899e+00 1.2198830134606064e+01 1 1 0
1715 1 1.1281447513742840e+01 4.0231577932339357e+00 1.1298526841736352e+01 1 0 0
2723 1 3.6875327416292464e-01 6.6393581430818074e+00 1.1361908751956063e+01 1 0 0
1229 1 9.7129175396051859e-01 9.7178289496426675e+00 1.3839629008443376e+01 1 1 1
283 2 8.6134999999999984e+00 1.0656442593567498e+01 1.7015264350348964e+01 0 0 0
987 1 4.3756659654748004e-01 6.8318374635479664e+00 1.4220834517290676e+01 0 0 1
285 2 9.8440000000000012e+00 8.5251540748539956e+00 1.7015264350348964e+01 0 0 0
4702 1 3.8705814041462627e+00 9.1598160090605738e+00 1.3590796326807801e+01 -1 0 1
2174 1 5.9451840456545026e+00 2.9043175727397266e+00 1.1810972348326125e+01 0 0 0
1 1 1.1623705226165175e+01 9.1236092934707376e+00 1.3340632819197548e+01 1 0 0
535 1 9.0379588987715422e+00 8.4616245762378561e+00 1.4898192207700733e+01 1 0 1
405 1 1.1481998162613467e+01 4.5524422250255459e+00 1.4008780169712583e+01 0 0 0
3798 1 6.6094176212431965e-01 9.7589979611631179e+00 1.1254303173739329e+01 1 0 1
284 2 9.8440000000000012e+00 1.1366872099805333e+01 1.7015264350348964e+01 0 0 0
1204 1 6.5647324172480994e+00 9.9481726767483991e+00 1.3838717055691188e+01 0 -1 1
2145 1 8.4081312176897800e+00 1.1253547715295513e+00 1.4402010029545677e+01 -1 0 1
1393 1 3.1736095064926619e+00 5.8420706498471988e+00 1.1450078494339042e+01 1 1 0
3386 1 1.1987662635031109e+01 1.1409520901508463e+01 1.4954172225479521e+01 0 1 1
286 2 1.1074500000000002e+01 9.2355835810918343e+00 1.7015264350348964e+01 0 0 0
307 2 1.1074500000000002e+01 1.0656442593567498e+01 1.7015264350348964e+01 0 0 0
193 2 0.0000000000000000e+00 2.8417180249513345e+00 1.7015264350348964e+01 0 0 0
194 2 0.0000000000000000e+00 0.0000000000000000e+00 1.7015264350348964e+01 0 0 0
195 2 1.2305000000000001e+00 7.1042950623783474e-01 1.7015264350348964e+01 0 0 0
199 2 1.2305000000000001e+00 2.1312885187134998e+00 1.7015264350348964e+01 0 0 0
200 2 2.4610000000000003e+00 2.8417180249513345e+00 1.7015264350348964e+01 0 0 0
201 2 2.4610000000000003e+00 0.0000000000000000e+00 1.7015264350348964e+01 0 0 0
202 2 3.6915000000000004e+00 7.1042950623783474e-01 1.7015264350348964e+01 0 0 0
210 2 3.6914999999999996e+00 2.1312885187134998e+00 1.7015264350348964e+01 0 0 0
211 2 4.9220000000000006e+00 2.8417180249513332e+00 1.7015264350348964e+01 0 0 0
212 2 4.9220000000000006e+00 0.0000000000000000e+00 1.7015264350348964e+01 0 0 0
213 2 6.1524999999999999e+00 7.1042950623783407e-01 1.7015264350348964e+01 0 0 0
225 2 6.1524999999999999e+00 2.1312885187134989e+00 1.7015264350348964e+01 0 0 0
226 2 7.3829999999999991e+00 2.8417180249513345e+00 1.7015264350348964e+01 0 0 0
227 2 7.3829999999999991e+00 0.0000000000000000e+00 1.7015264350348964e+01 0 0 0
228 2 8.6134999999999984e+00 7.1042950623783407e-01 1.7015264350348964e+01 0 0 0
244 2 8.6134999999999984e+00 2.1312885187135002e+00 1.7015264350348964e+01 0 0 0
245 2 9.8440000000000012e+00 2.8417180249513332e+00 1.7015264350348964e+01 0 0 0
246 2 9.8440000000000012e+00 0.0000000000000000e+00 1.7015264350348964e+01 0 0 0
247 2 1.1074500000000002e+01 7.1042950623783330e-01 1.7015264350348964e+01 0 0 0
267 2 1.1074500000000002e+01 2.1312885187135002e+00 1.7015264350348964e+01 0 0 0
197 2 0.0000000000000000e+00 4.2625770374269996e+00 1.7015264350348964e+01 0 0 0
198 2 1.2305000000000001e+00 4.9730065436648339e+00 1.7015264350348964e+01 0 0 0
206 2 1.2305000000000001e+00 6.3938655561404980e+00 1.7015264350348964e+01 0 0 0
208 2 2.4610000000000003e+00 4.2625770374269996e+00 1.7015264350348964e+01 0 0 0
209 2 3.6914999999999996e+00 4.9730065436648339e+00 1.7015264350348964e+01 0 0 0
221 2 3.6914999999999996e+00 6.3938655561404980e+00 1.7015264350348964e+01 0 0 0
196 2 0.0000000000000000e+00 7.1042950623783341e+00 1.7015264350348964e+01 0 0 0
207 2 2.4610000000000003e+00 7.1042950623783341e+00 1.7015264350348964e+01 0 0 0
223 2 4.9220000000000006e+00 4.2625770374269978e+00 1.7015264350348964e+01 0 0 0
224 2 6.1524999999999999e+00 4.9730065436648339e+00 1.7015264350348964e+01 0 0 0
240 2 6.1524999999999999e+00 6.3938655561404980e+00 1.7015264350348964e+01 0 0 0
242 2 7.3829999999999991e+00 4.2625770374269996e+00 1.7015264350348964e+01 0 0 0
222 2 4.9220000000000006e+00 7.1042950623783341e+00 1.7015264350348964e+01 0 0 0
241 2 7.3830000000000009e+00 7.1042950623783341e+00 1.7015264350348964e+01 0 0 0
243 2 8.6135000000000002e+00 4.9730065436648339e+00 1.7015264350348964e+01 0 0 0
263 2 8.6135000000000002e+00 6.3938655561404980e+00 1.7015264350348964e+01 0 0 0
265 2 9.8440000000000012e+00 4.2625770374270004e+00 1.7015264350348964e+01 0 0 0
266 2 1.1074500000000002e+01 4.9730065436648339e+00 1.7015264350348964e+01 0 0 0
287 2 1.1074500000000002e+01 6.3938655561404980e+00 1.7015264350348964e+01 0 0 0
264 2 9.8440000000000012e+00 7.1042950623783341e+00 1.7015264350348964e+01 0 0 0
204 2 0.0000000000000000e+00 8.5251540748539991e+00 1.7015264350348964e+01 0 0 0
205 2 1.2305000000000001e+00 9.2355835810918343e+00 1.7015264350348964e+01 0 0 0
219 2 2.4610000000000003e+00 8.5251540748539991e+00 1.7015264350348964e+01 0 0 0
220 2 3.6915000000000004e+00 9.2355835810918343e+00 1.7015264350348964e+01 0 0 0
203 2 0.0000000000000000e+00 1.1366872099805333e+01 1.7015264350348964e+01 0 0 0
217 2 1.2305000000000001e+00 1.0656442593567498e+01 1.7015264350348964e+01 0 0 0
218 2 2.4610000000000003e+00 1.1366872099805333e+01 1.7015264350348964e+01 0 0 0
236 2 3.6914999999999996e+00 1.0656442593567499e+01 1.7015264350348964e+01 0 0 0
259 2 6.1524999999999999e+00 1.0656442593567499e+01 1.7015264350348964e+01 0 0 0
239 2 6.1524999999999999e+00 9.2355835810918343e+00 1.7015264350348964e+01 0 0 0
238 2 4.9220000000000006e+00 8.5251540748539991e+00 1.7015264350348964e+01 0 0 0
261 2 7.3830000000000009e+00 8.5251540748539991e+00 1.7015264350348964e+01 0 0 0
237 2 4.9220000000000006e+00 1.1366872099805333e+01 1.7015264350348964e+01 0 0 0
260 2 7.3829999999999991e+00 1.1366872099805333e+01 1.7015264350348964e+01 0 0 0
308 2 1.2304999999999998e+01 1.1366872099805333e+01 1.7015264350348964e+01 0 0 0
387 1 2.8851022946447813e-02 3.3707366199012152e+00 1.2185141169047496e+01 0 0 1
3711 1 2.7392598588598327e+00 3.0867781332519870e+00 1.1452755956921013e+01 -1 0 0
4615 1 1.1798289096108000e+01 8.0011945995494482e-01 1.1783551163732305e+01 -1 0 1
154 1 2.7983992673334259e+00 2.1699401803865417e-01 1.1274697817079767e+01 -1 0 1
549 2 0.0000000000000000e+00 1.4208590124756650e+00 2.0027844359054722e+01 0 0 0
550 2 0.0000000000000000e+00 0.0000000000000000e+00 2.0027844359054722e+01 0 0 0
554 2 1.2305000000000001e+00 2.1312885187134998e+00 2.0027844359054722e+01 0 0 0
555 2 2.4610000000000003e+00 1.4208590124756650e+00 2.0027844359054722e+01 0 0 0
556 2 2.4610000000000003e+00 0.0000000000000000e+00 2.0027844359054722e+01 0 0 0
564 2 3.6914999999999996e+00 2.1312885187134998e+00 2.0027844359054722e+01 0 0 0
710 2 0.0000000000000000e+00 2.8417180249513345e+00 2.3040424367761446e+01 0 0 0
711 2 0.0000000000000000e+00 0.0000000000000000e+00 2.3040424367761446e+01 0 0 0
712 2 1.2305000000000001e+00 7.1042950623783474e-01 2.3040424367761446e+01 0 0 0
716 2 1.2305000000000001e+00 2.1312885187134998e+00 2.3040424367761446e+01 0 0 0
717 2 2.4610000000000003e+00 2.8417180249513345e+00 2.3040424367761446e+01 0 0 0
718 2 2.4610000000000003e+00 0.0000000000000000e+00 2.3040424367761446e+01 0 0 0
719 2 3.6915000000000004e+00 7.1042950623783474e-01 2.3040424367761446e+01 0 0 0
727 2 3.6914999999999996e+00 2.1312885187134998e+00 2.3040424367761446e+01 0 0 0
553 2 1.2305000000000001e+00 3.5521475311891644e+00 2.0027844359054722e+01 0 0 0
563 2 3.6914999999999996e+00 3.5521475311891644e+00 2.0027844359054722e+01 0 0 0
565 2 4.9220000000000006e+00 1.4208590124756650e+00 2.0027844359054722e+01 0 0 0
566 2 4.9220000000000006e+00 0.0000000000000000e+00 2.0027844359054722e+01 0 0 0
578 2 6.1524999999999999e+00 2.1312885187134989e+00 2.0027844359054722e+01 0 0 0
579 2 7.3829999999999991e+00 1.4208590124756659e+00 2.0027844359054722e+01 0 0 0
580 2 7.3829999999999991e+00 0.0000000000000000e+00 2.0027844359054722e+01 0 0 0
728 2 4.9220000000000006e+00 2.8417180249513332e+00 2.3040424367761446e+01 0 0 0
729 2 4.9220000000000006e+00 0.0000000000000000e+00 2.3040424367761446e+01 0 0 0
730 2 6.1524999999999999e+00 7.1042950623783407e-01 2.3040424367761446e+01 0 0 0
742 2 6.1524999999999999e+00 2.1312885187134989e+00 2.3040424367761446e+01 0 0 0
743 2 7.3829999999999991e+00 2.8417180249513345e+00 2.3040424367761446e+01 0 0 0
744 2 7.3829999999999991e+00 0.0000000000000000e+00 2.3040424367761446e+01 0 0 0
577 2 6.1524999999999999e+00 3.5521475311891644e+00 2.0027844359054722e+01 0 0 0
596 2 8.6134999999999984e+00 2.1312885187135002e+00 2.0027844359054722e+01 0 0 0
597 2 9.8440000000000012e+00 1.4208590124756659e+00 2.0027844359054722e+01 0 0 0
598 2 9.8440000000000012e+00 0.0000000000000000e+00 2.0027844359054722e+01 0 0 0
618 2 1.1074500000000002e+01 2.1312885187135002e+00 2.0027844359054722e+01 0 0 0
745 2 8.6134999999999984e+00 7.1042950623783407e-01 2.3040424367761446e+01 0 0 0
761 2 8.6134999999999984e+00 2.1312885187135002e+00 2.3040424367761446e+01 0 0 0
762 2 9.8440000000000012e+00 2.8417180249513332e+00 2.3040424367761446e+01 0 0 0
763 2 9.8440000000000012e+00 0.0000000000000000e+00 2.3040424367761446e+01 0 0 0
764 2 1.1074500000000002e+01 7.1042950623783330e-01 2.3040424367761446e+01 0 0 0
784 2 1.1074500000000002e+01 2.1312885187135002e+00 2.3040424367761446e+01 0 0 0
595 2 8.6134999999999984e+00 3.5521475311891657e+00 2.0027844359054722e+01 0 0 0
617 2 1.1074500000000002e+01 3.5521475311891644e+00 2.0027844359054722e+01 0 0 0
551 2 0.0000000000000000e+00 5.6834360499026637e+00 2.0027844359054722e+01 0 0 0
552 2 0.0000000000000000e+00 4.2625770374269996e+00 2.0027844359054722e+01 0 0 0
560 2 1.2305000000000001e+00 6.3938655561404980e+00 2.0027844359054722e+01 0 0 0
561 2 2.4610000000000003e+00 5.6834360499026637e+00 2.0027844359054722e+01 0 0 0
562 2 2.4610000000000003e+00 4.2625770374269996e+00 2.0027844359054722e+01 0 0 0
574 2 3.6914999999999996e+00 6.3938655561404980e+00 2.0027844359054722e+01 0 0 0
714 2 0.0000000000000000e+00 4.2625770374269996e+00 2.3040424367761446e+01 0 0 0
715 2 1.2305000000000001e+00 4.9730065436648339e+00 2.3040424367761446e+01 0 0 0
723 2 1.2305000000000001e+00 6.3938655561404980e+00 2.3040424367761446e+01 0 0 0
725 2 2.4610000000000003e+00 4.2625770374269996e+00 2.3040424367761446e+01 0 0 0
726 2 3.6914999999999996e+00 4.9730065436648339e+00 2.3040424367761446e+01 0 0 0
738 2 3.6914999999999996e+00 6.3938655561404980e+00 2.3040424367761446e+01 0 0 0
559 2 1.2305000000000001e+00 7.8147245686161639e+00 2.0027844359054722e+01 0 0 0
573 2 3.6914999999999996e+00 7.8147245686161639e+00 2.0027844359054722e+01 0 0 0
713 2 0.0000000000000000e+00 7.1042950623783341e+00 2.3040424367761446e+01 0 0 0
724 2 2.4610000000000003e+00 7.1042950623783341e+00 2.3040424367761446e+01 0 0 0
575 2 4.9220000000000006e+00 5.6834360499026637e+00 2.0027844359054722e+01 0 0 0
576 2 4.9220000000000006e+00 4.2625770374269978e+00 2.0027844359054722e+01 0 0 0
592 2 6.1524999999999999e+00 6.3938655561404980e+00 2.0027844359054722e+01 0 0 0
593 2 7.3829999999999991e+00 5.6834360499026637e+00 2.0027844359054722e+01 0 0 0
594 2 7.3829999999999991e+00 4.2625770374269996e+00 2.0027844359054722e+01 0 0 0
740 2 4.9220000000000006e+00 4.2625770374269978e+00 2.3040424367761446e+01 0 0 0
741 2 6.1524999999999999e+00 4.9730065436648339e+00 2.3040424367761446e+01 0 0 0
757 2 6.1524999999999999e+00 6.3938655561404980e+00 2.3040424367761446e+01 0 0 0
759 2 7.3829999999999991e+00 4.2625770374269996e+00 2.3040424367761446e+01 0 0 0
591 2 6.1524999999999999e+00 7.8147245686161639e+00 2.0027844359054722e+01 0 0 0
739 2 4.9220000000000006e+00 7.1042950623783341e+00 2.3040424367761446e+01 0 0 0
758 2 7.3830000000000009e+00 7.1042950623783341e+00 2.3040424367761446e+01 0 0 0
614 2 8.6135000000000002e+00 6.3938655561404980e+00 2.0027844359054722e+01 0 0 0
615 2 9.8440000000000012e+00 5.6834360499026637e+00 2.0027844359054722e+01 0 0 0
616 2 9.8440000000000012e+00 4.2625770374270004e+00 2.0027844359054722e+01 0 0 0
637 2 1.1074500000000002e+01 6.3938655561404980e+00 2.0027844359054722e+01 0 0 0
760 2 8.6135000000000002e+00 4.9730065436648339e+00 2.3040424367761446e+01 0 0 0
780 2 8.6135000000000002e+00 6.3938655561404980e+00 2.3040424367761446e+01 0 0 0
782 2 9.8440000000000012e+00 4.2625770374270004e+00 2.3040424367761446e+01 0 0 0
783 2 1.1074500000000002e+01 4.9730065436648339e+00 2.3040424367761446e+01 0 0 0
804 2 1.1074500000000002e+01 6.3938655561404980e+00 2.3040424367761446e+01 0 0 0
613 2 8.6135000000000002e+00 7.8147245686161639e+00 2.0027844359054722e+01 0 0 0
636 2 1.1074500000000002e+01 7.8147245686161639e+00 2.0027844359054722e+01 0 0 0
781 2 9.8440000000000012e+00 7.1042950623783341e+00 2.3040424367761446e+01 0 0 0
557 2 0.0000000000000000e+00 9.9460130873296642e+00 2.0027844359054722e+01 0 0 0
558 2 0.0000000000000000e+00 8.5251540748539991e+00 2.0027844359054722e+01 0 0 0
571 2 2.4610000000000003e+00 9.9460130873296642e+00 2.0027844359054722e+01 0 0 0
572 2 2.4610000000000003e+00 8.5251540748539991e+00 2.0027844359054722e+01 0 0 0
721 2 0.0000000000000000e+00 8.5251540748539991e+00 2.3040424367761446e+01 0 0 0
722 2 1.2305000000000001e+00 9.2355835810918343e+00 2.3040424367761446e+01 0 0 0
736 2 2.4610000000000003e+00 8.5251540748539991e+00 2.3040424367761446e+01 0 0 0
737 2 3.6915000000000004e+00 9.2355835810918343e+00 2.3040424367761446e+01 0 0 0
569 2 1.2305000000000001e+00 1.2077301606043163e+01 2.0027844359054722e+01 0 0 0
570 2 1.2305000000000001e+00 1.0656442593567498e+01 2.0027844359054722e+01 0 0 0
587 2 3.6914999999999996e+00 1.2077301606043163e+01 2.0027844359054722e+01 0 0 0
588 2 3.6914999999999996e+00 1.0656442593567499e+01 2.0027844359054722e+01 0 0 0
720 2 0.0000000000000000e+00 1.1366872099805333e+01 2.3040424367761446e+01 0 0 0
734 2 1.2305000000000001e+00 1.0656442593567498e+01 2.3040424367761446e+01 0 0 0
735 2 2.4610000000000003e+00 1.1366872099805333e+01 2.3040424367761446e+01 0 0 0
753 2 3.6914999999999996e+00 1.0656442593567499e+01 2.3040424367761446e+01 0 0 0
589 2 4.9220000000000006e+00 9.9460130873296642e+00 2.0027844359054722e+01 0 0 0
590 2 4.9220000000000006e+00 8.5251540748539991e+00 2.0027844359054722e+01 0 0 0
611 2 7.3830000000000009e+00 9.9460130873296642e+00 2.0027844359054722e+01 0 0 0
612 2 7.3830000000000009e+00 8.5251540748539991e+00 2.0027844359054722e+01 0 0 0
755 2 4.9220000000000006e+00 8.5251540748539991e+00 2.3040424367761446e+01 0 0 0
756 2 6.1524999999999999e+00 9.2355835810918343e+00 2.3040424367761446e+01 0 0 0
778 2 7.3830000000000009e+00 8.5251540748539991e+00 2.3040424367761446e+01 0 0 0
609 2 6.1524999999999999e+00 1.2077301606043163e+01 2.0027844359054722e+01 0 0 0
610 2 6.1524999999999999e+00 1.0656442593567499e+01 2.0027844359054722e+01 0 0 0
754 2 4.9220000000000006e+00 1.1366872099805333e+01 2.3040424367761446e+01 0 0 0
776 2 6.1524999999999999e+00 1.0656442593567499e+01 2.3040424367761446e+01 0 0 0
777 2 7.3829999999999991e+00 1.1366872099805333e+01 2.3040424367761446e+01 0 0 0
634 2 9.8440000000000012e+00 9.9460130873296642e+00 2.0027844359054722e+01 0 0 0
635 2 9.8440000000000012e+00 8.5251540748539956e+00 2.0027844359054722e+01 0 0 0
779 2 8.6134999999999984e+00 9.2355835810918343e+00 2.3040424367761446e+01 0 0 0
802 2 9.8440000000000012e+00 8.5251540748539956e+00 2.3040424367761446e+01 0 0 0
803 2 1.1074500000000002e+01 9.2355835810918343e+00 2.3040424367761446e+01 0 0 0
632 2 8.6135000000000002e+00 1.2077301606043163e+01 2.0027844359054722e+01 0 0 0
633 2 8.6134999999999984e+00 1.0656442593567498e+01 2.0027844359054722e+01 0 0 0
655 2 1.1074500000000002e+01 1.2077301606043163e+01 2.0027844359054722e+01 0 0 0
656 2 1.1074500000000002e+01 1.0656442593567498e+01 2.0027844359054722e+01 0 0 0
800 2 8.6134999999999984e+00 1.0656442593567498e+01 2.3040424367761446e+01 0 0 0
801 2 9.8440000000000012e+00 1.1366872099805333e+01 2.3040424367761446e+01 0 0 0
824 2 1.1074500000000002e+01 1.0656442593567498e+01 2.3040424367761446e+01 0 0 0
825 2 1.2304999999999998e+01 1.1366872099805333e+01 2.3040424367761446e+01 0 0 0
4289 1 2.8571644474762103e+00 9.5046268842665127e-01 2.5473370279760992e+01 1 1 -1
3807 1 5.0307134629596284e+00 7.2532003234111797e-01 2.6605968683232430e+01 1 0 -1
421 1 1.2740066041799369e+00 1.1154461225088646e+01 2.6032276926754253e+01 1 0 -1
37 1 6.1587025208354413e+00 2.8372472880609365e+00 2.5441455285997066e+01 -1 0 0
4616 1 9.2811025014899187e+00 9.5281726946221497e+00 2.8349278462273187e+01 -1 1 -1
4535 1 1.0055848497496060e+01 1.7140254026136528e+00 2.5519164292548599e+01 0 1 -1
3014 1 8.5518186399053047e+00 3.6733162438155422e+00 2.6496602371993497e+01 0 -1 0
525 1 5.3604739062710216e+00 9.8913260968052175e+00 2.5681113006368619e+01 2 0 0
2234 1 3.6667806744522879e+00 1.0362845135445067e+01 2.8236855813325633e+01 0 0 0
2884 1 2.5252723821463103e+00 3.4500285433225635e+00 2.6682426375909134e+01 -1 0 0
944 1 1.3342852333385113e+00 5.7360526865463592e+00 2.5878829363880641e+01 0 1 -1
422 1 1.1001834726640684e+01 1.1537153918956069e+01 2.7583726212155565e+01 1 0 0
1367 1 4.9185653345862024e+00 4.9022796968665512e+00 2.6270356223411621e+01 1 0 0
2129 1 8.1481389476362516e+00 1.1963169510361638e+01 2.5445189181136836e+01 0 0 -1
1290 1 6.7064204980755591e+00 7.5004673826668071e+00 2.6065528728632046e+01 0 0 0
4248 1 9.4692341351455198e+00 6.1053968690094704e+00 2.5707126335382149e+01 1 1 -1
2101 1 1.0827882455309901e+00 7.2572985852694636e+00 2.8288821493921361e+01 1 0 -1
2048 1 9.0736323359547431e+00 9.2229062903526930e+00 2.5363726505385863e+01 1 1 0
2961 1 2.8477572976236538e+00 8.4636459848196743e+00 2.5895506780510843e+01 1 -1 -1
2654 1 6.0114154317458954e+00 8.0258045745553215e+00 2.8802881816695301e+01 0 0 -1
437 1 1.2078205324810739e+01 7.1377628238887327e+00 2.6012849562133493e+01 0 2 -1
1318 1 3.8248410475789529e+00 6.7710387471473172e+00 2.8264251542726598e+01 0 2 -1
2963 1 4.8996267184256131e-01 9.9252057425517783e+00 2.8628130020104827e+01 0 1 1
2700 1 1.2065112543318524e+01 9.8212716308559376e+00 2.5465710275871636e+01 1 0 0
375 1 2.4755290617438983e-01 7.3687661480259359e-01 2.8558339068359665e+01 1 -1 0
2605 1 7.9082648953587480e+00 3.0165501868768532e+00 2.8897008028136618e+01 1 2 -2
1303 1 1.2287660469102970e+01 4.8522469955598604e+00 3.5088140533842278e+01 0 0 -1
144 1 1.0309942617281497e+01 7.5001425073732744e+00 3.0110623239965459e+01 2 0 0
7 1 5.9991876907764583e+00 3.7116956336250233e+00 3.1317411698706199e+01 0 0 -1
1729 1 6.3059941163245501e+00 2.1648393238367274e+00 3.3634171819011009e+01 0 1 0
4569 1 1.0630361899122859e+01 3.0709636524823738e+00 3.0071398796016023e+01 0 0 0
1853 1 9.9547289589243224e+00 4.3834223192077140e+00 3.3727793466060788e+01 1 0 -1
18 1 9.0131821320878469e+00 1.7280334707158966e+00 3.3496788590606833e+01 1 1 0
1733 1 2.0633149116110308e+00 9.4210011455347260e+00 3.6449591291715322e+01 0 -1 0
4362 1 5.5366989628774688e-01 6.1082045588095966e+00 3.4612339292629557e+01 -1 0 0
4585 1 4.5835970142360152e+00 2.9974213334758859e-03 3.3845115092817565e+01 0 0 -1
3785 1 7.6868119404938957e+00 5.9746971506377680e+00 2.9854382288759183e+01 1 0 0
2711 1 6.3722065322260484e+00 7.0822184368451842e+00 3.2108483131950834e+01 0 1 -1
4537 1 1.0958101753950201e+01 8.3410759368463516e+00 3.2764192166772560e+01 0 1 0
2883 1 1.1686389595720126e+01 5.2390276482527236e+00 3.1624459172924208e+01 0 1 0
120 1 8.7284816798550402e-01 7.9187461170374416e+00 3.2404375900856792e+01 0 2 -1
3773 1 3.1041771441024832e+00 8.9765659015165049e+00 3.0661991493866271e+01 1 1 1
3730 1 5.7485826132611804e+00 9.8816589066344935e+00 3.1953796034731909e+01 0 2 -1
4686 1 8.1814713789382232e+00 3.6807492861193274e+00 3.6160820453853106e+01 -1 0 0
1753 1 7.2058256109679668e+00 1.0886455999440365e+01 2.9833256174932053e+01 0 0 -1
4304 1 3.4464743436470000e+00 4.9218253474319100e+00 3.0445830669625398e+01 0 1 0
3758 1 5.6621058471468313e+00 9.4143487973822655e+00 3.6974192277457490e+01 1 0 0
1850 1 5.6245144406399996e+00 1.0775556012150167e+00 2.9239473759916351e+01 1 2 -1
479 1 2.2344131107405674e+00 3.5877949037323513e+00 3.4138632448387938e+01 1 0 0
924 1 1.1524611761456838e+00 2.7331471097391211e+00 3.1569114860431494e+01 1 0 -1
4687 1 2.6084218727697022e+00 3.4065938759244712e+00 3.7213798427800825e+01 0 0 0
181 1 5.1910051488625184e+00 4.2837695243678375e+00 3.5057594391312421e+01 0 1 -1
108 1 1.0333852773979830e+01 1.0270851298319557e+00 3.5827549457504986e+01 0 1 -1
2662 1 2.1123630857781945e+00 1.0456963435236040e+00 3.5429137207636032e+01 0 1 -1
1211 1 6.2100180341719620e+00 1.1095394749788982e+01 3.4554754510023628e+01 -1 1 1
4195 1 3.8656777160644888e+00 6.2617202188275716e+00 3.2801589709009640e+01 1 0 -1
374 1 6.7687388772160428e+00 7.0098940759556401e+00 3.6214217898211402e+01 0 0 0
3450 1 3.3606728277289553e+00 7.0215238733144441e+00 3.5642066787083607e+01 0 0 -1
2650 1 4.5796934477524074e+00 1.1234560475937080e-01 3.7201242508020954e+01 0 1 0
482 1 8.9786213829399877e+00 1.1011676030661430e+01 3.4362834336422310e+01 0 2 0
4596 1 8.4111243500846324e+00 6.7862839611987509e+00 3.3848260573890215e+01 0 2 0
2082 1 1.6939619523100857e+00 1.0475011577093282e+01 3.3554521297558182e+01 1 0 0
1252 1 1.1550574368458193e+01 6.1291310901162488e+00 3.7526457617334884e+01 -1 0 -1
2550 1 9.4416229857771157e+00 1.0543051843561081e+01 3.1778936478924976e+01 1 1 -1
3021 1 7.3192188088963261e+00 6.1655185768409770e-01 3.6314755002924898e+01 1 1 0
3452 1 1.0948888794166567e+01 9.7956303144938204e+00 3.6074339001977876e+01 0 0 -1
4694 1 2.8599486354799866e+00 2.3318905592688988e+00 2.9074564351024492e+01 0 1 1
4274 1 1.0705084517600195e+01 7.3545536393921762e-01 3.1597723987353060e+01 2 0 -1
4286 1 5.6613949988982082e-01 5.5811419830625448e+00 3.0297557788970387e+01 1 2 0
4576 1 8.7178726931015245e+00 1.6527713462411661e-01 2.9512728765178643e+01 -1 1 0
3445 1 1.1968528777425174e+01 1.2080130561168309e+01 3.7768871662678279e+01 -1 -1 -1
2872 1 5.0526444885677195e+00 1.4168821192650688e+01 3.6811103189413883e+00 0 -1 0
456 1 5.1088767992413437e+00 1.3576056318707234e+01 6.5304252590784220e+00 0 0 1
2617 1 3.1380193269108094e+00 1.6176952321820995e+01 3.4749123329707641e+00 -1 0 0
1206 1 8.7502353849303027e+00 1.5850549204279920e+01 5.6725885000514875e+00 0 0 0
92 1 7.1884368582395020e+00 2.4142972348816738e+01 9.3145415448409103e+00 1 1 0
3536 1 2.4508367113599889e+00 1.4152833791795048e+01 7.4179057671885040e+00 1 1 1
4586 1 1.0257730353665618e+01 2.4266840891901786e+01 7.5166257679838191e+00 1 -1 1
152 1 1.0924568306984790e+01 1.6519165257680516e+01 2.8111509738339717e+00 1 0 1
368 1 1.1662267456399116e+01 1.5280402374502106e+01 5.6451883654176935e+00 -1 0 1
3861 1 7.4201401400985336e+00 1.4771394547801007e+01 2.9912447750097160e+00 1 0 1
1355 1 1.6642867910825274e+00 1.6563831300211643e+01 6.1580209730091902e+00 0 -1 1
4329 1 7.5339069610778013e+00 1.7669451166729925e+01 3.6149335652391725e+00 0 0 0
3752 1 1.1609560008386104e+01 1.2560679779137100e+01 7.5528610498329574e+00 0 0 1
2971 1 5.7940970775889884e+00 1.9222508572122223e+01 4.6284684854437295e+00 0 1 -1
3734 1 9.7409583800823754e+00 1.9175506798922491e+01 3.4872167919533945e+00 0 0 1
2571 1 1.2114383560387429e+01 1.7904558505809604e+01 7.0145781458100824e+00 1 -1 0
1763 1 8.8364426656178168e+00 2.1852515453779908e+01 7.7172400751450700e+00 2 0 0
901 1 3.0827053379645615e+00 2.0240883319067201e+01 3.6863562568471817e+00 1 0 0
4265 1 1.0840264906585100e+01 1.6975532503908262e+01 1.0023183908841446e+01 1 0 1
21 1 1.6504817890384149e+00 2.1994915530614875e+01 5.0525524539701081e+00 1 -1 1
3428 1 6.7641890457542182e+00 2.1655348092908969e+01 5.6706718408259427e+00 0 0 1
4250 1 4.0741573516323069e+00 2.2460498288429921e+01 6.4861249088735775e+00 0 -1 1
1348 1 9.6954972813037443e+00 2.4495305702064343e+01 2.8406832391825785e+00 0 0 1
1291 1 9.3867020605007134e-01 2.3212655226559715e+01 2.3527008739447375e+00 0 -1 1
4339 1 7.1613643154094637e+00 2.3564400624485963e+01 3.6341104318459339e+00 1 0 0
1359 1 2.5304873908664676e+00 1.4947701928381314e+01 9.9132245000233468e+00 1 0 1
355 1 6.4294227511951263e+00 1.6075836039584111e+01 7.9236844578455310e+00 0 0 1
2163 1 6.7561947770353168e+00 1.5462401155000835e+01 1.0493108272180098e+01 1 0 1
4655 1 9.0727601704636900e+00 1.7714043957440481e+01 7.9207262313213533e+00 1 -1 1
2988 1 4.8271899731164813e+00 2.2694919433918734e+01 9.2041773777525560e+00 1 -1 0
2118 1 1.0747113334015286e+00 1.4365998198219902e+01 3.0263587464439321e+00 1 0 1
4666 1 8.6796419030544865e+00 1.3088496460800595e+01 6.2884451126612300e+00 1 1 1
153 1 2.1385584369478301e+00 1.9162774010397690e+01 8.2774909341238221e+00 0 0 0
1218 1 5.5673726121392093e+00 2.0051136925220501e+01 9.2286373954303151e+00 1 -1 0
3787 1 4.7939289697041332e+00 1.8365474962718086e+01 7.2729711563189445e+00 1 1 1
1373 1 1.0545966352743019e+01 2.0272318403906826e+01 6.0591771745777994e+00 0 -1 1
4245 1 2.4478992476168768e+00 2.4344161812450004e+01 9.1314109417645426e+00 1 0 1
516 1 8.1964227884926864e+00 1.9762570405575488e+01 9.7888723801349542e+00 1 0 1
3782 1 9.3314854639225439e-02 1.7171890220095378e+01 9.0919770719230328e+00 1 0 1