LAMMPS data file via write_data, version 16 Mar 2018, timestep = 100000

6328 atoms
2 atom types

0.0000000000000000e+00 4.9219999999999999e+01 xlo xhi
0.0000000000000000e+00 4.9019635930410494e+01 ylo yhi
3.5820187293509420e+00 5.6479981270648715e+01 zlo zhi

Masses

1 18.015
2 12.01

Atoms # atomic

4849 1 2.0148261822329014e+00 4.5415268155383179e+00 8.1533331740407000e+00 1 0 1
4803 1 2.4231684816783550e+00 7.3972081053978556e-01 4.8734878438206000e+00 2 0 0
4510 1 4.5061537340994420e+00 5.6474839814201196e+00 7.3940770663958943e+00 1 1 1
2858 1 9.8452923750689147e-01 1.6117415086159305e+01 5.4437139290494647e+00 1 0 1
1552 1 3.8868015545282120e+00 1.2484652044079171e+01 8.5618879185182983e+00 0 0 1
92 1 5.3459049452383818e+00 5.5147562241722148e-01 4.6834256890984314e+00 -1 0 0
6189 1 7.9993530513838405e+00 8.8279907484794169e+00 4.2506918583396454e+00 0 1 1
6158 1 5.6392153313618198e+00 3.1503601930018048e+00 5.5500694149079370e+00 0 2 1
203 1 2.9247682926717440e+00 7.1535102324329989e+00 4.6794747494234956e+00 0 0 0
3272 1 8.0224294636510205e+00 7.4043032996738640e+00 8.5689249506941483e+00 0 0 1
3544 1 6.3940415237588910e+00 2.8819651107401469e+00 8.4268165253139777e+00 0 0 1
3695 1 1.6677530783735051e+00 1.0586367135424595e+01 4.3016619946310577e+00 1 0 0
4988 1 2.8517309710060164e+00 8.3656987299840910e+00 7.4043681784402278e+00 2 0 1
3508 1 1.1610167215052654e+00 1.0537172902662197e+01 7.8077099939767338e+00 0 0 0
2831 1 6.2672018830834473e+00 8.0650072712987058e+00 6.3639305773445134e+00 0 0 1
3651 1 3.7472446529654735e-01 6.5346671582441260e+00 8.7378092092324060e+00 1 0 1
383 1 6.0180056747775463e+00 6.6166819452557679e-01 1.2122746662905117e+01 0 2 1
3409 1 3.2873848947584001e+00 1.0009442230665151e+01 1.1932425424121757e+01 1 0 0
3498 1 4.6888314575236603e+00 1.3424384428633166e+01 6.1146435721622510e+00 1 -1 0
3191 1 5.5115411604365416e+00 9.8039447193673688e+00 1.0334557953858610e+01 1 0 0
5980 1 5.6960338749316879e+00 1.2858245291155843e+01 1.0655234710262437e+01 0 1 0
73 1 3.4463224442667553e+00 1.5166423799253369e+01 4.3480343424565477e+00 2 0 0
5044 1 8.9555800314851219e-01 1.0742158494496916e+01 1.0499956840551686e+01 0 0 0
5970 1 4.7892013688677535e+00 1.0029222861069346e+01 7.3731043428195573e+00 1 0 0
5090 1 7.2480448270267193e+00 1.3259724129299448e+01 5.9089575700002701e+00 0 0 0
3063 1 8.2362348974557467e+00 1.5179728969234736e+01 7.5133340435615494e+00 0 0 1
2070 1 4.5260802193517629e+00 1.4509009104705810e+00 9.8317631662528413e+00 0 0 0
4638 1 8.0538349805786940e+00 7.5793340351307459e-01 4.0865343441611257e+00 0 0 1
1449 1 8.2288888556994948e+00 1.4236666589207577e+01 1.0051452570134346e+01 1 0 1
261 1 2.3241685955643780e+00 3.0468505077856372e+00 1.0499013842815266e+01 1 0 1
1287 1 8.7269236813363307e+00 1.6179274922936526e+00 8.7394482689048090e+00 0 1 0
300 1 8.5024003776342667e+00 1.9514333985773626e+00 1.1390776115032356e+01 1 1 0
1492 1 8.3776740753268475e-01 2.7072028110089255e+00 6.0888900281130525e+00 0 0 1
5190 1 4.2912696796955663e+00 7.0757406902279874e+00 1.0449704637393584e+01 -1 1 0
3603 1 4.4372486240946394e+00 1.0841665515233860e+01 4.6933400827101028e+00 0 1 1
1743 1 9.1236956655008097e+00 1.1229808239074201e+01 5.4221241725421665e+00 0 1 0
1368 1 8.3619023388240290e+00 9.2722720281410140e+00 1.0732308698720058e+01 0 0 1
1388 1 1.7994504216324656e+00 1.4010048485493211e+01 9.6947641501332029e+00 0 0 1
5126 1 6.5972701307772832e+00 5.3580771248543098e+00 9.6737029324174149e+00 1 0 0
469 1 3.6375003649959470e+00 1.4990663103773134e+01 1.1871748016365627e+01 0 1 0
4940 1 9.4502025562622070e+00 1.1802078544710174e+01 1.0008858267113293e+01 1 0 0
4980 1 3.1422443266514470e+00 4.2783497297650639e+00 4.8805015207556597e+00 0 0 0
4895 1 7.7613119107679243e+00 4.6262608470236630e+00 1.2108334107079619e+01 0 1 0
3424 1 1.6492859090628438e+00 1.6076935648952151e+01 8.1962435897670112e+00 1 0 0
1764 1 7.4237873352675061e+00 1.0138922760065082e+01 1.7969667052775335e+01 -1 1 0
87 1 4.0245145473716386e+00 3.6900845451419579e+00 1.4948526247207242e+01 1 0 0
3056 1 9.7112439950879939e+00 1.2942738164357628e-01 1.3177778907589666e+01 -1 0 1
4427 1 2.2613910625330509e+00 5.1295866739884026e+00 1.3219497331350064e+01 0 0 1
4694 1 2.7301762135830904e-01 6.7763793326726107e+00 1.4735187308958862e+01 2 0 0
3294 1 6.3856202241475835e+00 8.3183125139829581e+00 1.4792770662411167e+01 1 0 0
1546 1 5.9931812919848406e+00 5.5428383094574052e+00 1.3914414581935501e+01 0 0 1
1877 1 7.1788202978881177e+00 5.2780134662262554e+00 1.6416925742869445e+01 0 1 0
3112 1 4.7061295734953514e+00 1.5763847758087291e+01 1.7186867135952660e+01 1 0 0
4687 1 9.0600959512533858e+00 8.0863098438019046e-02 2.1103371111029020e+01 -1 0 1
106 1 3.0607905060783831e+00 1.1659461723840556e+01 1.4087959162586056e+01 1 0 0
5292 1 1.8760411210167665e+00 3.1927064639746172e+00 1.7114384957999143e+01 0 1 1
6017 1 5.5945267212480401e+00 1.3223896297990898e+01 2.1053001452233122e+01 1 -1 1
1750 1 5.1185658972436778e+00 1.2130992453509233e+01 1.8003891154007281e+01 0 1 0
4953 1 6.8680615132376293e+00 1.0677174281100479e+01 1.3147938063362448e+01 1 0 0
3309 1 5.2078893663927062e+00 1.3142785338573198e+01 1.3436828465402373e+01 1 1 0
360 1 2.4806848105333866e-02 1.1290931905166897e+01 1.4117572028635889e+01 1 0 0
2141 1 3.8210502920488632e-01 1.0126835682541538e+01 1.6562452086387395e+01 1 2 0
1532 1 1.5330526646317619e+00 1.5542063989462807e+01 1.3632093155525943e+01 0 1 0
6190 1 4.4903289022105097e-01 2.7027907072806374e+00 1.9494522316872899e+01 1 0 0
2954 1 8.1348425417760541e+00 1.5904266533397671e+01 1.5652574291383344e+01 0 1 1
4561 1 6.0210733084131585e+00 8.4678419364256852e-01 1.6045964836139433e+01 -1 0 1
4840 1 5.0783668253232666e+00 1.5919083461589855e+01 1.9664920211718275e+01 1 0 1
1561 1 8.8911762085193722e+00 1.2241364789399611e+01 1.7136788164215513e+01 1 1 1
2109 1 2.3285161466108657e+00 6.0589202694776683e+00 1.6943419352598028e+01 0 1 1
1763 1 2.9833314858658716e-01 1.9081662476229886e+00 1.5310028478488116e+01 1 1 0
4910 1 4.0696195008485265e+00 1.5428831305185975e+00 1.7946332845051771e+01 2 0 0
4421 1 4.2843861937165206e-01 1.5332613974809149e+01 1.7570530117778624e+01 0 0 1
3093 1 3.9873675536131610e+00 1.1201167638285121e+00 1.4133768758125917e+01 0 0 1
3081 1 7.6633533670191802e+00 2.1350266926421870e+00 2.0006853956237677e+01 1 1 1
5112 1 8.1069867938345244e+00 2.5030119876572514e+00 1.7179727887836606e+01 1 1 0
5035 1 2.7137665164536124e+00 8.6615739699464651e+00 1.5559817823998413e+01 0 0 0
292 1 1.7537816809995075e+00 1.1448227224561697e+01 1.8687610090250207e+01 1 0 0
5114 1 5.1706452756254428e+00 6.2050142740998826e+00 1.8186736951716206e+01 1 -1 1
413 1 6.1250717826514114e+00 6.2683718019062402e+00 2.1033479420664587e+01 1 0 0
1928 1 7.1718819258971001e-01 1.3661218783089664e+01 1.9987902425541623e+01 2 0 0
6233 1 4.8928506992479743e+00 8.9652022400406555e+00 1.7249293981906341e+01 0 0 1
1387 1 2.8974293994313629e+00 1.3175773039284037e+01 1.6582931209561593e+01 1 -1 1
1631 1 7.1847416611436472e+00 8.8809495300650827e+00 2.0736737250976297e+01 -1 -1 0
4444 1 3.6314584069559483e+00 7.3377794533275429e+00 1.3244162368025878e+01 1 0 1
5037 1 6.5161156796892685e+00 1.3779268084213571e+01 1.6019903529281095e+01 1 1 0
4775 1 9.4075813534605945e+00 1.1332208930698540e+01 1.4582210317318745e+01 -1 0 1
5130 1 4.9342164723001884e+00 2.2392448387695230e+00 2.0428034125659071e+01 1 0 0
3559 1 8.3545569831278517e+00 1.2954278344803809e+01 2.0049981383243651e+01 1 1 0
5056 1 3.2571692389440594e+00 9.2948540946706402e+00 1.9494671186548590e+01 0 0 0
5089 1 8.6807151802200586e+00 7.7530605542039304e+00 1.6436179711067357e+01 0 0 0
1772 1 2.2979207863291959e+00 6.8246399669739786e+00 1.9951397522242608e+01 0 0 0
3289 1 7.7224981591208746e+00 1.5719072040031485e+01 2.1151728160848712e+01 2 0 1
3144 1 8.8226274739929718e+00 1.5680471882690229e+01 1.2755802868267610e+01 1 0 1
3086 1 1.1183701503268899e+00 1.3703766909390038e+00 1.2433824687096683e+01 1 0 1
6254 1 4.8477794184936860e+00 6.4799793043045995e-01 2.2496948197004151e+01 0 1 1
394 1 3.2120271705020595e+00 1.4596304831426230e+00 2.4610701724900746e+01 1 0 0
3124 1 6.5423655212992831e+00 2.0226338798213863e+00 2.4624056668495935e+01 0 1 1
4413 1 4.4868228265527161e+00 4.1742214152752819e+00 2.4351949442230531e+01 1 0 1
4913 1 3.8921233173800149e+00 4.5010581749600256e+00 2.1569937254361751e+01 0 1 0
446 1 8.1577646949107407e+00 1.5668741339056654e+01 2.3898528126065642e+01 -1 1 1
4908 1 5.7347439003658636e+00 7.0966931600250973e+00 2.3710060898919075e+01 0 3 1
2987 1 3.1066770317160328e+00 6.7354995518832288e+00 2.4771840413588649e+01 1 -2 1
724 2 8.6135000000000002e+00 1.3498160618518835e+01 2.6874305946954703e+01 0 0 0
2085 1 8.0119118499803132e+00 6.5129633823110256e+00 2.4673946041918114e+01 0 0 1
3658 1 4.6278334077982599e+00 1.0601226295259949e+01 2.1331064259088929e+01 2 0 0
96 1 1.8445267646716479e+00 1.1825310849970082e+01 2.2139941494515156e+01 1 0 1
3021 1 3.2743371853677843e+00 1.1704501717592720e+01 2.4615930319535853e+01 0 0 1
4560 1 8.5552105635000455e+00 4.1062285059018269e+00 2.3892485337637485e+01 1 1 1
3496 1 9.3747392483875220e+00 1.0690236580441507e+01 2.1327817842410742e+01 0 0 0
3085 1 5.4292790522461267e+00 1.0176973732918166e+01 2.3875163512053270e+01 0 0 1
4663 1 8.3013434568096098e+00 1.0774124527949642e+01 2.4499330612920843e+01 0 0 1
5019 1 6.9378892990703178e-01 2.5680237715535719e+00 2.4122113949332117e+01 2 0 0
765 2 8.6135000000000002e+00 1.4919019630994494e+01 2.6874305946954703e+01 0 0 0
3361 1 8.8983095379692967e-01 1.5273326893423677e+01 2.4393566875974287e+01 0 0 0
5960 1 2.9808052492551997e+00 1.4700919966392942e+01 2.1503792776109456e+01 0 0 1
677 2 6.1524999999999990e+00 1.3498160618518829e+01 2.6874305946954703e+01 0 0 0
1527 1 3.7924856684871315e+00 1.4643769920334229e+01 2.4197841365730007e+01 2 0 1
3117 1 6.5921091483857372e+00 1.3333722604762610e+01 2.4056034779991634e+01 1 0 0
552 2 0.0000000000000000e+00 2.8417180249513345e+00 2.6874305946954703e+01 0 0 0
554 2 0.0000000000000000e+00 0.0000000000000000e+00 2.6874305946954703e+01 0 0 0
556 2 1.2305000000000001e+00 7.1042950623783474e-01 2.6874305946954703e+01 0 0 0
563 2 1.2305000000000001e+00 2.1312885187134998e+00 2.6874305946954703e+01 0 0 0
565 2 2.4610000000000003e+00 2.8417180249513345e+00 2.6874305946954703e+01 0 0 0
567 2 2.4610000000000003e+00 0.0000000000000000e+00 2.6874305946954703e+01 0 0 0
569 2 3.6915000000000004e+00 7.1042950623783474e-01 2.6874305946954703e+01 0 0 0
584 2 3.6914999999999996e+00 2.1312885187134998e+00 2.6874305946954703e+01 0 0 0
586 2 4.9220000000000006e+00 2.8417180249513332e+00 2.6874305946954703e+01 0 0 0
588 2 4.9220000000000006e+00 0.0000000000000000e+00 2.6874305946954703e+01 0 0 0
590 2 6.1524999999999999e+00 7.1042950623783407e-01 2.6874305946954703e+01 0 0 0
613 2 6.1524999999999999e+00 2.1312885187134989e+00 2.6874305946954703e+01 0 0 0
615 2 7.3829999999999991e+00 2.8417180249513345e+00 2.6874305946954703e+01 0 0 0
617 2 7.3829999999999991e+00 0.0000000000000000e+00 2.6874305946954703e+01 0 0 0
619 2 8.6134999999999984e+00 7.1042950623783407e-01 2.6874305946954703e+01 0 0 0
650 2 8.6134999999999984e+00 2.1312885187135002e+00 2.6874305946954703e+01 0 0 0
559 2 0.0000000000000000e+00 4.2625770374269996e+00 2.6874305946954703e+01 0 0 0
561 2 1.2305000000000001e+00 4.9730065436648339e+00 2.6874305946954703e+01 0 0 0
576 2 1.2305000000000001e+00 6.3938655561404980e+00 2.6874305946954703e+01 0 0 0
580 2 2.4610000000000003e+00 4.2625770374269996e+00 2.6874305946954703e+01 0 0 0
582 2 3.6914999999999996e+00 4.9730065436648339e+00 2.6874305946954703e+01 0 0 0
605 2 3.6914999999999996e+00 6.3938655561404980e+00 2.6874305946954703e+01 0 0 0
557 2 0.0000000000000000e+00 7.1042950623783341e+00 2.6874305946954703e+01 0 0 0
578 2 2.4610000000000003e+00 7.1042950623783341e+00 2.6874305946954703e+01 0 0 0
609 2 4.9220000000000006e+00 4.2625770374269978e+00 2.6874305946954703e+01 0 0 0
611 2 6.1524999999999999e+00 4.9730065436648339e+00 2.6874305946954703e+01 0 0 0
642 2 6.1524999999999999e+00 6.3938655561404980e+00 2.6874305946954703e+01 0 0 0
646 2 7.3829999999999991e+00 4.2625770374269996e+00 2.6874305946954703e+01 0 0 0
648 2 8.6135000000000002e+00 4.9730065436648339e+00 2.6874305946954703e+01 0 0 0
687 2 8.6135000000000002e+00 6.3938655561404980e+00 2.6874305946954703e+01 0 0 0
607 2 4.9220000000000006e+00 7.1042950623783341e+00 2.6874305946954703e+01 0 0 0
644 2 7.3830000000000009e+00 7.1042950623783341e+00 2.6874305946954703e+01 0 0 0
572 2 0.0000000000000000e+00 8.5251540748539991e+00 2.6874305946954703e+01 0 0 0
574 2 1.2305000000000001e+00 9.2355835810918343e+00 2.6874305946954703e+01 0 0 0
601 2 2.4610000000000003e+00 8.5251540748539991e+00 2.6874305946954703e+01 0 0 0
603 2 3.6915000000000004e+00 9.2355835810918343e+00 2.6874305946954703e+01 0 0 0
570 2 0.0000000000000000e+00 1.1366872099805333e+01 2.6874305946954703e+01 0 0 0
597 2 1.2305000000000001e+00 1.0656442593567498e+01 2.6874305946954703e+01 0 0 0
599 2 2.4610000000000003e+00 1.1366872099805333e+01 2.6874305946954703e+01 0 0 0
634 2 3.6914999999999996e+00 1.0656442593567499e+01 2.6874305946954703e+01 0 0 0
638 2 4.9220000000000006e+00 8.5251540748539991e+00 2.6874305946954703e+01 0 0 0
640 2 6.1524999999999999e+00 9.2355835810918343e+00 2.6874305946954703e+01 0 0 0
683 2 7.3830000000000009e+00 8.5251540748539991e+00 2.6874305946954703e+01 0 0 0
685 2 8.6134999999999984e+00 9.2355835810918343e+00 2.6874305946954703e+01 0 0 0
636 2 4.9220000000000006e+00 1.1366872099805333e+01 2.6874305946954703e+01 0 0 0
679 2 6.1524999999999999e+00 1.0656442593567499e+01 2.6874305946954703e+01 0 0 0
681 2 7.3829999999999991e+00 1.1366872099805333e+01 2.6874305946954703e+01 0 0 0
726 2 8.6134999999999984e+00 1.0656442593567498e+01 2.6874305946954703e+01 0 0 0
591 2 0.0000000000000000e+00 1.5629449137232333e+01 2.6874305946954703e+01 0 0 0
632 2 3.6915000000000004e+00 1.3498160618518829e+01 2.6874305946954703e+01 0 0 0
671 2 3.6915000000000004e+00 1.4919019630994494e+01 2.6874305946954703e+01 0 0 0
628 2 2.4610000000000003e+00 1.5629449137232328e+01 2.6874305946954703e+01 0 0 0
593 2 0.0000000000000000e+00 1.2787731112280996e+01 2.6874305946954703e+01 0 0 0
626 2 1.2305000000000001e+00 1.4919019630994494e+01 2.6874305946954703e+01 0 0 0
630 2 2.4610000000000003e+00 1.2787731112280996e+01 2.6874305946954703e+01 0 0 0
595 2 1.2305000000000001e+00 1.3498160618518829e+01 2.6874305946954703e+01 0 0 0
722 2 7.3829999999999991e+00 1.2787731112280996e+01 2.6874305946954703e+01 0 0 0
673 2 4.9220000000000006e+00 1.5629449137232333e+01 2.6874305946954703e+01 0 0 0
718 2 6.1524999999999990e+00 1.4919019630994494e+01 2.6874305946954703e+01 0 0 0
720 2 7.3829999999999991e+00 1.5629449137232333e+01 2.6874305946954703e+01 0 0 0
675 2 4.9220000000000006e+00 1.2787731112280996e+01 2.6874305946954703e+01 0 0 0
4762 1 1.3862941437441847e+00 8.3326715086792387e+00 2.2499270686842621e+01 1 0 0
1952 1 9.6619180772079645e+00 8.3307688478428066e+00 2.3783959242617414e+01 0 0 0
3562 1 8.6197495756568649e+00 1.2006768765829570e-01 2.3764328374324794e+01 0 0 0
2894 1 1.2070226658417897e+00 4.1661758522221319e+00 2.1914176882741497e+01 1 0 1
5131 1 4.0477287560356739e-01 5.7130331738789168e+00 2.4138377723296401e+01 0 1 1
6238 1 8.2728920467308225e+00 4.5473291708655701e+00 2.1214720822608989e+01 1 0 1
553 2 0.0000000000000000e+00 1.4208590124756650e+00 3.0030999999999892e+01 0 0 0
555 2 0.0000000000000000e+00 0.0000000000000000e+00 3.0030999999999892e+01 0 0 0
564 2 1.2305000000000001e+00 2.1312885187134998e+00 3.0030999999999892e+01 0 0 0
566 2 2.4610000000000003e+00 1.4208590124756650e+00 3.0030999999999892e+01 0 0 0
568 2 2.4610000000000003e+00 0.0000000000000000e+00 3.0030999999999892e+01 0 0 0
585 2 3.6914999999999996e+00 2.1312885187134998e+00 3.0030999999999892e+01 0 0 0
562 2 1.2305000000000001e+00 3.5521475311891644e+00 3.0030999999999892e+01 0 0 0
583 2 3.6914999999999996e+00 3.5521475311891644e+00 3.0030999999999892e+01 0 0 0
881 2 0.0000000000000000e+00 2.8417180249513345e+00 3.3187694053046350e+01 0 0 0
882 2 0.0000000000000000e+00 0.0000000000000000e+00 3.3187694053046350e+01 0 0 0
883 2 1.2305000000000001e+00 7.1042950623783474e-01 3.3187694053046350e+01 0 0 0
887 2 1.2305000000000001e+00 2.1312885187134998e+00 3.3187694053046350e+01 0 0 0
888 2 2.4610000000000003e+00 2.8417180249513345e+00 3.3187694053046350e+01 0 0 0
889 2 2.4610000000000003e+00 0.0000000000000000e+00 3.3187694053046350e+01 0 0 0
890 2 3.6915000000000004e+00 7.1042950623783474e-01 3.3187694053046350e+01 0 0 0
898 2 3.6914999999999996e+00 2.1312885187134998e+00 3.3187694053046350e+01 0 0 0
587 2 4.9220000000000006e+00 1.4208590124756650e+00 3.0030999999999892e+01 0 0 0
589 2 4.9220000000000006e+00 0.0000000000000000e+00 3.0030999999999892e+01 0 0 0
614 2 6.1524999999999999e+00 2.1312885187134989e+00 3.0030999999999892e+01 0 0 0
616 2 7.3829999999999991e+00 1.4208590124756659e+00 3.0030999999999892e+01 0 0 0
618 2 7.3829999999999991e+00 0.0000000000000000e+00 3.0030999999999892e+01 0 0 0
651 2 8.6134999999999984e+00 2.1312885187135002e+00 3.0030999999999892e+01 0 0 0
612 2 6.1524999999999999e+00 3.5521475311891644e+00 3.0030999999999892e+01 0 0 0
649 2 8.6134999999999984e+00 3.5521475311891657e+00 3.0030999999999892e+01 0 0 0
899 2 4.9220000000000006e+00 2.8417180249513332e+00 3.3187694053046350e+01 0 0 0
900 2 4.9220000000000006e+00 0.0000000000000000e+00 3.3187694053046350e+01 0 0 0
901 2 6.1524999999999999e+00 7.1042950623783407e-01 3.3187694053046350e+01 0 0 0
913 2 6.1524999999999999e+00 2.1312885187134989e+00 3.3187694053046350e+01 0 0 0
914 2 7.3829999999999991e+00 2.8417180249513345e+00 3.3187694053046350e+01 0 0 0
915 2 7.3829999999999991e+00 0.0000000000000000e+00 3.3187694053046350e+01 0 0 0
916 2 8.6134999999999984e+00 7.1042950623783407e-01 3.3187694053046350e+01 0 0 0
932 2 8.6134999999999984e+00 2.1312885187135002e+00 3.3187694053046350e+01 0 0 0
558 2 0.0000000000000000e+00 5.6834360499026637e+00 3.0030999999999892e+01 0 0 0
560 2 0.0000000000000000e+00 4.2625770374269996e+00 3.0030999999999892e+01 0 0 0
577 2 1.2305000000000001e+00 6.3938655561404980e+00 3.0030999999999892e+01 0 0 0
579 2 2.4610000000000003e+00 5.6834360499026637e+00 3.0030999999999892e+01 0 0 0
581 2 2.4610000000000003e+00 4.2625770374269996e+00 3.0030999999999892e+01 0 0 0
606 2 3.6914999999999996e+00 6.3938655561404980e+00 3.0030999999999892e+01 0 0 0
575 2 1.2305000000000001e+00 7.8147245686161639e+00 3.0030999999999892e+01 0 0 0
604 2 3.6914999999999996e+00 7.8147245686161639e+00 3.0030999999999892e+01 0 0 0
885 2 0.0000000000000000e+00 4.2625770374269996e+00 3.3187694053046350e+01 0 0 0
886 2 1.2305000000000001e+00 4.9730065436648339e+00 3.3187694053046350e+01 0 0 0
894 2 1.2305000000000001e+00 6.3938655561404980e+00 3.3187694053046350e+01 0 0 0
896 2 2.4610000000000003e+00 4.2625770374269996e+00 3.3187694053046350e+01 0 0 0
897 2 3.6914999999999996e+00 4.9730065436648339e+00 3.3187694053046350e+01 0 0 0
909 2 3.6914999999999996e+00 6.3938655561404980e+00 3.3187694053046350e+01 0 0 0
884 2 0.0000000000000000e+00 7.1042950623783341e+00 3.3187694053046350e+01 0 0 0
895 2 2.4610000000000003e+00 7.1042950623783341e+00 3.3187694053046350e+01 0 0 0
608 2 4.9220000000000006e+00 5.6834360499026637e+00 3.0030999999999892e+01 0 0 0
610 2 4.9220000000000006e+00 4.2625770374269978e+00 3.0030999999999892e+01 0 0 0
643 2 6.1524999999999999e+00 6.3938655561404980e+00 3.0030999999999892e+01 0 0 0
645 2 7.3829999999999991e+00 5.6834360499026637e+00 3.0030999999999892e+01 0 0 0
647 2 7.3829999999999991e+00 4.2625770374269996e+00 3.0030999999999892e+01 0 0 0
688 2 8.6135000000000002e+00 6.3938655561404980e+00 3.0030999999999892e+01 0 0 0
641 2 6.1524999999999999e+00 7.8147245686161639e+00 3.0030999999999892e+01 0 0 0
686 2 8.6135000000000002e+00 7.8147245686161639e+00 3.0030999999999892e+01 0 0 0
911 2 4.9220000000000006e+00 4.2625770374269978e+00 3.3187694053046350e+01 0 0 0
912 2 6.1524999999999999e+00 4.9730065436648339e+00 3.3187694053046350e+01 0 0 0
928 2 6.1524999999999999e+00 6.3938655561404980e+00 3.3187694053046350e+01 0 0 0
930 2 7.3829999999999991e+00 4.2625770374269996e+00 3.3187694053046350e+01 0 0 0
931 2 8.6135000000000002e+00 4.9730065436648339e+00 3.3187694053046350e+01 0 0 0
951 2 8.6135000000000002e+00 6.3938655561404980e+00 3.3187694053046350e+01 0 0 0
910 2 4.9220000000000006e+00 7.1042950623783341e+00 3.3187694053046350e+01 0 0 0
929 2 7.3830000000000009e+00 7.1042950623783341e+00 3.3187694053046350e+01 0 0 0
571 2 0.0000000000000000e+00 9.9460130873296642e+00 3.0030999999999892e+01 0 0 0
573 2 0.0000000000000000e+00 8.5251540748539991e+00 3.0030999999999892e+01 0 0 0
600 2 2.4610000000000003e+00 9.9460130873296642e+00 3.0030999999999892e+01 0 0 0
602 2 2.4610000000000003e+00 8.5251540748539991e+00 3.0030999999999892e+01 0 0 0
596 2 1.2305000000000001e+00 1.2077301606043163e+01 3.0030999999999892e+01 0 0 0
598 2 1.2305000000000001e+00 1.0656442593567498e+01 3.0030999999999892e+01 0 0 0
633 2 3.6914999999999996e+00 1.2077301606043163e+01 3.0030999999999892e+01 0 0 0
635 2 3.6914999999999996e+00 1.0656442593567499e+01 3.0030999999999892e+01 0 0 0
892 2 0.0000000000000000e+00 8.5251540748539991e+00 3.3187694053046350e+01 0 0 0
893 2 1.2305000000000001e+00 9.2355835810918343e+00 3.3187694053046350e+01 0 0 0
907 2 2.4610000000000003e+00 8.5251540748539991e+00 3.3187694053046350e+01 0 0 0
908 2 3.6915000000000004e+00 9.2355835810918343e+00 3.3187694053046350e+01 0 0 0
891 2 0.0000000000000000e+00 1.1366872099805333e+01 3.3187694053046350e+01 0 0 0
905 2 1.2305000000000001e+00 1.0656442593567498e+01 3.3187694053046350e+01 0 0 0
906 2 2.4610000000000003e+00 1.1366872099805333e+01 3.3187694053046350e+01 0 0 0
924 2 3.6914999999999996e+00 1.0656442593567499e+01 3.3187694053046350e+01 0 0 0
637 2 4.9220000000000006e+00 9.9460130873296642e+00 3.0030999999999892e+01 0 0 0
639 2 4.9220000000000006e+00 8.5251540748539991e+00 3.0030999999999892e+01 0 0 0
682 2 7.3830000000000009e+00 9.9460130873296642e+00 3.0030999999999892e+01 0 0 0
684 2 7.3830000000000009e+00 8.5251540748539991e+00 3.0030999999999892e+01 0 0 0
678 2 6.1524999999999999e+00 1.2077301606043163e+01 3.0030999999999892e+01 0 0 0
680 2 6.1524999999999999e+00 1.0656442593567499e+01 3.0030999999999892e+01 0 0 0
725 2 8.6135000000000002e+00 1.2077301606043163e+01 3.0030999999999892e+01 0 0 0
727 2 8.6134999999999984e+00 1.0656442593567498e+01 3.0030999999999892e+01 0 0 0
926 2 4.9220000000000006e+00 8.5251540748539991e+00 3.3187694053046350e+01 0 0 0
927 2 6.1524999999999999e+00 9.2355835810918343e+00 3.3187694053046350e+01 0 0 0
949 2 7.3830000000000009e+00 8.5251540748539991e+00 3.3187694053046350e+01 0 0 0
950 2 8.6134999999999984e+00 9.2355835810918343e+00 3.3187694053046350e+01 0 0 0
925 2 4.9220000000000006e+00 1.1366872099805333e+01 3.3187694053046350e+01 0 0 0
947 2 6.1524999999999999e+00 1.0656442593567499e+01 3.3187694053046350e+01 0 0 0
948 2 7.3829999999999991e+00 1.1366872099805333e+01 3.3187694053046350e+01 0 0 0
971 2 8.6134999999999984e+00 1.0656442593567498e+01 3.3187694053046350e+01 0 0 0
594 2 0.0000000000000000e+00 1.2787731112280996e+01 3.0030999999999892e+01 0 0 0
631 2 2.4610000000000003e+00 1.2787731112280996e+01 3.0030999999999892e+01 0 0 0
592 2 0.0000000000000000e+00 1.4208590124756663e+01 3.0030999999999892e+01 0 0 0
627 2 1.2305000000000001e+00 1.4919019630994494e+01 3.0030999999999892e+01 0 0 0
629 2 2.4610000000000003e+00 1.4208590124756663e+01 3.0030999999999892e+01 0 0 0
672 2 3.6915000000000004e+00 1.4919019630994494e+01 3.0030999999999892e+01 0 0 0
903 2 0.0000000000000000e+00 1.2787731112280996e+01 3.3187694053046350e+01 0 0 0
904 2 1.2305000000000001e+00 1.3498160618518829e+01 3.3187694053046350e+01 0 0 0
922 2 2.4610000000000003e+00 1.2787731112280996e+01 3.3187694053046350e+01 0 0 0
923 2 3.6915000000000004e+00 1.3498160618518829e+01 3.3187694053046350e+01 0 0 0
902 2 0.0000000000000000e+00 1.5629449137232333e+01 3.3187694053046350e+01 0 0 0
920 2 1.2305000000000001e+00 1.4919019630994494e+01 3.3187694053046350e+01 0 0 0
921 2 2.4610000000000003e+00 1.5629449137232328e+01 3.3187694053046350e+01 0 0 0
943 2 3.6915000000000004e+00 1.4919019630994494e+01 3.3187694053046350e+01 0 0 0
676 2 4.9220000000000006e+00 1.2787731112280996e+01 3.0030999999999892e+01 0 0 0
723 2 7.3829999999999991e+00 1.2787731112280996e+01 3.0030999999999892e+01 0 0 0
674 2 4.9220000000000006e+00 1.4208590124756663e+01 3.0030999999999892e+01 0 0 0
719 2 6.1524999999999990e+00 1.4919019630994494e+01 3.0030999999999892e+01 0 0 0
721 2 7.3830000000000009e+00 1.4208590124756663e+01 3.0030999999999892e+01 0 0 0
766 2 8.6135000000000002e+00 1.4919019630994494e+01 3.0030999999999892e+01 0 0 0
945 2 4.9220000000000006e+00 1.2787731112280996e+01 3.3187694053046350e+01 0 0 0
946 2 6.1524999999999990e+00 1.3498160618518829e+01 3.3187694053046350e+01 0 0 0
969 2 7.3829999999999991e+00 1.2787731112280996e+01 3.3187694053046350e+01 0 0 0
970 2 8.6135000000000002e+00 1.3498160618518835e+01 3.3187694053046350e+01 0 0 0
944 2 4.9220000000000006e+00 1.5629449137232333e+01 3.3187694053046350e+01 0 0 0
967 2 6.1524999999999990e+00 1.4919019630994494e+01 3.3187694053046350e+01 0 0 0
968 2 7.3829999999999991e+00 1.5629449137232333e+01 3.3187694053046350e+01 0 0 0
991 2 8.6135000000000002e+00 1.4919019630994494e+01 3.3187694053046350e+01 0 0 0
4639 1 1.3969712554731240e+00 5.1030039500402857e+00 3.5553883529836256e+01 0 0 0
69 1 3.9260914322336706e+00 4.7797908194341865e+00 3.6361064830833335e+01 1 2 -1
3550 1 5.4925499528277770e+00 2.3891313592597996e+00 3.6232043128733103e+01 1 0 -1
3337 1 1.8714049021206061e+00 1.5876504225113985e+01 3.6288482522350897e+01 1 0 -1
4966 1 6.2308710934749998e+00 1.9467670927163283e-02 3.8420992914644224e+01 0 1 0
4841 1 7.9404969405497692e+00 5.9534443773322048e+00 3.8754731123204166e+01 0 0 0
5007 1 1.3762460705152182e+00 8.1111152344362285e+00 3.5935453441825352e+01 1 1 -1
355 1 5.5762536837366268e+00 7.0188639410567308e+00 3.5988502958286276e+01 1 0 -1
1341 1 8.5283993176833306e+00 6.0313612844773026e+00 3.5896775339623659e+01 1 1 0
489 1 4.4535350023733704e+00 1.3061580948446283e+01 3.8355339144850376e+01 0 0 0
3138 1 4.3783243424383338e+00 1.2002797820688317e+01 3.5358848209248059e+01 2 0 -1
4481 1 6.6811757349541292e+00 3.2114565293282626e+00 3.8831671581400471e+01 1 1 0
1391 1 3.9989499602276704e+00 9.0126811688737494e+00 3.5514241916626986e+01 0 0 0
1729 1 9.4970424181648951e+00 8.9261263351234366e+00 3.5681875997323701e+01 0 2 0
1403 1 7.0171561605313633e+00 1.0972591944781808e+01 3.5922362771433818e+01 1 0 0
231 1 7.5220146106258543e+00 9.9681947763933891e+00 3.8759645218552386e+01 0 0 -1
2930 1 8.1100602709360654e+00 3.3281000005593699e+00 3.5569156287137609e+01 0 1 0
1883 1 4.4937097319640333e+00 1.4999510383197901e+01 3.5884254555958918e+01 0 1 -1
3655 1 8.9181940541111437e+00 1.4960472548551904e+01 3.5416007924197388e+01 0 1 0
1507 1 5.9406797872585884e+00 7.7942007986257469e+00 3.8647641240377475e+01 1 0 0
6087 1 8.9662597603754168e+00 1.2666772065946716e+01 3.6956627600659203e+01 0 1 0
4718 1 1.3112649941033943e+00 1.1998623821400411e+01 3.5801574094952102e+01 1 0 0
6035 1 9.7118226928871021e+00 7.0639445348282914e-01 3.5950165029963294e+01 0 1 -1
3526 1 1.7709318837793249e+00 2.1972082044815915e+00 3.5792671918349242e+01 0 0 -1
6073 1 7.0861013165103914e-01 1.1040064858847973e+01 3.8403963747525118e+01 3 1 -1
2076 1 1.1192503788113710e+00 1.5376134699252173e+01 3.8745362821537114e+01 1 0 0
4627 1 1.2481496915885791e-01 1.5462971073052774e+00 3.8623069368107458e+01 0 0 0
40 1 9.2356542901627248e-01 8.2499630336413290e+00 3.8805697149633829e+01 1 1 0
3027 1 4.6923673857662100e+00 3.4752737688882758e+00 4.0851374714762770e+01 1 1 -1
3500 1 3.2708108159598108e+00 1.9158624572685536e+00 4.2827841798371125e+01 -1 0 -1
6169 1 6.5254066386253404e+00 1.2604442655065194e+01 3.9979484395364949e+01 -1 0 -1
465 1 8.5665461265762968e+00 1.3905084686130087e+00 4.0231028505778610e+01 0 0 -1
105 1 2.3166121542499574e+00 1.3080051328319295e+01 4.7622330849875034e+01 0 0 -1
1528 1 1.0198692541520287e+00 1.6108117847048511e+01 4.4306709750495237e+01 0 1 -1
5043 1 3.1577640153461544e+00 3.6827030163896488e+00 4.4749913183571969e+01 1 1 -1
1979 1 3.0937114614902934e+00 8.2028131900618355e+00 4.2464520348095647e+01 1 0 0
6185 1 6.2934302188794398e+00 1.3464594803239109e+01 4.6937933377389058e+01 1 1 0
2810 1 8.5204344140369148e+00 7.0764381209928624e+00 4.4189310358310841e+01 0 0 0
1415 1 9.7954722532100540e+00 9.5569400084786160e-01 4.4108677052544706e+01 0 1 0
1445 1 6.8425692452018652e+00 4.6015406666009975e+00 4.4467154150340875e+01 1 0 0
4765 1 5.0371188468588848e+00 5.5879631996978905e+00 4.2431302032875450e+01 1 0 -1
1822 1 3.5711088373859154e+00 6.4580835297719679e+00 4.4780015733052046e+01 1 0 -1
3423 1 1.2360414968954681e+00 1.2215032250256751e+01 4.2536681635281433e+01 2 1 -1
2855 1 3.7307866136225178e+00 1.0939230342804830e+01 4.3522293305393838e+01 1 0 0
144 1 6.5594195266729125e+00 1.0060450761937197e+01 4.3558407559363467e+01 0 -1 0
1361 1 6.5240235852159199e+00 7.9609341233236526e+00 4.1563875491852471e+01 0 0 -1
1984 1 5.2387549373242335e+00 2.6186257880597974e-01 4.6180813238527683e+01 0 1 0
2873 1 3.4133725340912475e+00 1.5788053442168078e+01 4.0568754741234549e+01 2 1 0
2958 1 4.9961608090082832e+00 1.3213005476611833e+01 4.2142856724998857e+01 1 1 0
5198 1 3.2365159176898879e+00 1.4935244339889328e+01 4.5436510463960502e+01 0 0 -1
3248 1 7.1366013467116121e+00 2.0913923011950977e+00 4.3032089455853125e+01 1 1 -1
1399 1 8.0540687049932629e+00 1.2723782361957362e+01 4.3304458874138945e+01 0 0 0
1616 1 5.7354290299151787e+00 1.0590539205052256e+01 4.6642486153820172e+01 2 0 -1
4914 1 8.7894237445761547e+00 1.2777439683735665e+01 4.5905212921984173e+01 0 0 -1
4467 1 6.9346323861737225e-01 8.8620521197925903e+00 4.7030992764954490e+01 1 2 -1