LAMMPS data file via write_data, version 16 Mar 2018, timestep = 8000000

6328 atoms
2 atom types

0.0000000000000000e+00 4.9219999999999999e+01 xlo xhi
0.0000000000000000e+00 4.9019635930410494e+01 ylo yhi
2.2793556448734869e+00 5.7782644355113277e+01 zlo zhi

Masses

1 18.015
2 12.01

Atoms # atomic

2900 1 6.4432845170346953e-01 2.4367287870514045e+00 6.4496335075666611e+00 1 3 1
2918 1 5.9065357864181234e-01 2.5079061080587186e+00 3.6287452496164452e+00 2 0 0
452 1 5.2512765701291757e+00 2.6868835462759764e+00 3.9022721508044409e+00 -4 4 1
1515 1 4.7120118015195018e+00 2.4983638222820765e+00 6.5603101616039137e+00 -1 0 1
4612 1 9.6085927450786297e+00 1.5206075094460548e+01 2.3202416479708807e+00 2 0 1
2818 1 9.5996898175326386e+00 1.5716569667474833e+01 7.1186503259908562e+00 -1 2 1
3292 1 9.5404400642055087e+00 7.5253133191816959e+00 1.0255740907628827e+01 0 0 0
1944 1 9.6840618358157631e+00 2.8244660701040729e+00 3.6322036960045834e+00 -2 -1 0
2145 1 5.2343147295389780e+00 9.9092166900038361e+00 1.1068425005508335e+01 0 0 1
377 1 2.4605609911867274e+00 6.2524773982533990e+00 6.3555953645397913e+00 3 3 0
229 1 2.9198306306193702e+00 6.1472344693796295e+00 3.6343608769186009e+00 -3 -1 0
370 1 5.4295570341155974e-01 7.8954114145925809e+00 7.1896806406765590e+00 2 -3 0
139 1 5.2610769906061927e+00 1.5181143533459734e+01 2.4551044350475952e+00 4 2 1
3038 1 5.1295338542467448e+00 7.7794732541964633e+00 2.8436975737255903e+00 -2 -2 1
538 1 7.2930097038595774e+00 6.1868823108830702e+00 3.7428168543459757e+00 8 4 1
4998 1 7.2568777876246369e+00 6.6287965721235240e+00 6.4148953947977008e+00 2 -1 0
402 1 8.1701683780742884e-01 1.5277472357225038e+01 2.6385821058766874e+00 -1 -1 0
1947 1 9.4683180507993665e+00 2.8427574913797438e+00 6.3587138571370021e+00 2 -1 0
5115 1 7.2836666503896970e+00 1.4306107400693651e+01 1.0697261149585836e+01 0 -3 0
2860 1 8.1640849117096359e-01 9.7405017662160756e+00 3.2282448464454498e+00 1 0 1
4840 1 7.0072138660614514e-01 1.0544460020768160e+01 6.0597822639967340e+00 -2 4 1
158 1 9.4388611553120203e+00 7.9167132989593245e+00 7.5175255460187129e+00 1 -2 0
4876 1 5.4232565920153890e+00 1.0137722362572832e+01 6.6209015480918332e+00 -3 0 0
5136 1 5.2350522640894122e+00 1.0493519678767498e+01 3.7276033045916019e+00 1 -3 1
2140 1 7.0550417457233638e-01 1.5277876481891788e+01 1.0269229223839098e+01 -1 -2 1
152 1 3.0084481872633364e+00 1.3795035872528796e+01 3.5707718677476841e+00 -1 2 0
5955 1 2.8910871825905891e+00 1.4110232523162757e+01 6.2348239930182672e+00 -1 -4 1
4717 1 7.4846831364493411e+00 1.3887796930000540e+01 3.5176102044285829e+00 0 -3 1
6266 1 7.5378201645604506e+00 1.4168132604682970e+01 6.2502875033922276e+00 -3 -1 1
1920 1 5.2382172067331680e+00 1.5630317131259941e+01 9.8830363631912181e+00 -1 0 1
1963 1 5.2472477371296105e+00 1.5298137038243411e+01 7.1946740075595157e+00 3 1 0
3568 1 2.5161217643420755e+00 3.8623644086499294e+00 7.5824759601681784e+00 1 1 1
160 1 2.7755156960016496e+00 3.2707595165607923e+00 1.0344104208723957e+01 -2 -2 0
254 1 4.8557906864391914e-01 2.0655047068729862e+00 1.1314029646948891e+01 -2 -1 0
521 1 7.4242630508353855e+00 3.6696982443932495e+00 2.4717709473023319e+00 1 -6 1
4921 1 5.1234155306345253e+00 2.1993364605078933e+00 1.0937924222531198e+01 2 -7 0
4667 1 7.0011475660378126e+00 3.8862068333944100e+00 7.0454037048183995e+00 -1 0 1
3229 1 7.1928764526531737e+00 3.7556860952626643e+00 9.8015423387997629e+00 2 -3 1
3538 1 8.0059836095347636e-01 1.5264374937180273e+01 7.4071638263059523e+00 4 3 1
4954 1 2.9996528732762857e+00 5.8787543742971167e+00 1.0964656472483799e+01 2 4 0
3649 1 5.4516232706685219e-01 7.3661240588752923e+00 1.0108176305131721e+01 -8 2 0
5302 1 4.8630506635471402e+00 7.6853879012127937e+00 7.4578870186138442e+00 6 -1 1
5228 1 5.1311766028354580e+00 7.4309091326562635e+00 1.0105323283768577e+01 -1 4 1
6133 1 7.3444474940842914e+00 6.1296570935915806e+00 1.0979544406587886e+01 4 2 1
1599 1 9.2636142582040826e+00 2.3635304173540579e+00 1.1052008375521671e+01 0 -2 0
4405 1 3.0006089175398420e+00 1.1121602168670689e+01 1.0027876697913172e+01 1 -3 1
6062 1 2.9204165111396843e+00 1.1553003474908619e+01 7.3720688583485829e+00 6 6 0
205 1 5.7069309724159856e-01 9.9728366951197636e+00 1.0888669922804581e+01 0 1 0
3632 1 7.5661273164056730e+00 1.1668633290922010e+01 7.3498944715077537e+00 2 5 1
3442 1 9.6754322592712079e+00 1.5412562659829021e+01 9.9731585232040363e+00 0 0 0
3620 1 7.5225170773861310e+00 1.1442588052913287e+01 1.0055495306097974e+01 -3 4 1
6236 1 3.2436067262812083e+00 1.3879078057831007e+01 1.0726783409697973e+01 0 1 1
1802 1 2.8072642772919374e+00 1.1196458990157883e+01 2.5678619258464388e+00 5 -3 0
94 1 9.7722097589530694e+00 1.0144946524780741e+01 3.6177401764934896e+00 3 2 1
80 1 7.5131950997668024e+00 1.1420992113929511e+01 2.4584365253288709e+00 1 3 0
1952 1 8.9254488839178825e-01 7.1233259278357028e+00 2.2821880417213456e+00 1 1 0
5267 1 3.1456980814059454e+00 3.6955235451561288e+00 2.7379445722487898e+00 1 1 1
2004 1 9.3860453747964598e+00 1.2152029074573520e-01 7.0234186286242366e+00 0 -4 1
3238 1 5.0102049252157403e+00 9.3733937070036452e-02 3.0315497471529569e+00 -1 -1 0
221 1 9.6198684713315288e+00 7.4535180751994865e+00 2.7441161785742243e+00 0 1 0
2798 1 4.9004398377813635e-01 2.1574489091285898e-02 2.5322340635661340e+00 -1 -3 1
4416 1 2.5480381055954497e+00 7.8643669349916456e-01 1.4448349749274065e+01 -2 2 0
4452 1 2.2942877945814122e-01 2.3773009118167385e+00 1.4059422093499434e+01 -3 2 1
4911 1 4.9662665345790984e+00 2.0377681044013674e+00 1.3733131767156287e+01 4 0 0
1399 1 7.1255124497194311e+00 8.7631547401512477e-01 1.4651082070753597e+01 0 -1 1
6260 1 9.8050823556178646e+00 1.5422224270895155e+01 1.8109589850791942e+01 2 0 0
1591 1 2.6154656010373896e+00 6.2312883261796381e+00 1.3701875269696004e+01 -1 1 1
4673 1 3.7797226808384082e-01 4.8664962493828421e+00 1.4650479253372094e+01 0 4 1
3647 1 4.8550774874759295e+00 4.8522541009116376e+00 1.4549945944378543e+01 -2 -2 0
4990 1 7.1513533043882322e+00 5.9914812459063302e+00 1.3759002430930199e+01 4 -1 0
5239 1 9.6289748265292907e+00 1.2957349957140389e+01 1.4433365852982410e+01 4 5 0
3101 1 2.8524953108048727e+00 8.6683735612812427e+00 1.4662096690496865e+01 -1 -2 1
4694 1 5.5230957988969498e-01 9.9533227414138921e+00 1.3663863092128295e+01 0 -3 0
5126 1 4.9597835629492018e+00 1.0328719271604484e+01 1.3771653827820872e+01 -2 2 0
2952 1 7.4457271250390322e+00 8.7878142258460592e+00 1.4656939059611169e+01 -2 0 1
195 1 9.2762553939013728e+00 2.2608493031166512e+00 1.3699517216709532e+01 -1 0 0
3600 1 7.0137673474591311e-01 1.2877954091486192e+01 1.4463696095762455e+01 -1 -2 0
1849 1 2.9552875591434233e+00 1.4015747478842062e+01 1.3488862591665935e+01 2 0 1
4798 1 5.1666026510649283e+00 1.3051131895723325e+01 1.4673969390751116e+01 3 0 0
1975 1 7.3383389326174084e+00 1.4288888005953048e+01 1.3579627508836348e+01 2 1 1
4488 1 5.9736370475730316e-01 1.6017889101818501e+01 1.8227536448057947e+01 1 4 0
6262 1 2.5165139662447333e+00 8.1889787479360898e-01 1.7243423121848544e+01 0 1 0
1604 1 2.7969349676869908e+00 3.1710593640902767e+00 1.8162985290716289e+01 0 -3 1
5155 1 7.3155649447061455e+00 4.0185131758931592e-01 1.7527673747072374e+01 5 3 1
5972 1 7.3162717496543221e+00 3.0039000707380010e+00 1.8073841101292476e+01 4 -3 1
1456 1 5.3019144778692970e+00 1.3208263644517681e+01 1.7580339294769448e+01 -1 1 1
1663 1 3.7273841701927984e-01 7.3858222162427296e+00 1.8095291882431987e+01 5 -1 0
6221 1 6.9151196263072434e-01 4.6166966692637530e+00 1.7523233521047047e+01 0 1 0
3178 1 4.6381686823986392e+00 7.2427973672272206e+00 1.8090312739767676e+01 -2 0 0
4463 1 4.2436044847345822e-01 1.3055698932149282e+01 1.7350775081021908e+01 1 4 1
1595 1 5.0086509901274896e+00 4.5681843922449499e+00 1.7245598218054564e+01 1 -2 0
1801 1 5.2657148430074221e+00 1.5849143774931273e+01 1.8326132213321007e+01 5 -5 0
4849 1 2.4346989798877940e+00 8.8394804244658456e+00 1.7308337269140107e+01 1 1 1
502 1 2.6929321225459146e+00 1.1668062235710757e+01 1.8042431884818107e+01 0 2 1
2016 1 7.5890176435153087e+00 1.1547204726547667e+01 1.8057724140434921e+01 0 1 0
3293 1 7.3203801194319373e+00 8.6657331156336213e+00 1.7559864412547412e+01 1 -4 0
1769 1 9.2296830344760448e+00 4.8519589908351177e+00 1.4712761370380436e+01 2 1 0
219 1 9.5161665860722273e+00 4.4959230038338296e+00 1.7289384454823754e+01 2 -2 1
4728 1 9.5578112067402756e+00 7.2070789130384050e+00 1.8469285723761967e+01 0 -3 1
111 1 9.4701230782408192e+00 1.0330504367727467e+01 1.3745180955650133e+01 -1 4 1
3569 1 6.8887704147932158e+00 3.0520875619416969e+00 2.0638704782030551e+01 -1 -1 0
1815 1 2.9243582701642210e+00 1.1711974499678405e+01 2.0722651705397912e+01 6 -1 0
207 1 2.1237946903795404e+00 3.2744972971139852e+00 2.4270382159641777e+01 0 -3 1
4593 1 3.6317022229048157e-01 5.0078832925044736e+00 2.0857896920427361e+01 -1 3 1
155 1 2.8288766039807540e+00 3.1071020786387832e-01 2.1552068787153470e+01 -2 0 1
2962 1 2.8319620451729094e-01 7.8104980746944426e+00 2.0971391531166638e+01 0 -3 0
1383 1 7.2394003367964244e+00 3.1027985695882956e+00 2.4177147447455461e+01 -2 3 1
4899 1 7.2842226805772157e+00 1.1254260390849996e+01 2.1015365141935646e+01 -2 3 0
420 1 7.2392449153490590e+00 2.0815196531849062e-01 2.1350887567223200e+01 -4 1 0
97 1 7.4062889613060197e+00 3.1392630920729481e-01 2.4038247905960716e+01 -2 0 1
4708 1 9.6978136500264593e+00 1.2678687158023290e+01 2.4419360029424837e+01 -6 4 0
2979 1 4.8378488016907166e+00 7.3890834600308679e+00 2.3826529694745954e+01 -2 1 0
3224 1 4.7794012941866519e+00 4.4589406951309387e+00 2.4253500486182851e+01 4 1 0
1357 1 1.9908660832071945e-01 1.5463418103253272e+01 2.0958770195493813e+01 0 -3 0
6081 1 4.7247096720504080e+00 6.9622257765632058e+00 2.0799446852908172e+01 -2 -5 1
6144 1 4.5248306234650126e+00 4.4973840816113659e+00 2.1416628401875414e+01 4 6 0
677 2 6.1524999999999990e+00 1.3498160618518829e+01 2.6718832706999315e+01 0 0 0
765 2 8.6135000000000002e+00 1.4919019630994494e+01 2.6718832706999315e+01 0 0 0
3399 1 2.7336797743307906e+00 9.0638842815107665e+00 2.1378790106170051e+01 1 -1 0
6047 1 2.5260628928350664e+00 8.9643175555398606e+00 2.4155937945093743e+01 5 2 0
2951 1 2.6943252718369224e+00 1.1749934177765592e+01 2.4042534418869867e+01 -3 -4 1
1479 1 2.0981282652282629e+00 3.8114889165380111e-01 2.4304101277585854e+01 3 1 1
6156 1 7.4818775192761660e+00 8.1609074360437397e+00 2.4022039670334166e+01 1 1 1
1394 1 7.4959699561123534e+00 1.1237662112759821e+01 2.4120568526030649e+01 0 -1 0
5103 1 7.0953255121436092e+00 8.5180297328839671e+00 2.1180694791311911e+01 2 -3 0
720 2 7.3829999999999991e+00 1.5629449137232333e+01 2.6718832706999315e+01 0 0 0
531 1 5.1891162810018701e+00 1.2806999042222948e+01 2.4225271189128154e+01 0 0 1
3487 1 5.0190449675568409e+00 1.5774812867222300e+01 2.1120690262368473e+01 -5 -3 0
673 2 4.9220000000000006e+00 1.5629449137232333e+01 2.6718832706999315e+01 0 0 0
6076 1 4.8818488933155422e+00 1.5804403550978554e+01 2.4213009029116858e+01 -2 1 1
6145 1 2.3976431195296009e+00 3.1360766211727955e+00 2.1266509434975763e+01 2 4 1
523 1 5.2772406756335695e+00 1.2961066966597130e+01 2.1279723352149460e+01 -2 -2 1
675 2 4.9220000000000006e+00 1.2787731112280996e+01 2.6718832706999315e+01 0 0 0
722 2 7.3829999999999991e+00 1.2787731112280996e+01 2.6718832706999315e+01 0 0 0
724 2 8.6135000000000002e+00 1.3498160618518835e+01 2.6718832706999315e+01 0 0 0
552 2 0.0000000000000000e+00 2.8417180249513345e+00 2.6718832706999315e+01 0 0 0
554 2 0.0000000000000000e+00 0.0000000000000000e+00 2.6718832706999315e+01 0 0 0
556 2 1.2305000000000001e+00 7.1042950623783474e-01 2.6718832706999315e+01 0 0 0
563 2 1.2305000000000001e+00 2.1312885187134998e+00 2.6718832706999315e+01 0 0 0
565 2 2.4610000000000003e+00 2.8417180249513345e+00 2.6718832706999315e+01 0 0 0
567 2 2.4610000000000003e+00 0.0000000000000000e+00 2.6718832706999315e+01 0 0 0
569 2 3.6915000000000004e+00 7.1042950623783474e-01 2.6718832706999315e+01 0 0 0
584 2 3.6914999999999996e+00 2.1312885187134998e+00 2.6718832706999315e+01 0 0 0
586 2 4.9220000000000006e+00 2.8417180249513332e+00 2.6718832706999315e+01 0 0 0
588 2 4.9220000000000006e+00 0.0000000000000000e+00 2.6718832706999315e+01 0 0 0
590 2 6.1524999999999999e+00 7.1042950623783407e-01 2.6718832706999315e+01 0 0 0
613 2 6.1524999999999999e+00 2.1312885187134989e+00 2.6718832706999315e+01 0 0 0
615 2 7.3829999999999991e+00 2.8417180249513345e+00 2.6718832706999315e+01 0 0 0
617 2 7.3829999999999991e+00 0.0000000000000000e+00 2.6718832706999315e+01 0 0 0
619 2 8.6134999999999984e+00 7.1042950623783407e-01 2.6718832706999315e+01 0 0 0
650 2 8.6134999999999984e+00 2.1312885187135002e+00 2.6718832706999315e+01 0 0 0
559 2 0.0000000000000000e+00 4.2625770374269996e+00 2.6718832706999315e+01 0 0 0
561 2 1.2305000000000001e+00 4.9730065436648339e+00 2.6718832706999315e+01 0 0 0
576 2 1.2305000000000001e+00 6.3938655561404980e+00 2.6718832706999315e+01 0 0 0
580 2 2.4610000000000003e+00 4.2625770374269996e+00 2.6718832706999315e+01 0 0 0
582 2 3.6914999999999996e+00 4.9730065436648339e+00 2.6718832706999315e+01 0 0 0
605 2 3.6914999999999996e+00 6.3938655561404980e+00 2.6718832706999315e+01 0 0 0
557 2 0.0000000000000000e+00 7.1042950623783341e+00 2.6718832706999315e+01 0 0 0
578 2 2.4610000000000003e+00 7.1042950623783341e+00 2.6718832706999315e+01 0 0 0
609 2 4.9220000000000006e+00 4.2625770374269978e+00 2.6718832706999315e+01 0 0 0
611 2 6.1524999999999999e+00 4.9730065436648339e+00 2.6718832706999315e+01 0 0 0
642 2 6.1524999999999999e+00 6.3938655561404980e+00 2.6718832706999315e+01 0 0 0
646 2 7.3829999999999991e+00 4.2625770374269996e+00 2.6718832706999315e+01 0 0 0
648 2 8.6135000000000002e+00 4.9730065436648339e+00 2.6718832706999315e+01 0 0 0
687 2 8.6135000000000002e+00 6.3938655561404980e+00 2.6718832706999315e+01 0 0 0
607 2 4.9220000000000006e+00 7.1042950623783341e+00 2.6718832706999315e+01 0 0 0
644 2 7.3830000000000009e+00 7.1042950623783341e+00 2.6718832706999315e+01 0 0 0
572 2 0.0000000000000000e+00 8.5251540748539991e+00 2.6718832706999315e+01 0 0 0
574 2 1.2305000000000001e+00 9.2355835810918343e+00 2.6718832706999315e+01 0 0 0
601 2 2.4610000000000003e+00 8.5251540748539991e+00 2.6718832706999315e+01 0 0 0
603 2 3.6915000000000004e+00 9.2355835810918343e+00 2.6718832706999315e+01 0 0 0
570 2 0.0000000000000000e+00 1.1366872099805333e+01 2.6718832706999315e+01 0 0 0
597 2 1.2305000000000001e+00 1.0656442593567498e+01 2.6718832706999315e+01 0 0 0
599 2 2.4610000000000003e+00 1.1366872099805333e+01 2.6718832706999315e+01 0 0 0
634 2 3.6914999999999996e+00 1.0656442593567499e+01 2.6718832706999315e+01 0 0 0
726 2 8.6134999999999984e+00 1.0656442593567498e+01 2.6718832706999315e+01 0 0 0
638 2 4.9220000000000006e+00 8.5251540748539991e+00 2.6718832706999315e+01 0 0 0
640 2 6.1524999999999999e+00 9.2355835810918343e+00 2.6718832706999315e+01 0 0 0
683 2 7.3830000000000009e+00 8.5251540748539991e+00 2.6718832706999315e+01 0 0 0
685 2 8.6134999999999984e+00 9.2355835810918343e+00 2.6718832706999315e+01 0 0 0
636 2 4.9220000000000006e+00 1.1366872099805333e+01 2.6718832706999315e+01 0 0 0
679 2 6.1524999999999999e+00 1.0656442593567499e+01 2.6718832706999315e+01 0 0 0
681 2 7.3829999999999991e+00 1.1366872099805333e+01 2.6718832706999315e+01 0 0 0
626 2 1.2305000000000001e+00 1.4919019630994494e+01 2.6718832706999315e+01 0 0 0
630 2 2.4610000000000003e+00 1.2787731112280996e+01 2.6718832706999315e+01 0 0 0
593 2 0.0000000000000000e+00 1.2787731112280996e+01 2.6718832706999315e+01 0 0 0
632 2 3.6915000000000004e+00 1.3498160618518829e+01 2.6718832706999315e+01 0 0 0
595 2 1.2305000000000001e+00 1.3498160618518829e+01 2.6718832706999315e+01 0 0 0
591 2 0.0000000000000000e+00 1.5629449137232333e+01 2.6718832706999315e+01 0 0 0
671 2 3.6915000000000004e+00 1.4919019630994494e+01 2.6718832706999315e+01 0 0 0
628 2 2.4610000000000003e+00 1.5629449137232328e+01 2.6718832706999315e+01 0 0 0
718 2 6.1524999999999990e+00 1.4919019630994494e+01 2.6718832706999315e+01 0 0 0
4429 1 9.6428666485753514e+00 4.4958600911448876e+00 2.3918914897339853e+01 0 -1 1
2961 1 9.4867859762912392e+00 1.5480038061782180e+01 2.4335423564578694e+01 -3 3 1
5969 1 5.2429483491847462e-01 1.2833008208228385e+01 2.1221046868238282e+01 -4 -3 1
5140 1 6.0973305156510005e-02 7.5618839065490429e+00 2.3815804876942885e+01 1 5 1
2033 1 9.3673562785825002e+00 7.0823872430811265e+00 2.1209719716595149e+01 -4 -1 1
1572 1 9.5658580048700070e+00 1.2738975999957017e+01 2.1540173606706251e+01 1 3 1
3397 1 9.5298648186299229e+00 4.3243594328592199e+00 2.1060954836603603e+01 -1 -3 0
3234 1 2.1785028005605653e-01 1.5664115320461347e+01 2.4110912043651329e+01 5 1 0
3528 1 1.2759065253759094e-01 1.2903315863579014e+01 2.3774624207717903e+01 1 -1 0
4839 1 9.6039290395875092e+00 1.5465120562030142e+01 2.0829506015127386e+01 -1 -3 1
553 2 0.0000000000000000e+00 1.4208590124756650e+00 3.0030999999993437e+01 0 0 0
555 2 0.0000000000000000e+00 0.0000000000000000e+00 3.0030999999993437e+01 0 0 0
564 2 1.2305000000000001e+00 2.1312885187134998e+00 3.0030999999993437e+01 0 0 0
566 2 2.4610000000000003e+00 1.4208590124756650e+00 3.0030999999993437e+01 0 0 0
568 2 2.4610000000000003e+00 0.0000000000000000e+00 3.0030999999993437e+01 0 0 0
585 2 3.6914999999999996e+00 2.1312885187134998e+00 3.0030999999993437e+01 0 0 0
562 2 1.2305000000000001e+00 3.5521475311891644e+00 3.0030999999993437e+01 0 0 0
583 2 3.6914999999999996e+00 3.5521475311891644e+00 3.0030999999993437e+01 0 0 0
881 2 0.0000000000000000e+00 2.8417180249513345e+00 3.3343167293014091e+01 0 0 0
882 2 0.0000000000000000e+00 0.0000000000000000e+00 3.3343167293014091e+01 0 0 0
883 2 1.2305000000000001e+00 7.1042950623783474e-01 3.3343167293014091e+01 0 0 0
887 2 1.2305000000000001e+00 2.1312885187134998e+00 3.3343167293014091e+01 0 0 0
888 2 2.4610000000000003e+00 2.8417180249513345e+00 3.3343167293014091e+01 0 0 0
889 2 2.4610000000000003e+00 0.0000000000000000e+00 3.3343167293014091e+01 0 0 0
890 2 3.6915000000000004e+00 7.1042950623783474e-01 3.3343167293014091e+01 0 0 0
898 2 3.6914999999999996e+00 2.1312885187134998e+00 3.3343167293014091e+01 0 0 0
587 2 4.9220000000000006e+00 1.4208590124756650e+00 3.0030999999993437e+01 0 0 0
589 2 4.9220000000000006e+00 0.0000000000000000e+00 3.0030999999993437e+01 0 0 0
614 2 6.1524999999999999e+00 2.1312885187134989e+00 3.0030999999993437e+01 0 0 0
616 2 7.3829999999999991e+00 1.4208590124756659e+00 3.0030999999993437e+01 0 0 0
618 2 7.3829999999999991e+00 0.0000000000000000e+00 3.0030999999993437e+01 0 0 0
651 2 8.6134999999999984e+00 2.1312885187135002e+00 3.0030999999993437e+01 0 0 0
612 2 6.1524999999999999e+00 3.5521475311891644e+00 3.0030999999993437e+01 0 0 0
649 2 8.6134999999999984e+00 3.5521475311891657e+00 3.0030999999993437e+01 0 0 0
899 2 4.9220000000000006e+00 2.8417180249513332e+00 3.3343167293014091e+01 0 0 0
900 2 4.9220000000000006e+00 0.0000000000000000e+00 3.3343167293014091e+01 0 0 0
901 2 6.1524999999999999e+00 7.1042950623783407e-01 3.3343167293014091e+01 0 0 0
913 2 6.1524999999999999e+00 2.1312885187134989e+00 3.3343167293014091e+01 0 0 0
914 2 7.3829999999999991e+00 2.8417180249513345e+00 3.3343167293014091e+01 0 0 0
915 2 7.3829999999999991e+00 0.0000000000000000e+00 3.3343167293014091e+01 0 0 0
916 2 8.6134999999999984e+00 7.1042950623783407e-01 3.3343167293014091e+01 0 0 0
932 2 8.6134999999999984e+00 2.1312885187135002e+00 3.3343167293014091e+01 0 0 0
558 2 0.0000000000000000e+00 5.6834360499026637e+00 3.0030999999993437e+01 0 0 0
560 2 0.0000000000000000e+00 4.2625770374269996e+00 3.0030999999993437e+01 0 0 0
577 2 1.2305000000000001e+00 6.3938655561404980e+00 3.0030999999993437e+01 0 0 0
579 2 2.4610000000000003e+00 5.6834360499026637e+00 3.0030999999993437e+01 0 0 0
581 2 2.4610000000000003e+00 4.2625770374269996e+00 3.0030999999993437e+01 0 0 0
606 2 3.6914999999999996e+00 6.3938655561404980e+00 3.0030999999993437e+01 0 0 0
575 2 1.2305000000000001e+00 7.8147245686161639e+00 3.0030999999993437e+01 0 0 0
604 2 3.6914999999999996e+00 7.8147245686161639e+00 3.0030999999993437e+01 0 0 0
885 2 0.0000000000000000e+00 4.2625770374269996e+00 3.3343167293014091e+01 0 0 0
886 2 1.2305000000000001e+00 4.9730065436648339e+00 3.3343167293014091e+01 0 0 0
894 2 1.2305000000000001e+00 6.3938655561404980e+00 3.3343167293014091e+01 0 0 0
896 2 2.4610000000000003e+00 4.2625770374269996e+00 3.3343167293014091e+01 0 0 0
897 2 3.6914999999999996e+00 4.9730065436648339e+00 3.3343167293014091e+01 0 0 0
909 2 3.6914999999999996e+00 6.3938655561404980e+00 3.3343167293014091e+01 0 0 0
884 2 0.0000000000000000e+00 7.1042950623783341e+00 3.3343167293014091e+01 0 0 0
895 2 2.4610000000000003e+00 7.1042950623783341e+00 3.3343167293014091e+01 0 0 0
608 2 4.9220000000000006e+00 5.6834360499026637e+00 3.0030999999993437e+01 0 0 0
610 2 4.9220000000000006e+00 4.2625770374269978e+00 3.0030999999993437e+01 0 0 0
643 2 6.1524999999999999e+00 6.3938655561404980e+00 3.0030999999993437e+01 0 0 0
645 2 7.3829999999999991e+00 5.6834360499026637e+00 3.0030999999993437e+01 0 0 0
647 2 7.3829999999999991e+00 4.2625770374269996e+00 3.0030999999993437e+01 0 0 0
688 2 8.6135000000000002e+00 6.3938655561404980e+00 3.0030999999993437e+01 0 0 0
641 2 6.1524999999999999e+00 7.8147245686161639e+00 3.0030999999993437e+01 0 0 0
686 2 8.6135000000000002e+00 7.8147245686161639e+00 3.0030999999993437e+01 0 0 0
911 2 4.9220000000000006e+00 4.2625770374269978e+00 3.3343167293014091e+01 0 0 0
912 2 6.1524999999999999e+00 4.9730065436648339e+00 3.3343167293014091e+01 0 0 0
928 2 6.1524999999999999e+00 6.3938655561404980e+00 3.3343167293014091e+01 0 0 0
930 2 7.3829999999999991e+00 4.2625770374269996e+00 3.3343167293014091e+01 0 0 0
931 2 8.6135000000000002e+00 4.9730065436648339e+00 3.3343167293014091e+01 0 0 0
951 2 8.6135000000000002e+00 6.3938655561404980e+00 3.3343167293014091e+01 0 0 0
910 2 4.9220000000000006e+00 7.1042950623783341e+00 3.3343167293014091e+01 0 0 0
929 2 7.3830000000000009e+00 7.1042950623783341e+00 3.3343167293014091e+01 0 0 0
571 2 0.0000000000000000e+00 9.9460130873296642e+00 3.0030999999993437e+01 0 0 0
573 2 0.0000000000000000e+00 8.5251540748539991e+00 3.0030999999993437e+01 0 0 0
600 2 2.4610000000000003e+00 9.9460130873296642e+00 3.0030999999993437e+01 0 0 0
602 2 2.4610000000000003e+00 8.5251540748539991e+00 3.0030999999993437e+01 0 0 0
596 2 1.2305000000000001e+00 1.2077301606043163e+01 3.0030999999993437e+01 0 0 0
598 2 1.2305000000000001e+00 1.0656442593567498e+01 3.0030999999993437e+01 0 0 0
633 2 3.6914999999999996e+00 1.2077301606043163e+01 3.0030999999993437e+01 0 0 0
635 2 3.6914999999999996e+00 1.0656442593567499e+01 3.0030999999993437e+01 0 0 0
892 2 0.0000000000000000e+00 8.5251540748539991e+00 3.3343167293014091e+01 0 0 0
893 2 1.2305000000000001e+00 9.2355835810918343e+00 3.3343167293014091e+01 0 0 0
907 2 2.4610000000000003e+00 8.5251540748539991e+00 3.3343167293014091e+01 0 0 0
908 2 3.6915000000000004e+00 9.2355835810918343e+00 3.3343167293014091e+01 0 0 0
891 2 0.0000000000000000e+00 1.1366872099805333e+01 3.3343167293014091e+01 0 0 0
905 2 1.2305000000000001e+00 1.0656442593567498e+01 3.3343167293014091e+01 0 0 0
906 2 2.4610000000000003e+00 1.1366872099805333e+01 3.3343167293014091e+01 0 0 0
924 2 3.6914999999999996e+00 1.0656442593567499e+01 3.3343167293014091e+01 0 0 0
637 2 4.9220000000000006e+00 9.9460130873296642e+00 3.0030999999993437e+01 0 0 0
639 2 4.9220000000000006e+00 8.5251540748539991e+00 3.0030999999993437e+01 0 0 0
682 2 7.3830000000000009e+00 9.9460130873296642e+00 3.0030999999993437e+01 0 0 0
684 2 7.3830000000000009e+00 8.5251540748539991e+00 3.0030999999993437e+01 0 0 0
678 2 6.1524999999999999e+00 1.2077301606043163e+01 3.0030999999993437e+01 0 0 0
680 2 6.1524999999999999e+00 1.0656442593567499e+01 3.0030999999993437e+01 0 0 0
725 2 8.6135000000000002e+00 1.2077301606043163e+01 3.0030999999993437e+01 0 0 0
727 2 8.6134999999999984e+00 1.0656442593567498e+01 3.0030999999993437e+01 0 0 0
926 2 4.9220000000000006e+00 8.5251540748539991e+00 3.3343167293014091e+01 0 0 0
927 2 6.1524999999999999e+00 9.2355835810918343e+00 3.3343167293014091e+01 0 0 0
949 2 7.3830000000000009e+00 8.5251540748539991e+00 3.3343167293014091e+01 0 0 0
950 2 8.6134999999999984e+00 9.2355835810918343e+00 3.3343167293014091e+01 0 0 0
925 2 4.9220000000000006e+00 1.1366872099805333e+01 3.3343167293014091e+01 0 0 0
947 2 6.1524999999999999e+00 1.0656442593567499e+01 3.3343167293014091e+01 0 0 0
948 2 7.3829999999999991e+00 1.1366872099805333e+01 3.3343167293014091e+01 0 0 0
971 2 8.6134999999999984e+00 1.0656442593567498e+01 3.3343167293014091e+01 0 0 0
594 2 0.0000000000000000e+00 1.2787731112280996e+01 3.0030999999993437e+01 0 0 0
631 2 2.4610000000000003e+00 1.2787731112280996e+01 3.0030999999993437e+01 0 0 0
592 2 0.0000000000000000e+00 1.4208590124756663e+01 3.0030999999993437e+01 0 0 0
627 2 1.2305000000000001e+00 1.4919019630994494e+01 3.0030999999993437e+01 0 0 0
629 2 2.4610000000000003e+00 1.4208590124756663e+01 3.0030999999993437e+01 0 0 0
672 2 3.6915000000000004e+00 1.4919019630994494e+01 3.0030999999993437e+01 0 0 0
903 2 0.0000000000000000e+00 1.2787731112280996e+01 3.3343167293014091e+01 0 0 0
904 2 1.2305000000000001e+00 1.3498160618518829e+01 3.3343167293014091e+01 0 0 0
922 2 2.4610000000000003e+00 1.2787731112280996e+01 3.3343167293014091e+01 0 0 0
923 2 3.6915000000000004e+00 1.3498160618518829e+01 3.3343167293014091e+01 0 0 0
902 2 0.0000000000000000e+00 1.5629449137232333e+01 3.3343167293014091e+01 0 0 0
920 2 1.2305000000000001e+00 1.4919019630994494e+01 3.3343167293014091e+01 0 0 0
921 2 2.4610000000000003e+00 1.5629449137232328e+01 3.3343167293014091e+01 0 0 0
943 2 3.6915000000000004e+00 1.4919019630994494e+01 3.3343167293014091e+01 0 0 0
676 2 4.9220000000000006e+00 1.2787731112280996e+01 3.0030999999993437e+01 0 0 0
723 2 7.3829999999999991e+00 1.2787731112280996e+01 3.0030999999993437e+01 0 0 0
674 2 4.9220000000000006e+00 1.4208590124756663e+01 3.0030999999993437e+01 0 0 0
719 2 6.1524999999999990e+00 1.4919019630994494e+01 3.0030999999993437e+01 0 0 0
721 2 7.3830000000000009e+00 1.4208590124756663e+01 3.0030999999993437e+01 0 0 0
766 2 8.6135000000000002e+00 1.4919019630994494e+01 3.0030999999993437e+01 0 0 0
945 2 4.9220000000000006e+00 1.2787731112280996e+01 3.3343167293014091e+01 0 0 0
946 2 6.1524999999999990e+00 1.3498160618518829e+01 3.3343167293014091e+01 0 0 0
969 2 7.3829999999999991e+00 1.2787731112280996e+01 3.3343167293014091e+01 0 0 0
970 2 8.6135000000000002e+00 1.3498160618518835e+01 3.3343167293014091e+01 0 0 0
944 2 4.9220000000000006e+00 1.5629449137232333e+01 3.3343167293014091e+01 0 0 0
967 2 6.1524999999999990e+00 1.4919019630994494e+01 3.3343167293014091e+01 0 0 0
968 2 7.3829999999999991e+00 1.5629449137232333e+01 3.3343167293014091e+01 0 0 0
991 2 8.6135000000000002e+00 1.4919019630994494e+01 3.3343167293014091e+01 0 0 0
4576 1 2.8674323517450846e+00 3.6386271623801196e+00 3.6442012204058358e+01 -2 -2 0
3704 1 7.5897939968235784e-01 2.1018480575644860e+00 3.5593912080422996e+01 -3 1 0
4881 1 7.2505255544826834e+00 1.3644603252865419e+01 3.5710849474656854e+01 -2 -2 -1
241 1 5.0917514427332229e+00 1.9632207113072433e+00 3.5936387757212117e+01 -2 -4 -1
5078 1 7.0891785684609285e+00 3.6104612398274902e+00 3.6690922766133298e+01 -2 5 0
1718 1 9.4068348961796975e+00 2.3940125658246307e+00 3.6042354196300977e+01 1 -1 0
55 1 9.0788444810464366e+00 1.5600712983095756e+01 3.6314305299149552e+01 -5 -3 0
6061 1 9.7500410761193077e+00 7.6655288807664661e+00 3.6421329175821000e+01 0 1 -1
6208 1 8.6735449329093561e-01 7.3186966750663158e+00 3.6434419819013925e+01 1 -1 -1
5966 1 2.8912352189540180e+00 6.1723510310904874e+00 3.5392264180928024e+01 6 0 0
5317 1 2.8771941682063176e+00 1.6198810909385621e+01 3.5598038755665172e+01 -5 0 0
3291 1 4.6477343838137362e+00 1.4358945270986956e+01 3.6551331864602204e+01 -3 2 0
457 1 5.2015696654164660e+00 7.4188284689812400e+00 3.6290412804838027e+01 1 0 -1
6212 1 7.5196006628195775e+00 6.3827635516894841e+00 3.5713160529961200e+01 -1 1 0
5288 1 9.6247964865494353e+00 1.0372179766476092e+01 3.5603509578544561e+01 -1 -1 0
4894 1 3.1561329220298213e+00 1.1911206914055212e+01 3.6584464237830488e+01 3 2 0
4709 1 1.2239861143160713e+00 9.7991309807388642e+00 3.5490643236445848e+01 2 -2 -1
4565 1 5.1724375535411884e+00 1.0166579300771991e+01 3.5739610235483568e+01 1 3 0
526 1 7.4247268807109901e+00 1.1265094701053480e+01 3.6625247965842902e+01 -2 -3 0
5272 1 3.9300464672833202e-01 1.5555950296272623e+01 3.6205188098672267e+01 -4 2 0
6197 1 9.4815366884916816e+00 7.7539737623463019e+00 3.9055324872102418e+01 5 -5 0
1347 1 5.2269808127239621e+00 1.5180243716033933e+01 3.9015588346387787e+01 4 -1 0
3651 1 8.3678612514380823e-01 1.5249630849066302e+01 3.8819292623097951e+01 -5 -3 0
5123 1 5.2542673046928696e+00 7.4932502213675525e+00 3.8993999016719712e+01 1 -3 -1
172 1 7.4646021375467653e+00 1.1317457450795484e+01 3.9273288955753515e+01 -2 -2 -1
3533 1 2.6635370017847499e+00 1.4127188965450033e+00 4.2980892637704315e+01 0 2 -1
1924 1 2.7079342631899173e+00 1.1633669535405158e+00 4.0195391034790859e+01 1 -2 0
1998 1 3.3251747762372230e-01 2.4153105408517836e+00 4.4188860927840182e+01 0 0 -1
6071 1 7.3352556970838307e+00 1.2700554978920471e+00 4.3190061290638894e+01 -1 -5 0
3562 1 7.2434168226186397e+00 9.1019965261113489e-01 4.0366402799765012e+01 4 -2 -1
4461 1 5.0183901641615591e-01 4.9620699079442190e+00 4.0376873331634044e+01 -2 4 0
41 1 5.8754743281902466e-01 4.9198574036710507e+00 4.3043810681405532e+01 -1 -3 0
6103 1 7.8253164123669317e+00 1.6071032937348257e+01 4.0125057367715527e+01 1 -1 -1
3429 1 5.0979632083086202e+00 4.9348007753762468e+00 4.0081631877558280e+01 -2 3 -1
3124 1 5.2783525496058425e+00 4.9238231400787820e+00 4.2870221537117331e+01 1 1 0
6259 1 9.5611590353837190e+00 5.1421800402432396e+00 3.9941799343345664e+01 3 -4 -1