LAMMPS data file via write_data, version 16 Mar 2018, timestep = 8000000

5031 atoms
2 atom types

0.0000000000000000e+00 4.9219999999999999e+01 xlo xhi
0.0000000000000000e+00 4.9019635930410494e+01 ylo yhi
-7.1826727464122442e-01 4.0718267274636375e+01 zlo zhi

Masses

1 18.015
2 12.01

Atoms # atomic

140 2 0.0000000000000000e+00 2.8417180249513345e+00 1.4997071716468011e+00 0 0 0
142 2 0.0000000000000000e+00 0.0000000000000000e+00 1.4997071716468011e+00 0 0 0
144 2 1.2305000000000001e+00 7.1042950623783474e-01 1.4997071716468011e+00 0 0 0
151 2 1.2305000000000001e+00 2.1312885187134998e+00 1.4997071716468011e+00 0 0 0
153 2 2.4610000000000003e+00 2.8417180249513345e+00 1.4997071716468011e+00 0 0 0
155 2 2.4610000000000003e+00 0.0000000000000000e+00 1.4997071716468011e+00 0 0 0
157 2 3.6915000000000004e+00 7.1042950623783474e-01 1.4997071716468011e+00 0 0 0
172 2 3.6914999999999996e+00 2.1312885187134998e+00 1.4997071716468011e+00 0 0 0
174 2 4.9220000000000006e+00 2.8417180249513332e+00 1.4997071716468011e+00 0 0 0
176 2 4.9220000000000006e+00 0.0000000000000000e+00 1.4997071716468011e+00 0 0 0
178 2 6.1524999999999999e+00 7.1042950623783407e-01 1.4997071716468011e+00 0 0 0
201 2 6.1524999999999999e+00 2.1312885187134989e+00 1.4997071716468011e+00 0 0 0
203 2 7.3829999999999991e+00 2.8417180249513345e+00 1.4997071716468011e+00 0 0 0
205 2 7.3829999999999991e+00 0.0000000000000000e+00 1.4997071716468011e+00 0 0 0
207 2 8.6134999999999984e+00 7.1042950623783407e-01 1.4997071716468011e+00 0 0 0
238 2 8.6134999999999984e+00 2.1312885187135002e+00 1.4997071716468011e+00 0 0 0
147 2 0.0000000000000000e+00 4.2625770374269996e+00 1.4997071716468011e+00 0 0 0
149 2 1.2305000000000001e+00 4.9730065436648339e+00 1.4997071716468011e+00 0 0 0
164 2 1.2305000000000001e+00 6.3938655561404980e+00 1.4997071716468011e+00 0 0 0
168 2 2.4610000000000003e+00 4.2625770374269996e+00 1.4997071716468011e+00 0 0 0
170 2 3.6914999999999996e+00 4.9730065436648339e+00 1.4997071716468011e+00 0 0 0
193 2 3.6914999999999996e+00 6.3938655561404980e+00 1.4997071716468011e+00 0 0 0
145 2 0.0000000000000000e+00 7.1042950623783341e+00 1.4997071716468011e+00 0 0 0
166 2 2.4610000000000003e+00 7.1042950623783341e+00 1.4997071716468011e+00 0 0 0
197 2 4.9220000000000006e+00 4.2625770374269978e+00 1.4997071716468011e+00 0 0 0
199 2 6.1524999999999999e+00 4.9730065436648339e+00 1.4997071716468011e+00 0 0 0
230 2 6.1524999999999999e+00 6.3938655561404980e+00 1.4997071716468011e+00 0 0 0
234 2 7.3829999999999991e+00 4.2625770374269996e+00 1.4997071716468011e+00 0 0 0
236 2 8.6135000000000002e+00 4.9730065436648339e+00 1.4997071716468011e+00 0 0 0
275 2 8.6135000000000002e+00 6.3938655561404980e+00 1.4997071716468011e+00 0 0 0
195 2 4.9220000000000006e+00 7.1042950623783341e+00 1.4997071716468011e+00 0 0 0
232 2 7.3830000000000009e+00 7.1042950623783341e+00 1.4997071716468011e+00 0 0 0
160 2 0.0000000000000000e+00 8.5251540748539991e+00 1.4997071716468011e+00 0 0 0
162 2 1.2305000000000001e+00 9.2355835810918343e+00 1.4997071716468011e+00 0 0 0
189 2 2.4610000000000003e+00 8.5251540748539991e+00 1.4997071716468011e+00 0 0 0
191 2 3.6915000000000004e+00 9.2355835810918343e+00 1.4997071716468011e+00 0 0 0
158 2 0.0000000000000000e+00 1.1366872099805333e+01 1.4997071716468011e+00 0 0 0
185 2 1.2305000000000001e+00 1.0656442593567498e+01 1.4997071716468011e+00 0 0 0
187 2 2.4610000000000003e+00 1.1366872099805333e+01 1.4997071716468011e+00 0 0 0
222 2 3.6914999999999996e+00 1.0656442593567499e+01 1.4997071716468011e+00 0 0 0
226 2 4.9220000000000006e+00 8.5251540748539991e+00 1.4997071716468011e+00 0 0 0
228 2 6.1524999999999999e+00 9.2355835810918343e+00 1.4997071716468011e+00 0 0 0
271 2 7.3830000000000009e+00 8.5251540748539991e+00 1.4997071716468011e+00 0 0 0
273 2 8.6134999999999984e+00 9.2355835810918343e+00 1.4997071716468011e+00 0 0 0
224 2 4.9220000000000006e+00 1.1366872099805333e+01 1.4997071716468011e+00 0 0 0
267 2 6.1524999999999999e+00 1.0656442593567499e+01 1.4997071716468011e+00 0 0 0
269 2 7.3829999999999991e+00 1.1366872099805333e+01 1.4997071716468011e+00 0 0 0
314 2 8.6134999999999984e+00 1.0656442593567498e+01 1.4997071716468011e+00 0 0 0
141 2 0.0000000000000000e+00 1.4208590124756650e+00 4.8861603805241023e+00 0 0 0
143 2 0.0000000000000000e+00 0.0000000000000000e+00 4.8861603805241023e+00 0 0 0
152 2 1.2305000000000001e+00 2.1312885187134998e+00 4.8861603805241023e+00 0 0 0
154 2 2.4610000000000003e+00 1.4208590124756650e+00 4.8861603805241023e+00 0 0 0
156 2 2.4610000000000003e+00 0.0000000000000000e+00 4.8861603805241023e+00 0 0 0
173 2 3.6914999999999996e+00 2.1312885187134998e+00 4.8861603805241023e+00 0 0 0
150 2 1.2305000000000001e+00 3.5521475311891644e+00 4.8861603805241023e+00 0 0 0
171 2 3.6914999999999996e+00 3.5521475311891644e+00 4.8861603805241023e+00 0 0 0
175 2 4.9220000000000006e+00 1.4208590124756650e+00 4.8861603805241023e+00 0 0 0
177 2 4.9220000000000006e+00 0.0000000000000000e+00 4.8861603805241023e+00 0 0 0
202 2 6.1524999999999999e+00 2.1312885187134989e+00 4.8861603805241023e+00 0 0 0
204 2 7.3829999999999991e+00 1.4208590124756659e+00 4.8861603805241023e+00 0 0 0
206 2 7.3829999999999991e+00 0.0000000000000000e+00 4.8861603805241023e+00 0 0 0
239 2 8.6134999999999984e+00 2.1312885187135002e+00 4.8861603805241023e+00 0 0 0
200 2 6.1524999999999999e+00 3.5521475311891644e+00 4.8861603805241023e+00 0 0 0
237 2 8.6134999999999984e+00 3.5521475311891657e+00 4.8861603805241023e+00 0 0 0
146 2 0.0000000000000000e+00 5.6834360499026637e+00 4.8861603805241023e+00 0 0 0
148 2 0.0000000000000000e+00 4.2625770374269996e+00 4.8861603805241023e+00 0 0 0
165 2 1.2305000000000001e+00 6.3938655561404980e+00 4.8861603805241023e+00 0 0 0
167 2 2.4610000000000003e+00 5.6834360499026637e+00 4.8861603805241023e+00 0 0 0
169 2 2.4610000000000003e+00 4.2625770374269996e+00 4.8861603805241023e+00 0 0 0
194 2 3.6914999999999996e+00 6.3938655561404980e+00 4.8861603805241023e+00 0 0 0
163 2 1.2305000000000001e+00 7.8147245686161639e+00 4.8861603805241023e+00 0 0 0
192 2 3.6914999999999996e+00 7.8147245686161639e+00 4.8861603805241023e+00 0 0 0
196 2 4.9220000000000006e+00 5.6834360499026637e+00 4.8861603805241023e+00 0 0 0
198 2 4.9220000000000006e+00 4.2625770374269978e+00 4.8861603805241023e+00 0 0 0
231 2 6.1524999999999999e+00 6.3938655561404980e+00 4.8861603805241023e+00 0 0 0
233 2 7.3829999999999991e+00 5.6834360499026637e+00 4.8861603805241023e+00 0 0 0
235 2 7.3829999999999991e+00 4.2625770374269996e+00 4.8861603805241023e+00 0 0 0
276 2 8.6135000000000002e+00 6.3938655561404980e+00 4.8861603805241023e+00 0 0 0
229 2 6.1524999999999999e+00 7.8147245686161639e+00 4.8861603805241023e+00 0 0 0
274 2 8.6135000000000002e+00 7.8147245686161639e+00 4.8861603805241023e+00 0 0 0
159 2 0.0000000000000000e+00 9.9460130873296642e+00 4.8861603805241023e+00 0 0 0
161 2 0.0000000000000000e+00 8.5251540748539991e+00 4.8861603805241023e+00 0 0 0
188 2 2.4610000000000003e+00 9.9460130873296642e+00 4.8861603805241023e+00 0 0 0
190 2 2.4610000000000003e+00 8.5251540748539991e+00 4.8861603805241023e+00 0 0 0
184 2 1.2305000000000001e+00 1.2077301606043163e+01 4.8861603805241023e+00 0 0 0
186 2 1.2305000000000001e+00 1.0656442593567498e+01 4.8861603805241023e+00 0 0 0
221 2 3.6914999999999996e+00 1.2077301606043163e+01 4.8861603805241023e+00 0 0 0
223 2 3.6914999999999996e+00 1.0656442593567499e+01 4.8861603805241023e+00 0 0 0
225 2 4.9220000000000006e+00 9.9460130873296642e+00 4.8861603805241023e+00 0 0 0
227 2 4.9220000000000006e+00 8.5251540748539991e+00 4.8861603805241023e+00 0 0 0
270 2 7.3830000000000009e+00 9.9460130873296642e+00 4.8861603805241023e+00 0 0 0
272 2 7.3830000000000009e+00 8.5251540748539991e+00 4.8861603805241023e+00 0 0 0
266 2 6.1524999999999999e+00 1.2077301606043163e+01 4.8861603805241023e+00 0 0 0
268 2 6.1524999999999999e+00 1.0656442593567499e+01 4.8861603805241023e+00 0 0 0
315 2 8.6134999999999984e+00 1.0656442593567498e+01 4.8861603805241023e+00 0 0 0
313 2 8.6135000000000002e+00 1.2077301606043163e+01 4.8861603805241023e+00 0 0 0
469 2 0.0000000000000000e+00 2.8417180249513345e+00 8.2726135894034805e+00 0 0 0
470 2 0.0000000000000000e+00 0.0000000000000000e+00 8.2726135894034805e+00 0 0 0
471 2 1.2305000000000001e+00 7.1042950623783474e-01 8.2726135894034805e+00 0 0 0
475 2 1.2305000000000001e+00 2.1312885187134998e+00 8.2726135894034805e+00 0 0 0
476 2 2.4610000000000003e+00 2.8417180249513345e+00 8.2726135894034805e+00 0 0 0
477 2 2.4610000000000003e+00 0.0000000000000000e+00 8.2726135894034805e+00 0 0 0
478 2 3.6915000000000004e+00 7.1042950623783474e-01 8.2726135894034805e+00 0 0 0
486 2 3.6914999999999996e+00 2.1312885187134998e+00 8.2726135894034805e+00 0 0 0
487 2 4.9220000000000006e+00 2.8417180249513332e+00 8.2726135894034805e+00 0 0 0
488 2 4.9220000000000006e+00 0.0000000000000000e+00 8.2726135894034805e+00 0 0 0
489 2 6.1524999999999999e+00 7.1042950623783407e-01 8.2726135894034805e+00 0 0 0
501 2 6.1524999999999999e+00 2.1312885187134989e+00 8.2726135894034805e+00 0 0 0
502 2 7.3829999999999991e+00 2.8417180249513345e+00 8.2726135894034805e+00 0 0 0
503 2 7.3829999999999991e+00 0.0000000000000000e+00 8.2726135894034805e+00 0 0 0
504 2 8.6134999999999984e+00 7.1042950623783407e-01 8.2726135894034805e+00 0 0 0
520 2 8.6134999999999984e+00 2.1312885187135002e+00 8.2726135894034805e+00 0 0 0
473 2 0.0000000000000000e+00 4.2625770374269996e+00 8.2726135894034805e+00 0 0 0
474 2 1.2305000000000001e+00 4.9730065436648339e+00 8.2726135894034805e+00 0 0 0
482 2 1.2305000000000001e+00 6.3938655561404980e+00 8.2726135894034805e+00 0 0 0
484 2 2.4610000000000003e+00 4.2625770374269996e+00 8.2726135894034805e+00 0 0 0
485 2 3.6914999999999996e+00 4.9730065436648339e+00 8.2726135894034805e+00 0 0 0
497 2 3.6914999999999996e+00 6.3938655561404980e+00 8.2726135894034805e+00 0 0 0
472 2 0.0000000000000000e+00 7.1042950623783341e+00 8.2726135894034805e+00 0 0 0
483 2 2.4610000000000003e+00 7.1042950623783341e+00 8.2726135894034805e+00 0 0 0
499 2 4.9220000000000006e+00 4.2625770374269978e+00 8.2726135894034805e+00 0 0 0
500 2 6.1524999999999999e+00 4.9730065436648339e+00 8.2726135894034805e+00 0 0 0
516 2 6.1524999999999999e+00 6.3938655561404980e+00 8.2726135894034805e+00 0 0 0
518 2 7.3829999999999991e+00 4.2625770374269996e+00 8.2726135894034805e+00 0 0 0
519 2 8.6135000000000002e+00 4.9730065436648339e+00 8.2726135894034805e+00 0 0 0
539 2 8.6135000000000002e+00 6.3938655561404980e+00 8.2726135894034805e+00 0 0 0
498 2 4.9220000000000006e+00 7.1042950623783341e+00 8.2726135894034805e+00 0 0 0
517 2 7.3830000000000009e+00 7.1042950623783341e+00 8.2726135894034805e+00 0 0 0
480 2 0.0000000000000000e+00 8.5251540748539991e+00 8.2726135894034805e+00 0 0 0
481 2 1.2305000000000001e+00 9.2355835810918343e+00 8.2726135894034805e+00 0 0 0
495 2 2.4610000000000003e+00 8.5251540748539991e+00 8.2726135894034805e+00 0 0 0
496 2 3.6915000000000004e+00 9.2355835810918343e+00 8.2726135894034805e+00 0 0 0
479 2 0.0000000000000000e+00 1.1366872099805333e+01 8.2726135894034805e+00 0 0 0
493 2 1.2305000000000001e+00 1.0656442593567498e+01 8.2726135894034805e+00 0 0 0
494 2 2.4610000000000003e+00 1.1366872099805333e+01 8.2726135894034805e+00 0 0 0
512 2 3.6914999999999996e+00 1.0656442593567499e+01 8.2726135894034805e+00 0 0 0
513 2 4.9220000000000006e+00 1.1366872099805333e+01 8.2726135894034805e+00 0 0 0
514 2 4.9220000000000006e+00 8.5251540748539991e+00 8.2726135894034805e+00 0 0 0
537 2 7.3830000000000009e+00 8.5251540748539991e+00 8.2726135894034805e+00 0 0 0
535 2 6.1524999999999999e+00 1.0656442593567499e+01 8.2726135894034805e+00 0 0 0
559 2 8.6134999999999984e+00 1.0656442593567498e+01 8.2726135894034805e+00 0 0 0
538 2 8.6134999999999984e+00 9.2355835810918343e+00 8.2726135894034805e+00 0 0 0
515 2 6.1524999999999999e+00 9.2355835810918343e+00 8.2726135894034805e+00 0 0 0
536 2 7.3829999999999991e+00 1.1366872099805333e+01 8.2726135894034805e+00 0 0 0
5006 1 1.0640910778433736e+00 3.5920988907567510e+00 1.1545560955528009e+01 1 0 0
3494 1 2.6531325075151235e+00 1.3297927614223131e+00 1.0563598686314011e+01 0 2 0
2522 1 5.0482236127403421e+00 2.4563635864403857e+00 1.1549733564457878e+01 0 0 -1
3496 1 6.9235862395885901e+00 8.2769646738506619e-01 1.0673928903948623e+01 3 0 1
5017 1 9.2192776879379235e+00 8.2138939265590452e+00 1.1175266752176841e+01 2 -1 0
4230 1 1.7348495852030108e+00 6.3394295024059995e+00 1.0652182821961684e+01 0 3 0
4910 1 4.0817818889250983e+00 7.1652129656091317e+00 1.1659611093334998e+01 1 -4 0
1562 1 8.4179901618276585e+00 5.5943113022458650e+00 1.1804699184172676e+01 -3 1 -1
120 1 5.6924568833277602e+00 4.9736077590764829e+00 1.1095513577340544e+01 -3 0 0
673 1 2.5487451432659589e+00 1.1246142100971758e+01 1.1085824221800189e+01 0 1 -1
692 1 1.5116938919782250e-01 1.0446886702774956e+01 1.0772201110236809e+01 2 -1 0
4105 1 4.7521281454236135e+00 9.4907028208382336e+00 1.0570552872584077e+01 -2 3 0
3 1 8.8428314518549811e-01 1.0463547168326729e+01 1.7613337007169108e+01 1 0 1
89 1 7.3861925810347966e+00 1.0389290141861997e+01 1.1313113420138890e+01 1 -4 0
4123 1 2.9926352348101295e+00 1.8090195170591927e+00 1.5207011585972976e+01 -1 1 1
4841 1 1.0242377859567671e+00 3.6221041772429650e+00 1.4415761701335228e+01 1 2 0
3197 1 5.2778069109521883e+00 2.7193109630132071e+00 1.4405944857007420e+01 2 3 -1
4964 1 7.3059783454698080e+00 9.1120990456427031e-01 1.5431351140909797e+01 0 1 -1
3237 1 7.3832969193851907e+00 1.0175438336891817e+01 1.8490221397090011e+01 2 2 -1
733 1 4.2409816334376051e+00 7.0415829058867798e+00 1.4493916734928245e+01 0 1 1
1488 1 1.6637771136891302e+00 6.1813271794943399e+00 1.5270431037634733e+01 2 -1 0
4228 1 4.9704029275186326e+00 9.4597017715158227e+00 1.7653052602583355e+01 1 1 0
4973 1 6.0457974276180293e+00 5.0721747431420603e+00 1.5362237046087351e+01 4 1 0
4037 1 8.4914614023901986e+00 5.7925961333714762e+00 1.4469859726093990e+01 3 -3 -1
837 1 3.0529672580588132e+00 1.1392072463805913e+01 1.3911455562630382e+01 -1 2 0
807 1 6.3511017513710799e-01 1.0638713718337979e+01 1.4946119554520227e+01 0 2 -1
2577 1 4.9711776163294124e+00 9.6596980123631546e+00 1.5032481089134455e+01 1 -4 0
5031 1 9.3700392162187338e+00 8.3947934355638729e+00 1.5239714623464181e+01 3 -2 -1
1668 1 7.4701252643770912e+00 1.0376350014122586e+01 1.4032862502122883e+01 2 3 0
4023 1 3.0672884437241779e+00 1.9978271744487508e+00 1.8070383090477289e+01 2 3 -1
1521 1 1.1164623207072994e+00 3.6845026058433192e+00 1.8745560966867487e+01 2 4 -1
4839 1 5.6741722923698932e+00 2.5327959804819908e+00 1.9009058066824771e+01 0 -3 0
1615 1 7.5830936996822853e+00 8.3091617800253303e-01 1.7945238869591297e+01 0 2 0
4067 1 9.2830545406997622e+00 8.3702843924095536e+00 1.8009543798071487e+01 4 3 0
4284 1 2.2289959586214199e+00 6.0246685441190708e+00 1.7911713659781299e+01 1 -1 0
1599 1 4.6311481232178116e+00 6.9810565181700444e+00 1.9153688152704397e+01 0 0 -1
58 1 8.4654055260795342e+00 5.8249441878751345e+00 1.8971673317098453e+01 0 0 1
4303 1 6.0485493167621325e+00 5.1320878832620638e+00 1.8120002982619290e+01 -1 2 0
4353 1 3.2085752174407056e+00 1.1460683713477721e+01 1.8608412309421997e+01 1 2 0
1811 1 3.0347759656749806e-01 7.7365981223718965e+00 1.8789813514535638e+01 1 1 0
1705 1 9.4271808626202827e+00 1.4205845064850295e+00 1.4422881095118168e+01 0 1 -1
3327 1 9.4849878225555901e+00 1.5906180598057786e+00 1.1541802587975218e+01 1 -1 0
2489 1 1.0356696905087783e+00 3.4772508397045763e+00 2.1670169653497844e+01 -2 -1 1
776 1 9.6442014962853531e+00 1.1131026575379448e+01 2.2286582967631173e+01 -1 -2 0
4180 1 5.9587495496716656e+00 5.1393086168922757e+00 2.8825802298539347e+01 3 -1 0
845 1 5.5865823882310588e+00 2.4091115572072490e+00 2.1700660220151828e+01 -2 4 -1
3312 1 7.9209873223242537e+00 3.3373340284221116e+00 2.2761059685265607e+01 -2 4 0
1494 1 5.8152719550798642e+00 1.1818622089972459e+01 3.0034888968448396e+01 -2 -2 -1
2506 1 3.4735808029968376e+00 4.1615921632357207e+00 2.2429813422814501e+01 2 3 0
84 1 4.6560035116235525e+00 6.5567671212301226e+00 2.1972165200286334e+01 2 4 1
4906 1 8.7879545525532876e+00 5.7144739298094578e+00 2.1620836433884907e+01 -1 1 1
2380 1 7.1352711458461808e+00 7.4864826581060839e+00 2.2880363849272563e+01 2 0 -1
4856 1 2.7340891784200410e+00 8.6091038674675833e+00 2.2422864098427841e+01 1 0 0
870 1 3.3197461144527893e+00 1.0994517951817841e+01 2.1404962304772990e+01 3 0 0
4339 1 7.4056489158101328e+00 9.9860827303084445e+00 2.1498296330714656e+01 -2 0 -1
3240 1 5.5674362200258685e+00 1.2179174459430797e+01 2.2473695446866124e+01 -1 3 0
1760 1 9.3061280277593550e+00 8.5260690761140197e+00 2.9014721598466895e+01 1 1 0
4089 1 2.6792779128980557e+00 1.9168766576105962e+00 2.6099645916407631e+01 2 -3 0
100 1 3.9873510206824297e-01 1.0644907800273678e+01 2.8976447154940125e+01 2 1 0
4894 1 2.6114277203387704e-01 1.1860577331180078e+00 2.5148549128388208e+01 6 -1 0
3364 1 8.0104994091016213e+00 3.2369432935203775e+00 2.5512209254647711e+01 0 3 -1
3138 1 6.9263892607505362e+00 5.6428071384471201e-01 2.6350353356189952e+01 1 -4 0
4080 1 3.4563707998818209e+00 4.3798318027059091e+00 2.5156361326776747e+01 2 0 0
3525 1 1.6157292250374782e+00 6.2178456609510988e+00 2.5906961386483268e+01 1 0 0
680 1 5.8888855686749544e+00 5.0378301815625752e+00 2.5936326004274306e+01 2 2 -1
1711 1 6.7817161696346142e+00 7.5340703227876498e+00 2.5616168940621570e+01 1 2 -1
4091 1 4.9020944930382870e-01 1.0505158757511783e+01 2.6054817516201449e+01 4 0 0
3983 1 2.6824559446704934e+00 8.9089165591857125e+00 2.5122128770305029e+01 2 0 0
4947 1 5.0502316557610492e+00 9.6481057274671773e+00 2.6399588784296292e+01 -2 -1 -1
2389 1 4.9528088402830388e+00 9.4524550118476967e+00 2.9094731561032670e+01 0 2 0
3293 1 9.2209613436682538e+00 8.4299088057581102e+00 2.6503426893400945e+01 -1 0 0
1593 1 2.4162969446745763e+00 8.7617684514346958e+00 2.9635406274561728e+01 2 -2 0
133 1 2.7770537192188298e+00 1.8539173648124196e+00 2.8925680665454490e+01 -2 -2 0
892 1 8.0780132189878682e+00 3.4450723389802240e+00 2.9629854331423893e+01 3 1 0
3475 1 7.1957246555565497e+00 5.5282469980084614e-01 2.9099728766700892e+01 0 2 1
1558 1 3.4588340044989674e+00 4.2884975952121565e+00 2.9700000055367092e+01 2 2 -1
976 1 1.6831096598945670e+00 6.0010428927009754e+00 2.8634518005159823e+01 3 -1 0
126 1 6.6825506663536363e+00 7.4600553596928671e+00 2.9593048452927036e+01 2 1 -1
1850 1 3.7591791447407685e-01 7.8223662531270610e-01 2.2373906742620928e+01 1 -2 1
3415 1 3.6402852199317492e-01 8.7512544744748977e-01 2.9645863769193664e+01 3 1 0
714 1 4.5710519172263409e+00 1.5459971100764147e-01 2.5136064252447952e+01 1 -1 0
4882 1 5.7128824088116126e+00 1.1980931682779461e+01 2.5292369383764683e+01 -1 -5 0
3366 1 1.3962511485099847e+00 3.5206418274929576e+00 3.3202064883883565e+01 0 0 -1
4941 1 4.8853290600956767e-01 1.0741667786260985e+01 3.9451095070667421e+01 4 0 0
4310 1 7.8745478406695826e+00 3.2591807519526408e+00 3.2430106836190632e+01 1 0 0
3182 1 5.3212537229299635e+00 2.2613385858156252e+00 3.3299927348662081e+01 -1 2 0
1700 1 4.0275314828925524e-01 3.7702775755017863e+00 4.0508849268943351e+01 2 4 0
1654 1 4.0483550884883224e+00 4.5152922386113419e+00 3.2372166432436316e+01 -1 0 0
4167 1 4.3105715547923529e+00 7.0176014347856741e+00 3.3360875084190283e+01 2 -1 0
4070 1 6.6916151281594285e+00 7.6398138007750127e+00 3.2505122511183870e+01 -1 4 0
633 1 8.5045159328065019e+00 5.8805736826417920e+00 3.3430495982502094e+01 -1 -2 0
4107 1 2.2326110092586537e+00 8.6758931549866478e+00 3.2369016057940897e+01 1 0 0
806 1 2.7696371451649515e+00 1.1037658245972461e+01 3.3707205286161141e+01 -3 1 0
2331 1 7.2303231342051797e+00 1.0056566651189881e+01 3.3835683911611511e+01 0 2 0
3149 1 9.1196779507411097e-01 3.4199109770554026e+00 3.5944696637296474e+01 1 -1 1
2600 1 2.7177368718927948e+00 1.4392341373285762e+00 3.7167923820885406e+01 -1 -1 0
4801 1 5.1509094590249074e+00 2.3573339785176723e+00 3.5983139491557225e+01 1 3 0
3406 1 6.9796604487028748e+00 5.6617029743618330e-01 3.6994719506946140e+01 1 0 0
2607 1 5.0841308862768244e+00 2.6569823290651722e+00 4.0576037469402678e+01 -1 2 0
1598 1 4.1916269472540924e+00 6.8485542068547600e+00 3.6265995621846983e+01 1 -1 0
944 1 1.4536458395951743e+00 5.8221523294270892e+00 3.7183013449876540e+01 0 0 0
1774 1 8.2593295988913074e+00 5.7072584160537874e+00 3.6136005359069586e+01 2 0 0
4777 1 5.6719993028538473e+00 4.8850991899169527e+00 3.7161073636616209e+01 -1 -1 -1
3251 1 2.9789083340447520e+00 1.1240649725870284e+01 3.6563860934377274e+01 1 1 0
3491 1 5.0240911419606862e+00 9.4835087467778809e+00 3.7499038549238790e+01 2 0 -1
631 1 9.6572694168119320e+00 1.4583680714467713e+00 3.3332492678181012e+01 -1 0 0
1733 1 9.0923691399641662e+00 8.2532232803603875e+00 3.7137018900277297e+01 0 0 0
1640 1 7.3778859691389105e+00 1.0341338375992835e+01 3.6654975330497521e+01 0 1 0
725 1 2.5699015297470225e+00 1.8161474519027663e+00 3.9809285424921725e+01 2 2 -1
3370 1 9.4721699910597650e+00 8.4170500581839285e+00 3.9798965664620482e+01 -3 2 0
109 1 6.6575920975481147e+00 6.6933322449529087e-01 3.9551255926495060e+01 -1 -1 1
4065 1 3.6812291046221784e-01 9.5456618583849795e-01 3.2580785825615607e+01 0 0 0
896 1 2.6408847360644367e+00 1.1688023649142609e+01 4.0466156090581620e+01 0 -1 0
4149 1 2.8620632187987322e-01 1.0721539197420686e+01 3.6703313710486782e+01 1 -1 0
1513 1 1.6448526557292251e+00 6.0355837338644713e+00 3.9947492495752826e+01 1 1 0
3310 1 6.0907295047633783e+00 5.1686803081370494e+00 3.9815157123047129e+01 0 0 0
4242 1 5.3700043242322266e+00 1.1703149955878109e+01 3.2970864104557137e+01 -1 1 0
3323 1 9.5216751817981233e+00 1.3044563317853053e+00 3.6222884026682721e+01 0 0 -1
3513 1 4.8353417476428060e+00 9.8812283396133118e+00 4.0413248064548156e+01 -1 -1 1
4266 1 9.5012541276880995e+00 1.0956788789435691e+01 3.2484871415669375e+01 2 -2 0
3145 1 4.1945228054868009e+00 7.1849102931888069e+00 4.0229061593997685e+01 4 -2 0
2476 1 7.5398927977054404e+00 1.0420491593456182e+01 4.0496761090478728e+01 0 1 -1
5012 1 9.2916098824660125e+00 1.4595716617235190e+00 4.0336662655302447e+01 -1 2 -1
3374 1 8.4209855323751253e+00 5.8862789991337445e+00 4.0559737429526770e+01 -1 0 -1
181 2 0.0000000000000000e+00 1.2787731112280996e+01 1.4997071716468011e+00 0 0 0
183 2 1.2305000000000001e+00 1.3498160618518829e+01 1.4997071716468011e+00 0 0 0
218 2 2.4610000000000003e+00 1.2787731112280996e+01 1.4997071716468011e+00 0 0 0
220 2 3.6915000000000004e+00 1.3498160618518829e+01 1.4997071716468011e+00 0 0 0
179 2 0.0000000000000000e+00 1.5629449137232333e+01 1.4997071716468011e+00 0 0 0
214 2 1.2305000000000001e+00 1.4919019630994494e+01 1.4997071716468011e+00 0 0 0
216 2 2.4610000000000003e+00 1.5629449137232328e+01 1.4997071716468011e+00 0 0 0
259 2 3.6915000000000004e+00 1.4919019630994494e+01 1.4997071716468011e+00 0 0 0
263 2 4.9220000000000006e+00 1.2787731112280996e+01 1.4997071716468011e+00 0 0 0
265 2 6.1524999999999990e+00 1.3498160618518829e+01 1.4997071716468011e+00 0 0 0
310 2 7.3829999999999991e+00 1.2787731112280996e+01 1.4997071716468011e+00 0 0 0
312 2 8.6135000000000002e+00 1.3498160618518835e+01 1.4997071716468011e+00 0 0 0
261 2 4.9220000000000006e+00 1.5629449137232333e+01 1.4997071716468011e+00 0 0 0
306 2 6.1524999999999990e+00 1.4919019630994494e+01 1.4997071716468011e+00 0 0 0
308 2 7.3829999999999991e+00 1.5629449137232333e+01 1.4997071716468011e+00 0 0 0
353 2 8.6135000000000002e+00 1.4919019630994494e+01 1.4997071716468011e+00 0 0 0
210 2 0.0000000000000000e+00 1.7050308149707998e+01 1.4997071716468011e+00 0 0 0
255 2 2.4610000000000003e+00 1.7050308149707998e+01 1.4997071716468011e+00 0 0 0
208 2 0.0000000000000000e+00 1.9892026174659328e+01 1.4997071716468011e+00 0 0 0
212 2 1.2305000000000001e+00 1.7760737655945832e+01 1.4997071716468011e+00 0 0 0
251 2 1.2305000000000001e+00 1.9181596668421495e+01 1.4997071716468011e+00 0 0 0
253 2 2.4610000000000003e+00 1.9892026174659328e+01 1.4997071716468011e+00 0 0 0
257 2 3.6914999999999996e+00 1.7760737655945832e+01 1.4997071716468011e+00 0 0 0
298 2 3.6914999999999996e+00 1.9181596668421495e+01 1.4997071716468011e+00 0 0 0
302 2 4.9220000000000006e+00 1.7050308149707998e+01 1.4997071716468011e+00 0 0 0
349 2 7.3830000000000009e+00 1.7050308149707998e+01 1.4997071716468011e+00 0 0 0
300 2 4.9220000000000006e+00 1.9892026174659328e+01 1.4997071716468011e+00 0 0 0
304 2 6.1524999999999999e+00 1.7760737655945832e+01 1.4997071716468011e+00 0 0 0
345 2 6.1524999999999999e+00 1.9181596668421495e+01 1.4997071716468011e+00 0 0 0
347 2 7.3829999999999991e+00 1.9892026174659328e+01 1.4997071716468011e+00 0 0 0
351 2 8.6134999999999984e+00 1.7760737655945832e+01 1.4997071716468011e+00 0 0 0
387 2 8.6135000000000002e+00 1.9181596668421495e+01 1.4997071716468011e+00 0 0 0
574 2 6.1524999999999990e+00 2.2023314693372832e+01 8.2726135894034805e+00 0 0 0
245 2 0.0000000000000000e+00 2.4154603212086325e+01 1.4997071716468011e+00 0 0 0
247 2 0.0000000000000000e+00 2.1312885187134999e+01 1.4997071716468011e+00 0 0 0
249 2 1.2304999999999993e+00 2.2023314693372832e+01 1.4997071716468011e+00 0 0 0
290 2 1.2304999999999993e+00 2.3444173705848499e+01 1.4997071716468011e+00 0 0 0
292 2 2.4610000000000003e+00 2.4154603212086325e+01 1.4997071716468011e+00 0 0 0
294 2 2.4610000000000003e+00 2.1312885187134995e+01 1.4997071716468011e+00 0 0 0
296 2 3.6914999999999996e+00 2.2023314693372832e+01 1.4997071716468011e+00 0 0 0
337 2 3.6915000000000004e+00 2.3444173705848499e+01 1.4997071716468011e+00 0 0 0
339 2 4.9220000000000006e+00 2.4154603212086325e+01 1.4997071716468011e+00 0 0 0
341 2 4.9220000000000006e+00 2.1312885187134995e+01 1.4997071716468011e+00 0 0 0
343 2 6.1524999999999990e+00 2.2023314693372832e+01 1.4997071716468011e+00 0 0 0
379 2 6.1524999999999999e+00 2.3444173705848499e+01 1.4997071716468011e+00 0 0 0
381 2 7.3830000000000009e+00 2.4154603212086336e+01 1.4997071716468011e+00 0 0 0
383 2 7.3829999999999991e+00 2.1312885187134999e+01 1.4997071716468011e+00 0 0 0
385 2 8.6135000000000002e+00 2.2023314693372832e+01 1.4997071716468011e+00 0 0 0
413 2 8.6134999999999984e+00 2.3444173705848499e+01 1.4997071716468011e+00 0 0 0
182 2 0.0000000000000000e+00 1.2787731112280996e+01 4.8861603805241023e+00 0 0 0
219 2 2.4610000000000003e+00 1.2787731112280996e+01 4.8861603805241023e+00 0 0 0
180 2 0.0000000000000000e+00 1.4208590124756663e+01 4.8861603805241023e+00 0 0 0
215 2 1.2305000000000001e+00 1.4919019630994494e+01 4.8861603805241023e+00 0 0 0
217 2 2.4610000000000003e+00 1.4208590124756663e+01 4.8861603805241023e+00 0 0 0
260 2 3.6915000000000004e+00 1.4919019630994494e+01 4.8861603805241023e+00 0 0 0
264 2 4.9220000000000006e+00 1.2787731112280996e+01 4.8861603805241023e+00 0 0 0
311 2 7.3829999999999991e+00 1.2787731112280996e+01 4.8861603805241023e+00 0 0 0
262 2 4.9220000000000006e+00 1.4208590124756663e+01 4.8861603805241023e+00 0 0 0
307 2 6.1524999999999990e+00 1.4919019630994494e+01 4.8861603805241023e+00 0 0 0
309 2 7.3830000000000009e+00 1.4208590124756663e+01 4.8861603805241023e+00 0 0 0
354 2 8.6135000000000002e+00 1.4919019630994494e+01 4.8861603805241023e+00 0 0 0
211 2 0.0000000000000000e+00 1.7050308149707998e+01 4.8861603805241023e+00 0 0 0
213 2 1.2305000000000001e+00 1.6339878643470165e+01 4.8861603805241023e+00 0 0 0
256 2 2.4610000000000003e+00 1.7050308149707998e+01 4.8861603805241023e+00 0 0 0
258 2 3.6915000000000004e+00 1.6339878643470165e+01 4.8861603805241023e+00 0 0 0
209 2 0.0000000000000000e+00 1.8471167162183658e+01 4.8861603805241023e+00 0 0 0
252 2 1.2305000000000001e+00 1.9181596668421495e+01 4.8861603805241023e+00 0 0 0
254 2 2.4610000000000003e+00 1.8471167162183658e+01 4.8861603805241023e+00 0 0 0
299 2 3.6914999999999996e+00 1.9181596668421495e+01 4.8861603805241023e+00 0 0 0
303 2 4.9220000000000006e+00 1.7050308149707998e+01 4.8861603805241023e+00 0 0 0
305 2 6.1524999999999999e+00 1.6339878643470165e+01 4.8861603805241023e+00 0 0 0
350 2 7.3830000000000009e+00 1.7050308149707998e+01 4.8861603805241023e+00 0 0 0
352 2 8.6134999999999984e+00 1.6339878643470165e+01 4.8861603805241023e+00 0 0 0
301 2 4.9220000000000006e+00 1.8471167162183658e+01 4.8861603805241023e+00 0 0 0
346 2 6.1524999999999999e+00 1.9181596668421495e+01 4.8861603805241023e+00 0 0 0
348 2 7.3829999999999991e+00 1.8471167162183658e+01 4.8861603805241023e+00 0 0 0
388 2 8.6135000000000002e+00 1.9181596668421495e+01 4.8861603805241023e+00 0 0 0
250 2 1.2305000000000001e+00 2.0602455680897162e+01 4.8861603805241023e+00 0 0 0
297 2 3.6915000000000004e+00 2.0602455680897162e+01 4.8861603805241023e+00 0 0 0
246 2 0.0000000000000000e+00 2.2733744199610655e+01 4.8861603805241023e+00 0 0 0
248 2 0.0000000000000000e+00 2.1312885187134999e+01 4.8861603805241023e+00 0 0 0
291 2 1.2304999999999993e+00 2.3444173705848499e+01 4.8861603805241023e+00 0 0 0
293 2 2.4610000000000003e+00 2.2733744199610655e+01 4.8861603805241023e+00 0 0 0
295 2 2.4610000000000003e+00 2.1312885187134995e+01 4.8861603805241023e+00 0 0 0
338 2 3.6915000000000004e+00 2.3444173705848499e+01 4.8861603805241023e+00 0 0 0
344 2 6.1524999999999999e+00 2.0602455680897162e+01 4.8861603805241023e+00 0 0 0
342 2 4.9220000000000006e+00 2.1312885187134995e+01 4.8861603805241023e+00 0 0 0
340 2 4.9220000000000006e+00 2.2733744199610655e+01 4.8861603805241023e+00 0 0 0
386 2 8.6134999999999984e+00 2.0602455680897162e+01 4.8861603805241023e+00 0 0 0
380 2 6.1524999999999999e+00 2.3444173705848499e+01 4.8861603805241023e+00 0 0 0
382 2 7.3829999999999991e+00 2.2733744199610655e+01 4.8861603805241023e+00 0 0 0
414 2 8.6134999999999984e+00 2.3444173705848499e+01 4.8861603805241023e+00 0 0 0
384 2 7.3829999999999991e+00 2.1312885187134999e+01 4.8861603805241023e+00 0 0 0
491 2 0.0000000000000000e+00 1.2787731112280996e+01 8.2726135894034805e+00 0 0 0
492 2 1.2305000000000001e+00 1.3498160618518829e+01 8.2726135894034805e+00 0 0 0
510 2 2.4610000000000003e+00 1.2787731112280996e+01 8.2726135894034805e+00 0 0 0