LAMMPS data file via write_data, version 16 Mar 2018, timestep = 100000

5031 atoms
2 atom types

0.0000000000000000e+00 4.9219999999999999e+01 xlo xhi
0.0000000000000000e+00 4.9019635930410494e+01 ylo yhi
1.0766961273778861e+00 3.8923303872623940e+01 zlo zhi

Masses

1 18.015
2 12.01

Atoms # atomic

140 2 0.0000000000000000e+00 2.8417180249513345e+00 3.1025124696638207e+00 0 0 0
142 2 0.0000000000000000e+00 0.0000000000000000e+00 3.1025124696638207e+00 0 0 0
144 2 1.2305000000000001e+00 7.1042950623783474e-01 3.1025124696638207e+00 0 0 0
151 2 1.2305000000000001e+00 2.1312885187134998e+00 3.1025124696638207e+00 0 0 0
153 2 2.4610000000000003e+00 2.8417180249513345e+00 3.1025124696638207e+00 0 0 0
155 2 2.4610000000000003e+00 0.0000000000000000e+00 3.1025124696638207e+00 0 0 0
157 2 3.6915000000000004e+00 7.1042950623783474e-01 3.1025124696638207e+00 0 0 0
172 2 3.6914999999999996e+00 2.1312885187134998e+00 3.1025124696638207e+00 0 0 0
174 2 4.9220000000000006e+00 2.8417180249513332e+00 3.1025124696638207e+00 0 0 0
176 2 4.9220000000000006e+00 0.0000000000000000e+00 3.1025124696638207e+00 0 0 0
178 2 6.1524999999999999e+00 7.1042950623783407e-01 3.1025124696638207e+00 0 0 0
201 2 6.1524999999999999e+00 2.1312885187134989e+00 3.1025124696638207e+00 0 0 0
203 2 7.3829999999999991e+00 2.8417180249513345e+00 3.1025124696638207e+00 0 0 0
205 2 7.3829999999999991e+00 0.0000000000000000e+00 3.1025124696638207e+00 0 0 0
207 2 8.6134999999999984e+00 7.1042950623783407e-01 3.1025124696638207e+00 0 0 0
238 2 8.6134999999999984e+00 2.1312885187135002e+00 3.1025124696638207e+00 0 0 0
147 2 0.0000000000000000e+00 4.2625770374269996e+00 3.1025124696638207e+00 0 0 0
149 2 1.2305000000000001e+00 4.9730065436648339e+00 3.1025124696638207e+00 0 0 0
164 2 1.2305000000000001e+00 6.3938655561404980e+00 3.1025124696638207e+00 0 0 0
168 2 2.4610000000000003e+00 4.2625770374269996e+00 3.1025124696638207e+00 0 0 0
170 2 3.6914999999999996e+00 4.9730065436648339e+00 3.1025124696638207e+00 0 0 0
193 2 3.6914999999999996e+00 6.3938655561404980e+00 3.1025124696638207e+00 0 0 0
145 2 0.0000000000000000e+00 7.1042950623783341e+00 3.1025124696638207e+00 0 0 0
166 2 2.4610000000000003e+00 7.1042950623783341e+00 3.1025124696638207e+00 0 0 0
197 2 4.9220000000000006e+00 4.2625770374269978e+00 3.1025124696638207e+00 0 0 0
199 2 6.1524999999999999e+00 4.9730065436648339e+00 3.1025124696638207e+00 0 0 0
230 2 6.1524999999999999e+00 6.3938655561404980e+00 3.1025124696638207e+00 0 0 0
234 2 7.3829999999999991e+00 4.2625770374269996e+00 3.1025124696638207e+00 0 0 0
236 2 8.6135000000000002e+00 4.9730065436648339e+00 3.1025124696638207e+00 0 0 0
275 2 8.6135000000000002e+00 6.3938655561404980e+00 3.1025124696638207e+00 0 0 0
195 2 4.9220000000000006e+00 7.1042950623783341e+00 3.1025124696638207e+00 0 0 0
232 2 7.3830000000000009e+00 7.1042950623783341e+00 3.1025124696638207e+00 0 0 0
160 2 0.0000000000000000e+00 8.5251540748539991e+00 3.1025124696638207e+00 0 0 0
162 2 1.2305000000000001e+00 9.2355835810918343e+00 3.1025124696638207e+00 0 0 0
189 2 2.4610000000000003e+00 8.5251540748539991e+00 3.1025124696638207e+00 0 0 0
191 2 3.6915000000000004e+00 9.2355835810918343e+00 3.1025124696638207e+00 0 0 0
158 2 0.0000000000000000e+00 1.1366872099805333e+01 3.1025124696638207e+00 0 0 0
185 2 1.2305000000000001e+00 1.0656442593567498e+01 3.1025124696638207e+00 0 0 0
187 2 2.4610000000000003e+00 1.1366872099805333e+01 3.1025124696638207e+00 0 0 0
222 2 3.6914999999999996e+00 1.0656442593567499e+01 3.1025124696638207e+00 0 0 0
226 2 4.9220000000000006e+00 8.5251540748539991e+00 3.1025124696638207e+00 0 0 0
228 2 6.1524999999999999e+00 9.2355835810918343e+00 3.1025124696638207e+00 0 0 0
271 2 7.3830000000000009e+00 8.5251540748539991e+00 3.1025124696638207e+00 0 0 0
273 2 8.6134999999999984e+00 9.2355835810918343e+00 3.1025124696638207e+00 0 0 0
224 2 4.9220000000000006e+00 1.1366872099805333e+01 3.1025124696638207e+00 0 0 0
267 2 6.1524999999999999e+00 1.0656442593567499e+01 3.1025124696638207e+00 0 0 0
269 2 7.3829999999999991e+00 1.1366872099805333e+01 3.1025124696638207e+00 0 0 0
314 2 8.6134999999999984e+00 1.0656442593567498e+01 3.1025124696638207e+00 0 0 0
141 2 0.0000000000000000e+00 1.4208590124756650e+00 6.1955743687387352e+00 0 0 0
143 2 0.0000000000000000e+00 0.0000000000000000e+00 6.1955743687387352e+00 0 0 0
152 2 1.2305000000000001e+00 2.1312885187134998e+00 6.1955743687387352e+00 0 0 0
154 2 2.4610000000000003e+00 1.4208590124756650e+00 6.1955743687387352e+00 0 0 0
156 2 2.4610000000000003e+00 0.0000000000000000e+00 6.1955743687387352e+00 0 0 0
173 2 3.6914999999999996e+00 2.1312885187134998e+00 6.1955743687387352e+00 0 0 0
150 2 1.2305000000000001e+00 3.5521475311891644e+00 6.1955743687387352e+00 0 0 0
171 2 3.6914999999999996e+00 3.5521475311891644e+00 6.1955743687387352e+00 0 0 0
469 2 0.0000000000000000e+00 2.8417180249513345e+00 9.2886362678134446e+00 0 0 0
470 2 0.0000000000000000e+00 0.0000000000000000e+00 9.2886362678134446e+00 0 0 0
471 2 1.2305000000000001e+00 7.1042950623783474e-01 9.2886362678134446e+00 0 0 0
475 2 1.2305000000000001e+00 2.1312885187134998e+00 9.2886362678134446e+00 0 0 0
476 2 2.4610000000000003e+00 2.8417180249513345e+00 9.2886362678134446e+00 0 0 0
477 2 2.4610000000000003e+00 0.0000000000000000e+00 9.2886362678134446e+00 0 0 0
478 2 3.6915000000000004e+00 7.1042950623783474e-01 9.2886362678134446e+00 0 0 0
486 2 3.6914999999999996e+00 2.1312885187134998e+00 9.2886362678134446e+00 0 0 0
175 2 4.9220000000000006e+00 1.4208590124756650e+00 6.1955743687387352e+00 0 0 0
177 2 4.9220000000000006e+00 0.0000000000000000e+00 6.1955743687387352e+00 0 0 0
202 2 6.1524999999999999e+00 2.1312885187134989e+00 6.1955743687387352e+00 0 0 0
204 2 7.3829999999999991e+00 1.4208590124756659e+00 6.1955743687387352e+00 0 0 0
206 2 7.3829999999999991e+00 0.0000000000000000e+00 6.1955743687387352e+00 0 0 0
239 2 8.6134999999999984e+00 2.1312885187135002e+00 6.1955743687387352e+00 0 0 0
200 2 6.1524999999999999e+00 3.5521475311891644e+00 6.1955743687387352e+00 0 0 0
237 2 8.6134999999999984e+00 3.5521475311891657e+00 6.1955743687387352e+00 0 0 0
487 2 4.9220000000000006e+00 2.8417180249513332e+00 9.2886362678134446e+00 0 0 0
488 2 4.9220000000000006e+00 0.0000000000000000e+00 9.2886362678134446e+00 0 0 0
489 2 6.1524999999999999e+00 7.1042950623783407e-01 9.2886362678134446e+00 0 0 0
501 2 6.1524999999999999e+00 2.1312885187134989e+00 9.2886362678134446e+00 0 0 0
502 2 7.3829999999999991e+00 2.8417180249513345e+00 9.2886362678134446e+00 0 0 0
503 2 7.3829999999999991e+00 0.0000000000000000e+00 9.2886362678134446e+00 0 0 0
504 2 8.6134999999999984e+00 7.1042950623783407e-01 9.2886362678134446e+00 0 0 0
520 2 8.6134999999999984e+00 2.1312885187135002e+00 9.2886362678134446e+00 0 0 0
146 2 0.0000000000000000e+00 5.6834360499026637e+00 6.1955743687387352e+00 0 0 0
148 2 0.0000000000000000e+00 4.2625770374269996e+00 6.1955743687387352e+00 0 0 0
165 2 1.2305000000000001e+00 6.3938655561404980e+00 6.1955743687387352e+00 0 0 0
167 2 2.4610000000000003e+00 5.6834360499026637e+00 6.1955743687387352e+00 0 0 0
169 2 2.4610000000000003e+00 4.2625770374269996e+00 6.1955743687387352e+00 0 0 0
194 2 3.6914999999999996e+00 6.3938655561404980e+00 6.1955743687387352e+00 0 0 0
163 2 1.2305000000000001e+00 7.8147245686161639e+00 6.1955743687387352e+00 0 0 0
192 2 3.6914999999999996e+00 7.8147245686161639e+00 6.1955743687387352e+00 0 0 0
473 2 0.0000000000000000e+00 4.2625770374269996e+00 9.2886362678134446e+00 0 0 0
474 2 1.2305000000000001e+00 4.9730065436648339e+00 9.2886362678134446e+00 0 0 0
482 2 1.2305000000000001e+00 6.3938655561404980e+00 9.2886362678134446e+00 0 0 0
484 2 2.4610000000000003e+00 4.2625770374269996e+00 9.2886362678134446e+00 0 0 0
485 2 3.6914999999999996e+00 4.9730065436648339e+00 9.2886362678134446e+00 0 0 0
497 2 3.6914999999999996e+00 6.3938655561404980e+00 9.2886362678134446e+00 0 0 0
472 2 0.0000000000000000e+00 7.1042950623783341e+00 9.2886362678134446e+00 0 0 0
483 2 2.4610000000000003e+00 7.1042950623783341e+00 9.2886362678134446e+00 0 0 0
196 2 4.9220000000000006e+00 5.6834360499026637e+00 6.1955743687387352e+00 0 0 0
198 2 4.9220000000000006e+00 4.2625770374269978e+00 6.1955743687387352e+00 0 0 0
231 2 6.1524999999999999e+00 6.3938655561404980e+00 6.1955743687387352e+00 0 0 0
233 2 7.3829999999999991e+00 5.6834360499026637e+00 6.1955743687387352e+00 0 0 0
235 2 7.3829999999999991e+00 4.2625770374269996e+00 6.1955743687387352e+00 0 0 0
276 2 8.6135000000000002e+00 6.3938655561404980e+00 6.1955743687387352e+00 0 0 0
229 2 6.1524999999999999e+00 7.8147245686161639e+00 6.1955743687387352e+00 0 0 0
274 2 8.6135000000000002e+00 7.8147245686161639e+00 6.1955743687387352e+00 0 0 0
499 2 4.9220000000000006e+00 4.2625770374269978e+00 9.2886362678134446e+00 0 0 0
500 2 6.1524999999999999e+00 4.9730065436648339e+00 9.2886362678134446e+00 0 0 0
516 2 6.1524999999999999e+00 6.3938655561404980e+00 9.2886362678134446e+00 0 0 0
518 2 7.3829999999999991e+00 4.2625770374269996e+00 9.2886362678134446e+00 0 0 0
519 2 8.6135000000000002e+00 4.9730065436648339e+00 9.2886362678134446e+00 0 0 0
539 2 8.6135000000000002e+00 6.3938655561404980e+00 9.2886362678134446e+00 0 0 0
498 2 4.9220000000000006e+00 7.1042950623783341e+00 9.2886362678134446e+00 0 0 0
517 2 7.3830000000000009e+00 7.1042950623783341e+00 9.2886362678134446e+00 0 0 0
159 2 0.0000000000000000e+00 9.9460130873296642e+00 6.1955743687387352e+00 0 0 0
161 2 0.0000000000000000e+00 8.5251540748539991e+00 6.1955743687387352e+00 0 0 0
188 2 2.4610000000000003e+00 9.9460130873296642e+00 6.1955743687387352e+00 0 0 0
190 2 2.4610000000000003e+00 8.5251540748539991e+00 6.1955743687387352e+00 0 0 0
184 2 1.2305000000000001e+00 1.2077301606043163e+01 6.1955743687387352e+00 0 0 0
186 2 1.2305000000000001e+00 1.0656442593567498e+01 6.1955743687387352e+00 0 0 0
221 2 3.6914999999999996e+00 1.2077301606043163e+01 6.1955743687387352e+00 0 0 0
223 2 3.6914999999999996e+00 1.0656442593567499e+01 6.1955743687387352e+00 0 0 0
480 2 0.0000000000000000e+00 8.5251540748539991e+00 9.2886362678134446e+00 0 0 0
481 2 1.2305000000000001e+00 9.2355835810918343e+00 9.2886362678134446e+00 0 0 0
495 2 2.4610000000000003e+00 8.5251540748539991e+00 9.2886362678134446e+00 0 0 0
496 2 3.6915000000000004e+00 9.2355835810918343e+00 9.2886362678134446e+00 0 0 0
479 2 0.0000000000000000e+00 1.1366872099805333e+01 9.2886362678134446e+00 0 0 0
493 2 1.2305000000000001e+00 1.0656442593567498e+01 9.2886362678134446e+00 0 0 0
494 2 2.4610000000000003e+00 1.1366872099805333e+01 9.2886362678134446e+00 0 0 0
512 2 3.6914999999999996e+00 1.0656442593567499e+01 9.2886362678134446e+00 0 0 0
513 2 4.9220000000000006e+00 1.1366872099805333e+01 9.2886362678134446e+00 0 0 0
535 2 6.1524999999999999e+00 1.0656442593567499e+01 9.2886362678134446e+00 0 0 0
536 2 7.3829999999999991e+00 1.1366872099805333e+01 9.2886362678134446e+00 0 0 0
559 2 8.6134999999999984e+00 1.0656442593567498e+01 9.2886362678134446e+00 0 0 0
225 2 4.9220000000000006e+00 9.9460130873296642e+00 6.1955743687387352e+00 0 0 0
227 2 4.9220000000000006e+00 8.5251540748539991e+00 6.1955743687387352e+00 0 0 0
270 2 7.3830000000000009e+00 9.9460130873296642e+00 6.1955743687387352e+00 0 0 0
272 2 7.3830000000000009e+00 8.5251540748539991e+00 6.1955743687387352e+00 0 0 0
266 2 6.1524999999999999e+00 1.2077301606043163e+01 6.1955743687387352e+00 0 0 0
268 2 6.1524999999999999e+00 1.0656442593567499e+01 6.1955743687387352e+00 0 0 0
313 2 8.6135000000000002e+00 1.2077301606043163e+01 6.1955743687387352e+00 0 0 0
315 2 8.6134999999999984e+00 1.0656442593567498e+01 6.1955743687387352e+00 0 0 0
514 2 4.9220000000000006e+00 8.5251540748539991e+00 9.2886362678134446e+00 0 0 0
515 2 6.1524999999999999e+00 9.2355835810918343e+00 9.2886362678134446e+00 0 0 0
537 2 7.3830000000000009e+00 8.5251540748539991e+00 9.2886362678134446e+00 0 0 0
538 2 8.6134999999999984e+00 9.2355835810918343e+00 9.2886362678134446e+00 0 0 0
4891 1 4.3765538279864993e+00 9.9557161568757213e-01 1.2116746606423749e+01 0 1 0
3440 1 3.9349978825185179e+00 1.0820423060044857e+00 1.5025035384172888e+01 1 1 0
3419 1 9.4860212968187732e+00 2.6755313649809773e+00 1.8434597074865700e+01 0 1 0
2323 1 6.0986996735314769e-01 5.3216321959937014e+00 1.1500597934080730e+01 1 0 0
4308 1 8.6540022923345408e+00 3.0732651797976263e+00 1.2279951887893178e+01 1 0 0
3197 1 1.3326421151652634e+00 1.4778024238867069e+00 1.1501743406400395e+01 1 1 -1
4302 1 8.6054898547842331e+00 3.0031458978431758e+00 1.5197985718317707e+01 1 0 0
2429 1 3.1650205773159534e+00 4.0905892151200129e+00 1.2316182451077744e+01 1 1 0
2605 1 6.8951250460834519e+00 3.3768459458033213e+00 1.9291193541128433e+01 1 0 0
3414 1 1.6177719322426689e+00 7.7094716379241151e+00 1.5992564358661330e+01 1 0 1
4238 1 2.3279752738825077e+00 3.4531938513303686e+00 1.5180467430106404e+01 1 0 0
4343 1 8.4763240161899969e+00 5.8665033805589211e+00 1.5078065456951773e+01 1 1 0
2326 1 4.4922768807562230e+00 6.3310463224525542e+00 1.2248693819369004e+01 0 0 -1
1514 1 7.2470875533853762e+00 5.6299809991019201e+00 1.2044341558791102e+01 0 1 0
1791 1 9.2479158924065832e+00 9.6962699309912779e+00 1.8405017715654790e+01 0 0 -1
4338 1 1.7910557741737732e+00 1.0453662509041115e+01 1.5143375497556390e+01 1 1 0
2661 1 3.0261872332127449e+00 8.5360305302589019e+00 1.1598878419539147e+01 1 1 0
878 1 4.0918190175823028e+00 1.1179394252823364e+01 1.4442481630072376e+01 1 0 0
93 1 4.7155431611326065e-01 9.0214937212940587e+00 1.2694331444711365e+01 0 1 0
4796 1 4.9454189668561801e+00 1.0527986433106829e+01 1.1906769751686642e+01 1 0 1
4191 1 7.7746473408665366e+00 1.0200871935946305e+01 1.1995248414153705e+01 0 1 0
2504 1 8.1586208213874194e+00 1.0556181542486003e+01 1.4840425757003235e+01 0 0 0
4197 1 4.3437108275219076e+00 3.3186414862419706e+00 1.8078283587655779e+01 1 1 0
847 1 6.1011493743054701e-01 1.1702274984194667e+00 1.7316566353699269e+01 0 2 -1
2395 1 3.0118237040664599e+00 8.1924117204248930e+00 1.8645829998629996e+01 0 0 -1
4187 1 8.8531104428002951e+00 7.6278484699490647e+00 1.2536203794029772e+01 0 0 0
3193 1 7.0011729226166111e+00 7.5503049588722781e-01 1.1813985560197199e+01 0 1 0
4240 1 6.5684558239896447e+00 1.2094402852753317e+00 1.6280542511640853e+01 1 1 1
3501 1 5.7453614175395069e+00 9.3119670554272567e+00 1.5722676538750257e+01 0 0 0
2342 1 5.5287747392600188e+00 9.6665170878464632e+00 1.8510302045267210e+01 -1 0 0
4783 1 3.6476286806753011e+00 5.4939617664771170e+00 1.6509390874311457e+01 0 1 0
1634 1 5.6297927057922861e+00 6.6528454104254457e+00 1.4890253747003889e+01 0 0 0
4980 1 1.4902820253735458e+00 1.0411930042506015e+01 1.7929164781861026e+01 1 1 -1
4013 1 6.1047800243586414e-01 1.9143101469000381e+00 1.9822913163698093e+01 1 0 0
2453 1 6.1264438750178805e+00 1.0353199620663840e+00 2.0502218459580583e+01 0 1 -1
2691 1 1.3001146422339074e+00 1.8786885295992044e+00 2.4120810342782935e+01 0 1 1
1674 1 4.6057900846800237e+00 3.4599638984846909e-01 2.2571579260702542e+01 1 0 -1
3973 1 9.7955869476527191e+00 4.3337925626393519e+00 2.6517202764254016e+01 0 1 0
3291 1 6.2840412955280858e+00 2.7246321138713342e-01 2.5236404409473277e+01 0 0 0
4974 1 3.3698376827515526e+00 3.1279535335280437e+00 2.2653795172042596e+01 0 1 0
4015 1 5.6402080408963551e+00 3.9864388677304472e+00 2.4435983715842582e+01 1 0 0
1753 1 8.0508260309837407e+00 2.4727908942990378e+00 2.4679070510968803e+01 0 1 0
867 1 7.9884384415892598e+00 4.9419248601544830e+00 2.9149548948446920e+01 0 -1 0
4278 1 3.7386981736793516e+00 8.0717340496125054e+00 2.4257985769041642e+01 0 0 0
5014 1 6.7362892597385962e+00 1.0159979836513918e+01 2.5021642027223095e+01 0 1 -1
767 1 5.9172770118497544e+00 6.7037257152041674e+00 2.3687899885428383e+01 1 0 0
3332 1 7.0142899907311866e+00 5.7801204022483805e+00 2.1100159319081531e+01 0 -1 -1
2626 1 5.0665405686381915e+00 1.3258144675795398e+00 2.7920494395007744e+01 1 1 1
861 1 2.2815035674986244e+00 9.4874112983116863e+00 2.2079491507471655e+01 0 1 0
3186 1 7.0838388493824871e+00 7.5406565381380197e+00 2.5949330362099893e+01 1 0 0
1507 1 7.6782620913564088e+00 1.0218507691656841e+01 2.2604374677956763e+01 1 0 0
4351 1 1.7073633602104543e+00 6.6345164416436173e+00 2.0702279131332983e+01 1 0 1
20 1 2.0270150058510974e+00 5.7044705915712859e+00 2.3593804381774760e+01 1 2 0
3305 1 2.6251008779862555e+00 2.1550549916219746e+00 2.8622840062393021e+01 0 1 -1
2653 1 7.1724624149696603e-01 1.1187294863184022e+01 2.8431178847158453e+01 0 -1 0
2546 1 2.9019160561726487e-01 1.1732458024532979e+01 2.4979616508342126e+01 0 0 -1
2525 1 5.6316714324196377e+00 6.6262629007561609e+00 2.7980645042289467e+01 1 0 0
2474 1 9.5531915959871387e+00 8.3255098644564249e+00 2.7683546394798366e+01 0 0 -1
3172 1 9.2738578230003483e+00 6.7361152747152275e-01 2.9030508667016363e+01 1 -1 0
3273 1 3.2715664738719226e+00 8.0841790911164395e+00 2.7510484737589067e+01 1 1 0
5021 1 1.8762625092304177e+00 4.0736797299101282e+00 2.6257925822779054e+01 0 1 0
4255 1 8.3542691129386846e+00 1.0037464308689630e+00 2.1975311579875608e+01 0 1 0
755 1 8.0303262749490645e-01 6.5992839306640274e+00 2.7398946812958556e+01 1 1 -1
787 1 2.7414316928607598e+00 1.0892023990381380e+01 2.6560876558589992e+01 0 0 -1
4069 1 4.7162670414128751e+00 4.3052552585644044e+00 2.6743577675640264e+01 1 0 0
934 1 2.4171595900681027e+00 3.8781291442927723e+00 2.0019413126174214e+01 1 1 1
778 1 6.9516637296869117e+00 2.3495318791586399e+00 2.9372226965310610e+01 0 0 0
3373 1 4.8710908518153057e-01 4.3880409615116178e-01 2.8614704463816743e+01 0 1 0
3237 1 9.5591827322845599e+00 6.6393206932118511e+00 2.4459291025067305e+01 -1 0 -1
1808 1 8.9184003592072667e+00 4.4145817155700993e+00 2.2893958316473118e+01 0 1 -1
4965 1 7.3494303636632328e+00 8.5453975544564074e+00 2.0277968467795176e+01 1 1 0
3163 1 2.4983125751463473e+00 3.6275572258899902e+00 3.1128998457927025e+01 0 0 0
3370 1 2.0930398938408339e+00 3.1680142931814723e+00 3.4018995668190549e+01 0 0 0
4158 1 7.4752658194794872e+00 8.7293279570755953e+00 2.9553545808968135e+01 0 0 0
1673 1 3.9433065306164022e-01 7.5333426307305622e+00 3.1966621093546586e+01 1 1 1
786 1 7.0225177595591353e+00 6.2470231195425194e+00 3.1600963672925555e+01 0 0 0
2366 1 6.5045886762463612e+00 2.1095678012852570e+00 3.1964189645904025e+01 1 1 0
2493 1 3.0215010036335566e-01 1.1691686250727967e+01 3.5475911815912120e+01 0 0 0
4979 1 1.8428293305133936e+00 6.0047368931482872e+00 2.9964389797321903e+01 1 0 -1
4169 1 4.9795705623181581e+00 4.5167009235575559e+00 3.2151572719183008e+01 0 0 -1
2379 1 7.1160046558413512e+00 6.0235066171792706e+00 3.5237359231644518e+01 0 1 -1
4868 1 6.9623744750487520e+00 1.1943008632680092e+01 3.8202351329391099e+01 1 1 0
3250 1 3.0230179045857941e+00 1.1129430525005764e+01 3.8508334759026035e+01 0 1 0
2386 1 9.0611009392772122e+00 9.3024927401629061e+00 3.1975624811287688e+01 0 0 0
1766 1 8.0301904794721271e+00 7.0890989682323351e+00 3.7862000813537271e+01 0 0 0
1487 1 1.7557742589067440e+00 9.3776286090664183e+00 2.9996525517110999e+01 1 0 0
4830 1 6.9046544158284924e+00 8.6768118931980140e+00 3.3793278169521592e+01 0 0 0
1518 1 4.4410434664136194e+00 9.5158458041922440e+00 3.3073953105964904e+01 0 0 0
4130 1 8.0024855709843674e+00 1.1861116829943233e+01 3.0694532467547194e+01 1 1 0
3347 1 7.1318635086629074e+00 1.1027031297834883e+01 3.5344693003685691e+01 0 1 -1
1010 1 6.1545729455864642e+00 9.3368716496916182e+00 3.8497664539069589e+01 1 1 0
949 1 3.1679285605615930e+00 7.1667992071937880e-01 3.5287837049040633e+01 0 1 0
2547 1 3.5717089565464391e+00 3.3944144518530401e+00 3.8666447337408968e+01 1 0 1
2634 1 8.5072066522528260e+00 2.1635829987367807e+00 3.3970602016309257e+01 1 0 1
3989 1 7.3768934018195091e+00 2.3658232369668384e+00 3.8247770444817760e+01 1 0 0
2397 1 5.2479342394094326e+00 2.6074375036940385e+00 3.6372848625978577e+01 1 0 0
3323 1 3.2590558813324138e+00 8.2663578169168108e+00 3.8043434374745431e+01 0 0 -1
5031 1 6.2695353341155624e-01 4.4784706431258119e+00 3.8269507739396410e+01 1 0 -1
4219 1 3.6493466520651380e-01 7.5782924478138751e+00 3.4903749574900829e+01 0 2 -1
2327 1 4.6268214266639390e-01 7.1292786823225374e+00 3.7796227226087439e+01 1 0 0
3304 1 3.1149762997080197e+00 7.8051784412443990e+00 3.5184384251323529e+01 1 0 0
2318 1 2.5652027708336043e+00 1.5043645007847661e-01 3.8297068824311246e+01 0 0 0
711 1 4.4793493340577148e+00 7.7029021922512539e+00 3.0755615145883876e+01 0 0 0
3238 1 4.4293658895178449e+00 5.0157526500280971e+00 3.5199498978987883e+01 1 -1 0
4074 1 9.1763101868088661e+00 4.4255302623306836e+00 3.8123403844662242e+01 0 1 0
1623 1 9.7800694091198626e+00 4.2603158946610487e+00 3.5172948433867568e+01 1 0 -1
4022 1 2.9785835082739953e+00 1.0742978262779403e+01 3.5662098125889607e+01 0 1 1
790 1 8.5841237037090359e+00 3.1627310974147405e-01 3.6820266799720002e+01 0 0 0
1566 1 2.6729781975767569e-01 1.1692861978666935e+01 3.8358777845162436e+01 0 -1 -1
2503 1 8.3023950168483573e-01 1.0389564374417105e+01 3.2722799258914804e+01 2 0 -1
3178 1 4.9027531820595085e+00 5.8687097502565360e+00 3.8394940027359873e+01 1 1 0
3310 1 3.1690941897809782e-01 1.0023268291806613e+00 3.3139946609583141e+01 1 1 0
2411 1 3.0041806229491259e+00 1.1714859894429823e+01 3.1084987390874844e+01 1 0 0
4128 1 2.6425759576197191e-02 4.4978129339625035e+00 3.5348880519254379e+01 0 0 0
4300 1 9.5841323855083118e+00 6.4359178101304195e+00 3.2970250140600115e+01 1 0 0
4795 1 5.2353554169096439e+00 7.1572969531672470e-03 3.3130098359260266e+01 1 1 0
181 2 0.0000000000000000e+00 1.2787731112280996e+01 3.1025124696638207e+00 0 0 0
183 2 1.2305000000000001e+00 1.3498160618518829e+01 3.1025124696638207e+00 0 0 0
218 2 2.4610000000000003e+00 1.2787731112280996e+01 3.1025124696638207e+00 0 0 0
220 2 3.6915000000000004e+00 1.3498160618518829e+01 3.1025124696638207e+00 0 0 0
179 2 0.0000000000000000e+00 1.5629449137232333e+01 3.1025124696638207e+00 0 0 0
214 2 1.2305000000000001e+00 1.4919019630994494e+01 3.1025124696638207e+00 0 0 0
216 2 2.4610000000000003e+00 1.5629449137232328e+01 3.1025124696638207e+00 0 0 0
259 2 3.6915000000000004e+00 1.4919019630994494e+01 3.1025124696638207e+00 0 0 0
263 2 4.9220000000000006e+00 1.2787731112280996e+01 3.1025124696638207e+00 0 0 0
265 2 6.1524999999999990e+00 1.3498160618518829e+01 3.1025124696638207e+00 0 0 0
310 2 7.3829999999999991e+00 1.2787731112280996e+01 3.1025124696638207e+00 0 0 0
312 2 8.6135000000000002e+00 1.3498160618518835e+01 3.1025124696638207e+00 0 0 0
261 2 4.9220000000000006e+00 1.5629449137232333e+01 3.1025124696638207e+00 0 0 0
306 2 6.1524999999999990e+00 1.4919019630994494e+01 3.1025124696638207e+00 0 0 0
308 2 7.3829999999999991e+00 1.5629449137232333e+01 3.1025124696638207e+00 0 0 0
353 2 8.6135000000000002e+00 1.4919019630994494e+01 3.1025124696638207e+00 0 0 0
210 2 0.0000000000000000e+00 1.7050308149707998e+01 3.1025124696638207e+00 0 0 0
255 2 2.4610000000000003e+00 1.7050308149707998e+01 3.1025124696638207e+00 0 0 0
208 2 0.0000000000000000e+00 1.9892026174659328e+01 3.1025124696638207e+00 0 0 0
212 2 1.2305000000000001e+00 1.7760737655945832e+01 3.1025124696638207e+00 0 0 0
251 2 1.2305000000000001e+00 1.9181596668421495e+01 3.1025124696638207e+00 0 0 0
253 2 2.4610000000000003e+00 1.9892026174659328e+01 3.1025124696638207e+00 0 0 0
257 2 3.6914999999999996e+00 1.7760737655945832e+01 3.1025124696638207e+00 0 0 0
298 2 3.6914999999999996e+00 1.9181596668421495e+01 3.1025124696638207e+00 0 0 0
302 2 4.9220000000000006e+00 1.7050308149707998e+01 3.1025124696638207e+00 0 0 0
349 2 7.3830000000000009e+00 1.7050308149707998e+01 3.1025124696638207e+00 0 0 0
300 2 4.9220000000000006e+00 1.9892026174659328e+01 3.1025124696638207e+00 0 0 0
304 2 6.1524999999999999e+00 1.7760737655945832e+01 3.1025124696638207e+00 0 0 0
345 2 6.1524999999999999e+00 1.9181596668421495e+01 3.1025124696638207e+00 0 0 0
347 2 7.3829999999999991e+00 1.9892026174659328e+01 3.1025124696638207e+00 0 0 0
351 2 8.6134999999999984e+00 1.7760737655945832e+01 3.1025124696638207e+00 0 0 0
387 2 8.6135000000000002e+00 1.9181596668421495e+01 3.1025124696638207e+00 0 0 0
245 2 0.0000000000000000e+00 2.4154603212086325e+01 3.1025124696638207e+00 0 0 0
247 2 0.0000000000000000e+00 2.1312885187134999e+01 3.1025124696638207e+00 0 0 0
249 2 1.2304999999999993e+00 2.2023314693372832e+01 3.1025124696638207e+00 0 0 0
290 2 1.2304999999999993e+00 2.3444173705848499e+01 3.1025124696638207e+00 0 0 0
292 2 2.4610000000000003e+00 2.4154603212086325e+01 3.1025124696638207e+00 0 0 0
294 2 2.4610000000000003e+00 2.1312885187134995e+01 3.1025124696638207e+00 0 0 0
296 2 3.6914999999999996e+00 2.2023314693372832e+01 3.1025124696638207e+00 0 0 0
337 2 3.6915000000000004e+00 2.3444173705848499e+01 3.1025124696638207e+00 0 0 0
339 2 4.9220000000000006e+00 2.4154603212086325e+01 3.1025124696638207e+00 0 0 0
341 2 4.9220000000000006e+00 2.1312885187134995e+01 3.1025124696638207e+00 0 0 0
343 2 6.1524999999999990e+00 2.2023314693372832e+01 3.1025124696638207e+00 0 0 0
379 2 6.1524999999999999e+00 2.3444173705848499e+01 3.1025124696638207e+00 0 0 0
381 2 7.3830000000000009e+00 2.4154603212086336e+01 3.1025124696638207e+00 0 0 0
383 2 7.3829999999999991e+00 2.1312885187134999e+01 3.1025124696638207e+00 0 0 0
385 2 8.6135000000000002e+00 2.2023314693372832e+01 3.1025124696638207e+00 0 0 0
413 2 8.6134999999999984e+00 2.3444173705848499e+01 3.1025124696638207e+00 0 0 0
182 2 0.0000000000000000e+00 1.2787731112280996e+01 6.1955743687387352e+00 0 0 0
219 2 2.4610000000000003e+00 1.2787731112280996e+01 6.1955743687387352e+00 0 0 0
180 2 0.0000000000000000e+00 1.4208590124756663e+01 6.1955743687387352e+00 0 0 0
215 2 1.2305000000000001e+00 1.4919019630994494e+01 6.1955743687387352e+00 0 0 0
217 2 2.4610000000000003e+00 1.4208590124756663e+01 6.1955743687387352e+00 0 0 0
260 2 3.6915000000000004e+00 1.4919019630994494e+01 6.1955743687387352e+00 0 0 0
491 2 0.0000000000000000e+00 1.2787731112280996e+01 9.2886362678134446e+00 0 0 0
492 2 1.2305000000000001e+00 1.3498160618518829e+01 9.2886362678134446e+00 0 0 0
510 2 2.4610000000000003e+00 1.2787731112280996e+01 9.2886362678134446e+00 0 0 0
511 2 3.6915000000000004e+00 1.3498160618518829e+01 9.2886362678134446e+00 0 0 0
490 2 0.0000000000000000e+00 1.5629449137232333e+01 9.2886362678134446e+00 0 0 0
508 2 1.2305000000000001e+00 1.4919019630994494e+01 9.2886362678134446e+00 0 0 0
509 2 2.4610000000000003e+00 1.5629449137232328e+01 9.2886362678134446e+00 0 0 0
531 2 3.6915000000000004e+00 1.4919019630994494e+01 9.2886362678134446e+00 0 0 0
264 2 4.9220000000000006e+00 1.2787731112280996e+01 6.1955743687387352e+00 0 0 0
311 2 7.3829999999999991e+00 1.2787731112280996e+01 6.1955743687387352e+00 0 0 0
262 2 4.9220000000000006e+00 1.4208590124756663e+01 6.1955743687387352e+00 0 0 0
307 2 6.1524999999999990e+00 1.4919019630994494e+01 6.1955743687387352e+00 0 0 0
309 2 7.3830000000000009e+00 1.4208590124756663e+01 6.1955743687387352e+00 0 0 0
354 2 8.6135000000000002e+00 1.4919019630994494e+01 6.1955743687387352e+00 0 0 0
533 2 4.9220000000000006e+00 1.2787731112280996e+01 9.2886362678134446e+00 0 0 0
534 2 6.1524999999999990e+00 1.3498160618518829e+01 9.2886362678134446e+00 0 0 0
557 2 7.3829999999999991e+00 1.2787731112280996e+01 9.2886362678134446e+00 0 0 0
558 2 8.6135000000000002e+00 1.3498160618518835e+01 9.2886362678134446e+00 0 0 0
532 2 4.9220000000000006e+00 1.5629449137232333e+01 9.2886362678134446e+00 0 0 0
555 2 6.1524999999999990e+00 1.4919019630994494e+01 9.2886362678134446e+00 0 0 0
556 2 7.3829999999999991e+00 1.5629449137232333e+01 9.2886362678134446e+00 0 0 0
579 2 8.6135000000000002e+00 1.4919019630994494e+01 9.2886362678134446e+00 0 0 0
211 2 0.0000000000000000e+00 1.7050308149707998e+01 6.1955743687387352e+00 0 0 0
213 2 1.2305000000000001e+00 1.6339878643470165e+01 6.1955743687387352e+00 0 0 0
256 2 2.4610000000000003e+00 1.7050308149707998e+01 6.1955743687387352e+00 0 0 0
258 2 3.6915000000000004e+00 1.6339878643470165e+01 6.1955743687387352e+00 0 0 0
209 2 0.0000000000000000e+00 1.8471167162183658e+01 6.1955743687387352e+00 0 0 0
252 2 1.2305000000000001e+00 1.9181596668421495e+01 6.1955743687387352e+00 0 0 0
254 2 2.4610000000000003e+00 1.8471167162183658e+01 6.1955743687387352e+00 0 0 0
299 2 3.6914999999999996e+00 1.9181596668421495e+01 6.1955743687387352e+00 0 0 0
506 2 0.0000000000000000e+00 1.7050308149707998e+01 9.2886362678134446e+00 0 0 0
529 2 2.4610000000000003e+00 1.7050308149707998e+01 9.2886362678134446e+00 0 0 0
505 2 0.0000000000000000e+00 1.9892026174659328e+01 9.2886362678134446e+00 0 0 0
507 2 1.2305000000000001e+00 1.7760737655945832e+01 9.2886362678134446e+00 0 0 0
527 2 1.2305000000000001e+00 1.9181596668421495e+01 9.2886362678134446e+00 0 0 0
528 2 2.4610000000000003e+00 1.9892026174659328e+01 9.2886362678134446e+00 0 0 0
530 2 3.6914999999999996e+00 1.7760737655945832e+01 9.2886362678134446e+00 0 0 0
551 2 3.6914999999999996e+00 1.9181596668421495e+01 9.2886362678134446e+00 0 0 0
303 2 4.9220000000000006e+00 1.7050308149707998e+01 6.1955743687387352e+00 0 0 0
305 2 6.1524999999999999e+00 1.6339878643470165e+01 6.1955743687387352e+00 0 0 0
350 2 7.3830000000000009e+00 1.7050308149707998e+01 6.1955743687387352e+00 0 0 0
352 2 8.6134999999999984e+00 1.6339878643470165e+01 6.1955743687387352e+00 0 0 0
301 2 4.9220000000000006e+00 1.8471167162183658e+01 6.1955743687387352e+00 0 0 0
346 2 6.1524999999999999e+00 1.9181596668421495e+01 6.1955743687387352e+00 0 0 0
348 2 7.3829999999999991e+00 1.8471167162183658e+01 6.1955743687387352e+00 0 0 0
388 2 8.6135000000000002e+00 1.9181596668421495e+01 6.1955743687387352e+00 0 0 0
553 2 4.9220000000000006e+00 1.7050308149707998e+01 9.2886362678134446e+00 0 0 0
577 2 7.3830000000000009e+00 1.7050308149707998e+01 9.2886362678134446e+00 0 0 0
552 2 4.9220000000000006e+00 1.9892026174659328e+01 9.2886362678134446e+00 0 0 0
554 2 6.1524999999999999e+00 1.7760737655945832e+01 9.2886362678134446e+00 0 0 0