
# Create simulation box and atoms

read_data data.ML_graphite_m1000atm_250K
  orthogonal box = (0 0 1.04861) to (49.22 49.0196 38.9514)
  5 by 4 by 4 MPI processor grid
  reading atoms ...
  5031 atoms
  reading velocities ...
  5031 velocities
group water type 1
2271 atoms in group water
group graphite type 2
2760 atoms in group graphite

# Define potential

pair_style sw
pair_coeff * * MLC_e.sw mW C


# Fix graphite atoms in place

fix 5 graphite setforce 0.0 0.0 0.0
velocity graphite set 0.0 0.0 0.0


# Equilibration of molecular water

# Add velocity/set timestep

velocity	    water create ${TEMP} ${SEED} rot yes dist gaussian
velocity	    water create 250 ${SEED} rot yes dist gaussian
velocity	    water create 250 18223 rot yes dist gaussian
timestep	    5.0

# Define output

compute			1 water msd
compute			3 water temp
thermo	    	50
thermo_style	custom step temp press vol etotal ke pe c_1[4] c_3

# Neighbor lists

neigh_modify    delay 0 every 1 check yes

# Set fixes

fix             1 water momentum 10 linear 1 1 1 rescale
fix             2 water nve
fix             3 water temp/csvr ${TEMP} ${TEMP} 500.0 ${SEED}
fix             3 water temp/csvr 250 ${TEMP} 500.0 ${SEED}
fix             3 water temp/csvr 250 250 500.0 ${SEED}
fix             3 water temp/csvr 250 250 500.0 18223
fix             4 water press/berendsen z ${PRES} ${PRES} 1000.0 modulus 20000
fix             4 water press/berendsen z -1000 ${PRES} 1000.0 modulus 20000
fix             4 water press/berendsen z -1000 -1000 1000.0 modulus 20000

# Run 0.5 ns equilibration

dump		    1 all atom 2000 ${DIR}/eq.${NAME}-${TEMP}.dump
dump		    1 all atom 2000 run_19/eq.${NAME}-${TEMP}.dump
dump		    1 all atom 2000 run_19/eq.het_freeze_19-${TEMP}.dump
dump		    1 all atom 2000 run_19/eq.het_freeze_19-250.dump

reset_timestep  0

run	            100000
Neighbor list info ...
  update every 1 steps, delay 0 steps, check yes
  max neighbors/atom: 2000, page size: 100000
  master list distance cutoff = 6.67472
  ghost atom cutoff = 6.67472
  binsize = 3.33736, bins = 15 15 12
  1 neighbor lists, perpetual/occasional/extra = 1 0 0
  (1) pair sw, perpetual
      attributes: full, newton on
      pair build: full/bin/atomonly
      stencil: full/bin/3d
      bin: standard
Per MPI rank memory allocation (min/avg/max) = 4.069 | 4.188 | 4.476 Mbytes
Step Temp Press Volume TotEng KinEng PotEng c_1[4] c_3 
       0    112.82306   -1433.2777    91449.793   -21655.009    1691.6097   -23346.618            0          250 
      50     115.4182   -1241.1753    91528.588   -21642.902    1730.5198   -23373.422   0.49334776    255.75045 
     100    115.07011   -1364.7404    91573.151   -21643.481    1725.3007   -23368.781   0.82338571    254.97913 
     150     113.8156    -1472.138    91470.443   -21685.532    1706.4913   -23392.023    0.9964172    252.19933 
     200    115.58624   -1415.2863    91499.852   -21689.687    1733.0394   -23422.726    1.1906417    256.12282 
     250    115.60017   -1292.5054    91507.302   -21662.933    1733.2482   -23396.181    1.3528217    256.15367 
     300    114.40229   -1338.6923    91514.663   -21675.601    1715.2879   -23390.889     1.539876    253.49936 
     350    113.15612   -1167.4561    91499.733   -21681.773    1696.6034   -23378.376    1.7142772    250.73801 
     400    113.45229   -970.80069     91484.51   -21705.915     1701.044   -23406.959    1.8854299    251.39428 
     450    113.90507    -1104.626    91536.059   -21733.515    1707.8328   -23441.348    2.0175003    252.39758 
     500    113.33912   -1207.4945    91577.042   -21694.381    1699.3472   -23393.728    2.1109748    251.14352 
     550    112.07184   -1489.2841    91577.945       -21741    1680.3463   -23421.346    2.2428258     248.3354 
     600    114.92811   -1260.7673    91515.606   -21736.864    1723.1717   -23460.036    2.3700837    254.66449 
     650    110.18339   -1343.7986    91484.746   -21759.828    1652.0318    -23411.86    2.5671758    244.15085 
     700    109.88831   -1240.7216    91434.416   -21753.659    1647.6075   -23401.266    2.6601202      243.497 
     750    111.08865   -1608.8507    91394.269   -21761.155    1665.6048    -23426.76    2.8355481    246.15679 
     800    112.05062   -1223.0241    91334.044   -21768.879    1680.0281   -23448.907    3.0584533    248.28838 
     850    113.63523    -1488.508    91260.995   -21755.612     1703.787   -23459.399    3.2051296    251.79966 
     900    115.31262   -1647.2253    91177.957   -21784.406    1728.9368   -23513.343     3.327766    255.51651 
     950    111.22377   -1417.0464    91144.602   -21755.267    1667.6307   -23422.898    3.3569302    246.45619 
    1000    113.31548   -1225.6517    91166.908   -21746.094    1698.9928   -23445.087    3.4194801    251.09114 
    1050    112.84483   -1230.4478     91161.58   -21770.874    1691.9361   -23462.811    3.5101242    250.04824 
    1100    112.99695   -1527.1433    91140.494   -21778.825     1694.217   -23473.042    3.7092792    250.38532 
    1150    111.37734   -1381.7182    91090.102   -21753.417    1669.9333    -23423.35     3.932012    246.79648 
    1200    113.19061   -937.20444    91193.818   -21760.027    1697.1206   -23457.147    4.1443257    250.81444 
    1250     107.8207   -1361.4909    91220.351   -21760.389    1616.6069   -23376.996     4.296416    238.91547 
    1300    113.51666   -1596.9047    91232.249   -21757.873    1702.0091   -23459.882    4.4398836    251.53691 
    1350    111.08608   -1537.4651    91217.534    -21752.69    1665.5662   -23418.256     4.671121    246.15108 
    1400    110.46374   -1226.2114    91209.127   -21743.788    1656.2353   -23400.023     4.840799    244.77208 
    1450    112.62713   -1188.8593    91098.958   -21725.948     1688.672    -23414.62    5.0113586    249.56584 
    1500    110.95961   -1345.8183    91077.515   -21747.238    1663.6701   -23410.908    5.1421051    245.87086 
    1550    109.69116   -1124.2644    91096.941   -21764.933    1644.6516   -23409.585    5.2927084    243.06015 
    1600    110.70304   -1474.4021    91103.149   -21757.086    1659.8232   -23416.909    5.4915092    245.30233 
    1650    110.83905   -1397.0294    91177.762   -21746.848    1661.8624    -23408.71    5.6760774     245.6037 
    1700    111.73372   -1150.1226    91184.781   -21714.033    1675.2767    -23389.31    5.7469959    247.58618 
    1750    113.46078   -1178.6567    91223.602   -21720.332    1701.1714   -23421.503    5.9086662     251.4131 
    1800    114.44839   -1374.7103    91251.764   -21696.962     1715.979   -23412.941    6.0933794    253.60149 
    1850    113.40715   -1368.7862    91301.742   -21703.878    1700.3672   -23404.245    6.2688255    251.29425 
    1900     112.6326   -1530.0478    91313.095   -21766.127    1688.7539   -23454.881     6.387979    249.57795 
    1950    114.86874   -1318.9883    91374.148   -21730.268    1722.2816    -23452.55    6.5506013    254.53294 
    2000     111.9324   -1523.5051    91335.058   -21730.203    1678.2557   -23408.458    6.7516306    248.02643 
    2050    111.78893   -1282.7451    91331.089   -21745.209    1676.1044   -23421.314    6.8488451    247.70851 
    2100    108.40673   -1209.0236    91325.341   -21726.008    1625.3936   -23351.401    7.0141511    240.21404 
    2150    113.14404   -1546.3415    91343.189   -21682.636    1696.4223   -23379.058    7.1203392    250.71124 
    2200    114.54222   -1354.9618     91313.79    -21726.78    1717.3859   -23444.166    7.3033822    253.80942 
    2250    113.07005   -1303.4209    91227.227   -21744.279    1695.3129   -23439.592    7.5015347    250.54728 
    2300    110.48143   -1296.7068    91307.348   -21768.469    1656.5005   -23424.969       7.6851    244.81128 
    2350    112.77047   -1359.6792     91407.86   -21766.956    1690.8212   -23457.777    7.8648882    249.88347 
    2400    112.24927   -1030.5214    91439.216   -21766.426    1683.0065   -23449.433    7.9871012    248.72855 
    2450    112.37157   -1272.2768    91495.294   -21750.578    1684.8403   -23435.418    8.2703782    248.99956 
    2500    113.16557   -1377.1921     91538.94   -21752.374    1696.7451   -23449.119    8.4745669    250.75895 
    2550    114.45036   -1558.2396    91422.813   -21717.622    1716.0085    -23433.63    8.7431627    253.60586 
    2600    108.31104   -1387.0028      91358.1   -21729.861    1623.9589    -23353.82    8.9201601      240.002 
    2650    113.36006   -1441.9672    91312.948   -21732.451    1699.6612   -23432.112    8.9585446    251.18992 
    2700    109.39996   -1200.6206    91363.423   -21739.522    1640.2855   -23379.807    9.1045761    242.41488 
    2750    112.20196   -1441.0525    91382.286   -21716.743    1682.2973    -23399.04    9.2584507    248.62373 
    2800    110.44963   -1173.1261    91433.503   -21718.769    1656.0237   -23374.793    9.4405444    244.74081 
    2850    112.09628   -916.26465    91484.048   -21724.807    1680.7128    -23405.52    9.5839744    248.38956 
    2900    109.26029   -1341.6432    91505.014   -21706.297    1638.1913   -23344.488    9.7814911    242.10539 
    2950    112.11274   -1311.7068     91408.24    -21709.36    1680.9596   -23390.319    9.9132938    248.42603 
    3000    112.64415   -1092.0551    91477.001   -21693.159    1688.9271   -23382.086    10.004265    249.60355 
    3050    113.17069   -1199.0144    91480.139    -21699.93    1696.8219   -23396.752      10.1768    250.77031 
    3100    112.80667   -1365.4981    91479.499   -21672.183     1691.364   -23363.547    10.391046    249.96368 
    3150    113.44516   -1461.4462    91454.603   -21695.291    1700.9371   -23396.228    10.546796    251.37848 
    3200    113.41801    -1340.367    91398.951   -21688.205      1700.53   -23388.735    10.612265    251.31832 
    3250    112.71079   -1725.5724    91319.074   -21690.254    1689.9264   -23380.181    10.914083    249.75123 
    3300    111.42963   -1429.0876    91214.303   -21704.534    1670.7173   -23375.252    11.160435    246.91236 
    3350    113.06623   -1329.4025    91183.137   -21721.012    1695.2556   -23416.268    11.246921    250.53882 
    3400    109.68655   -1485.4974    91143.974   -21745.039    1644.5824   -23389.622    11.365021    243.04993 
    3450    111.98269   -1357.7892    91062.282   -21756.846    1679.0096   -23435.856    11.429302    248.13785 
    3500    109.85177   -1631.2055    91005.166   -21774.382    1647.0597   -23421.442    11.672124    243.41604 
    3550    112.19617   -1186.9492    90953.957   -21698.438    1682.2104   -23380.648    11.790141    248.61089 
    3600    111.66596    -1056.546    91004.414   -21736.886    1674.2608   -23411.147    11.920737    247.43603 
    3650    112.87614   -1348.4484    90995.153   -21747.612    1692.4055   -23440.018    12.151334    250.11761 
    3700    109.32177   -1190.6817    90990.326   -21735.759    1639.1131   -23374.872    12.328506    242.24162 
    3750    113.63891   -1265.4255    91030.591   -21725.724    1703.8421   -23429.566    12.500384     251.8078 
    3800     114.6243   -1285.0362    91016.014   -21687.173    1718.6166   -23405.789    12.726619    253.99129 
    3850     114.6514   -1069.4496    91041.716   -21656.104    1719.0228   -23375.126    12.927062    254.05134 
    3900    112.67388   -1529.1734     91055.44   -21678.167     1689.373    -23367.54    13.133796    249.66944 
    3950    115.22968    -1530.847    91020.375   -21700.497    1727.6933   -23428.191    13.153673    255.33273 
    4000    113.97395     -1442.99    91012.891   -21708.217    1708.8655   -23417.082    13.222585    252.55021 
    4050    113.14932   -1157.6253    90992.968   -21734.948    1696.5014    -23431.45    13.303533    250.72294 
    4100    108.70049   -1073.3132    90994.541    -21736.76     1629.798   -23366.558    13.495282    240.86496 
    4150    112.14228   -1341.8297    91004.942   -21727.716    1681.4024   -23409.118    13.584826    248.49148 
    4200    115.72242   -1108.4136    91007.579   -21699.171    1735.0811   -23434.252    13.629601    256.42457 
    4250    110.53385    -1228.645    91002.831   -21724.223    1657.2865    -23381.51    13.823383    244.92743 
    4300    109.88049   -1336.9097    90955.867   -21765.159    1647.4903   -23412.649    13.986819    243.47967 
    4350    111.68627   -1223.3656    90899.909   -21743.752    1674.5652   -23418.317    14.272006    247.48103 
    4400    110.99808   -1372.8691    90887.179   -21714.786    1664.2468   -23379.033    14.455974    245.95609 
    4450    112.45082   -1188.0673    90895.791   -21687.005    1686.0285   -23373.033    14.541234    249.17517 
    4500    110.84578   -1230.2276    90907.852   -21716.525    1661.9633   -23378.488    14.681742    245.61861 
    4550    115.44048   -1441.3437    90934.398   -21708.948    1730.8539   -23439.802    14.787367    255.79983 
    4600    112.23034   -1387.4326    90924.735   -21708.551    1682.7227   -23391.274    14.843122     248.6866 
    4650    116.13104   -1249.1693      90906.1   -21704.836    1741.2078   -23446.044    15.030076    257.33001 
    4700    111.78924      -933.38    90949.036   -21706.493    1676.1092   -23382.602    15.231688     247.7092 
    4750    113.97597   -1247.2511    90958.827   -21663.986    1708.8958   -23372.882    15.308183    252.55468 
    4800    113.06402   -1028.3549    90919.596   -21680.228    1695.2225    -23375.45    15.459111    250.53394 
    4850    113.04158   -872.77699    90942.988   -21627.854    1694.8861    -23322.74     15.78132    250.48421 
    4900    115.37161   -1165.2671    91024.818   -21620.568    1729.8213   -23350.389    15.974323    255.64723 
    4950    116.85901   -1221.4336     91131.67   -21640.001    1752.1225   -23392.123    16.093095    258.94308 
    5000    117.09229   -1559.2887    91154.269   -21622.827    1755.6203   -23378.447    16.298766    259.46001 
    5050    112.68725   -1562.6576    91080.162   -21664.302    1689.5733   -23353.875    16.445058    249.69905 
    5100    112.43516    -965.2069    91109.537   -21671.876    1685.7938    -23357.67     16.45528    249.14047 
    5150    115.66484   -1045.0528    91253.049   -21645.674    1734.2178   -23379.892    16.494143    256.29697 
    5200    112.87525   -1199.1648     91292.84   -21611.943    1692.3922   -23304.335    16.622099    250.11565 
    5250    116.54784   -1364.1086    91294.512   -21655.759    1747.4571   -23403.216    16.684545    258.25359 
    5300    109.51934   -1228.3374    91239.552   -21695.837    1642.0755   -23337.912    16.710411    242.67942 
    5350     112.0635   -1386.4111    91135.363   -21632.656    1680.2212   -23312.877    16.921155    248.31691 
    5400    114.26674   -1097.9664    91117.145    -21607.09    1713.2554   -23320.346    17.101295    253.19898 
    5450    115.15538   -1555.5549    91086.531   -21565.307    1726.5793   -23291.886    17.195846    255.16809 
    5500    110.55175   -1293.5095    91066.066   -21575.229    1657.5549   -23232.784    17.496651     244.9671 
    5550    114.35207   -1252.8781    90995.692   -21589.904    1714.5349   -23304.438     17.66978    253.38807 
    5600    116.35753   -1221.2591    91007.192   -21595.331    1744.6037   -23339.934    17.901661    257.83189 
    5650     114.4511   -1362.5519     90963.05   -21601.146    1716.0196   -23317.165     18.07902     253.6075 
    5700    112.72657   -1466.5753    90922.297   -21613.372     1690.163   -23303.535    18.214284     249.7862 
    5750    115.97713   -1325.5565     90892.64   -21614.594    1738.9001   -23353.494    18.394061    256.98896 
    5800    115.35992   -1371.0176    90895.717   -21602.129    1729.6461   -23331.776     18.62539    255.62133 
    5850     114.6749   -1225.3676    90864.747   -21601.181    1719.3752   -23320.557    18.855192    254.10341 
    5900    112.53194   -1362.5091    90855.714    -21630.08    1687.2448   -23317.324    18.995842    249.35492 
    5950    110.33864   -1439.5276    90847.665   -21630.862    1654.3596   -23285.221    19.186804    244.49487 
    6000     113.3124   -1152.4089    90818.979   -21637.139    1698.9466   -23336.085    19.410154    251.08431 
    6050    114.76082   -1164.2898     90870.19   -21645.343    1720.6634   -23366.006    19.617772    254.29379 
    6100    112.92934   -1114.0536    90855.717   -21648.393    1693.2032   -23341.596     20.01632     250.2355 
    6150    115.20496    -1210.775    90815.558   -21618.617    1727.3227    -23345.94    20.326065    255.27796 
    6200    111.43874   -1333.2054    90811.478   -21612.131     1670.854   -23282.984    20.655556    246.93255 
    6250     115.8939   -1353.0967    90756.395   -21573.278    1737.6523   -23310.931    20.714719    256.80455 
    6300    112.97922   -1367.7774    90797.927   -21616.174    1693.9511   -23310.125    20.967202    250.34603 
    6350    117.18344   -1278.5985    90812.579   -21602.519    1756.9869   -23359.506    21.088431    259.66198 
    6400    116.32646   -1198.7028    90852.321   -21592.111    1744.1377   -23336.249    21.298452    257.76303 
    6450    113.00786   -976.78373    90918.474   -21551.291    1694.3804   -23245.671    21.577939    250.40948 
    6500    116.29139   -1270.2601    90998.723    -21568.83    1743.6121   -23312.442    21.820519    257.68534 
    6550    114.04337   -1348.2899    91032.029     -21562.1    1709.9064   -23272.006     21.93403    252.70403 
    6600    112.74541   -1187.2193    91060.948    -21579.64    1690.4454   -23270.086    22.067272    249.82793 
    6650    111.86126   -1395.3243    91062.578   -21572.233     1677.189   -23249.422    22.249932    247.86879 
    6700    113.54604   -1452.8317    91081.096   -21589.632    1702.4497   -23292.082    22.417854    251.60202 
    6750    114.07983   -1223.9522    91050.535   -21615.907    1710.4531    -23326.36    22.559204    252.78483 
    6800    111.50791   -1430.2125    91057.273   -21654.741    1671.8911   -23326.632    22.696699    247.08582 
    6850    111.04065   -1742.4644    91027.755    -21643.95    1664.8851   -23308.835    22.925574    246.05042 
    6900    113.09206    -1218.031    90964.398   -21678.108     1695.643   -23373.751    22.957922    250.59607 
    6950    110.66756   -1481.0023    90892.343    -21714.24    1659.2913   -23373.531    23.101197    245.22372 
    7000     110.4548   -1418.8125    90828.799   -21734.344    1656.1013   -23390.445     23.07331    244.75227 
    7050    113.65113   -1149.4638    90886.726   -21685.248    1704.0253   -23389.273    23.400786    251.83488 
    7100    113.09344   -1489.2722    90888.978   -21679.425    1695.6636   -23375.088    23.510597    250.59912 
    7150    109.86336   -1236.7582    90921.349   -21699.418    1647.2335   -23346.651     23.50318    243.44172 
    7200    114.58764    -1309.025    90962.293   -21656.287    1718.0669   -23374.353    23.466084    253.91007 
    7250    111.97287   -1418.8311    90972.135   -21659.077    1678.8624   -23337.939     23.71437    248.11609 
    7300    111.84361   -1114.7355    91035.393    -21633.46    1676.9243   -23310.385     23.99723    247.82968 
    7350    113.23062   -1117.7617    91067.644   -21578.473    1697.7205   -23276.194    24.217232     250.9031 
    7400     113.3651    -1331.466    90972.482   -21569.057    1699.7367   -23268.794     24.38713    251.20108 
    7450    114.12222   -1258.8318     90977.85    -21531.22    1711.0886   -23242.308    24.524436    252.87876 
    7500    117.17435   -889.89813    91044.599   -21556.468    1756.8506   -23313.319    24.691214    259.64183 
    7550    113.85002    -1302.977    91037.641   -21546.268    1707.0075   -23253.275    25.037817    252.27561 
    7600    114.43645    -1341.943    91039.085   -21555.883       1715.8   -23271.683    25.226449    253.57504 
    7650    114.22487   -1355.7858    91110.968   -21573.939    1712.6277   -23286.566    25.587957    253.10621 
    7700    114.59578   -1377.9855    91129.076    -21604.55     1718.189   -23322.739    25.868445     253.9281 
    7750    110.44911   -1641.3806     91107.42   -21601.865    1656.0159   -23257.881    25.889719    244.73966 
    7800    115.11643   -1267.5277    91034.777   -21603.166    1725.9952   -23329.162    26.076593    255.08178 
    7850     116.3672   -1202.4313    91132.146   -21560.239    1744.7487   -23304.988    26.311419    257.85332 
    7900    112.72193   -1377.8064    91170.911   -21587.795    1690.0934   -23277.888    26.641603    249.77591 
    7950    112.21411   -1412.1996    91170.693   -21599.828    1682.4793   -23282.307    26.982323    248.65064 
    8000    113.60737   -1423.0173    91114.849   -21582.979    1703.3693   -23286.349    27.298764    251.73792 
    8050    114.98205   -1157.8499     91176.36   -21559.698    1723.9805   -23283.679    27.480937    254.78402 
    8100    112.68438   -1044.1654    91208.884   -21578.381    1689.5304   -23267.912    27.513674     249.6927 
    8150    113.43062   -1399.3536    91162.061   -21557.255    1700.7191   -23257.974    27.802895    251.34626 
    8200    116.38341    -1075.824    91146.225   -21608.928    1744.9918   -23353.919    28.025774    257.88924 
    8250    113.08822   -906.32457    91135.137   -21619.476    1695.5853   -23315.062    28.071044    250.58754 
    8300    112.82022   -1406.4443    91108.281   -21639.639    1691.5671   -23331.206    28.238068    249.99371 
    8350     114.5849    -1452.292    91029.876   -21652.763    1718.0258   -23370.789    28.329456    253.90399 
    8400    115.49154   -1326.6689    91020.202    -21643.48    1731.6194     -23375.1    28.535511    255.91296 
    8450    113.77067   -1213.5686     90904.85   -21650.452    1705.8177    -23356.27    28.755736    252.09977 
    8500    111.89271   -1275.7754    90834.363   -21670.359    1677.6606    -23348.02     28.99754    247.93848 
    8550    112.31447   -1149.7826     90744.49   -21658.297    1683.9842   -23342.281     29.11865    248.87304 
    8600    112.10604   -1071.5033    90754.628   -21654.585    1680.8591   -23335.444    29.110768    248.41119 
    8650    110.95654   -1135.5164    90733.592   -21691.739    1663.6241   -23355.363    29.115233    245.86405 
    8700    113.44597   -1147.3148        90742   -21686.439    1700.9492   -23387.388    29.179207    251.38027 
    8750    115.40351   -1191.6455    90768.537   -21644.672    1730.2996   -23374.971    29.465098    255.71791 
    8800    114.52946   -871.89452    90800.727   -21645.773    1717.1945   -23362.968    29.799588    253.78114 
    8850    112.86318   -998.30283    90812.474   -21627.449    1692.2112    -23319.66    30.082067    250.08889 
    8900    113.32187   -1114.3044    90814.498   -21676.186    1699.0886   -23375.274    30.320248    251.10529 
    8950    113.87281   -1444.1312    90837.331   -21678.242     1707.349   -23385.591     30.71946    252.32609 
    9000    113.79487   -1133.4381     90886.52   -21706.845    1706.1805   -23413.025    30.961664    252.15339 
    9050    111.01201   -1114.2663    90909.071   -21746.133    1664.4557   -23410.589    31.148505    245.98696 
    9100    109.71798    -1415.255    90898.416   -21735.839    1645.0538   -23380.893    31.314775    243.11959 
    9150    108.95628   -1451.7871    90755.952   -21740.133    1633.6332   -23373.767    31.539222    241.43176 
    9200    113.44479   -1324.9829    90724.344   -21732.882    1700.9316   -23433.813    31.434027    251.37766 
    9250    111.51744   -1110.1324    90755.831    -21744.21    1672.0339   -23416.244    31.377431    247.10692 
    9300    113.17669   -1089.2846     90816.06   -21760.304    1696.9118   -23457.216    31.432928    250.78359 
    9350    114.30839   -1184.1912    90773.223   -21748.659    1713.8799   -23462.539    31.478898    253.29127 
    9400    113.11304   -1128.1695    90729.765   -21729.452    1695.9574   -23425.409    31.625974    250.64254 
    9450    114.46315    -1200.276      90775.4   -21736.003    1716.2003   -23452.204    31.817964     253.6342 
    9500    114.68615   -1375.3089    90820.199   -21745.038    1719.5439   -23464.581    32.206915    254.12834 
    9550    113.93268   -1472.2694    90803.367   -21716.032    1708.2468   -23424.279    32.443354    252.45876 
    9600    112.87415   -1362.4193    90848.405    -21717.99    1692.3758   -23410.366    32.472612    250.11321 
    9650    112.97809   -1291.3477    90848.962   -21698.524    1693.9341   -23392.458    32.518034    250.34352 
    9700    109.95646   -1116.7091      90832.5   -21737.312    1648.6294   -23385.942    32.625731    243.64802 
    9750    112.24399   -1281.8795    90769.637   -21717.012    1682.9274   -23399.939    32.701373    248.71686 
    9800    111.75925   -1187.3437    90746.184   -21737.097    1675.6594   -23412.756    32.851047    247.64274 
    9850    113.39867   -1393.9571    90716.652   -21719.341      1700.24   -23419.581    32.847718    251.27546 
    9900    112.27729   -1411.1722    90725.445   -21729.767    1683.4266   -23413.193    33.107581    248.79064 
    9950    110.64043   -867.14791    90768.609   -21723.214    1658.8844   -23382.099    33.471244    245.16359 
   10000    113.73802   -1250.4341    90883.704   -21723.344    1705.3281   -23428.672    33.833992    252.02742 
   10050    110.89927   -1329.3281     90887.25   -21712.106    1662.7654   -23374.872    34.080308    245.73716 
   10100    113.29067   -1401.0961    90932.898   -21737.065    1698.6207   -23435.686    34.304656    251.03614 
   10150    111.89192    -1244.403    91021.432   -21711.354    1677.6487   -23389.002     34.56016    247.93673 
   10200    112.65591   -1269.6316    90991.553   -21733.688    1689.1036   -23422.791    34.803638    249.62963 
   10250    110.22229   -1303.3875    91081.316   -21725.488    1652.6152   -23378.103    35.080693    244.23707 
   10300    110.72184   -1161.2746    91175.195   -21702.835    1660.1051    -23362.94    35.245508    245.34398 
   10350    109.47368   -1124.5364    91235.802   -21725.081    1641.3909   -23366.471    35.391798    242.57825 
   10400    111.32763   -1189.0597    91240.027   -21732.411     1669.188   -23401.599     35.51909    246.68634 
   10450    111.97515   -1151.7816    91254.248   -21696.823    1678.8966   -23375.719    35.638555    248.12115 
   10500    109.70453    -1223.322    91366.622   -21675.486    1644.8521   -23320.338    35.728573    243.08977 
   10550    110.84718   -951.74985    91377.435   -21662.702    1661.9844   -23324.686    35.930274    245.62173 
   10600    113.03931   -1246.8178    91385.466   -21669.813    1694.8521   -23364.665    36.030322    250.47918 
   10650    110.60099   -1693.7611    91343.064     -21679.5    1658.2931   -23337.793    36.061549     245.0762 
   10700    113.60082   -1726.4142    91169.433   -21689.406    1703.2709   -23392.677    36.371514    251.72339 
   10750    116.90226    -1439.107    91058.354    -21645.65    1752.7711   -23398.422    36.532496    259.03893 
   10800    113.36887   -1698.6987    90922.278   -21675.453    1699.7932   -23375.246    36.813901    251.20943 
   10850    112.45398   -1361.8398     90894.71   -21702.656    1686.0759   -23388.731    37.239156    249.18218 
   10900    112.99419   -1373.0376    90828.161   -21683.848    1694.1755   -23378.023    37.676272    250.37919 
   10950    115.18289   -848.79071    90847.014   -21672.209    1726.9918     -23399.2    37.760576    255.22905 
   11000    112.61222   -1073.5417    90890.756   -21636.266    1688.4484   -23324.714    37.795622     249.5328 
   11050    115.39611   -1282.7439     90859.83    -21659.52    1730.1886   -23389.708    37.986645     255.7015 
   11100    115.51309   -1080.4154    90838.279   -21650.155    1731.9426   -23382.097    38.203604    255.96073 
   11150    114.73622   -1113.9311    90849.385   -21645.313    1720.2946   -23365.608    38.524915    254.23928 
   11200    112.72127   -1484.4028    90840.332   -21688.944    1690.0836   -23379.028    38.462395    249.77445 
   11250    113.23278   -1445.5142    90784.677   -21721.711    1697.7529   -23419.464    38.645772    250.90789 
   11300    114.09855   -1116.9859    90784.185    -21715.35    1710.7336   -23426.083    38.701991    252.82629 
   11350    115.51678   -1096.7454    90756.099   -21664.666    1731.9979   -23396.664    38.961119     255.9689 
   11400    116.85208    -1294.242    90795.224   -21711.792    1752.0187   -23463.811    39.130191    258.92775 
   11450    110.99136   -1162.0158    90796.128   -21681.338    1664.1461   -23345.484    39.346415    245.94121 
   11500    111.55777   -1494.3375    90746.612   -21710.717    1672.6385   -23383.355    39.618473    247.19628 
   11550    110.71716    -1274.711    90730.144   -21710.539     1660.035   -23370.574    39.660781    245.33362 
   11600    112.26095   -1377.6573    90720.212   -21715.442    1683.1818   -23398.624    39.726581    248.75445 
   11650     114.1829   -1262.5236    90779.707   -21706.697    1711.9984   -23418.695    39.852933    253.01321 
   11700    111.63242   -1086.3252    90867.645   -21710.185    1673.7578   -23383.943    40.020851    247.36171 
   11750    115.54792   -1127.1796    90940.147   -21726.999    1732.4649   -23459.464    39.990392    256.03791 
   11800    116.20204   -1181.5934    90991.401   -21722.694    1742.2724   -23464.966    40.159567    257.48735 
   11850    113.44003   -1301.7125    90995.033   -21694.357    1700.8602   -23395.217    40.357802    251.36711 
   11900    115.41755   -1188.6553    91019.001    -21686.25    1730.5101    -23416.76    40.625366    255.74902 
   11950    113.48707   -1169.4609    91036.732    -21660.36    1701.5654   -23361.926    40.714497    251.47134 
   12000    115.70438   -1221.5781    91054.621   -21711.815    1734.8107   -23446.626    40.757983     256.3846 
   12050    112.58474   -1392.3168    91058.116   -21730.392    1688.0364   -23418.429    40.931979    249.47191 
   12100    112.25319   -1291.4047    91011.223    -21662.47    1683.0653   -23345.535    41.049947    248.73724 
   12150    112.66967   -1386.9615    90949.532   -21653.813    1689.3098   -23343.123    41.291821     249.6601 
   12200    114.20002   -1176.0974     90917.37   -21641.098    1712.2551   -23353.353    41.623372    253.05114 
   12250    112.22585   -1055.0642    90913.685   -21670.421    1682.6554   -23353.077    41.920417    248.67666 
   12300    112.61391    -1340.917     90910.03   -21689.883    1688.4738   -23378.357    42.121718    249.53655 
   12350    112.00084   -1412.9073    90778.336   -21700.668    1679.2817    -23379.95    42.177635    248.17807 
   12400    115.54519    -1270.935    90741.826   -21675.104    1732.4238   -23407.528    42.372654    256.03185 
   12450    115.27732    -1566.463    90798.727   -21673.685    1728.4075   -23402.093    42.809435    255.43828 
   12500      110.413   -1173.5083    90801.988   -21676.045    1655.4745   -23331.519    43.223033    244.65964 
   12550    111.74733   -1266.7025    90825.082   -21669.518    1675.4807   -23344.999    43.652872    247.61632 
   12600    113.45707   -1515.6842    90855.382   -21656.709    1701.1157   -23357.824    43.800251    251.40488 
   12650      111.196   -1377.9526     90832.07   -21644.505    1667.2144   -23311.719    43.963816    246.39466 
   12700    111.36437   -1415.3012    90826.738   -21632.923    1669.7389   -23302.662    43.942615    246.76775 
   12750    115.75854   -1472.4045    90823.635    -21617.89    1735.6227   -23353.512    44.113617    256.50461 
   12800    115.13288   -1093.2079    90808.518   -21570.404    1726.2419   -23296.646    44.301342    255.11823 
   12850    115.43395   -1290.4713    90839.315   -21621.491     1730.756   -23352.247    44.269039    255.78536 
   12900     113.1597    -1150.377    90850.594   -21692.231    1696.6571   -23388.888    44.564725    250.74594 
   12950    110.93193   -872.49162     90914.11   -21742.062    1663.2551   -23405.317    44.530658    245.80952 
   13000    110.09131   -1129.6543    90912.273   -21715.754    1650.6513   -23366.406    44.897398    243.94683 
   13050    112.86013   -1442.0516    90911.766   -21715.651    1692.1655   -23407.816    44.939713    250.08215 
   13100    112.39212   -1445.7209    90881.967   -21688.623    1685.1485   -23373.772    44.774477     249.0451 
   13150    111.56519   -1068.7363    90871.859   -21700.088    1672.7499   -23372.838     44.75812    247.21274 
   13200    110.60681   -1269.7303    90849.576   -21680.483    1658.3804   -23338.863    44.804471    245.08911 
   13250    114.01354   -1498.6089    90862.748   -21659.182     1709.459   -23368.641    45.085968    252.63792 
   13300    116.37542   -905.76689    90863.057    -21662.58    1744.8719   -23407.452    45.071892    257.87152 
   13350    112.90064   -1250.8043    90854.981    -21675.58    1692.7729   -23368.353    45.567181    250.17191 
   13400    112.78677   -1481.4943    90926.109   -21669.774    1691.0655   -23360.839    45.823375    249.91958 
   13450    111.58639   -1311.6661    90827.555   -21680.065    1673.0678   -23353.132    45.763535    247.25972 
   13500    111.72449   -1261.1229    90867.126    -21716.94    1675.1383   -23392.079    45.890644    247.56572 
   13550    111.37521   -1226.7391    90900.961   -21732.568    1669.9014    -23402.47     46.01248    246.79177 
   13600    112.82983   -1380.0673    90849.127   -21684.075    1691.7112   -23375.787    45.979697      250.015 
   13650    113.30072   -1253.7606    90773.815   -21703.698    1698.7715    -23402.47     46.19212    251.05843 
   13700    115.19047   -1424.4933    90801.639   -21646.364    1727.1055   -23373.469     46.13627    255.24585 
   13750    112.18835   -1487.1698    90788.794   -21660.992    1682.0931   -23343.086    46.293989    248.59356 
   13800     113.5458   -1079.1297    90767.932   -21656.173     1702.446   -23358.619    46.738314    251.60148 
   13850    115.03057   -1440.9317    90707.469   -21631.969     1724.708   -23356.677    47.083309    254.89154 
   13900    110.34953   -1173.9525    90697.518   -21660.598    1654.5229   -23315.121    46.888508      244.519 
   13950    112.94305   -1316.1981     90712.35   -21695.687    1693.4087   -23389.095    47.005869    250.26587 
   14000    110.76664   -1703.0146     90706.03     -21727.1    1660.7768   -23387.876    47.144534    245.44326 
   14050    112.49999   -1071.6824    90640.944   -21690.773    1686.7658   -23377.539     47.43032    249.28413 
   14100    114.13687   -1256.0697    90678.747   -21640.293    1711.3082   -23351.601    47.731789    252.91121 
   14150    112.09012   -1144.4881    90652.819   -21635.267    1680.6204   -23315.887     47.87798     248.3759 
   14200    113.17926   -1247.5141    90626.899   -21673.425    1696.9504   -23370.376    48.146445     250.7893 
   14250    113.64775   -1149.5464     90697.55   -21657.735    1703.9746    -23361.71    48.149108    251.82739 
   14300    109.88793   -1304.6941    90817.648   -21691.107    1647.6019   -23338.709     48.32366    243.49617 
   14350    111.08322   -1504.1876    90789.033   -21708.802    1665.5234   -23374.325    48.508468    246.14476 
   14400    113.15554   -1145.3145    90812.304   -21666.427    1696.5946   -23363.021    48.648176    250.73671 
   14450    113.48748   -1117.2712    90873.216   -21673.638    1701.5717    -23375.21    48.763527    251.47227 
   14500    112.14242   -1095.0719    90856.514   -21687.434    1681.4045   -23368.839    49.030011    248.49179 
   14550    114.22617   -1370.4503    90863.219   -21717.361    1712.6472   -23430.009    49.249241     253.1091 
   14600    113.06178   -1263.5383    90846.791   -21700.676    1695.1889   -23395.865     49.26986    250.52897 
   14650    113.37693    -1219.312    90846.739   -21702.696    1699.9141    -23402.61    49.516079     251.2273 
   14700    113.16533   -1444.1192    90876.722   -21673.876    1696.7415   -23370.617    49.730539    250.75841 
   14750    113.38429   -1142.1966      90839.5   -21700.195    1700.0245    -23400.22    49.951708    251.24361 
   14800    113.32379   -1044.2145    90853.966   -21674.602    1699.1174    -23373.72    50.480465    251.10955 
   14850    113.29033   -1404.4551    90872.445   -21686.836    1698.6157   -23385.451    50.869336     251.0354 
   14900    112.73627    -1220.751    90836.547   -21712.844    1690.3085   -23403.153    51.046388    249.80769 
   14950    110.06538   -1169.0127    90861.173    -21704.44    1650.2625   -23354.703    51.177762    243.88938 
   15000    113.07609   -1143.8507    90900.965   -21704.171    1695.4035   -23399.575    51.537925    250.56069 
   15050    112.46954   -1092.8688    90898.869   -21703.241    1686.3092    -23389.55    51.730298    249.21665 
   15100     113.7784   -1280.8358    90922.264   -21743.969    1705.9335   -23449.902    51.929853    252.11689 
   15150    111.03754   -1142.7649     90975.22   -21690.086    1664.8385   -23354.924    52.100334    246.04353 
   15200    111.72967    -1504.012    91027.141   -21706.109     1675.216   -23381.325     52.17686    247.57721 
   15250    115.57694   -1318.9003    91026.822   -21641.401       1732.9   -23374.301    52.350591    256.10221 
   15300    114.74543   -1143.2143    91053.245   -21636.627    1720.4327    -23357.06     52.59901    254.25969 
   15350     116.6143   -1567.3906    91075.093    -21651.54    1748.4535   -23399.993    52.942908    258.40085 
   15400    113.93615   -1156.6884    91090.345   -21655.128    1708.2987   -23363.426    52.960199    252.46644 
   15450    112.95088   -1431.1632     91120.92   -21675.662    1693.5261   -23369.189    53.100324    250.28322 
   15500    114.34809   -1487.9295    91168.793   -21693.553    1714.4752   -23408.029    53.420289    253.37925 
   15550    117.10109   -1435.0743    91162.281   -21642.316    1755.7523   -23398.068    53.466347    259.47951 
   15600    113.92507   -1098.2199    91212.126   -21681.264    1708.1327   -23389.397    53.685374     252.4419 
   15650    114.22151   -953.93146    91310.888   -21642.564    1712.5773   -23355.141    53.815917    253.09876 
   15700    114.20603   -1102.8643    91345.644   -21626.584    1712.3452   -23338.929    54.004086    253.06446 
   15750    114.74596   -1489.0777    91361.987    -21611.28    1720.4406    -23331.72    54.070955    254.26087 
   15800    113.11652   -1319.5237    91342.522   -21598.723    1696.0097   -23294.733    54.166891    250.65027 
   15850    116.35436   -1240.5463    91328.265   -21568.323    1744.5561   -23312.879    54.403618    257.82485 
   15900     116.9044   -1034.1277    91318.197   -21584.033    1752.8031   -23336.836    54.548423    259.04366 
   15950    112.55204   -1287.8168    91342.807    -21612.36    1687.5462   -23299.906    54.839248    249.39946 
   16000    114.97557   -1472.8413    91273.128   -21608.762    1723.8832   -23332.645      54.8841    254.76965 
   16050    114.13815   -1384.0199    91210.006   -21615.079    1711.3275   -23326.407    54.690657    252.91405 
   16100    117.79415   -1403.6252    91226.092   -21589.753    1766.1435   -23355.897    54.646054    261.01522 
   16150    114.59003   -1252.8472     91197.57   -21596.805    1718.1027   -23314.908    54.671076    253.91535 
   16200    115.74638   -1339.9408    91130.865    -21632.68    1735.4405   -23368.121     55.13603    256.47767 
   16250    113.74268   -1435.8987    91039.242   -21670.825    1705.3979   -23376.222    55.539765    252.03774 
   16300    113.96821   -1171.5605    91090.184   -21677.061    1708.7795   -23385.841    55.819985    252.53749 
   16350    111.16987   -1441.1562    91033.015   -21627.013    1666.8225   -23293.835    55.888731    246.33675 
   16400    110.96422   -1327.5011    90979.516   -21622.057    1663.7391   -23285.796    56.080456    245.88106 
   16450    114.50588   -1620.9846    90903.675   -21608.245    1716.8409   -23325.086    56.180745    253.72888 
   16500    115.70783   -1616.2178     90783.57   -21617.563    1734.8625   -23352.425    56.123013    256.39225 
   16550    113.53448   -1438.3862    90783.794   -21617.134    1702.2763    -23319.41    56.588387    251.57639 
   16600    115.96313   -1240.9744    90810.792   -21642.995    1738.6902   -23381.685    56.824921    256.95795 
   16650    114.24697   -1148.7396    90951.285   -21643.453     1712.959   -23356.412    56.631466    253.15518 
   16700    113.76098   -1142.7231    90895.938   -21609.052    1705.6724   -23314.725    56.468531     252.0783 
   16750    115.13609   -1163.5847    90873.197   -21595.707    1726.2901   -23321.997    56.493461    255.12535 
   16800    113.85293   -1193.9867    90875.911   -21603.449     1707.051     -23310.5    56.484679    252.28205 
   16850    111.70426   -1088.1821    90848.249   -21656.948    1674.8349   -23331.783    56.904094    247.52089 
   16900    112.62229   -1302.7341    90770.002   -21647.286    1688.5994   -23335.886    57.162227    249.55512 
   16950    114.70387   -1210.2017    90754.672   -21626.528    1719.8095   -23346.338    57.474127     254.1676 
   17000    112.71837   -1350.3061    90739.371   -21632.616      1690.04   -23322.656    58.001638    249.76802 
   17050    110.97105   -1322.1892    90738.996   -21667.799    1663.8417   -23331.641    58.396553    245.89621 
   17100    112.77906   -1436.9211    90686.574   -21680.991    1690.9499   -23371.941    58.594267    249.90249 
   17150    112.35276   -1468.6049    90630.149   -21606.671    1684.5582   -23291.229    58.455361    248.95788 
   17200    115.81508   -1462.9572    90573.813   -21584.167    1736.4705   -23320.638    58.752471     256.6299 
   17250    115.79995   -1335.0276    90636.073    -21575.17    1736.2436   -23311.414    59.030924    256.59636 
   17300     116.4113   -1083.7191    90747.243   -21597.748    1745.4098   -23343.158    59.226675    257.95102 
   17350    116.32027   -734.97508    90845.777   -21623.968     1744.045   -23368.013    59.398841    257.74932 
   17400    116.17304   -1338.0902    91011.552   -21657.068    1741.8376   -23398.906     59.72316    257.42309 
   17450    113.50795   -1259.4523    91027.941    -21653.55    1701.8785   -23355.428     59.81968    251.51761 
   17500    110.51387   -1443.5399    91076.012   -21683.218    1656.9869   -23340.205     60.11906    244.88316 
   17550    112.15128   -1592.1728    91024.858   -21690.586    1681.5373   -23372.123    60.463373    248.51142 
   17600    112.32045    -1386.308    91015.325   -21679.836    1684.0738    -23363.91     61.01118    248.88629 
   17650    111.68466   -1476.4375    91095.298    -21666.24    1674.5412   -23340.781    61.246976    247.47747 
   17700    111.37017   -1212.1646    91131.434   -21652.864    1669.8257    -23322.69    61.283884    246.78059 
   17750     114.4679   -1176.4229    91182.954   -21606.485    1716.2716   -23322.757    61.475846    253.64474 
   17800    113.83912   -1193.5299    91249.798    -21600.49     1706.844   -23307.334    61.633285    252.25145 
   17850    115.16297   -1719.7771    91221.058   -21607.172    1726.6931   -23333.865    62.033403    255.18491 
   17900    113.62303   -1450.6667    91181.698     -21622.1     1703.604   -23325.704    62.135652    251.77262 
   17950    114.01436   -940.50075    91182.785   -21645.674    1709.4714   -23355.145    62.075686    252.63974 
   18000    112.40251   -888.83144    91188.666   -21677.648    1685.3042   -23362.952    62.351274    249.06811 
   18050    108.60455   -1436.1762     91143.42   -21709.709    1628.3596   -23338.069    62.538071    240.65238 
   18100    113.44537   -905.63736    91242.561   -21688.885    1700.9403   -23389.825    62.610574    251.37895 
   18150    113.07905   -801.93868    91288.456   -21660.324    1695.4479   -23355.772    62.905852    250.56724 
   18200    113.42775    -1555.022    91295.199   -21669.637    1700.6761   -23370.314    62.936109    251.33991 
   18250     114.3232   -1584.8421    91260.433   -21683.002     1714.102   -23397.104    62.921374    253.32409 
   18300    113.36469   -1295.2873    91207.554     -21712.9    1699.7306   -23412.631    63.139837    251.20017 
   18350    110.16247   -1291.8504    91220.888   -21679.645    1651.7182   -23331.363    63.265457    244.10451 
   18400    109.80558   -1195.7104    91261.379   -21757.463    1646.3671    -23403.83    63.443636    243.31368 
   18450     113.0596   -1512.3991    91241.723   -21755.573    1695.1562   -23450.729    63.369878    250.52413 
   18500    111.75531   -1447.1446    91198.704   -21730.413    1675.6004   -23406.013    63.305881    247.63402 
   18550    111.08103   -1394.6594    91167.403   -21727.893    1665.4906   -23393.383    63.481605    246.13991 
   18600    112.96811    -1425.854    91193.664   -21703.986    1693.7846   -23397.771    63.557661    250.32142 
   18650    115.35801    -1387.517    91223.653    -21707.78    1729.6174   -23437.398    63.688763     255.6171 
   18700    111.29136   -1625.8782     91194.12   -21726.794    1668.6441   -23395.438    63.801916    246.60596 
   18750    111.54576   -1033.0552    91221.505   -21724.488    1672.4585   -23396.947    63.781917    247.16968 
   18800    112.84594    -1584.631    91179.413   -21726.705    1691.9528   -23418.658    63.819871     250.0507 
   18850    112.21213   -1490.3756    91143.167   -21773.063    1682.4498   -23455.512    63.787971    248.64627 
   18900    110.91488   -1221.9717    91111.293   -21762.224    1662.9994   -23425.223    64.056016    245.77173 
   18950    112.69831   -1304.2081    91136.164   -21732.378    1689.7392   -23422.117    64.205129    249.72356 
   19000    115.72791   -980.40968     91182.67   -21707.994    1735.1634   -23443.157    64.085124    256.43673 
   19050    114.76716   -1191.8619    91277.178   -21708.543    1720.7585   -23429.302    64.490858    254.30784 
   19100    111.38513   -1056.7617    91310.899   -21671.785    1670.0502   -23341.835    64.833821    246.81375 
   19150    113.42883   -1020.0703    91294.385   -21690.198    1700.6923    -23390.89    65.000674     251.3423 
   19200    114.71772   -1405.9043    91290.466    -21712.83    1720.0172   -23432.847    65.181583     254.1983 
   19250    110.16327   -1373.8115     91242.65   -21733.279    1651.7301    -23385.01    65.271116    244.10627 
   19300    109.84813   -1340.9072    91178.981   -21768.456    1647.0052   -23415.461    65.616734    243.40798 
   19350    111.62041   -1030.6276    91209.412   -21728.459    1673.5778   -23402.037    65.823423    247.33509 
   19400    114.28993    -1255.292    91271.482   -21721.663    1713.6031   -23435.266    65.691825    253.25037 
   19450    114.75816   -1116.0353    91297.055   -21681.936    1720.6236    -23402.56    65.654783    254.28791 
   19500    111.53742   -1209.7616    91350.725   -21684.096    1672.3334   -23356.429    66.089585    247.15119 
   19550    115.43348   -1361.0489    91430.852    -21701.78    1730.7489   -23432.529    66.158023    255.78432 
   19600    116.27544   -1186.2664    91448.703   -21716.844    1743.3729   -23460.217     66.33873    257.64999 
   19650    115.10421   -1016.0514      91463.7   -21660.414     1725.812   -23386.226    66.563749     255.0547 
   19700    113.89082   -1241.4977    91533.564    -21606.63    1707.6191   -23314.249    66.856838      252.366 
   19750    115.71195   -1287.1641    91522.008   -21631.498    1734.9242   -23366.422    67.141698    256.40137 
   19800    114.05335   -1259.9427    91512.956   -21657.101    1710.0559   -23367.157    67.084122    252.72614 
   19850    111.19185   -1249.3032    91529.488   -21711.189    1667.1521   -23378.341    67.311919    246.38546 
   19900    112.52938   -1381.8791    91433.928   -21676.318    1687.2064   -23363.524    67.407699    249.34924 
   19950    114.78519   -1147.7764    91412.048   -21618.591    1721.0288    -23339.62    67.539358    254.34779 
   20000    117.85351    -1519.464    91363.555   -21592.823    1767.0336   -23359.857     67.86588    261.14676 
   20050    113.47302   -1324.2813    91268.027   -21667.139    1701.3548   -23368.494    68.608293    251.44021 
   20100    112.92877   -1188.0031    91233.022   -21697.775    1693.1947    -23390.97    68.593078    250.23425 
   20150     114.1031   -1410.4032    91205.734   -21716.806     1710.802   -23427.608    68.520461    252.83639 
   20200    115.42735   -1310.3637    91215.632    -21733.49     1730.657   -23464.147    68.634907    255.77073 
   20250    116.49009   -1240.9786    91236.279   -21721.417    1746.5912   -23468.008    68.785053    258.12562 
   20300    115.08351   -1553.8463     91281.11   -21702.586    1725.5016   -23428.088    68.675744    255.00883 
   20350    113.58638   -1070.3427    91301.811   -21686.836    1703.0545    -23389.89    68.557293     251.6914 
   20400    114.24565   -1057.3065     91277.59   -21709.724    1712.9392   -23422.663    68.624587    253.15225 
   20450    115.94414   -1161.4202    91285.493   -21685.865    1738.4056   -23424.271     68.64834    256.91588 
   20500    114.01959   -1166.6465    91266.613   -21694.583    1709.5498   -23404.133    68.630143    252.65134 
   20550    113.29344   -1326.3245    91275.695    -21649.23    1698.6623   -23347.892    69.038588    251.04229 
   20600    113.50917   -1129.2827    91303.305    -21681.96    1701.8968   -23383.857    69.225393    251.52031 
   20650    112.57234   -1276.3564    91321.836   -21662.938    1687.8506   -23350.788    69.406426    249.44444 
   20700    113.47196   -1511.6013    91251.446   -21677.505     1701.339   -23378.844    69.583657    251.43787 
   20750    114.46931   -953.06407    91218.044   -21648.661    1716.2927   -23364.954    69.775936    253.64786 
   20800    115.34603   -1463.4806    91225.556   -21608.998    1729.4377   -23338.436    69.733689    255.59054 
   20850    117.47988   -1225.6739    91211.156   -21602.298    1761.4315   -23363.729    69.916218    260.31884 
   20900    115.83579   -1133.4314    91245.465   -21619.439     1736.781    -23356.22    70.159246    256.67579 
   20950    112.51052   -1458.2097    91232.156   -21689.814    1686.9236   -23376.738    70.265546    249.30745 
   21000    115.29464   -1011.1583     91263.92    -21663.36    1728.6673   -23392.027    70.436791    255.47668 
   21050    114.86782   -1344.2262    91305.007   -21682.341    1722.2677   -23404.609    70.588037    254.53089 
   21100    118.27684   -1220.9862     91344.62   -21649.337    1773.3808   -23422.718    70.744932    262.08481 
   21150    114.50348   -962.11354    91410.473   -21652.752     1716.805   -23369.557    71.115033    253.72357 
   21200    114.59811   -1132.2086     91513.36   -21702.645    1718.2239   -23420.869    71.492804    253.93326 
   21250    112.15252   -1497.6205     91504.84   -21772.908     1681.556   -23454.464    71.658609    248.51418 
   21300    112.89287   -1606.3231    91437.184   -21796.937    1692.6563   -23489.593    71.922934    250.15468 
   21350    112.84945    -1147.614    91450.857   -21798.513    1692.0053   -23490.519    71.935004    250.05846 
   21400    111.27451   -1658.7826    91516.564    -21799.53    1668.3916   -23467.922    72.367228    246.56863 
   21450    112.90137   -1209.2979    91565.637   -21751.755    1692.7839   -23444.539    72.506323    250.17353 
   21500    112.47928   -1501.4352    91534.051   -21771.377    1686.4552   -23457.833    72.882929    249.23823 
   21550    112.67879    -1269.522    91456.278   -21728.232    1689.4466   -23417.678    72.979524    249.68032 
   21600    115.46598   -1215.7973    91484.715   -21733.912    1731.2362   -23465.148    73.122361    255.85633 
   21650    113.62997   -969.33303    91472.925   -21713.731    1703.7081   -23417.439    73.284075      251.788 
   21700    109.60152   -1293.5179    91455.181   -21772.758    1643.3076   -23416.065    73.354831    242.86152 
   21750    113.61102    -967.6691    91473.006   -21753.458     1703.424   -23456.882    73.712787    251.74601 
   21800    114.38158   -1194.5399    91505.545   -21781.114    1714.9773   -23496.091    73.863341    253.45345 
   21850    113.46285   -1391.1131    91479.752   -21819.286    1701.2024   -23520.488    74.176885    251.41768 
   21900    111.35337   -1235.9936     91516.87   -21808.803     1669.574   -23478.377      74.2915    246.74338 
   21950    110.41966   -1141.1483    91496.416    -21850.44    1655.5744   -23506.014    74.413057     244.6744 
   22000    108.01594   -1077.4734    91567.287   -21833.291    1619.5343   -23452.826    74.435242    239.34811 
   22050    113.21639   -1005.4342    91661.798   -21832.093     1697.507     -23529.6    74.573174    250.87155 
   22100    110.37506   -1134.3437    91713.397   -21785.951    1654.9057   -23440.856    74.541905    244.57557 
   22150    113.76199   -1419.3096    91749.212   -21760.591    1705.6875   -23466.278    74.551528    252.08053 
   22200    115.02857   -1240.4105    91843.522   -21732.856     1724.678   -23457.534     74.57155     254.8871 
   22250     111.7794   -1380.7826    91870.311   -21783.522    1675.9616   -23459.484    74.581645    247.68739 
   22300    114.83201   -1161.3419    91918.423   -21768.147    1721.7309   -23489.878    74.700368    254.45156 
   22350    108.77021   -1311.1179    91865.501   -21812.098    1630.8433   -23442.941    74.562153    241.01945 
   22400    113.42281   -1208.1764    91822.567   -21758.944     1700.602   -23459.546    74.803855    251.32896 
   22450    116.20876   -1343.2718    91728.455   -21733.006    1742.3731   -23475.379    75.098006    257.50224 
   22500    113.29039   -1523.9577    91620.277   -21725.923    1698.6166    -23424.54    75.530467    251.03553 
   22550    114.15709   -1525.6692    91559.458   -21699.956    1711.6115   -23411.567    75.428671    252.95602 
   22600    114.34973   -1459.1326    91495.441   -21693.445    1714.4997   -23407.945    75.564867    253.38288 
   22650    116.57461   -1151.6147    91468.616    -21640.44    1747.8584   -23388.298    76.014195     258.3129 
   22700    113.66268   -1361.3892    91449.161     -21702.2    1704.1984   -23406.399    76.135979    251.86047 
   22750    114.21767   -1312.5715    91332.311   -21711.439    1712.5197   -23423.959    76.179406    253.09025 
   22800    115.85715   -1117.7397    91332.154   -21739.744    1737.1013   -23476.845    76.346124    256.72312 
   22850     109.8268   -1329.5727    91389.597   -21742.176    1646.6854   -23388.862    76.979272    243.36071 
   22900    112.34445   -936.86505    91432.902    -21695.46    1684.4336   -23379.894    77.173669    248.93946 
   22950    114.52465   -1406.1564    91457.271   -21679.218    1717.1225   -23396.341    77.167552    253.77049 
   23000    114.03344   -1246.1301    91431.886   -21657.951    1709.7574   -23367.708    77.526719    252.68202 
   23050     112.5853   -1493.7817    91441.665    -21658.72    1688.0448   -23346.765     77.48027    249.47314 
   23100    112.17606   -1460.0724    91380.804   -21717.108    1681.9089   -23399.017        77.64    248.56633 
   23150    116.15313   -1543.1043    91301.335    -21704.68    1741.5389   -23446.218    77.820793    257.37895 
   23200    114.79334   -1094.8113    91309.358   -21687.242     1721.151   -23408.393    78.007751    254.36586 
   23250    115.50539   -1493.6867    91359.812     -21631.8    1731.8271   -23363.627    78.139572    255.94366 
   23300    117.44818   -1344.0502    91371.122   -21663.144    1760.9563   -23424.101    78.103324    260.24861 
   23350    114.94319   -1300.0252     91372.83   -21607.573    1723.3977    -23330.97    78.429661    254.69789 
   23400    112.68511   -1096.9856    91412.763   -21622.067    1689.5414   -23311.608    78.592435    249.69433 
   23450    114.08096    -1363.037    91372.359   -21642.786    1710.4699   -23353.256    78.551183    252.78732 
   23500    114.10205   -1398.3443    91369.556   -21661.229    1710.7862   -23372.016     78.52911    252.83406 
   23550    113.28311   -1058.6828    91367.418   -21657.245    1698.5074   -23355.752    78.778908     251.0194 
   23600    115.86577   -1196.6725    91384.901   -21681.705    1737.2305   -23418.935    78.916765    256.74222 
   23650    115.41851   -1374.3461    91458.146   -21688.569    1730.5245   -23419.094    78.906348    255.75115 
   23700    110.69638   -1477.4992    91450.249   -21708.632    1659.7234   -23368.355    79.583631    245.28758 
   23750    108.34579   -1391.1067    91439.418   -21722.738    1624.4799   -23347.218    79.714721      240.079 
   23800    112.72697   -1508.0022    91409.581   -21699.556     1690.169   -23389.725    79.982734    249.78708 
   23850    114.10622   -1131.7028    91478.506   -21678.414    1710.8487   -23389.263    80.122928     252.8433 
   23900    114.62494   -1161.3193    91562.829   -21679.797    1718.6261   -23398.423    80.355531     253.9927 
   23950    111.96391   -1130.0789    91518.746    -21667.63    1678.7281   -23346.358    80.523023    248.09624 
   24000    112.38638   -1456.7439    91476.402   -21686.564    1685.0623   -23371.626    80.596224    249.03237 
   24050    113.67377   -1411.1902    91399.539   -21693.372    1704.3648   -23397.736    80.838885    251.88506 
   24100    112.29978   -1297.8211    91428.159   -21695.589    1683.7638   -23379.353    80.516764    248.84047 
   24150    111.51509   -1229.6573    91471.355   -21703.734    1671.9986   -23375.732    80.316377    247.10171 
   24200    113.85537    -1461.185    91397.228   -21685.502    1707.0876   -23392.589     80.25188    252.28745 
   24250    112.53834    -1553.201    91328.148   -21707.745    1687.3408   -23395.086    80.210579    249.36911 
   24300    112.56392   -1419.4943    91260.658   -21695.222    1687.7243   -23382.946    80.200373    249.42579 
   24350    113.31236    -1100.895    91295.652   -21688.768     1698.946   -23387.714    80.208886    251.08421 
   24400    111.53388   -1310.6414    91362.248   -21691.868    1672.2803   -23364.148    80.310654    247.14335 
   24450    110.18365   -1378.4164    91345.717   -21696.944    1652.0358    -23348.98    80.375839    244.15144 
   24500    114.60791   -1344.3114    91353.281   -21692.701    1718.3708   -23411.072    80.810821    253.95497 
   24550    111.60684   -1356.9069      91305.8   -21674.269    1673.3743   -23347.644    81.048531    247.30502 
   24600    112.37358   -1035.3717    91296.869   -21669.906    1684.8704   -23354.777    81.050968    249.00401 
   24650    111.73323   -1129.4529    91370.204   -21638.064    1675.2693   -23313.334    81.341941    247.58508 
   24700     111.8665   -1171.1847    91353.239   -21677.472    1677.2675    -23354.74    81.632553    247.88039 
   24750    112.20174    -1304.744    91381.975   -21704.985     1682.294   -23387.279    81.806449    248.62325 
   24800    114.96664   -1637.2109    91340.229   -21664.606    1723.7494   -23388.355    81.943649    254.74986 
   24850    114.52899   -1352.8946     91312.35   -21645.543    1717.1875    -23362.73    82.018423    253.78009 
   24900    113.16782   -1539.1144    91223.653   -21688.116    1696.7789   -23384.894     82.08605    250.76394 
   24950    114.06308   -1633.7627    91146.207   -21699.318    1710.2019    -23409.52    81.771603     252.7477 
   25000    113.62594   -1242.6007    91068.314   -21722.653    1703.6476   -23426.301    82.030366    251.77906 
   25050    111.68543   -1452.4788    91031.699   -21693.362    1674.5526   -23367.914    82.571336    247.47916 
   25100    113.10991   -1007.5985    91168.651   -21689.859    1695.9106   -23385.769    82.742188    250.63562 
   25150    114.84269   -1232.4046    91217.975   -21697.903     1721.891   -23419.794    82.744234    254.47521 
   25200    112.33714   -1642.3541    91229.983    -21677.64     1684.324   -23361.964    82.970632    248.92326 
   25250    111.91604   -1396.0271    91239.816   -21644.879    1678.0103    -23322.89     83.30658    247.99017 
   25300     114.0793   -1193.1133    91279.227   -21632.289     1710.445   -23342.734    83.839945    252.78364 
   25350      113.231   -1419.7472    91328.383   -21662.272    1697.7261   -23359.998    83.918306    250.90394 
   25400    112.91231   -1065.6537    91421.735   -21662.232    1692.9478    -23355.18    83.915854    250.19775 
   25450    114.40393   -1306.5958    91466.971   -21677.808    1715.3124    -23393.12    84.208735    253.50299 
   25500    111.86906   -1196.5171     91471.89   -21688.199     1677.306   -23365.505    84.337136    247.88607 
   25550    115.52167    -1474.528    91470.645   -21661.169    1732.0713    -23393.24    84.398135    255.97974 
   25600    113.28952     -1247.68    91468.964   -21625.864    1698.6035   -23324.467    84.334197     251.0336 
   25650    116.73992   -1441.7849     91458.45   -21592.095    1750.3371   -23342.432    84.472785    258.67921 
   25700    116.05303   -1288.9675    91395.951   -21609.749    1740.0381   -23349.787    84.653811    257.15715 
   25750    114.14254   -1467.0742    91383.204   -21645.619    1711.3933   -23357.012    84.828524    252.92379 
   25800    109.67171    -1092.575    91364.902   -21700.362      1644.36   -23344.722    84.745241    243.01706 
   25850     110.3239    -1439.348    91303.137   -21719.696    1654.1386   -23373.835    84.964763    244.46221 
   25900    110.16946    -1467.496    91280.911    -21729.61    1651.8231   -23381.433    85.183105       244.12 
   25950    111.27543   -1004.8363    91294.451   -21717.449    1668.4053   -23385.854    85.511943    246.57066 
   26000    109.92818   -1400.2077    91349.155   -21705.649    1648.2054   -23353.855    85.737496    243.58536 
   26050    111.15494   -1301.4906    91359.271   -21718.633    1666.5988   -23385.232    86.069667    246.30369 
   26100    111.62646    -1483.465    91401.291   -21664.094    1673.6685   -23337.762    86.430876    247.34851 
   26150    116.20483   -1284.2728    91364.409   -21636.137    1742.3142   -23378.451    86.479625    257.49353 
   26200    113.94752   -1428.4509    91410.908   -21600.442    1708.4693   -23308.911    86.760775    252.49165 
   26250    113.44276   -1544.3569    91425.934   -21605.545    1700.9011   -23306.446    87.175202    251.37315 
   26300    116.52657   -1528.9694    91362.913   -21580.439    1747.1382   -23327.577    87.314335    258.20646 
   26350    116.64369   -1456.4181     91266.42   -21569.669    1748.8942   -23318.563    87.263379    258.46598 
   26400    115.67621   -1104.1095    91238.966   -21599.156    1734.3883   -23333.545    87.221247    256.32217 
   26450    112.28981   -1434.9471    91262.843   -21621.716    1683.6144    -23305.33    87.185366    248.81839 
   26500    113.31111   -1407.1344    91303.665   -21646.549    1698.9272   -23345.477    87.324194    251.08144 
   26550    113.85505   -1647.8651    91236.101   -21627.435    1707.0827   -23334.518    86.990532    252.28673 
   26600    112.88386    -1243.592    91193.035   -21618.279    1692.5212     -23310.8    87.369423    250.13471 
   26650    116.37509   -1310.1727     91179.21    -21642.44    1744.8669   -23387.307    87.439582    257.87079 
   26700    113.54547   -1616.2022    91170.282    -21632.61    1702.4411   -23335.051    87.969452    251.60075 
   26750    113.32835   -1327.2969    91188.299   -21693.522    1699.1857   -23392.708     88.17319    251.11965 
   26800    111.22198   -1345.9261    91180.866   -21703.554    1667.6039   -23371.158    88.014312    246.45222 
   26850    113.30268   -1357.4118    91147.857    -21717.08    1698.8009   -23415.881    88.209411    251.06277 
   26900    111.80994   -847.37191     91114.29   -21718.062    1676.4195   -23394.482    88.013203    247.75506 
   26950    111.48066   -1203.6044    91232.504   -21701.098    1671.4824    -23372.58    88.439274    247.02542 
   27000     110.4002    -1263.829     91254.61   -21716.419    1655.2825   -23371.702    88.146572    244.63127 
   27050    112.80876   -1220.2718    91316.726   -21722.442    1691.3952   -23413.838    88.329939     249.9683 
   27100      114.312    -1271.824    91390.304   -21688.191     1713.934   -23402.125    88.623225    253.29927 
   27150    113.14992    -1312.215    91438.253   -21695.097    1696.5104   -23391.608    88.732135    250.72426 
   27200     112.7942    -1261.297    91431.641   -21712.595     1691.177   -23403.772    88.863511    249.93606 
   27250    111.97749   -1265.6445    91418.202   -21708.022    1678.9317   -23386.954    89.105216    248.12634 
   27300    112.08995   -1394.3589    91445.196   -21709.289    1680.6179   -23389.906    89.510969    248.37553 
   27350    113.66945   -1308.9028    91499.424   -21702.682    1704.3001   -23406.982    89.787973    251.87548 
   27400    112.76015   -1500.7243     91475.84   -21670.756    1690.6664   -23361.422    90.297949    249.86059 
   27450    114.09936   -1292.2926    91497.957   -21705.553    1710.7459   -23416.299     90.27715     252.8281 
   27500    114.06926   -1412.5487    91517.225    -21694.56    1710.2946   -23404.855    90.418501    252.76141 
   27550    113.77802   -1128.1802    91615.935   -21721.813    1705.9278   -23427.741    90.677023    252.11605 
   27600    110.74463   -1597.8065    91672.834   -21753.053    1660.4468     -23413.5    91.239965    245.39448 
   27650    112.75995   -1332.2922    91645.599   -21716.482    1690.6634   -23407.145    91.704668    249.86015 
   27700    113.59714   -1340.6218    91687.301   -21678.377    1703.2158   -23381.592    91.710474    251.71524 
   27750    114.54916   -1075.2063    91696.153   -21693.612      1717.49   -23411.102    91.882381     253.8248 
   27800    111.25305   -1326.4572      91749.2   -21720.882    1668.0698   -23388.952    92.091343    246.52108 
   27850    111.67365   -1472.9836    91749.619   -21734.128    1674.3761   -23408.504    92.251639    247.45307 
   27900    112.12993   -1616.1207    91742.368   -21756.102    1681.2172   -23437.319    92.042481    248.46411 
   27950    110.62085   -1853.7679    91657.642   -21754.781    1658.5909   -23413.372    91.981754     245.1202 
   28000    114.87792   -1777.5923    91561.494   -21781.522    1722.4192   -23503.942    92.134596    254.55329 
   28050    111.76216   -1481.9206    91477.982   -21814.115    1675.7031   -23489.818    92.276955    247.64919 
   28100    112.07416   -1427.3894     91418.33   -21800.148    1680.3811   -23480.529     92.11818    248.34054 
   28150    112.78117   -1492.2212    91351.935   -21773.027    1690.9816   -23464.008    92.151848    249.90717 
   28200    112.50149   -1419.7167    91297.728   -21815.344    1686.7882   -23502.132    92.148779    249.28744 
   28250     112.6296   -1388.8397    91180.792   -21798.127    1688.7091   -23486.836    92.108495    249.57133 
   28300    110.85107   -1443.4092    91186.309   -21822.202    1662.0427   -23484.244    92.373574    245.63035 
   28350    113.26742   -1509.4161    91110.932   -21797.258    1698.2721    -23495.53    92.075124    250.98463 
   28400    111.27177    -1480.929     91023.56   -21756.746    1668.3504   -23425.096     91.90264    246.56255 
   28450    113.44291   -1185.1759     91040.15   -21746.478    1700.9034   -23447.381    92.110976     251.3735 
   28500    108.48775   -1400.7407    91048.466   -21750.014    1626.6084   -23376.622    92.416257    240.39357 
   28550    112.47295   -1033.1071    91118.509   -21738.715    1686.3604   -23425.075    92.481114    249.22421 
   28600    112.05938     -989.637    91181.529    -21761.14    1680.1595   -23441.299    92.540582    248.30779 
   28650    111.72741   -1192.2454    91170.991   -21770.343    1675.1821   -23445.525    92.567708    247.57219 
   28700    112.87545   -1487.9939     91091.42    -21734.49    1692.3952   -23426.885    92.896645    250.11609 
   28750     111.0223    -1117.969    91076.207   -21759.719      1664.61   -23424.329    92.767489    246.00976 
   28800    109.73872   -874.85954    91093.425   -21773.584    1645.3647   -23418.948    93.216508    243.16553 
   28850    112.79517   -1424.3273    91078.214   -21762.842    1691.1915   -23454.033    93.358977    249.93819 
   28900    112.18034   -1478.3472    91070.716    -21761.35    1681.9731   -23443.323    93.735364    248.57583 
   28950    113.44926   -1103.6416    91048.389   -21714.169    1700.9986   -23415.168    93.355009    251.38757 
   29000    112.32499   -1085.4975    91049.329   -21709.671    1684.1419   -23393.813    93.222789    248.89635 
   29050    115.41583   -1244.5093    91085.712   -21699.495    1730.4843    -23429.98    93.462558    255.74521 
   29100    113.10572   -1176.9366    91084.431    -21716.27    1695.8478   -23412.118    93.246963    250.62634 
   29150    108.99693   -1299.7916    91058.763    -21692.07    1634.2426   -23326.312    93.348462    241.52182 
   29200    114.04075   -1058.9248    91072.301   -21677.539     1709.867   -23387.406    93.334371    252.69822 
   29250    117.11335   -1375.5589    91035.509   -21686.443     1755.936   -23442.379    93.267947    259.50667 
   29300    113.72097   -994.63167    91002.846   -21700.929    1705.0725   -23406.001    93.468391    251.98964 
   29350    112.19918   -1374.0467    91054.108   -21704.346    1682.2555   -23386.602    93.750376    248.61756 
   29400    114.48984   -1067.4081    91031.195   -21689.356    1716.6005   -23405.957    94.029965    253.69335 
   29450    115.52904   -1103.3865    91088.722   -21664.044    1732.1817   -23396.226    94.233453    255.99607 
   29500     113.6625   -1098.7575    91029.366   -21692.291    1704.1958   -23396.487    94.403266    251.86008 
   29550    112.74539   -1439.5718    91020.383    -21651.89    1690.4451   -23342.335     94.48856    249.82789 
   29600    111.99278   -1249.9675    90996.868   -21643.082    1679.1609   -23322.243    94.868259    248.16021 
   29650    114.49135   -1430.6357    90939.606   -21636.822    1716.6232   -23353.445    95.080066     253.6967 
   29700    114.72224   -1028.7465    90991.757   -21597.674     1720.085   -23317.759    95.456514    254.20832 
   29750    117.34716   -1194.4842     91026.64   -21599.398    1759.4417    -23358.84     95.47837    260.02477 
   29800    111.25994   -1150.6085    91092.174   -21636.425    1668.1731   -23304.598    95.649495    246.53635 
   29850     115.2403   -1394.2678    91063.584   -21629.931    1727.8525   -23357.783    96.042987    255.35626 
   29900    113.20292   -1500.1024    90991.875    -21663.43     1697.305   -23360.735    96.409682     250.8417 
   29950    114.77588   -1171.3928    90930.272     -21670.9    1720.8893    -23391.79    96.617036    254.32718 
   30000    112.23555   -1370.7272    90964.007   -21677.751    1682.8008   -23360.552    96.590549    248.69815 
   30050    112.44233   -1068.5607    90945.121   -21706.629    1685.9012    -23392.53    96.720526    249.15634 
   30100    112.73719   -1234.1673    90949.355    -21718.64    1690.3222   -23408.962    96.941799    249.80973 
   30150    115.18015    -1324.078    90910.608   -21692.072    1726.9507   -23419.023    97.327407    255.22298 
   30200     115.5236   -1186.1269    90974.159    -21651.79    1732.1002    -23383.89    97.630977    255.98402 
   30250    113.91431    -1245.406    91039.444   -21668.241    1707.9713   -23376.212     97.43644    252.41806 
   30300    115.99028   -1363.3499     91021.11    -21656.11    1739.0973   -23395.207    97.599834     257.0181 
   30350    113.28393   -1366.8896    90920.844   -21720.748    1698.5197   -23419.268    97.661606    251.02122 
   30400    109.85255   -1381.8405    90925.666   -21762.623    1647.0714   -23409.694    98.153311    243.41776 
   30450    111.38596   -1363.8662    90942.698    -21797.96    1670.0625   -23468.022    98.513596    246.81558 
   30500    110.25999   -1402.1858    90957.909   -21751.874    1653.1803   -23405.055    98.563855    244.32059 
   30550    111.56473    -1418.874    90983.437   -21750.609    1672.7429   -23423.352    98.617771    247.21171 
   30600    116.02316   -1279.6755    90953.918   -21723.648    1739.5903   -23463.238    98.642294    257.09097 
   30650    114.55162   -1246.3172    90966.472   -21703.605    1717.5269   -23421.132    98.777988    253.83025 
   30700    114.49794   -1037.9107    90950.527   -21732.156     1716.722   -23448.878     99.13909     253.7113 
   30750     114.1974   -974.85612    91021.638   -21706.606    1712.2158   -23418.822    99.399654    253.04535 
   30800    115.00734   -820.50386    91119.731   -21708.824    1724.3596   -23433.183    99.313001    254.84005 
   30850    115.30471   -954.36109    91230.754   -21669.583    1728.8182   -23398.401    99.237421    255.49898 
   30900    117.42508   -1046.2765    91380.737   -21652.362    1760.6099   -23412.972    99.429696    260.19742 
   30950    115.45438   -903.04011    91525.721   -21674.241    1731.0623   -23405.303    99.324807    255.83062 
   31000    115.53293   -1363.0322    91600.303   -21675.703      1732.24   -23407.943    99.885204    256.00468 
   31050    113.39732   -1249.7785    91610.564   -21728.263    1700.2198   -23428.483    100.05334    251.27247 
   31100    114.64505    -1513.652    91611.983   -21734.455    1718.9277   -23453.382    100.04326    254.03727 
   31150    112.06183   -1169.3671    91524.904   -21739.152    1680.1962   -23419.349    100.22893    248.31323 
   31200    118.10783   -1458.3511    91538.241   -21663.597    1770.8467   -23434.444    100.28496     261.7103 
   31250     113.3664    -1509.072      91508.9   -21706.673    1699.7562   -23406.429    100.60675    251.20396 
   31300    111.03731   -1402.7876    91488.416   -21715.128     1664.835   -23379.963    100.74215    246.04302 
   31350    114.70117   -1145.9533    91487.289     -21716.8    1719.7691    -23436.57    101.03324    254.16162 
   31400    114.40141    -1104.401    91573.221   -21698.591    1715.2746   -23413.866    101.33118    253.49739 
   31450    111.88069   -1422.8511    91633.369   -21741.289    1677.4803   -23418.769    101.56871    247.91184 
   31500    112.27846     -1484.32    91577.487   -21742.193    1683.4443   -23425.637    101.59866    248.79324 
   31550    111.49588   -1246.7038    91559.861   -21802.038    1671.7107   -23473.749    101.51152    247.05916 
   31600    115.46426   -936.47846    91586.112   -21779.352    1731.2104   -23510.562    101.70817    255.85252 
   31650    115.91865   -1124.1478    91638.441   -21791.505    1738.0233   -23529.529    101.83232    256.85938 
   31700    112.56575   -1163.7186    91695.264   -21774.248    1687.7517       -23462    102.00247    249.42983 
   31750    109.88366   -1292.3521     91708.38   -21819.671    1647.5379   -23467.209     102.1827     243.4867 
   31800    109.78603   -1499.5501    91635.416   -21822.539    1646.0741   -23468.613    102.48912    243.27038 
   31850    110.79493   -1312.3689    91565.512    -21820.52     1661.201   -23481.721    102.57323    245.50595 
   31900    113.48092   -1328.1047     91588.97   -21801.831    1701.4732   -23503.304    102.58551    251.45771 
   31950    114.36648   -1155.3284    91561.487    -21793.25     1714.751   -23508.001    102.69072    253.42001 
   32000    114.93515   -1181.6834    91555.111   -21762.631    1723.2773   -23485.908    102.82469    254.68009 
   32050    112.73533   -1118.9596    91520.767   -21781.723    1690.2943   -23472.018    102.90018     249.8056 
   32100     114.4918   -1185.2055    91473.773   -21704.369      1716.63   -23420.999    102.86112     253.6977 
   32150    113.19485   -1394.8946    91340.471   -21748.921    1697.1841   -23446.105    103.12298    250.82383 
   32200    112.85008   -1195.4774    91306.814   -21704.771    1692.0147   -23396.786    103.18882    250.05986 
   32250    111.76492   -976.14221     91359.69   -21684.456    1675.7444     -23360.2    103.35268     247.6553 
   32300    115.30581   -1114.2813    91405.276   -21678.573    1728.8348   -23407.407    103.48067    255.50143 
   32350    109.20916   -1090.1083    91421.074   -21693.421    1637.4247   -23330.846    103.35475     241.9921 
   32400    113.12633   -1204.1149    91460.065   -21691.264    1696.1567    -23387.42    103.43281    250.67199 
   32450    113.42608    -1370.567    91446.092   -21708.425     1700.651   -23409.076     103.8862    251.33619 
   32500    113.54398   -1218.5951    91466.829   -21708.795    1702.4187   -23411.213    104.33262    251.59745 
   32550      114.865   -1505.5931    91446.983   -21712.875    1722.2255     -23435.1     104.6376    254.52465 
   32600    115.20398   -1331.3851    91381.428   -21716.939    1727.3079   -23444.247    104.32304    255.27577 
   32650    112.63282   -1573.2424    91290.309   -21722.275    1688.7573   -23411.033    104.79406    249.57845 
   32700    111.67768   -1528.0437    91201.706   -21742.512    1674.4365   -23416.949    104.82941    247.46201 
   32750    110.89659   -1381.0604    91251.454   -21726.862    1662.7253   -23389.587    104.90885    245.73122 
   32800    111.84773    -1298.379    91182.877   -21739.061    1676.9862   -23416.047    105.35319    247.83881 
   32850    111.36553   -1380.3604    91156.575   -21726.536    1669.7563   -23396.292    105.38531    246.77032 
   32900    111.08949   -1373.2883    91175.419   -21740.463    1665.6174   -23406.081    105.44117    246.15865 
   32950    111.09387   -1342.5422    91192.951   -21761.588    1665.6831   -23427.271    105.69926    246.16835 
   33000    111.52724   -1414.4422    91232.847   -21762.531    1672.1808   -23434.712    105.95439    247.12864 
   33050    110.32012   -1254.0316    91243.724   -21732.377    1654.0819   -23386.459    105.96264    244.45383 
   33100    112.38411    -901.2264    91320.423   -21735.701    1685.0284   -23420.729    106.05732    249.02735 
   33150     112.1097   -1156.8678    91348.463   -21690.983     1680.914   -23371.897    106.44091    248.41929 
   33200    113.91198   -1142.6792    91328.575   -21691.752    1707.9363   -23399.688    106.37766    252.41288 
   33250    110.05845   -1270.8208    91368.107   -21717.066    1650.1586   -23367.225    106.26888    243.87401 
   33300    110.38467   -1261.3141    91381.496    -21726.84    1655.0498    -23381.89    106.43436    244.59688 
   33350    109.48936   -1391.5472    91399.872   -21705.051    1641.6259   -23346.677    106.76021    242.61298 
   33400    112.48015   -1371.4579    91460.406   -21694.422    1686.4683   -23380.891    106.41803    249.24016 
   33450    114.17584    -1601.929    91441.358   -21704.423    1711.8925   -23416.316    106.66498    252.99756 
   33500    114.14231   -1394.4148    91398.733   -21725.331    1711.3899   -23436.721    106.63012    252.92328 
   33550    112.16543   -1658.8304    91300.218   -21718.754    1681.7495   -23400.504    106.72488    248.54277 
   33600    111.73351    -1234.102    91269.394   -21719.439    1675.2735   -23394.713    107.23251    247.58571 
   33650    113.10111   -1366.0506    91246.206   -21695.636    1695.7785   -23391.415    107.27417    250.61611 
   33700    114.60056    -1428.891    91230.024   -21665.097    1718.2605   -23383.357    107.40728    253.93868 
   33750    110.60365   -1202.3696    91233.484   -21732.452     1658.333   -23390.785    107.50915    245.08209 
   33800    111.97598   -1283.2835    91229.711   -21736.635     1678.909   -23415.544    107.57593    248.12299 
   33850    112.28741   -1507.6042     91178.28   -21710.597    1683.5784   -23394.175    107.86919    248.81306 
   33900    112.42233   -1384.2658    91132.596    -21676.73    1685.6013   -23362.331    107.98231    249.11202 
   33950    114.25286   -1284.3875    91033.928   -21645.802    1713.0473   -23358.849    108.37576    253.16823 
[...]
   92000    111.38288   -1213.4767    90819.044   -21621.102    1670.0164   -23291.118    278.14631    246.80877 
   92050    111.80585   -963.56544    90807.148   -21629.409    1676.3582   -23305.768    278.41612    247.74601 
   92100    110.82185   -1429.4935    90746.427   -21669.178    1661.6046   -23330.782    278.75824     245.5656 
   92150    111.94388   -1590.3218    90727.135   -21624.553    1678.4278   -23302.981    278.74527    248.05186 
   92200     113.9455   -1070.6845    90720.115   -21604.732    1708.4389   -23313.171    278.63026    252.48716 
   92250    114.14539   -987.54719    90785.273   -21621.385     1711.436   -23332.821    278.75746    252.93009 
   92300    112.74236   -1189.5249    90817.642   -21634.572    1690.3997   -23324.972     279.1615    249.82118 
   92350    111.39831   -1213.5912    90851.178   -21636.433    1670.2478   -23306.681    279.43961    246.84296 
   92400    113.81972   -1245.3899    90837.914   -21645.083    1706.5531   -23351.637    279.88982    252.20845 
   92450     114.9621   -1155.7995    90863.435   -21637.712    1723.6813   -23361.394    280.27783     254.7398 
   92500      111.727   -1285.8258      90942.2   -21671.927     1675.176   -23347.103    280.10436    247.57129 
   92550    112.79312   -1317.3315    90885.299   -21655.133    1691.1607   -23346.294    280.26437    249.93365 
   92600    113.45631   -1381.0606    90860.681   -21668.164    1701.1043   -23369.268    280.55277    251.40318 
   92650    112.78284   -1261.0737     90812.81   -21686.927    1691.0066   -23377.934    280.52554    249.91087 
   92700    113.16763   -1301.3947    90827.591   -21694.243     1696.776   -23391.019    280.89265    250.76352 
   92750    115.44496   -1533.0771    90753.871   -21648.181    1730.9211   -23379.102    281.17059    255.80976 
   92800    114.22905   -1512.5687    90698.393   -21679.107    1712.6903   -23391.797    281.91175    253.11546 
   92850    115.88056   -1102.1253    90686.937   -21653.903    1737.4523   -23391.355    281.55778    256.77499 
   92900    113.48255   -962.44035    90759.344   -21637.465    1701.4978   -23338.963    281.86844    251.46134 
   92950    111.21574   -1601.9005    90792.548   -21694.435    1667.5103   -23361.945    282.28607    246.43839 
   93000    115.37372    -1255.276    90779.011   -21657.685    1729.8529   -23387.538    282.35938    255.65189 
   93050    113.95907   -1173.7118    90768.813   -21669.717    1708.6424   -23378.359    282.50087    252.51724 
   93100    111.36282   -1308.7051    90787.019   -21669.648    1669.7157   -23339.364    282.18331    246.76432 
   93150    113.18792    -1230.914    90791.732   -21637.149    1697.0802   -23334.229    282.49821    250.80847 
   93200    113.03545   -1117.1386    90778.231   -21645.414    1694.7941   -23340.208    282.70765    250.47062 
   93250    111.00068   -1051.2619    90782.712   -21664.178    1664.2859   -23328.463     282.8462    245.96187 
   93300    111.62229   -1276.1425    90815.993   -21695.929    1673.6059   -23369.535    283.09678    247.33925 
   93350    112.95807   -1239.8607    90776.213   -21696.632    1693.6339   -23390.265     282.9504    250.29915 
   93400    111.91614   -1309.0481    90765.689   -21698.139    1678.0118   -23376.151    282.91854    247.99039 
   93450    110.08563   -1268.5318    90714.213   -21682.373     1650.566   -23332.939    282.82072    243.93423 
   93500     111.1286   -1337.2672    90768.713   -21662.706    1666.2039    -23328.91    282.76887    246.24531 
   93550    114.84088   -1422.1435    90768.094   -21644.787    1721.8638    -23366.65    282.86406     254.4712 
   93600    113.49875   -866.40484    90765.103   -21654.533    1701.7407   -23356.273    282.99238    251.49723 
   93650    115.04743   -1451.2535    90804.259       -21649    1724.9607   -23373.961    283.80941    254.92889 
   93700     113.4242   -1537.5454    90744.262   -21629.254    1700.6228   -23329.877    283.65485    251.33203 
   93750    113.15628   -1153.7895    90735.229   -21629.776    1696.6058   -23326.382    283.29541    250.73836 
   93800    112.27049   -1346.6203    90684.772   -21644.172    1683.3248   -23327.496    283.34791    248.77558 
   93850    114.86417   -1302.8404    90686.641   -21647.501     1722.213   -23369.714    283.93967    254.52281 
   93900    111.90983   -1426.8789    90786.446   -21639.717    1677.9172   -23317.634    283.98246    247.97642 
   93950     114.6613   -1306.2692    90775.684   -21655.811    1719.1713   -23374.983    283.88563    254.07328 
   94000    114.82586   -1428.6134    90757.394   -21705.474    1721.6387   -23427.113    284.56628    254.43793 
   94050    112.49695   -1414.7229    90725.057   -21728.122    1686.7202   -23414.842    284.65637    249.27739 
   94100    112.16024   -1308.9263    90719.834   -21733.457    1681.6718   -23415.129    284.54638    248.53129 
   94150    110.72139   -1220.2039    90710.431   -21720.006    1660.0984   -23380.105    284.47597    245.34299 
   94200    113.14081   -1315.6973    90642.096   -21681.941    1696.3739   -23378.315    284.79142    250.70409 
   94250    109.51049    -1402.452    90573.269   -21684.145    1641.9428   -23326.088    284.46621    242.65982 
   94300    115.48588   -852.49169    90519.795   -21685.017    1731.5345   -23416.551    284.35481    255.90042 
   94350    116.42541    -992.9939    90602.727   -21665.076    1745.6214   -23410.697    285.23788     257.9823 
   94400    114.48767   -1220.9917    90614.605    -21664.44     1716.568   -23381.008      285.089    253.68854 
   94450    113.69624   -1175.2321     90682.35   -21622.736    1704.7016   -23327.438    285.29454    251.93483 
   94500    112.31144   -972.50135    90696.832   -21647.303    1683.9387   -23331.242    285.37128    248.86632 
   94550    114.63497   -1020.0956    90727.376   -21609.512    1718.7765   -23328.289    285.92138    254.01494 
   94600    113.54471   -1255.3946    90719.353   -21603.725    1702.4298   -23306.155    286.17394    251.59908 
   94650     113.0473   -1264.7706    90742.792    -21592.44    1694.9719   -23287.412    286.26075    250.49689 
   94700    117.71564   -1450.8839    90684.582   -21608.718    1764.9664   -23373.685     286.1401    260.84126 
   94750    115.68214   -1136.3726      90723.4    -21610.27    1734.4773   -23344.747    286.27816    256.33532 
   94800    112.71105   -1220.3607    90692.728   -21666.596    1689.9303   -23356.527    286.85547     249.7518 
   94850    111.46583   -894.08067    90677.018   -21664.327      1671.26   -23335.587    287.13337    246.99256 
   94900    114.57514     -1185.56    90747.535   -21641.896    1717.8794   -23359.776    287.08109    253.88236 
   94950    114.12179   -1253.0041    90759.568   -21602.288    1711.0822    -23313.37    287.27861    252.87781 
   95000    113.55089   -1130.7504    90813.117   -21611.854    1702.5223   -23314.377    287.18736    251.61276 
   95050     115.5564   -1293.5493    90901.552   -21612.751    1732.5919   -23345.343    286.98611    256.05669 
   95100    113.75534   -1291.8579    90948.126   -21605.687    1705.5878   -23311.275    287.09322     252.0658 
   95150    112.78941   -1530.5568    90930.467   -21657.346    1691.1052   -23348.451    287.18934    249.92544 
   95200     109.7281   -1318.3272    90859.569   -21672.839    1645.2054   -23318.044    287.23162    243.14199 
   95250    111.66991   -1307.9906    90857.992     -21667.6    1674.3199    -23341.92    287.17272    247.44477 
   95300    113.04864   -1240.3738    90869.381   -21633.324    1694.9919   -23328.316    287.97767    250.49984 
   95350    111.33561   -1101.7571    90933.947     -21629.5    1669.3076   -23298.808    288.31609    246.70402 
   95400    114.16888   -1208.9664    90997.869   -21621.403    1711.7881   -23333.191    288.19794    252.98213 
   95450    113.34771   -1189.7309    90988.454   -21625.926     1699.476   -23325.402    288.68868    251.16255 
   95500    112.09385   -809.52287    91045.743   -21688.202    1680.6763   -23368.878    288.94781    248.38417 
   95550    112.20051   -939.61725    91152.703   -21646.344    1682.2756    -23328.62    288.97292    248.62052 
   95600    110.76036    -1199.733    91218.201    -21669.95    1660.6826   -23330.633    289.02764    245.42934 
   95650    113.70554   -1317.6024    91183.204   -21679.414    1704.8411   -23384.255    289.60851    251.95545 
   95700    112.47459   -898.43499    91215.427   -21695.589     1686.385   -23381.974    289.57811    249.22784 
   95750    113.34359   -1412.0144    91263.788   -21697.931    1699.4142   -23397.345    290.17911    251.15341 
   95800    113.98038   -1161.8931    91354.597   -21691.843    1708.9619   -23400.805    290.13492    252.56446 
   95850    113.09329   -1536.6799    91362.242   -21657.763    1695.6614   -23353.424    290.27168     250.5988 
   95900    112.73344   -1375.1217    91346.287   -21650.064    1690.2659    -23340.33    290.39436    249.80141 
   95950    113.10863   -1338.2172    91259.837    -21643.54    1695.8914   -23339.431    290.69211    250.63278 
   96000    115.09872   -1393.0576    91263.524   -21629.919    1725.7298   -23355.649    291.00782    255.04255 
   96050    111.29328   -1508.7408    91245.522   -21632.095     1668.673   -23300.768    290.70863    246.61022 
   96100     112.4746   -1144.3302    91146.842   -21603.583     1686.385   -23289.968    290.50704    249.22785 
   96150    112.10479   -1617.3981    91119.882   -21638.999    1680.8403    -23319.84    290.51818     248.4084 
   96200    110.62331   -1531.7389    91087.052   -21625.663    1658.6278    -23284.29    290.92123    245.12566 
   96250    112.30501   -1421.5317    91107.188   -21676.153    1683.8423   -23359.995    291.51808    248.85207 
   96300    107.55235    -1293.877    91150.238   -21696.327    1612.5835   -23308.911    291.57525    238.32085 
   96350    110.25216   -1330.5336    91100.736   -21679.123    1653.0629   -23332.186    291.23235    244.30323 
   96400     112.1664   -1405.6494    91090.769   -21662.836     1681.764     -23344.6    291.56423    248.54492 
   96450    115.24717    -1102.623    91189.487   -21647.069    1727.9555   -23375.024    292.05671    255.37147 
   96500    112.66905   -1262.8976    91249.096   -21629.643    1689.3005   -23318.943    292.09795    249.65873 
   96550    117.16695   -1243.4192    91264.198   -21618.607    1756.7397   -23375.347     292.5363    259.62545 
   96600    112.11627   -1218.3437    91253.798       -21648    1681.0125   -23329.012    292.65572    248.43386 
   96650    114.60554   -1491.2076    91265.088   -21636.976    1718.3352   -23355.311    292.93367    253.94971 
   96700    112.88926   -1386.8154     91162.44   -21644.698    1692.6022     -23337.3    292.97369    250.14668 
   96750    113.03056   -1487.8127    91140.213   -21633.319    1694.7208    -23328.04     292.3075    250.45979 
   96800     112.8903   -1296.4978    91164.148   -21599.291    1692.6179   -23291.909    292.61981    250.14899 
   96850    111.28717   -1296.9495    91193.496   -21624.656    1668.5814   -23293.238    293.12814    246.59669 
   96900    109.87512   -1172.4536    91147.938   -21663.456    1647.4099   -23310.866    293.32526    243.46779 
   96950    113.08621   -1415.0566    91158.385   -21652.303    1695.5552   -23347.859    293.76969    250.58309 
   97000    116.83016     -1303.72    91108.062   -21636.489      1751.69   -23388.179    294.17282    258.87916 
   97050     112.3705   -1123.5517    91111.004   -21618.819    1684.8243   -23303.643    294.44721     248.9972 
   97100     114.4352   -1152.7032    91158.047   -21615.326    1715.7812   -23331.107    294.68116    253.57226 
   97150    111.77741   -1431.4694    91231.068   -21621.399    1675.9317   -23297.331    295.18846    247.68298 
   97200    114.90792   -1339.1733    91239.287   -21603.618    1722.8689   -23326.487    294.86566    254.61974 
   97250    117.08899   -1503.0152    91279.052   -21584.073    1755.5708   -23339.643     295.2584     259.4527 
   97300     115.3625   -1234.3655    91268.471   -21584.926    1729.6847   -23314.611    295.36756    255.62704 
   97350    112.67509   -1349.7051    91205.954    -21594.04    1689.3911   -23283.431    295.41378    249.67211 
   97400    113.20456   -1229.4034    91192.001   -21545.811    1697.3297   -23243.141    296.06981    250.84534 
   97450    117.68551   -1278.9305    91104.561   -21541.505    1764.5147    -23306.02    295.83165     260.7745 
   97500    112.38599   -1325.9837    91095.085   -21635.301    1685.0565   -23320.357    296.40327    249.03151 
   97550    111.81756   -1202.1623    91057.248    -21673.32    1676.5337   -23349.854     296.5556    247.77194 
   97600    112.65216   -1518.2285    91066.811   -21657.313    1689.0473    -23346.36    297.06807     249.6213 
   97650     115.2969   -1160.6264    91066.517   -21670.752    1728.7011   -23399.453    296.95668    255.48167 
   97700    111.71357   -1177.6095    91127.996   -21629.104    1674.9745   -23304.079    297.82626    247.54152 
   97750    111.61634    -1174.404    91104.614   -21637.389    1673.5168   -23310.906    298.66761    247.32608 
   97800    114.33433   -861.90166    91152.865    -21635.12    1714.2689   -23349.389    298.49256    253.34876 
   97850    114.13101   -1416.4519    91234.713   -21643.634    1711.2204   -23354.855    298.87246    252.89822 
   97900    114.57853   -1535.8203    91169.724   -21635.403    1717.9303   -23353.333    298.29099    253.88988 
   97950    112.78422   -1452.8837     91139.94   -21643.554    1691.0274   -23334.581    298.25892    249.91394 
   98000    109.78133   -1261.6215    91131.517   -21673.121    1646.0036   -23319.125    298.50788    243.25995 
   98050    116.15792   -930.61731     91254.95   -21684.682    1741.6108   -23426.293    298.83996    257.38957 
   98100    114.04502   -1235.3789    91356.883   -21704.336    1709.9311   -23414.267    299.06362    252.70769 
   98150    116.48861   -1553.5927    91343.001   -21700.721    1746.5691    -23447.29     299.8039    258.12235 
   98200    112.88751     -1515.04    91358.362   -21696.229     1692.576   -23388.805    299.98104    250.14281 
   98250    114.13734   -1149.3001    91366.975    -21699.93    1711.3153   -23411.245    300.73826    252.91226 
   98300    114.62653   -1404.4688    91389.954   -21692.475      1718.65   -23411.125    301.37195    253.99624 
   98350     112.8784    -1575.703    91359.821   -21660.504    1692.4395   -23352.944    301.56324    250.12263 
   98400    113.24785   -1035.3464    91394.289   -21681.407    1697.9787   -23379.385    301.71711    250.94126 
   98450    114.08416   -1078.3509    91478.494    -21712.19    1710.5179   -23422.708    301.77113    252.79441 
   98500    113.31502   -1153.3887    91553.529   -21728.731    1698.9859   -23427.717    301.87034    251.09011 
   98550     111.5122   -1145.5185    91502.686   -21713.437    1671.9553   -23385.393    302.12282    247.09531 
   98600    112.74264   -1197.7349    91466.554   -21729.579    1690.4039   -23419.983    301.38531     249.8218 
   98650    113.70845   -1548.9854    91414.117   -21707.785    1704.8848    -23412.67    301.38252     251.9619 
   98700    114.72036   -1216.5718    91408.529   -21680.111    1720.0569   -23400.168    301.26322    254.20416 
   98750    112.55601   -981.74706    91365.106   -21726.065    1687.6056   -23413.671    301.02957    249.40824 
   98800    111.90596   -1201.1296    91374.626   -21738.921    1677.8592   -23416.781     300.9022    247.96783 
   98850    112.48125   -1200.3668    91403.131   -21722.257    1686.4847   -23408.742    301.44722    249.24259 
   98900    113.25345   -1421.6966    91378.248   -21687.166    1698.0627   -23385.228    301.91571    250.95368 
   98950    111.02878   -1482.7254    91305.055   -21683.094    1664.7072   -23347.801    301.49687    246.02412 
   99000    113.52749   -1229.9283    91301.279   -21642.448    1702.1715    -23344.62    302.28431    251.56091 
   99050    115.13358    -1538.239    91324.321   -21649.087    1726.2524   -23375.339     302.5533    255.11978 
   99100    113.99143   -1197.4091    91354.818   -21657.634    1709.1276   -23366.762    302.62334    252.58894 
   99150    111.60631   -1498.5667    91257.544   -21653.558    1673.3664   -23326.925    303.03549    247.30386 
   99200    112.31726   -1371.1645    91222.309   -21649.619     1684.026   -23333.645    302.78482    248.87922 
   99250    114.55134   -1400.9362    91192.168   -21695.643    1717.5225   -23413.165    302.83504    253.82961 
   99300    110.12692   -1214.6265     91211.55   -21666.768    1651.1852   -23317.953    303.24609    244.02573 
   99350    110.64034   -1041.2962    91287.073   -21721.162    1658.8831   -23380.045    303.44802     245.1634 
   99400    113.22313   -1519.9933    91269.364   -21711.476    1697.6082   -23409.084    303.41767     250.8865 
   99450    113.90186    -1284.249    91272.444   -21735.763    1707.7846   -23443.547    303.20161    252.39046 
   99500    111.69061   -1448.8966    91216.161   -21713.527    1674.6304   -23388.158    303.03577    247.49065 
   99550    113.00123   -1631.4796    91198.284   -21717.117    1694.2811   -23411.398    303.08051     250.3948 
   99600    109.30378   -1545.5567    91214.504    -21720.37    1638.8435   -23359.213    302.81054    242.20177 
   99650    111.15428   -1427.6728    91186.635   -21717.915    1666.5889   -23384.504    302.61213    246.30222 
   99700    112.27816   -1471.0974    91157.925   -21679.458    1683.4397   -23362.898    302.83185    248.79257 
   99750     111.6073   -1337.2878    91205.969   -21695.098    1673.3812   -23368.479    302.96816    247.30605 
   99800    109.93317   -1256.2163    91204.775   -21730.335    1648.2802   -23378.615    303.11198    243.59641 
   99850     111.4316    -1535.522    91217.426   -21727.795    1670.7469   -23398.542     302.7979    246.91672 
   99900    110.98323   -1332.2971    91220.765   -21702.656    1664.0243    -23366.68     302.8649     245.9232 
   99950    110.85028   -1184.1389    91260.077   -21745.665    1662.0309   -23407.696    303.35949     245.6286 
  100000    111.13242   -1458.5829     91314.27   -21746.426    1666.2611   -23412.687    303.81397    246.25377 
Loop time of 42.8515 on 80 procs for 100000 steps with 5031 atoms

Performance: 1008.132 ns/day, 0.024 hours/ns, 2333.639 timesteps/s
100.0% CPU use with 80 MPI tasks x no OpenMP threads

MPI task timing breakdown:
Section |  min time  |  avg time  |  max time  |%varavg| %total
---------------------------------------------------------------
Pair    | 5.873      | 17.561     | 24.464     | 171.4 | 40.98
Neigh   | 0.48232    | 1.2507     | 3.4767     |  95.1 |  2.92
Comm    | 10.741     | 17.049     | 28.349     | 163.7 | 39.79
Output  | 0.12132    | 0.12469    | 0.25898    |   4.3 |  0.29
Modify  | 4.1832     | 5.9938     | 7.5472     |  39.7 | 13.99
Other   |            | 0.8722     |            |       |  2.04

Nlocal:    62.8875 ave 144 max 32 min
Histogram: 60 0 0 0 0 0 0 0 4 16
Nghost:    673.475 ave 835 max 394 min
Histogram: 20 0 0 0 0 0 0 33 7 20
Neighs:    0 ave 0 max 0 min
Histogram: 80 0 0 0 0 0 0 0 0 0
FullNghs:  5917.62 ave 18816 max 1173 min
Histogram: 60 0 0 0 0 0 0 0 0 20

Total # of neighbors = 473410
Ave neighs/atom = 94.0986
Neighbor list builds = 5950
Dangerous builds = 0

write_data		${DIR}/data.eq-${NAME}-${TEMP}
write_data		run_19/data.eq-${NAME}-${TEMP}
write_data		run_19/data.eq-het_freeze_19-${TEMP}
write_data		run_19/data.eq-het_freeze_19-250
undump          1

reset_timestep  0

unfix           2
unfix           3
unfix           4


################################################
#######         Run Simulation         #########
################################################

log				${DIR}/log.run_${NAME}
log				run_19/log.run_${NAME}
log				run_19/log.run_het_freeze_19
