LAMMPS data file via write_data, version 16 Mar 2018, timestep = 8000000

4990 atoms
2 atom types

0.0000000000000000e+00 4.9219999999999999e+01 xlo xhi
0.0000000000000000e+00 4.9019635930410494e+01 ylo yhi
1.0613317473104473e+00 3.8938668252699884e+01 zlo zhi

Masses

1 18.015
2 12.01

Atoms # atomic

3406 1 5.4038552625627689e-01 9.8315377016897199e-01 2.4475093947602149e+00 0 -1 0
942 1 3.6853751296752441e-01 3.3385694466994766e+00 3.6494247242679951e+00 3 -2 0
415 1 5.0942919594313310e+00 8.2504812815874085e-01 2.4440925277597474e+00 3 0 1
2544 1 4.6748211147274148e+00 3.2253461107784567e+00 3.7795299710022681e+00 4 2 0
2933 1 9.4179860927533845e+00 3.3557873298221068e+00 3.6036265653126924e+00 1 0 1
4520 1 9.6550256157440106e+00 7.7305930199676531e-01 2.6125350585068481e+00 0 -1 1
2165 1 2.6146018399807849e+00 4.7817563437467436e+00 2.6829809115563403e+00 3 -5 2
4355 1 2.8698835872246828e+00 7.6023969733910581e+00 3.4681820825464640e+00 3 -3 0
4344 1 7.1744641804703315e+00 4.3925676238950100e+00 2.6342006865899554e+00 2 2 1
2956 1 6.9935740808408937e+00 7.0107576105414466e+00 3.5797208867802963e+00 0 -2 1
3473 1 1.1644863393454676e+01 6.7557669259170092e+00 3.5806639727586020e+00 -1 -2 0
84 1 1.1522305940109588e+01 4.3473582697386624e+00 2.5487612534101283e+00 4 0 1
1274 1 7.2439402978636669e-01 8.8381193080463465e+00 2.5762013021731098e+00 2 0 1
107 1 5.3182063739224938e-01 1.1196452568919325e+01 3.8749256114967814e+00 3 0 0
3794 1 9.9074297816572585e+00 1.0997140511672825e+01 6.1419514851641379e+00 0 0 1
1882 1 5.1279398042234572e+00 8.8322734536063390e+00 2.5006091974981315e+00 1 -3 0
1389 1 5.2371064404616678e+00 1.1277219312739980e+01 3.8561786062774375e+00 -1 3 0
979 1 9.3450570116841458e+00 8.3255818498800931e+00 2.6629606035933118e+00 -1 -3 0
1264 1 9.9211691857931079e+00 1.0818192877847430e+01 3.3983958413967166e+00 2 2 0
974 1 9.4116594201871351e+00 8.5449861252887764e+00 6.8804953410027219e+00 0 3 1
1720 1 2.8240887840626144e-01 3.3364352287793495e+00 6.4808470960469293e+00 1 -1 1
2089 1 6.3067799815194048e-01 9.2348343973307330e+00 1.0025484461257880e+01 0 -2 1
889 1 6.7924632483670866e-01 9.5801976893138963e-01 9.8855841188826901e+00 1 0 0
2960 1 4.5979109885567739e+00 3.3731295721877954e+00 6.6164341756593483e+00 1 1 1
2168 1 5.0809598924103518e+00 7.3774568720960743e-01 7.3687267107426528e+00 -3 -1 1
4251 1 9.4498813207435219e+00 8.7021845527170871e+00 9.7836748105733111e+00 3 4 1
156 1 9.3429094850905354e+00 3.4538936402721063e+00 6.4922915125430372e+00 -2 2 0
1714 1 9.3164505959034738e+00 8.7647692525102849e-01 7.4861180089829196e+00 1 1 0
4633 1 4.9170846617954327e+00 8.9773187078441641e+00 9.8580778093037349e+00 -1 2 0
118 1 2.5366165497590369e+00 7.3494277281711389e+00 6.1281740324953429e+00 1 0 0
930 1 2.3407772203950046e+00 4.9312821094533108e+00 7.2363211694034169e+00 5 5 0
903 1 2.7219449784034908e+00 5.0302064590686122e+00 9.8102697589129590e+00 4 -4 0
1894 1 7.0719381780214707e+00 4.7355639744513702e+00 1.0004865309523405e+01 1 -1 0
2566 1 6.9232799732524120e+00 4.8191284773450196e+00 7.1556116854976652e+00 1 -1 1
1730 1 6.9295808206251932e+00 7.2719257987123420e+00 6.2205833748102490e+00 -1 1 0
2662 1 4.8663639203094472e-01 8.8683869715113079e+00 7.1753171617699634e+00 -1 0 0
1809 1 1.1751563942610989e+01 7.2994908508466141e+00 6.3420714907107740e+00 4 0 0
384 1 5.2687973881993022e+00 9.2177852648465197e-01 9.9454815773783256e+00 -1 -1 1
444 1 1.1637148210593912e+01 4.7890649549427575e+00 7.1009276301680613e+00 -2 -2 1
3861 1 5.5894519895059536e-01 1.1431576506100702e+01 6.7312341550555068e+00 0 0 1
931 1 4.2201863986095633e-01 7.9699290774738041e-01 7.2946553729585020e+00 -1 -1 0
2669 1 4.9909492178534025e+00 1.1258198253058657e+01 6.6813614275986781e+00 0 0 0
2173 1 4.6426718330532486e+00 8.3308712572363497e+00 7.0747423160481997e+00 1 1 0
108 1 1.1688355051051623e+01 4.9928720573958474e+00 1.0100679024199971e+01 2 0 0
4621 1 9.6239507290123569e+00 9.2108186175777773e-01 1.0196820172710249e+01 -1 3 0
4551 1 1.2095102899844409e+01 1.2186835231960458e+01 2.3529514493055332e+00 2 -4 1
4187 1 7.5320815475682146e+00 1.1976969625809335e+01 2.7041141506847177e+00 4 2 0
4668 1 2.5372723767797480e+00 2.3131906770255095e+00 1.3396928330558012e+01 -1 -3 1
3450 1 4.7000123708725405e-01 3.6840409982140456e+00 1.4400839115627942e+01 3 1 0
2159 1 3.0714962663600778e+00 2.3331274950243173e+00 1.0581192381616868e+01 4 -1 1
4560 1 7.1491948800941723e+00 2.1355405099068760e+00 1.4033721510621616e+01 3 0 1
2070 1 4.9578294045152340e+00 3.5428544886028592e+00 1.4339145932664739e+01 4 2 0
4568 1 7.4419208336996290e+00 2.0001113566919320e+00 1.0984494723173357e+01 -2 -4 1
307 2 1.1074500000000002e+01 1.0656442593567498e+01 1.6826632064629930e+01 0 0 0
941 1 9.2868486588008281e+00 3.7188464520834583e+00 1.4690722615140738e+01 -1 4 0
308 2 1.2304999999999998e+01 1.1366872099805333e+01 1.6826632064629930e+01 0 0 0
1842 1 2.6602872527786321e+00 7.6246447544360771e+00 1.4399235299911883e+01 1 1 0
1216 1 2.9457939122881989e+00 1.0582357681576639e+01 1.1039086911826235e+01 3 -1 1
4277 1 9.3679650927265676e+00 6.2332430158425094e+00 1.0636237411797460e+01 4 -1 1
192 1 1.1354511061667795e+01 1.0227779281005049e+01 1.3557142027499136e+01 2 0 0
398 1 5.0787398675301239e+00 6.0711535173160911e+00 1.3378489412274670e+01 -3 1 0
3024 1 7.1573803467315704e+00 7.5473555503064684e+00 1.4286231356462016e+01 -1 0 0
1843 1 1.1584491680294416e+01 7.3890748202954999e+00 1.4291457536705332e+01 -2 -2 0
3409 1 9.3202457446646463e+00 6.1865372184278593e+00 1.3257116775115021e+01 -3 -1 0
3760 1 1.6184543738292448e-01 1.1926803575746099e+01 1.4451984886766994e+01 -1 3 1
479 1 2.6146451040561924e+00 1.0181226129289675e+01 1.3646169883740695e+01 0 0 1
3037 1 6.5255226836083802e-01 6.0867260668926511e+00 1.3533169334506825e+01 -1 1 1
4238 1 4.7967790256386236e+00 6.0991651631939146e+00 1.0702010946038282e+01 0 -1 0
4227 1 7.1242905201442763e+00 1.0176862340120834e+01 1.0752031797002726e+01 -3 -3 0
2950 1 7.2194130345091132e+00 9.9715605735880661e+00 1.3379161777108417e+01 0 -1 1
1347 1 4.8763857042629954e+00 1.1377518977494262e+01 1.3923514637924143e+01 -2 2 0
2912 1 1.1638410932682831e+01 2.4602311904099858e+00 1.1196435774647789e+01 -1 0 0
111 1 1.1453412836225255e+01 2.1409023548410375e+00 1.4046238391570695e+01 1 1 1
1323 1 9.1238560905326942e+00 1.1631472231496700e+01 1.4352665668831834e+01 0 1 0
193 2 0.0000000000000000e+00 2.8417180249513345e+00 1.6826632064629930e+01 0 0 0
194 2 0.0000000000000000e+00 0.0000000000000000e+00 1.6826632064629930e+01 0 0 0
195 2 1.2305000000000001e+00 7.1042950623783474e-01 1.6826632064629930e+01 0 0 0
199 2 1.2305000000000001e+00 2.1312885187134998e+00 1.6826632064629930e+01 0 0 0
200 2 2.4610000000000003e+00 2.8417180249513345e+00 1.6826632064629930e+01 0 0 0
201 2 2.4610000000000003e+00 0.0000000000000000e+00 1.6826632064629930e+01 0 0 0
202 2 3.6915000000000004e+00 7.1042950623783474e-01 1.6826632064629930e+01 0 0 0
210 2 3.6914999999999996e+00 2.1312885187134998e+00 1.6826632064629930e+01 0 0 0
211 2 4.9220000000000006e+00 2.8417180249513332e+00 1.6826632064629930e+01 0 0 0
212 2 4.9220000000000006e+00 0.0000000000000000e+00 1.6826632064629930e+01 0 0 0
213 2 6.1524999999999999e+00 7.1042950623783407e-01 1.6826632064629930e+01 0 0 0
225 2 6.1524999999999999e+00 2.1312885187134989e+00 1.6826632064629930e+01 0 0 0
226 2 7.3829999999999991e+00 2.8417180249513345e+00 1.6826632064629930e+01 0 0 0
227 2 7.3829999999999991e+00 0.0000000000000000e+00 1.6826632064629930e+01 0 0 0
228 2 8.6134999999999984e+00 7.1042950623783407e-01 1.6826632064629930e+01 0 0 0
244 2 8.6134999999999984e+00 2.1312885187135002e+00 1.6826632064629930e+01 0 0 0
245 2 9.8440000000000012e+00 2.8417180249513332e+00 1.6826632064629930e+01 0 0 0
246 2 9.8440000000000012e+00 0.0000000000000000e+00 1.6826632064629930e+01 0 0 0
247 2 1.1074500000000002e+01 7.1042950623783330e-01 1.6826632064629930e+01 0 0 0
267 2 1.1074500000000002e+01 2.1312885187135002e+00 1.6826632064629930e+01 0 0 0
197 2 0.0000000000000000e+00 4.2625770374269996e+00 1.6826632064629930e+01 0 0 0
198 2 1.2305000000000001e+00 4.9730065436648339e+00 1.6826632064629930e+01 0 0 0
206 2 1.2305000000000001e+00 6.3938655561404980e+00 1.6826632064629930e+01 0 0 0
208 2 2.4610000000000003e+00 4.2625770374269996e+00 1.6826632064629930e+01 0 0 0
209 2 3.6914999999999996e+00 4.9730065436648339e+00 1.6826632064629930e+01 0 0 0
221 2 3.6914999999999996e+00 6.3938655561404980e+00 1.6826632064629930e+01 0 0 0
196 2 0.0000000000000000e+00 7.1042950623783341e+00 1.6826632064629930e+01 0 0 0
207 2 2.4610000000000003e+00 7.1042950623783341e+00 1.6826632064629930e+01 0 0 0
223 2 4.9220000000000006e+00 4.2625770374269978e+00 1.6826632064629930e+01 0 0 0
224 2 6.1524999999999999e+00 4.9730065436648339e+00 1.6826632064629930e+01 0 0 0
240 2 6.1524999999999999e+00 6.3938655561404980e+00 1.6826632064629930e+01 0 0 0
242 2 7.3829999999999991e+00 4.2625770374269996e+00 1.6826632064629930e+01 0 0 0
222 2 4.9220000000000006e+00 7.1042950623783341e+00 1.6826632064629930e+01 0 0 0
241 2 7.3830000000000009e+00 7.1042950623783341e+00 1.6826632064629930e+01 0 0 0
243 2 8.6135000000000002e+00 4.9730065436648339e+00 1.6826632064629930e+01 0 0 0
263 2 8.6135000000000002e+00 6.3938655561404980e+00 1.6826632064629930e+01 0 0 0
265 2 9.8440000000000012e+00 4.2625770374270004e+00 1.6826632064629930e+01 0 0 0
266 2 1.1074500000000002e+01 4.9730065436648339e+00 1.6826632064629930e+01 0 0 0
287 2 1.1074500000000002e+01 6.3938655561404980e+00 1.6826632064629930e+01 0 0 0
264 2 9.8440000000000012e+00 7.1042950623783341e+00 1.6826632064629930e+01 0 0 0
218 2 2.4610000000000003e+00 1.1366872099805333e+01 1.6826632064629930e+01 0 0 0
236 2 3.6914999999999996e+00 1.0656442593567499e+01 1.6826632064629930e+01 0 0 0
204 2 0.0000000000000000e+00 8.5251540748539991e+00 1.6826632064629930e+01 0 0 0
205 2 1.2305000000000001e+00 9.2355835810918343e+00 1.6826632064629930e+01 0 0 0
219 2 2.4610000000000003e+00 8.5251540748539991e+00 1.6826632064629930e+01 0 0 0
220 2 3.6915000000000004e+00 9.2355835810918343e+00 1.6826632064629930e+01 0 0 0
203 2 0.0000000000000000e+00 1.1366872099805333e+01 1.6826632064629930e+01 0 0 0
217 2 1.2305000000000001e+00 1.0656442593567498e+01 1.6826632064629930e+01 0 0 0
260 2 7.3829999999999991e+00 1.1366872099805333e+01 1.6826632064629930e+01 0 0 0
261 2 7.3830000000000009e+00 8.5251540748539991e+00 1.6826632064629930e+01 0 0 0
239 2 6.1524999999999999e+00 9.2355835810918343e+00 1.6826632064629930e+01 0 0 0
237 2 4.9220000000000006e+00 1.1366872099805333e+01 1.6826632064629930e+01 0 0 0
259 2 6.1524999999999999e+00 1.0656442593567499e+01 1.6826632064629930e+01 0 0 0
238 2 4.9220000000000006e+00 8.5251540748539991e+00 1.6826632064629930e+01 0 0 0
283 2 8.6134999999999984e+00 1.0656442593567498e+01 1.6826632064629930e+01 0 0 0
262 2 8.6134999999999984e+00 9.2355835810918343e+00 1.6826632064629930e+01 0 0 0
286 2 1.1074500000000002e+01 9.2355835810918343e+00 1.6826632064629930e+01 0 0 0
284 2 9.8440000000000012e+00 1.1366872099805333e+01 1.6826632064629930e+01 0 0 0
285 2 9.8440000000000012e+00 8.5251540748539956e+00 1.6826632064629930e+01 0 0 0
4666 1 5.1104389068318534e-01 6.5046564256599080e+00 1.0872392661814462e+01 1 1 1
2221 1 1.1612365618518011e+01 9.8114016457052671e+00 1.0747459035256698e+01 -6 -2 0
549 2 0.0000000000000000e+00 1.4208590124756650e+00 2.0029604094496733e+01 0 0 0
550 2 0.0000000000000000e+00 0.0000000000000000e+00 2.0029604094496733e+01 0 0 0
554 2 1.2305000000000001e+00 2.1312885187134998e+00 2.0029604094496733e+01 0 0 0
555 2 2.4610000000000003e+00 1.4208590124756650e+00 2.0029604094496733e+01 0 0 0
556 2 2.4610000000000003e+00 0.0000000000000000e+00 2.0029604094496733e+01 0 0 0
564 2 3.6914999999999996e+00 2.1312885187134998e+00 2.0029604094496733e+01 0 0 0
710 2 0.0000000000000000e+00 2.8417180249513345e+00 2.3232576124367863e+01 0 0 0
711 2 0.0000000000000000e+00 0.0000000000000000e+00 2.3232576124367863e+01 0 0 0
712 2 1.2305000000000001e+00 7.1042950623783474e-01 2.3232576124367863e+01 0 0 0
716 2 1.2305000000000001e+00 2.1312885187134998e+00 2.3232576124367863e+01 0 0 0
717 2 2.4610000000000003e+00 2.8417180249513345e+00 2.3232576124367863e+01 0 0 0
718 2 2.4610000000000003e+00 0.0000000000000000e+00 2.3232576124367863e+01 0 0 0
719 2 3.6915000000000004e+00 7.1042950623783474e-01 2.3232576124367863e+01 0 0 0
727 2 3.6914999999999996e+00 2.1312885187134998e+00 2.3232576124367863e+01 0 0 0
553 2 1.2305000000000001e+00 3.5521475311891644e+00 2.0029604094496733e+01 0 0 0
563 2 3.6914999999999996e+00 3.5521475311891644e+00 2.0029604094496733e+01 0 0 0
565 2 4.9220000000000006e+00 1.4208590124756650e+00 2.0029604094496733e+01 0 0 0
566 2 4.9220000000000006e+00 0.0000000000000000e+00 2.0029604094496733e+01 0 0 0
578 2 6.1524999999999999e+00 2.1312885187134989e+00 2.0029604094496733e+01 0 0 0
579 2 7.3829999999999991e+00 1.4208590124756659e+00 2.0029604094496733e+01 0 0 0
580 2 7.3829999999999991e+00 0.0000000000000000e+00 2.0029604094496733e+01 0 0 0
728 2 4.9220000000000006e+00 2.8417180249513332e+00 2.3232576124367863e+01 0 0 0
729 2 4.9220000000000006e+00 0.0000000000000000e+00 2.3232576124367863e+01 0 0 0
730 2 6.1524999999999999e+00 7.1042950623783407e-01 2.3232576124367863e+01 0 0 0
742 2 6.1524999999999999e+00 2.1312885187134989e+00 2.3232576124367863e+01 0 0 0
743 2 7.3829999999999991e+00 2.8417180249513345e+00 2.3232576124367863e+01 0 0 0
744 2 7.3829999999999991e+00 0.0000000000000000e+00 2.3232576124367863e+01 0 0 0
577 2 6.1524999999999999e+00 3.5521475311891644e+00 2.0029604094496733e+01 0 0 0
596 2 8.6134999999999984e+00 2.1312885187135002e+00 2.0029604094496733e+01 0 0 0
597 2 9.8440000000000012e+00 1.4208590124756659e+00 2.0029604094496733e+01 0 0 0
598 2 9.8440000000000012e+00 0.0000000000000000e+00 2.0029604094496733e+01 0 0 0
618 2 1.1074500000000002e+01 2.1312885187135002e+00 2.0029604094496733e+01 0 0 0
745 2 8.6134999999999984e+00 7.1042950623783407e-01 2.3232576124367863e+01 0 0 0
761 2 8.6134999999999984e+00 2.1312885187135002e+00 2.3232576124367863e+01 0 0 0
762 2 9.8440000000000012e+00 2.8417180249513332e+00 2.3232576124367863e+01 0 0 0
763 2 9.8440000000000012e+00 0.0000000000000000e+00 2.3232576124367863e+01 0 0 0
764 2 1.1074500000000002e+01 7.1042950623783330e-01 2.3232576124367863e+01 0 0 0
784 2 1.1074500000000002e+01 2.1312885187135002e+00 2.3232576124367863e+01 0 0 0
595 2 8.6134999999999984e+00 3.5521475311891657e+00 2.0029604094496733e+01 0 0 0
617 2 1.1074500000000002e+01 3.5521475311891644e+00 2.0029604094496733e+01 0 0 0
551 2 0.0000000000000000e+00 5.6834360499026637e+00 2.0029604094496733e+01 0 0 0
552 2 0.0000000000000000e+00 4.2625770374269996e+00 2.0029604094496733e+01 0 0 0
560 2 1.2305000000000001e+00 6.3938655561404980e+00 2.0029604094496733e+01 0 0 0
561 2 2.4610000000000003e+00 5.6834360499026637e+00 2.0029604094496733e+01 0 0 0
562 2 2.4610000000000003e+00 4.2625770374269996e+00 2.0029604094496733e+01 0 0 0
574 2 3.6914999999999996e+00 6.3938655561404980e+00 2.0029604094496733e+01 0 0 0
714 2 0.0000000000000000e+00 4.2625770374269996e+00 2.3232576124367863e+01 0 0 0
715 2 1.2305000000000001e+00 4.9730065436648339e+00 2.3232576124367863e+01 0 0 0
723 2 1.2305000000000001e+00 6.3938655561404980e+00 2.3232576124367863e+01 0 0 0
725 2 2.4610000000000003e+00 4.2625770374269996e+00 2.3232576124367863e+01 0 0 0
726 2 3.6914999999999996e+00 4.9730065436648339e+00 2.3232576124367863e+01 0 0 0
738 2 3.6914999999999996e+00 6.3938655561404980e+00 2.3232576124367863e+01 0 0 0
559 2 1.2305000000000001e+00 7.8147245686161639e+00 2.0029604094496733e+01 0 0 0
573 2 3.6914999999999996e+00 7.8147245686161639e+00 2.0029604094496733e+01 0 0 0
713 2 0.0000000000000000e+00 7.1042950623783341e+00 2.3232576124367863e+01 0 0 0
724 2 2.4610000000000003e+00 7.1042950623783341e+00 2.3232576124367863e+01 0 0 0
575 2 4.9220000000000006e+00 5.6834360499026637e+00 2.0029604094496733e+01 0 0 0
576 2 4.9220000000000006e+00 4.2625770374269978e+00 2.0029604094496733e+01 0 0 0
592 2 6.1524999999999999e+00 6.3938655561404980e+00 2.0029604094496733e+01 0 0 0
593 2 7.3829999999999991e+00 5.6834360499026637e+00 2.0029604094496733e+01 0 0 0
594 2 7.3829999999999991e+00 4.2625770374269996e+00 2.0029604094496733e+01 0 0 0
740 2 4.9220000000000006e+00 4.2625770374269978e+00 2.3232576124367863e+01 0 0 0
741 2 6.1524999999999999e+00 4.9730065436648339e+00 2.3232576124367863e+01 0 0 0
757 2 6.1524999999999999e+00 6.3938655561404980e+00 2.3232576124367863e+01 0 0 0
759 2 7.3829999999999991e+00 4.2625770374269996e+00 2.3232576124367863e+01 0 0 0
591 2 6.1524999999999999e+00 7.8147245686161639e+00 2.0029604094496733e+01 0 0 0
739 2 4.9220000000000006e+00 7.1042950623783341e+00 2.3232576124367863e+01 0 0 0
758 2 7.3830000000000009e+00 7.1042950623783341e+00 2.3232576124367863e+01 0 0 0
614 2 8.6135000000000002e+00 6.3938655561404980e+00 2.0029604094496733e+01 0 0 0
615 2 9.8440000000000012e+00 5.6834360499026637e+00 2.0029604094496733e+01 0 0 0
616 2 9.8440000000000012e+00 4.2625770374270004e+00 2.0029604094496733e+01 0 0 0
637 2 1.1074500000000002e+01 6.3938655561404980e+00 2.0029604094496733e+01 0 0 0
760 2 8.6135000000000002e+00 4.9730065436648339e+00 2.3232576124367863e+01 0 0 0
780 2 8.6135000000000002e+00 6.3938655561404980e+00 2.3232576124367863e+01 0 0 0
782 2 9.8440000000000012e+00 4.2625770374270004e+00 2.3232576124367863e+01 0 0 0
783 2 1.1074500000000002e+01 4.9730065436648339e+00 2.3232576124367863e+01 0 0 0
804 2 1.1074500000000002e+01 6.3938655561404980e+00 2.3232576124367863e+01 0 0 0
613 2 8.6135000000000002e+00 7.8147245686161639e+00 2.0029604094496733e+01 0 0 0
636 2 1.1074500000000002e+01 7.8147245686161639e+00 2.0029604094496733e+01 0 0 0
781 2 9.8440000000000012e+00 7.1042950623783341e+00 2.3232576124367863e+01 0 0 0
557 2 0.0000000000000000e+00 9.9460130873296642e+00 2.0029604094496733e+01 0 0 0
558 2 0.0000000000000000e+00 8.5251540748539991e+00 2.0029604094496733e+01 0 0 0
571 2 2.4610000000000003e+00 9.9460130873296642e+00 2.0029604094496733e+01 0 0 0
572 2 2.4610000000000003e+00 8.5251540748539991e+00 2.0029604094496733e+01 0 0 0
721 2 0.0000000000000000e+00 8.5251540748539991e+00 2.3232576124367863e+01 0 0 0
722 2 1.2305000000000001e+00 9.2355835810918343e+00 2.3232576124367863e+01 0 0 0
736 2 2.4610000000000003e+00 8.5251540748539991e+00 2.3232576124367863e+01 0 0 0
737 2 3.6915000000000004e+00 9.2355835810918343e+00 2.3232576124367863e+01 0 0 0
569 2 1.2305000000000001e+00 1.2077301606043163e+01 2.0029604094496733e+01 0 0 0
570 2 1.2305000000000001e+00 1.0656442593567498e+01 2.0029604094496733e+01 0 0 0
587 2 3.6914999999999996e+00 1.2077301606043163e+01 2.0029604094496733e+01 0 0 0
588 2 3.6914999999999996e+00 1.0656442593567499e+01 2.0029604094496733e+01 0 0 0
720 2 0.0000000000000000e+00 1.1366872099805333e+01 2.3232576124367863e+01 0 0 0
734 2 1.2305000000000001e+00 1.0656442593567498e+01 2.3232576124367863e+01 0 0 0
735 2 2.4610000000000003e+00 1.1366872099805333e+01 2.3232576124367863e+01 0 0 0
753 2 3.6914999999999996e+00 1.0656442593567499e+01 2.3232576124367863e+01 0 0 0
589 2 4.9220000000000006e+00 9.9460130873296642e+00 2.0029604094496733e+01 0 0 0
590 2 4.9220000000000006e+00 8.5251540748539991e+00 2.0029604094496733e+01 0 0 0
611 2 7.3830000000000009e+00 9.9460130873296642e+00 2.0029604094496733e+01 0 0 0
612 2 7.3830000000000009e+00 8.5251540748539991e+00 2.0029604094496733e+01 0 0 0
755 2 4.9220000000000006e+00 8.5251540748539991e+00 2.3232576124367863e+01 0 0 0
756 2 6.1524999999999999e+00 9.2355835810918343e+00 2.3232576124367863e+01 0 0 0
778 2 7.3830000000000009e+00 8.5251540748539991e+00 2.3232576124367863e+01 0 0 0
609 2 6.1524999999999999e+00 1.2077301606043163e+01 2.0029604094496733e+01 0 0 0
610 2 6.1524999999999999e+00 1.0656442593567499e+01 2.0029604094496733e+01 0 0 0
754 2 4.9220000000000006e+00 1.1366872099805333e+01 2.3232576124367863e+01 0 0 0
776 2 6.1524999999999999e+00 1.0656442593567499e+01 2.3232576124367863e+01 0 0 0
777 2 7.3829999999999991e+00 1.1366872099805333e+01 2.3232576124367863e+01 0 0 0
634 2 9.8440000000000012e+00 9.9460130873296642e+00 2.0029604094496733e+01 0 0 0
635 2 9.8440000000000012e+00 8.5251540748539956e+00 2.0029604094496733e+01 0 0 0
779 2 8.6134999999999984e+00 9.2355835810918343e+00 2.3232576124367863e+01 0 0 0
802 2 9.8440000000000012e+00 8.5251540748539956e+00 2.3232576124367863e+01 0 0 0
803 2 1.1074500000000002e+01 9.2355835810918343e+00 2.3232576124367863e+01 0 0 0
632 2 8.6135000000000002e+00 1.2077301606043163e+01 2.0029604094496733e+01 0 0 0
633 2 8.6134999999999984e+00 1.0656442593567498e+01 2.0029604094496733e+01 0 0 0
655 2 1.1074500000000002e+01 1.2077301606043163e+01 2.0029604094496733e+01 0 0 0
656 2 1.1074500000000002e+01 1.0656442593567498e+01 2.0029604094496733e+01 0 0 0
800 2 8.6134999999999984e+00 1.0656442593567498e+01 2.3232576124367863e+01 0 0 0
801 2 9.8440000000000012e+00 1.1366872099805333e+01 2.3232576124367863e+01 0 0 0
824 2 1.1074500000000002e+01 1.0656442593567498e+01 2.3232576124367863e+01 0 0 0
825 2 1.2304999999999998e+01 1.1366872099805333e+01 2.3232576124367863e+01 0 0 0
1849 1 2.6955113347888049e+00 1.1443284097532025e+00 2.5722135424269922e+01 2 -2 0
77 1 1.1535232309019296e+01 9.0319724238641523e+00 2.5560581000068748e+01 1 4 0
1779 1 5.9758223780348751e-01 3.8462821637374894e-01 2.9287153668905049e+01 4 1 0
4240 1 7.4098967554028645e+00 1.4100674968642977e+00 2.5661179263714217e+01 -2 7 -1
1749 1 7.1615406750383492e+00 1.1551137143364739e+01 2.8787022626688167e+01 1 0 0
977 1 1.1694759493045069e+01 1.1665335825355950e+01 2.6477904025401877e+01 -4 2 -1
2952 1 5.4445040913022513e-01 7.8746998696040276e+00 2.9460418316941496e+01 2 -1 -1
1242 1 5.0325105289476149e+00 7.8822718047005855e+00 2.9454637933335672e+01 -2 1 0
3787 1 3.0232565467578851e+00 3.7692879801574941e+00 2.6616428624196157e+01 1 3 0
2999 1 7.8843606397909316e-01 4.9500177057396835e+00 2.5691107623873787e+01 -2 2 0
917 1 5.6839202642455178e-01 7.5542214511795249e+00 2.6662325468746889e+01 2 -2 -1
4374 1 1.1800452806081109e+01 3.8383874694064035e+00 2.6741319220208251e+01 3 -3 -1
1759 1 7.2953548306463620e+00 3.9473266076195825e+00 2.6691978460804968e+01 -2 -2 0
2068 1 5.2920201283334745e+00 5.0976591419885278e+00 2.5598331221132636e+01 -1 -2 -1
1803 1 4.7848139038740607e+00 7.7416704154737017e+00 2.6577748147250205e+01 3 4 -1
2235 1 1.1770126046112345e+01 1.2810844656578617e+00 2.5643320520816353e+01 1 4 0
3878 1 2.8320369513575361e-01 6.2671603887786542e-03 2.6382730830508038e+01 0 3 0
4686 1 9.5944281062031820e+00 5.1011709096207625e+00 2.5718313293292809e+01 -3 0 0
428 1 2.6677802453725414e+00 1.1624244270128829e+01 2.6485103122862050e+01 6 2 0
435 1 2.6246423865094632e+00 9.0339291327704014e+00 2.5647100071494791e+01 2 3 0
1811 1 2.9577094002066406e+00 3.9780821380202762e+00 2.9339777265789142e+01 -1 -1 -1
4184 1 9.3061952340170766e+00 7.6550592451893253e+00 2.6439430636507456e+01 -2 4 -1
4337 1 7.1719087129274639e+00 8.8591831641018643e+00 2.5257151082390834e+01 3 -7 -1
2888 1 6.9976197203642547e+00 1.1492885795761424e+01 2.6073819672172121e+01 4 3 -1
3783 1 1.1962964158285917e+01 4.1535193214414541e+00 2.9159458051260341e+01 -1 0 0
543 1 9.4259594000999591e+00 1.0255238992639421e-01 2.9227849000010217e+01 1 1 1
3057 1 9.5491816649744035e+00 7.9937124481598980e+00 2.9204719457916489e+01 0 -3 0
2160 1 1.1782621542186874e+01 1.1505706106157653e+01 2.9123946480915315e+01 -3 0 -1
3486 1 2.6574850723887220e+00 1.1633766041640554e+01 2.9202058936555975e+01 -2 1 0
1007 1 5.0227249433187877e+00 5.4371415732905638e-02 2.6321389242193401e+01 2 1 -1
1342 1 5.1278457384966263e+00 1.1740074124494873e-01 2.9193955513402368e+01 0 1 1
2647 1 7.6109236166410570e+00 4.0606026827033954e+00 2.9411318749104002e+01 2 -1 -1
1740 1 5.4497654134407969e-01 3.0459666771614633e+00 3.3041845309830308e+01 3 -4 -1
3448 1 7.3919939758202446e-01 2.7355575890846375e+00 3.0341857888127237e+01 -3 -1 -1
3502 1 2.6689997277476865e+00 1.6384369140494961e+00 3.4026036302874431e+01 0 -3 -1
1255 1 1.1690085618928183e+01 9.3465104548256228e+00 3.6996665064895176e+01 0 -2 0
31 1 4.8653671091601884e+00 2.7588554914242072e+00 3.3076418820934244e+01 -1 4 0
1783 1 5.1107737560916426e+00 2.7144514111063298e+00 3.0429267451905730e+01 4 5 -1
408 1 7.4942102901009768e+00 1.5065699867857909e+00 3.3580446156952462e+01 4 -1 0
2102 1 9.5055432899633985e+00 2.9351596037997991e+00 3.2703845736111937e+01 -2 1 -1
1227 1 9.6974614353614434e+00 2.6907514298157698e+00 2.9769433711720971e+01 -2 -2 0
171 1 2.5591295355185988e+00 6.6236924634695011e+00 3.3040617073521176e+01 -3 -4 -1
1326 1 2.9169806295814329e+00 6.5961518084957156e+00 3.0416836665185478e+01 2 4 -1
4275 1 4.6102365066744655e-01 5.5320195828728780e+00 3.4067730133504448e+01 -5 -4 -1
2689 1 2.5807602928123581e+00 9.7634110023434957e+00 3.6704120484294954e+01 0 1 -1
2617 1 7.0845985232240354e+00 6.7377076586325133e+00 3.2998443261427937e+01 2 -2 -1
472 1 7.5425723214385139e+00 6.5930638110334563e+00 3.0193405118951130e+01 2 4 0
2614 1 4.9186638133582612e+00 5.2768704058723115e+00 3.3919402043697637e+01 3 1 0
1386 1 1.1551882289551303e+01 4.0581019530399818e+00 3.7794526695804841e+01 -2 -2 0
3860 1 1.1809131460031054e+01 6.5966772203425794e+00 3.0283371141600931e+01 3 -1 0
75 1 9.2676627045914444e+00 5.2321070634942952e+00 3.4061388890974825e+01 -2 0 0
3047 1 1.1587798988517564e+01 6.7464830957169868e+00 3.3167346326915926e+01 1 5 -1
4697 1 2.7762886308088336e-01 1.0329419666425064e+01 3.3038899565178461e+01 1 1 -1
2905 1 2.4669755614361571e-01 1.0567314968184926e+01 3.0367863881461904e+01 0 -2 -1
1307 1 4.8300133400550171e+00 1.0428110982062812e+01 3.0206954274232743e+01 -1 0 -1
448 1 4.8439376705109964e+00 1.0298887273996922e+01 3.3092103530540271e+01 -5 0 0
3394 1 7.1710367767717260e+00 9.3122073704231667e+00 3.3963745052412847e+01 1 5 -1
120 1 1.1624172434372602e+01 9.1065773632049858e+00 3.4031195395772542e+01 -4 -2 -1
1717 1 9.2927495394783950e+00 1.0384380383139401e+01 2.9860452600771179e+01 -1 -2 -1
470 1 9.3431256858254041e+00 1.0285329793743180e+01 3.2705617256805610e+01 -2 4 0
2075 1 6.9760701032789196e+00 9.6295986455114857e+00 3.6497977649300921e+01 0 0 -1
518 1 5.8669161683737947e-01 6.6715726131987352e-01 3.7583468627212760e+01 5 0 0
2707 1 2.8606367718934225e+00 2.0092644946669775e+00 3.6851872964788811e+01 1 0 -1
947 1 5.3156798124847224e+00 6.3842005610600305e-01 3.7595814813970257e+01 0 2 -1
1356 1 7.4414585375596278e+00 2.1033612817530174e+00 3.6486303414334998e+01 -1 2 -1
3053 1 1.2003504924159321e+01 1.5211519657467540e+00 3.3405129228034376e+01 1 -2 0
1243 1 9.4139145595240414e+00 9.2452867257134608e-01 3.7579803695586705e+01 5 2 -1
429 1 1.1625599619440061e+01 1.4950091094539624e+00 3.6348770427177854e+01 1 -2 0
3870 1 2.6727736274875995e+00 4.3499409828646751e+00 3.7746979263871481e+01 1 -1 -1
4357 1 5.1225249299209885e-01 5.9154091470272210e+00 3.6725148196832343e+01 -1 2 -1
4325 1 6.8815731998701626e+00 4.6368805137954148e+00 3.7766351213345551e+01 0 8 0
3421 1 4.8404481844704970e+00 5.8194726646063861e+00 3.6670929818438516e+01 6 -2 1
2677 1 4.7764408409000616e+00 8.3709474872309269e+00 3.7613658863361294e+01 -1 0 -1
4519 1 9.3905367365596515e+00 5.6449393006970912e+00 3.6907191325281389e+01 1 -3 0
1854 1 7.2267865989033302e+00 1.1987203480493751e+01 3.7731958412309297e+01 0 4 -1
883 1 9.1201741104955616e+00 8.3438988678630057e+00 3.7645622513560610e+01 3 1 -1
114 1 2.6106776910080427e+00 9.0068078008434735e+00 3.4088217588915825e+01 1 2 -1
451 1 4.9466854736146143e-01 8.3874043433133387e+00 3.7614462390942421e+01 0 2 0
2099 1 1.1813256009754911e+01 1.1949954623739758e+01 3.7416576298843076e+01 2 0 0
1872 1 2.8042936541809076e+00 1.2129107545137432e+01 3.7914679277820973e+01 0 2 -1
2185 1 2.9174711644652618e+00 1.4964537296728921e+01 3.2729365121753875e+00 4 0 1
1 1 6.5930818788126933e-01 1.6278849629174069e+01 2.6840621520487078e+00 4 -1 0
4332 1 7.7115288071953190e+00 1.4604580997874864e+01 3.3116764595975559e+00 1 0 0
414 1 5.4480803215291393e+00 1.5836958479938161e+01 2.6355340976332977e+00 -1 0 0
1841 1 2.9711057465534996e+00 1.3258782062909987e+01 1.0460225769594725e+01 5 -5 1
504 1 1.2302616256324585e+01 1.4673078458193304e+01 3.3974137071877588e+00 1 -1 1
3853 1 1.0002944017016510e+01 1.5913324719672362e+01 2.5046639278563001e+00 1 1 1
2237 1 2.6672935159384434e+00 1.9640109152709105e+01 2.1961841639813935e+00 2 -3 1
1222 1 4.8708152257890036e-01 1.8862013931403009e+01 3.4424084269109176e+00 0 2 0
1244 1 4.9253709249143460e+00 1.8456126424837528e+01 3.3154228766003366e+00 3 0 0
2957 1 7.5749481900620044e+00 1.9492971733687018e+01 2.3138885988969458e+00 3 0 0
3021 1 9.9019843778700078e+00 1.8835483603136691e+01 3.4954538640953490e+00 2 -1 1
455 1 2.9171854553706318e+00 1.2279424601732913e+01 2.7371912270464009e+00 -2 -1 1
9 1 3.7427214210638402e+00 2.2025523956577810e+01 3.0515829559754883e+00 -2 2 1
1821 1 2.7949873846573809e+00 2.3036173952153053e+01 5.4173187586036242e+00 3 1 0
2563 1 6.5014143699357589e+00 2.2129924084169414e+01 3.1430283895148210e+00 1 0 1
1864 1 1.1929676437208599e+01 2.0291261217639850e+01 7.0012462270334153e+00 -1 0 0
2091 1 1.1513522840740857e+01 2.2945069101849331e+01 5.9734537333050444e+00 -1 -2 1
2564 1 7.1341459635501048e+00 2.0737546173578359e+01 6.9445530366905839e+00 -1 1 0
2163 1 2.8553089763539132e+00 1.5369755696311303e+01 6.1163571059849708e+00 0 -2 1
1719 1 6.2391871276749555e-01 1.6540617216735441e+01 7.4889786754736241e+00 -1 -3 0
1852 1 1.0638915262059227e+01 2.4142428133421106e+01 9.3075568477892130e+00 3 1 0
354 1 7.7197692050969353e+00 1.2376263643926068e+01 7.0916104478507060e+00 1 -1 0
3454 1 7.7778364399090405e+00 2.0973566050023834e+01 9.5591911746581619e+00 0 -4 0
1302 1 7.4602443902502316e+00 1.2487430292682717e+01 9.8757916533130636e+00 -1 2 0
4353 1 7.1715782799186929e+00 1.4938842701790772e+01 6.1522783621615540e+00 1 -2 0