LAMMPS data file via write_data, version 16 Mar 2018, timestep = 100000

4990 atoms
2 atom types

0.0000000000000000e+00 4.9219999999999999e+01 xlo xhi
0.0000000000000000e+00 4.9019635930410494e+01 ylo yhi
2.1151363865472170e+00 3.7884863613454264e+01 zlo zhi

Masses

1 18.015
2 12.01

Atoms # atomic

390 1 4.1837378305537349e+00 5.6800085866536829e+00 1.0574624520316513e+01 0 0 1
3051 1 4.5545332822034584e-01 2.8106578155884057e+00 5.9093126437403782e+00 0 0 1
156 1 1.1376507044573790e+01 5.5852537921136125e-01 3.1437440697900185e+00 -1 0 0
2555 1 6.4228143635398300e+00 2.3175980278045283e+00 3.6788365143227146e+00 1 1 1
2610 1 1.1690595344529328e+01 7.2988759384677611e+00 9.2956300647961498e+00 0 0 0
2993 1 7.2923387687504722e+00 7.4019571851010122e+00 2.2744931657020588e+00 0 -1 1
2980 1 9.7693687295611813e+00 2.7519303847500463e+00 4.3540351737170919e+00 0 1 1
4333 1 9.8955709266822964e+00 2.9486945062541459e+00 8.5281957441635150e+00 0 0 0
3875 1 7.6812417021855461e+00 4.5430546588357288e+00 5.2650564930347850e+00 1 0 1
3056 1 8.3954328058057968e+00 1.6727450923077449e+00 6.3663365256737254e+00 2 0 1
1214 1 3.2220232251163354e+00 6.3096546218797656e+00 5.5388326481152870e+00 1 0 1
529 1 7.6936972541900184e-01 7.0751669549171297e+00 5.3845490645214085e+00 1 1 1
4226 1 1.0150482962331454e+01 5.7038603814152609e+00 7.3734568790917203e+00 0 0 0
1803 1 4.4213645597003453e+00 6.2261230944001040e+00 2.9430230143190013e+00 0 0 0
4382 1 7.9971054361494485e+00 1.1007684155014090e+01 1.0843770903672336e+01 1 0 0
351 1 1.0042307415920412e+01 9.4712630459285272e+00 4.3557903193585306e+00 0 -1 1
3431 1 9.5973649790617444e+00 5.7958944250695836e+00 3.0440622822989472e+00 -1 0 1
4536 1 5.1933592890495879e+00 8.8110632863199516e+00 6.1313681328317378e+00 1 0 1
4293 1 7.2265471251088957e+00 1.0056268352700577e+01 8.2172376626119537e+00 0 0 0
2129 1 4.7484403353344886e+00 9.2431799671571557e+00 3.5868187295692602e+00 0 0 0
869 1 7.8167888486610904e-01 8.0850215425352161e+00 2.4762678559715203e+00 0 -1 1
2994 1 7.6181641401537110e+00 7.5898480506479578e+00 5.2176824024185802e+00 0 1 1
1840 1 2.8739468750083601e+00 3.5475180866800113e+00 6.7340497724830044e+00 0 1 0
1284 1 1.6940406022146577e+00 1.2422199090155888e+00 4.0698386036731122e+00 0 0 1
1854 1 4.2272642666923961e+00 1.5594193842588657e+00 5.5048910493224925e+00 1 1 0
421 1 7.1989551161308922e+00 1.3421091274726318e+00 9.7054235761360239e+00 1 0 0
876 1 5.4603187515432579e+00 1.1885806231443750e+01 2.5277354286752756e+00 0 0 0
2876 1 2.1959790092535938e+00 1.0312729974833074e+01 2.8307940925025710e+00 0 -1 0
1382 1 9.5676507158339739e+00 1.1484530063632036e+01 6.7706789842256141e+00 -1 0 0
3416 1 7.7784341876492906e+00 7.0190315147965796e+00 8.0185407960050803e+00 1 1 -1
521 1 5.0084110076889274e+00 5.7631286753383932e+00 7.8549322772091212e+00 1 0 0
3767 1 6.1747482249043060e+00 2.8310629857331748e+00 7.7112236568811285e+00 0 1 0
3809 1 3.1780129251397620e+00 9.7865782191013206e+00 1.0336437437727247e+01 1 1 2
2713 1 1.2273641409643728e+01 3.8284539425427564e+00 5.8114919422440021e+00 0 0 0
3878 1 1.1523406575742175e+01 7.1502390762059767e+00 5.2600833225081205e+00 1 0 1
1016 1 1.3303784540504691e+00 1.0212875871898285e+01 6.0952913527512314e+00 1 1 0
2723 1 3.5993984374872245e+00 1.0628399809174610e+01 7.6507028736183020e+00 1 0 0
902 1 8.5822764726961260e+00 1.1926416694032140e+01 2.9661850959412037e+00 0 1 0
100 1 1.2132266484218883e+01 1.0635989192860787e+01 2.3747523900251517e+00 1 -1 0
134 1 1.9726956285175825e+00 7.3161799088805255e+00 1.0820142412169169e+01 1 0 1
2074 1 1.2023953287142588e+01 1.5053988097896567e+00 7.7852545915867939e+00 1 1 0
41 1 1.4138640702898722e+00 2.5133567918976429e+00 1.0306332896154107e+01 1 1 1
377 1 8.9172598201845972e+00 6.9173433788624150e+00 1.0879607802934215e+01 0 0 1
2973 1 1.0697643073759187e+01 4.6392785400475374e+00 1.1331219577222800e+01 1 1 1
363 1 2.3931885852022892e+00 3.2883640560882688e+00 1.4495980429216228e+01 0 0 0
262 2 8.6134999999999984e+00 9.2355835810918343e+00 1.7003207830546543e+01 0 0 0
3521 1 5.7578180942981101e+00 9.9980227302663547e+00 1.1620384435564727e+01 0 0 0
2983 1 6.9085486971427557e+00 1.5979428709018721e+00 1.4381669127260876e+01 1 1 1
1358 1 5.1643657657540523e+00 4.0162874060592229e+00 1.4373086846622824e+01 0 -1 1
3773 1 6.2991972856478586e+00 7.0881372328268570e+00 1.1697995972394230e+01 1 1 2
285 2 9.8440000000000012e+00 8.5251540748539956e+00 1.7003207830546543e+01 0 0 0
1272 1 9.5592121410821154e+00 2.1992969888552478e+00 1.3970322908971692e+01 1 -1 0
1391 1 1.1839286435417112e-01 5.2393570165748500e+00 1.4634560677301380e+01 0 0 1
2053 1 3.6847318875126174e+00 3.1429667701174862e+00 1.1684127736452306e+01 1 -1 1
369 1 6.2132139812246034e+00 6.7455721171017382e+00 1.4540612258645478e+01 1 2 1
1250 1 5.2925754612391387e+00 9.9251004305915125e-01 1.1755992007180167e+01 1 1 2
2683 1 1.0799492748140795e+01 4.6956107890315923e+00 1.4036652404557026e+01 0 1 0
1749 1 9.0736947344307808e+00 6.8057825731097523e+00 1.4185823397547455e+01 1 1 1
65 1 1.0083738467940899e+00 1.1160471745945346e+01 1.1278160922906936e+01 0 0 1
79 1 3.9640396268444764e+00 8.2740276096989334e+00 1.4555076183699898e+01 0 1 1
4590 1 1.5982478224038148e+00 7.3788511315838443e+00 1.3575762968659301e+01 1 1 0
3884 1 9.6350590044682498e+00 1.9568342059005579e+00 1.1294353754894502e+01 1 0 0
307 2 1.1074500000000002e+01 1.0656442593567498e+01 1.7003207830546543e+01 0 0 0
286 2 1.1074500000000002e+01 9.2355835810918343e+00 1.7003207830546543e+01 0 0 0
308 2 1.2304999999999998e+01 1.1366872099805333e+01 1.7003207830546543e+01 0 0 0
2669 1 5.4917250145111280e+00 1.0657379218612640e+01 1.4093710168963389e+01 1 0 0
4334 1 9.9728100623988514e+00 9.1487732598779150e+00 1.3748393960088093e+01 1 2 0
60 1 8.0848178762482714e+00 1.1148133022776108e+01 1.4423586854774969e+01 0 0 0
283 2 8.6134999999999984e+00 1.0656442593567498e+01 1.7003207830546543e+01 0 0 0
193 2 0.0000000000000000e+00 2.8417180249513345e+00 1.7003207830546543e+01 0 0 0
194 2 0.0000000000000000e+00 0.0000000000000000e+00 1.7003207830546543e+01 0 0 0
195 2 1.2305000000000001e+00 7.1042950623783474e-01 1.7003207830546543e+01 0 0 0
199 2 1.2305000000000001e+00 2.1312885187134998e+00 1.7003207830546543e+01 0 0 0
200 2 2.4610000000000003e+00 2.8417180249513345e+00 1.7003207830546543e+01 0 0 0
201 2 2.4610000000000003e+00 0.0000000000000000e+00 1.7003207830546543e+01 0 0 0
202 2 3.6915000000000004e+00 7.1042950623783474e-01 1.7003207830546543e+01 0 0 0
210 2 3.6914999999999996e+00 2.1312885187134998e+00 1.7003207830546543e+01 0 0 0
211 2 4.9220000000000006e+00 2.8417180249513332e+00 1.7003207830546543e+01 0 0 0
212 2 4.9220000000000006e+00 0.0000000000000000e+00 1.7003207830546543e+01 0 0 0
213 2 6.1524999999999999e+00 7.1042950623783407e-01 1.7003207830546543e+01 0 0 0
225 2 6.1524999999999999e+00 2.1312885187134989e+00 1.7003207830546543e+01 0 0 0
226 2 7.3829999999999991e+00 2.8417180249513345e+00 1.7003207830546543e+01 0 0 0
227 2 7.3829999999999991e+00 0.0000000000000000e+00 1.7003207830546543e+01 0 0 0
228 2 8.6134999999999984e+00 7.1042950623783407e-01 1.7003207830546543e+01 0 0 0
244 2 8.6134999999999984e+00 2.1312885187135002e+00 1.7003207830546543e+01 0 0 0
245 2 9.8440000000000012e+00 2.8417180249513332e+00 1.7003207830546543e+01 0 0 0
246 2 9.8440000000000012e+00 0.0000000000000000e+00 1.7003207830546543e+01 0 0 0
247 2 1.1074500000000002e+01 7.1042950623783330e-01 1.7003207830546543e+01 0 0 0
267 2 1.1074500000000002e+01 2.1312885187135002e+00 1.7003207830546543e+01 0 0 0
197 2 0.0000000000000000e+00 4.2625770374269996e+00 1.7003207830546543e+01 0 0 0
198 2 1.2305000000000001e+00 4.9730065436648339e+00 1.7003207830546543e+01 0 0 0
206 2 1.2305000000000001e+00 6.3938655561404980e+00 1.7003207830546543e+01 0 0 0
208 2 2.4610000000000003e+00 4.2625770374269996e+00 1.7003207830546543e+01 0 0 0
209 2 3.6914999999999996e+00 4.9730065436648339e+00 1.7003207830546543e+01 0 0 0
221 2 3.6914999999999996e+00 6.3938655561404980e+00 1.7003207830546543e+01 0 0 0
196 2 0.0000000000000000e+00 7.1042950623783341e+00 1.7003207830546543e+01 0 0 0
207 2 2.4610000000000003e+00 7.1042950623783341e+00 1.7003207830546543e+01 0 0 0
223 2 4.9220000000000006e+00 4.2625770374269978e+00 1.7003207830546543e+01 0 0 0
224 2 6.1524999999999999e+00 4.9730065436648339e+00 1.7003207830546543e+01 0 0 0
240 2 6.1524999999999999e+00 6.3938655561404980e+00 1.7003207830546543e+01 0 0 0
242 2 7.3829999999999991e+00 4.2625770374269996e+00 1.7003207830546543e+01 0 0 0
222 2 4.9220000000000006e+00 7.1042950623783341e+00 1.7003207830546543e+01 0 0 0
241 2 7.3830000000000009e+00 7.1042950623783341e+00 1.7003207830546543e+01 0 0 0
243 2 8.6135000000000002e+00 4.9730065436648339e+00 1.7003207830546543e+01 0 0 0
263 2 8.6135000000000002e+00 6.3938655561404980e+00 1.7003207830546543e+01 0 0 0
265 2 9.8440000000000012e+00 4.2625770374270004e+00 1.7003207830546543e+01 0 0 0
266 2 1.1074500000000002e+01 4.9730065436648339e+00 1.7003207830546543e+01 0 0 0
287 2 1.1074500000000002e+01 6.3938655561404980e+00 1.7003207830546543e+01 0 0 0
264 2 9.8440000000000012e+00 7.1042950623783341e+00 1.7003207830546543e+01 0 0 0
204 2 0.0000000000000000e+00 8.5251540748539991e+00 1.7003207830546543e+01 0 0 0
205 2 1.2305000000000001e+00 9.2355835810918343e+00 1.7003207830546543e+01 0 0 0
219 2 2.4610000000000003e+00 8.5251540748539991e+00 1.7003207830546543e+01 0 0 0
220 2 3.6915000000000004e+00 9.2355835810918343e+00 1.7003207830546543e+01 0 0 0
203 2 0.0000000000000000e+00 1.1366872099805333e+01 1.7003207830546543e+01 0 0 0
217 2 1.2305000000000001e+00 1.0656442593567498e+01 1.7003207830546543e+01 0 0 0
218 2 2.4610000000000003e+00 1.1366872099805333e+01 1.7003207830546543e+01 0 0 0
236 2 3.6914999999999996e+00 1.0656442593567499e+01 1.7003207830546543e+01 0 0 0
239 2 6.1524999999999999e+00 9.2355835810918343e+00 1.7003207830546543e+01 0 0 0
238 2 4.9220000000000006e+00 8.5251540748539991e+00 1.7003207830546543e+01 0 0 0
261 2 7.3830000000000009e+00 8.5251540748539991e+00 1.7003207830546543e+01 0 0 0
237 2 4.9220000000000006e+00 1.1366872099805333e+01 1.7003207830546543e+01 0 0 0
259 2 6.1524999999999999e+00 1.0656442593567499e+01 1.7003207830546543e+01 0 0 0
260 2 7.3829999999999991e+00 1.1366872099805333e+01 1.7003207830546543e+01 0 0 0
284 2 9.8440000000000012e+00 1.1366872099805333e+01 1.7003207830546543e+01 0 0 0
455 1 1.2133738879962939e+01 1.1413896071360844e+01 1.1481384510336429e+01 0 -1 1
184 1 2.0306555383655223e-02 1.1981001739753998e+01 1.3806446399604269e+01 0 1 0
1776 1 1.3236864889799023e+00 2.9035258886850102e-02 1.1249403909017767e+01 1 0 1
870 1 1.0180984860682063e+01 9.3906825685533732e+00 1.1151707620181398e+01 0 2 1
549 2 0.0000000000000000e+00 1.4208590124756650e+00 2.0027956833359266e+01 0 0 0
550 2 0.0000000000000000e+00 0.0000000000000000e+00 2.0027956833359266e+01 0 0 0
554 2 1.2305000000000001e+00 2.1312885187134998e+00 2.0027956833359266e+01 0 0 0
555 2 2.4610000000000003e+00 1.4208590124756650e+00 2.0027956833359266e+01 0 0 0
556 2 2.4610000000000003e+00 0.0000000000000000e+00 2.0027956833359266e+01 0 0 0
564 2 3.6914999999999996e+00 2.1312885187134998e+00 2.0027956833359266e+01 0 0 0
710 2 0.0000000000000000e+00 2.8417180249513345e+00 2.3052705836173551e+01 0 0 0
711 2 0.0000000000000000e+00 0.0000000000000000e+00 2.3052705836173551e+01 0 0 0
712 2 1.2305000000000001e+00 7.1042950623783474e-01 2.3052705836173551e+01 0 0 0
716 2 1.2305000000000001e+00 2.1312885187134998e+00 2.3052705836173551e+01 0 0 0
717 2 2.4610000000000003e+00 2.8417180249513345e+00 2.3052705836173551e+01 0 0 0
718 2 2.4610000000000003e+00 0.0000000000000000e+00 2.3052705836173551e+01 0 0 0
719 2 3.6915000000000004e+00 7.1042950623783474e-01 2.3052705836173551e+01 0 0 0
727 2 3.6914999999999996e+00 2.1312885187134998e+00 2.3052705836173551e+01 0 0 0
553 2 1.2305000000000001e+00 3.5521475311891644e+00 2.0027956833359266e+01 0 0 0
563 2 3.6914999999999996e+00 3.5521475311891644e+00 2.0027956833359266e+01 0 0 0
565 2 4.9220000000000006e+00 1.4208590124756650e+00 2.0027956833359266e+01 0 0 0
566 2 4.9220000000000006e+00 0.0000000000000000e+00 2.0027956833359266e+01 0 0 0
578 2 6.1524999999999999e+00 2.1312885187134989e+00 2.0027956833359266e+01 0 0 0
579 2 7.3829999999999991e+00 1.4208590124756659e+00 2.0027956833359266e+01 0 0 0
580 2 7.3829999999999991e+00 0.0000000000000000e+00 2.0027956833359266e+01 0 0 0
728 2 4.9220000000000006e+00 2.8417180249513332e+00 2.3052705836173551e+01 0 0 0
729 2 4.9220000000000006e+00 0.0000000000000000e+00 2.3052705836173551e+01 0 0 0
730 2 6.1524999999999999e+00 7.1042950623783407e-01 2.3052705836173551e+01 0 0 0
742 2 6.1524999999999999e+00 2.1312885187134989e+00 2.3052705836173551e+01 0 0 0
743 2 7.3829999999999991e+00 2.8417180249513345e+00 2.3052705836173551e+01 0 0 0
744 2 7.3829999999999991e+00 0.0000000000000000e+00 2.3052705836173551e+01 0 0 0
577 2 6.1524999999999999e+00 3.5521475311891644e+00 2.0027956833359266e+01 0 0 0
596 2 8.6134999999999984e+00 2.1312885187135002e+00 2.0027956833359266e+01 0 0 0
597 2 9.8440000000000012e+00 1.4208590124756659e+00 2.0027956833359266e+01 0 0 0
598 2 9.8440000000000012e+00 0.0000000000000000e+00 2.0027956833359266e+01 0 0 0
618 2 1.1074500000000002e+01 2.1312885187135002e+00 2.0027956833359266e+01 0 0 0
745 2 8.6134999999999984e+00 7.1042950623783407e-01 2.3052705836173551e+01 0 0 0
761 2 8.6134999999999984e+00 2.1312885187135002e+00 2.3052705836173551e+01 0 0 0
762 2 9.8440000000000012e+00 2.8417180249513332e+00 2.3052705836173551e+01 0 0 0
763 2 9.8440000000000012e+00 0.0000000000000000e+00 2.3052705836173551e+01 0 0 0
764 2 1.1074500000000002e+01 7.1042950623783330e-01 2.3052705836173551e+01 0 0 0
784 2 1.1074500000000002e+01 2.1312885187135002e+00 2.3052705836173551e+01 0 0 0
595 2 8.6134999999999984e+00 3.5521475311891657e+00 2.0027956833359266e+01 0 0 0
617 2 1.1074500000000002e+01 3.5521475311891644e+00 2.0027956833359266e+01 0 0 0
551 2 0.0000000000000000e+00 5.6834360499026637e+00 2.0027956833359266e+01 0 0 0
552 2 0.0000000000000000e+00 4.2625770374269996e+00 2.0027956833359266e+01 0 0 0
560 2 1.2305000000000001e+00 6.3938655561404980e+00 2.0027956833359266e+01 0 0 0
561 2 2.4610000000000003e+00 5.6834360499026637e+00 2.0027956833359266e+01 0 0 0
562 2 2.4610000000000003e+00 4.2625770374269996e+00 2.0027956833359266e+01 0 0 0
574 2 3.6914999999999996e+00 6.3938655561404980e+00 2.0027956833359266e+01 0 0 0
714 2 0.0000000000000000e+00 4.2625770374269996e+00 2.3052705836173551e+01 0 0 0
715 2 1.2305000000000001e+00 4.9730065436648339e+00 2.3052705836173551e+01 0 0 0
723 2 1.2305000000000001e+00 6.3938655561404980e+00 2.3052705836173551e+01 0 0 0
725 2 2.4610000000000003e+00 4.2625770374269996e+00 2.3052705836173551e+01 0 0 0
726 2 3.6914999999999996e+00 4.9730065436648339e+00 2.3052705836173551e+01 0 0 0
738 2 3.6914999999999996e+00 6.3938655561404980e+00 2.3052705836173551e+01 0 0 0
559 2 1.2305000000000001e+00 7.8147245686161639e+00 2.0027956833359266e+01 0 0 0
573 2 3.6914999999999996e+00 7.8147245686161639e+00 2.0027956833359266e+01 0 0 0
713 2 0.0000000000000000e+00 7.1042950623783341e+00 2.3052705836173551e+01 0 0 0
724 2 2.4610000000000003e+00 7.1042950623783341e+00 2.3052705836173551e+01 0 0 0
575 2 4.9220000000000006e+00 5.6834360499026637e+00 2.0027956833359266e+01 0 0 0
576 2 4.9220000000000006e+00 4.2625770374269978e+00 2.0027956833359266e+01 0 0 0
592 2 6.1524999999999999e+00 6.3938655561404980e+00 2.0027956833359266e+01 0 0 0
593 2 7.3829999999999991e+00 5.6834360499026637e+00 2.0027956833359266e+01 0 0 0
594 2 7.3829999999999991e+00 4.2625770374269996e+00 2.0027956833359266e+01 0 0 0
740 2 4.9220000000000006e+00 4.2625770374269978e+00 2.3052705836173551e+01 0 0 0
741 2 6.1524999999999999e+00 4.9730065436648339e+00 2.3052705836173551e+01 0 0 0
757 2 6.1524999999999999e+00 6.3938655561404980e+00 2.3052705836173551e+01 0 0 0
759 2 7.3829999999999991e+00 4.2625770374269996e+00 2.3052705836173551e+01 0 0 0
591 2 6.1524999999999999e+00 7.8147245686161639e+00 2.0027956833359266e+01 0 0 0
739 2 4.9220000000000006e+00 7.1042950623783341e+00 2.3052705836173551e+01 0 0 0
758 2 7.3830000000000009e+00 7.1042950623783341e+00 2.3052705836173551e+01 0 0 0
614 2 8.6135000000000002e+00 6.3938655561404980e+00 2.0027956833359266e+01 0 0 0
615 2 9.8440000000000012e+00 5.6834360499026637e+00 2.0027956833359266e+01 0 0 0
616 2 9.8440000000000012e+00 4.2625770374270004e+00 2.0027956833359266e+01 0 0 0
637 2 1.1074500000000002e+01 6.3938655561404980e+00 2.0027956833359266e+01 0 0 0
760 2 8.6135000000000002e+00 4.9730065436648339e+00 2.3052705836173551e+01 0 0 0
780 2 8.6135000000000002e+00 6.3938655561404980e+00 2.3052705836173551e+01 0 0 0
782 2 9.8440000000000012e+00 4.2625770374270004e+00 2.3052705836173551e+01 0 0 0
783 2 1.1074500000000002e+01 4.9730065436648339e+00 2.3052705836173551e+01 0 0 0
804 2 1.1074500000000002e+01 6.3938655561404980e+00 2.3052705836173551e+01 0 0 0
613 2 8.6135000000000002e+00 7.8147245686161639e+00 2.0027956833359266e+01 0 0 0
636 2 1.1074500000000002e+01 7.8147245686161639e+00 2.0027956833359266e+01 0 0 0
781 2 9.8440000000000012e+00 7.1042950623783341e+00 2.3052705836173551e+01 0 0 0
557 2 0.0000000000000000e+00 9.9460130873296642e+00 2.0027956833359266e+01 0 0 0
558 2 0.0000000000000000e+00 8.5251540748539991e+00 2.0027956833359266e+01 0 0 0
571 2 2.4610000000000003e+00 9.9460130873296642e+00 2.0027956833359266e+01 0 0 0
572 2 2.4610000000000003e+00 8.5251540748539991e+00 2.0027956833359266e+01 0 0 0
721 2 0.0000000000000000e+00 8.5251540748539991e+00 2.3052705836173551e+01 0 0 0
722 2 1.2305000000000001e+00 9.2355835810918343e+00 2.3052705836173551e+01 0 0 0
736 2 2.4610000000000003e+00 8.5251540748539991e+00 2.3052705836173551e+01 0 0 0
737 2 3.6915000000000004e+00 9.2355835810918343e+00 2.3052705836173551e+01 0 0 0
569 2 1.2305000000000001e+00 1.2077301606043163e+01 2.0027956833359266e+01 0 0 0
570 2 1.2305000000000001e+00 1.0656442593567498e+01 2.0027956833359266e+01 0 0 0
587 2 3.6914999999999996e+00 1.2077301606043163e+01 2.0027956833359266e+01 0 0 0
588 2 3.6914999999999996e+00 1.0656442593567499e+01 2.0027956833359266e+01 0 0 0
720 2 0.0000000000000000e+00 1.1366872099805333e+01 2.3052705836173551e+01 0 0 0
734 2 1.2305000000000001e+00 1.0656442593567498e+01 2.3052705836173551e+01 0 0 0
735 2 2.4610000000000003e+00 1.1366872099805333e+01 2.3052705836173551e+01 0 0 0
753 2 3.6914999999999996e+00 1.0656442593567499e+01 2.3052705836173551e+01 0 0 0
589 2 4.9220000000000006e+00 9.9460130873296642e+00 2.0027956833359266e+01 0 0 0
590 2 4.9220000000000006e+00 8.5251540748539991e+00 2.0027956833359266e+01 0 0 0
611 2 7.3830000000000009e+00 9.9460130873296642e+00 2.0027956833359266e+01 0 0 0
612 2 7.3830000000000009e+00 8.5251540748539991e+00 2.0027956833359266e+01 0 0 0
755 2 4.9220000000000006e+00 8.5251540748539991e+00 2.3052705836173551e+01 0 0 0
756 2 6.1524999999999999e+00 9.2355835810918343e+00 2.3052705836173551e+01 0 0 0
778 2 7.3830000000000009e+00 8.5251540748539991e+00 2.3052705836173551e+01 0 0 0
609 2 6.1524999999999999e+00 1.2077301606043163e+01 2.0027956833359266e+01 0 0 0
610 2 6.1524999999999999e+00 1.0656442593567499e+01 2.0027956833359266e+01 0 0 0
754 2 4.9220000000000006e+00 1.1366872099805333e+01 2.3052705836173551e+01 0 0 0
776 2 6.1524999999999999e+00 1.0656442593567499e+01 2.3052705836173551e+01 0 0 0
777 2 7.3829999999999991e+00 1.1366872099805333e+01 2.3052705836173551e+01 0 0 0
634 2 9.8440000000000012e+00 9.9460130873296642e+00 2.0027956833359266e+01 0 0 0
635 2 9.8440000000000012e+00 8.5251540748539956e+00 2.0027956833359266e+01 0 0 0
779 2 8.6134999999999984e+00 9.2355835810918343e+00 2.3052705836173551e+01 0 0 0
802 2 9.8440000000000012e+00 8.5251540748539956e+00 2.3052705836173551e+01 0 0 0
803 2 1.1074500000000002e+01 9.2355835810918343e+00 2.3052705836173551e+01 0 0 0
632 2 8.6135000000000002e+00 1.2077301606043163e+01 2.0027956833359266e+01 0 0 0
633 2 8.6134999999999984e+00 1.0656442593567498e+01 2.0027956833359266e+01 0 0 0
655 2 1.1074500000000002e+01 1.2077301606043163e+01 2.0027956833359266e+01 0 0 0
656 2 1.1074500000000002e+01 1.0656442593567498e+01 2.0027956833359266e+01 0 0 0
800 2 8.6134999999999984e+00 1.0656442593567498e+01 2.3052705836173551e+01 0 0 0
801 2 9.8440000000000012e+00 1.1366872099805333e+01 2.3052705836173551e+01 0 0 0
824 2 1.1074500000000002e+01 1.0656442593567498e+01 2.3052705836173551e+01 0 0 0
825 2 1.2304999999999998e+01 1.1366872099805333e+01 2.3052705836173551e+01 0 0 0
1816 1 3.3237797150369595e+00 2.8176825487697048e+00 2.5843918834308198e+01 1 0 -1
1036 1 3.8182578359496984e+00 3.3745990932826326e+00 2.8703737378042558e+01 1 0 -1
1852 1 6.7573838265490354e+00 8.6568138335642004e+00 2.8640257305451765e+01 1 0 -1
2152 1 1.1319323489101420e+01 1.0217273426603274e+01 2.8725349399458295e+01 -1 0 0
28 1 1.1983217240881736e+00 5.2085604642640266e+00 2.6305467398056209e+01 0 -1 -1
1302 1 3.4137214677530756e+00 6.8547370127942928e+00 2.5556673823570524e+01 0 -1 -1
4278 1 1.0662205192076492e+01 8.8529064266485875e+00 2.5665664442645248e+01 -1 -1 0
3712 1 9.5126388224008274e+00 3.2919321167269877e+00 2.5510319486516661e+01 0 -1 -1
1837 1 6.3518966235290444e+00 3.0713397019260427e+00 2.5902908898762309e+01 0 0 -1
37 1 5.9555295486863846e+00 6.0697663645349929e+00 2.5502483580657600e+01 -1 0 0
2236 1 6.7892303568236008e+00 3.0210278994738915e+00 2.8475195272931206e+01 0 1 -1
22 1 9.0256515004793219e+00 1.1799159682827138e+01 2.8314647557130900e+01 1 0 0
3871 1 1.0324017113918767e+01 3.7867533115317886e-01 2.5505177663242172e+01 -1 2 -1
3063 1 2.8792799752185245e+00 9.5568227575362741e+00 2.6660355527932349e+01 0 0 0
2960 1 5.0693030342551761e+00 1.1191419826114410e+01 2.6359653660461262e+01 1 0 0
1276 1 7.9865832973489912e+00 7.8097884609593855e+00 2.6591328700259051e+01 1 1 0
3461 1 8.0511354649200992e+00 1.0563304963965678e+01 2.5609924500377172e+01 1 0 -1
4694 1 1.2087032904485847e+01 7.4319487847826693e+00 2.8174319889766203e+01 0 0 1
2047 1 1.6655599607459257e+00 1.2583775397202952e+00 2.8246838680360213e+01 0 0 -1
1715 1 1.0694869145072930e+01 5.9871086959894599e+00 2.5313443621480520e+01 1 0 -1
2164 1 1.0233133913645165e+00 8.6191278034866492e-01 2.5765326453877538e+01 0 0 0
3435 1 4.5501381680627349e+00 6.5621399273000538e+00 2.8418556989726323e+01 1 1 -1
537 1 9.3480453162345256e+00 5.5024149751072606e+00 2.8012694375437711e+01 -1 0 0
3733 1 6.6313009450087257e-01 1.0832925559808698e+01 2.5681372490636253e+01 2 0 0
3528 1 9.9248816162032707e+00 2.3948386516513036e+00 2.8180471878187234e+01 0 1 -1
2619 1 1.0892493155747532e+01 4.2775142807282673e+00 2.9959749792477286e+01 0 0 -1
1775 1 3.6395941293121608e+00 8.3287774800123362e+00 3.4847385352695497e+01 -1 0 0
1369 1 4.5352215854049929e+00 2.3928559410219132e+00 3.1479559940588871e+01 0 1 0
4288 1 1.1811777993726214e+01 2.1637279818970372e+00 3.6514351738210962e+01 0 0 -1
2086 1 7.0574753925751166e+00 4.0105375357718804e+00 3.2089676217882563e+01 1 1 0
3395 1 6.8502384967417500e+00 5.3911736401369224e+00 2.9729718340093193e+01 0 0 1
3777 1 1.5027506016928662e+00 1.1921165746250017e+01 3.6419381524638098e+01 0 1 0
881 1 8.0751690834627166e+00 1.4607095550393050e+00 3.2524029068322463e+01 0 0 0
3004 1 1.0667376326269261e+01 1.1081168029688495e+01 3.5245034261276857e+01 -1 1 0
2938 1 3.2346001695001974e+00 6.9897146424615721e+00 3.2576589055677559e+01 0 0 1
120 1 2.5698578078556165e+00 4.2752826609560088e+00 3.2042023128552955e+01 0 2 -1
55 1 9.2709207641487108e+00 1.2085668239144725e+01 3.1272157849824783e+01 -1 1 -1
1702 1 4.0268450848989161e+00 8.4714546469469241e+00 3.0459070558279951e+01 0 1 -1
160 1 1.8985036083669655e+00 3.2972681496687178e-01 3.1399100796045875e+01 -1 1 0
1030 1 2.4769523115428567e+00 6.7238000125184723e+00 3.6700944966590626e+01 1 1 0
457 1 1.0900209031536171e+01 2.3734304821463827e+00 3.2039270099591150e+01 1 1 0
414 1 1.3161677112509858e+00 1.0226257656650981e+00 3.5776080963923121e+01 1 0 -1
1009 1 2.0495543726271359e+00 1.0573761916431536e+01 3.4137159201653162e+01 1 0 -1
3453 1 9.8002913342041005e+00 7.9306190366554921e+00 3.4789263292594953e+01 0 0 0
3504 1 5.3043036237785595e+00 1.0782451377326582e+01 3.1419796703998873e+01 1 1 -1
3456 1 7.2832012575724550e+00 1.1818663358010907e+01 3.5742828814874017e+01 1 0 0
2240 1 8.8333828113802664e+00 8.0786053409597702e+00 3.0656412542271404e+01 1 -1 0
4194 1 7.5408213777860249e+00 1.0852578021375093e+01 3.3033032080004261e+01 -1 1 -1
4634 1 6.1826663518307026e+00 9.0981951911927439e+00 3.5757040153804240e+01 1 1 0
2075 1 8.8691410614932953e-01 3.1088659982755802e+00 3.4133342819604422e+01 0 1 -1
395 1 7.2330963044419425e+00 5.0928710175315270e+00 3.6530480019505504e+01 0 2 0
4636 1 4.0242427168334078e+00 3.5634421391739433e+00 3.4864942644579571e+01 1 0 0
3351 1 7.6883875098166650e+00 6.6355285796309105e-01 3.5877292777917944e+01 1 0 0
950 1 5.3027265459421962e+00 1.0874097270411101e+00 3.4186832762864924e+01 0 1 0
4530 1 1.1605812116508467e+01 6.8428490996518390e+00 3.1557739257079643e+01 1 0 -1
1821 1 1.0655861481878047e+01 5.6222588770655717e+00 3.6092126280202223e+01 0 0 -1
938 1 1.4355953133457325e-01 6.8118116750148285e+00 3.2637849024274168e+01 0 1 0
1744 1 1.1958049318256846e+01 3.9757003203442021e+00 3.4326747111303547e+01 -1 0 -1
2197 1 5.9432713057408559e+00 5.5315628559910293e+00 3.4003119246411273e+01 1 0 0
8 1 6.9059493604170621e+00 6.8372327964067148e-01 3.0184293710254600e+01 -1 1 -2
1003 1 9.1033833631350412e+00 2.8938488820062935e+00 3.7193334610735832e+01 0 0 0
3418 1 7.4884141818743322e+00 7.9949064470220677e+00 3.3191853860651804e+01 1 0 -1
2097 1 5.8240386135593758e-01 5.4532219111569908e+00 3.5342556920132068e+01 2 0 0
3016 1 1.8411827327331736e+00 5.1303921198619324e+00 2.9110655898458656e+01 1 0 0
4345 1 1.1704379480522515e+01 9.8567310646110649e+00 3.1508775996393528e+01 0 1 0
895 1 2.1266047704591187e+00 2.9364447385588837e+00 3.7758321357656612e+01 0 1 -1
2695 1 9.5048907800906726e+00 8.8939600202470128e+00 3.7266100505690616e+01 0 0 -1
1383 1 5.0147625659282413e+00 3.8087165869323281e+00 3.7378015981967039e+01 1 0 0
3720 1 1.8476786199663457e+00 9.8197211241410951e+00 2.9276307578290751e+01 -1 2 0
3499 1 1.1852361185965048e+01 9.0250484148135968e-02 3.4897244291091823e+01 0 2 -1
4538 1 6.3277457669050055e+00 1.1364279468806698e+01 2.9017219654408290e+01 0 0 0
151 1 3.2788738740978864e+00 1.7541501995929018e+01 1.1041152828931496e+01 1 0 1
1265 1 7.0119385860527892e+00 2.1715019313910958e+01 4.0080082420938155e+00 0 -1 1
4620 1 5.2332572306541270e+00 1.7021149799389352e+01 6.9064724936009236e+00 -1 0 1
3512 1 7.9870140483135525e+00 1.3271157560009369e+01 5.2683849695814979e+00 0 1 0
3756 1 6.0868927277992251e+00 1.7265305364088167e+01 3.0701116839958247e+00 0 1 0
539 1 9.6784151110415504e+00 2.2622340126748622e+01 9.0855956779397680e+00 0 0 1
1831 1 9.3972108207193550e+00 1.5424178175439797e+01 5.2009953524548447e+00 0 1 0
3747 1 3.1198847595135328e+00 1.7509784115205697e+01 3.4959741681102510e+00 1 1 1
1855 1 2.3283281713044532e+00 1.7047860981391370e+01 6.2585861790221271e+00 0 1 -1
1862 1 7.4532255925703703e+00 1.7501909556240296e+01 5.3619684993630994e+00 0 1 0
3867 1 6.7786478131085062e+00 2.3005021826797041e+01 9.2664453801131756e+00 0 1 1
1236 1 5.6519910778788075e-02 2.2547011356591931e+01 5.3401112879591333e+00 1 1 1
4519 1 9.9857692589183404e+00 2.4432983585584779e+01 6.5170428315924394e+00 0 0 1
3880 1 3.4248532177217119e+00 2.1832284984886538e+01 5.1687270186872407e+00 1 -1 0
3481 1 3.8761919425690472e+00 2.0775134723937043e+01 9.4505919948295514e+00 0 1 0
3064 1 8.8546364393217072e+00 1.9940944386062629e+01 6.0532771898770408e+00 0 0 1
2227 1 1.0610314022441560e+01 2.2133833654522924e+01 4.7889537898867491e+00 0 0 1
3405 1 2.7229120288616437e+00 2.0074330075513927e+01 3.1714073075615836e+00 0 0 1
3834 1 1.0823878103260098e+01 1.3620886204436337e+01 8.2717616990613898e+00 -1 0 0
927 1 1.1358918553249179e+01 1.8092448308260426e+01 6.3104062832565981e+00 1 0 0
3369 1 3.6944804506860023e+00 1.3483755176767341e+01 7.7473695617170559e+00 0 1 0
2068 1 1.0020124011874879e+01 1.7419461446492932e+01 1.0255864003762071e+01 0 0 0
3433 1 1.5467925315207045e+00 1.5782622768877465e+01 9.4993613426819010e+00 1 -1 0
1705 1 2.5960060242049940e+00 2.4411375388610324e+01 4.3243017694420818e+00 1 0 1
2884 1 5.7096698061533138e+00 1.4415408934854987e+01 6.1740554773754432e+00 -1 0 1
2232 1 5.7587133023870276e+00 2.2480182837256567e+01 6.3989594782442429e+00 0 0 1
4577 1 1.2609866666801506e+00 1.4493201762049523e+01 6.7192258569411774e+00 1 0 1
4704 1 1.2217635189794663e+01 1.5319673498718940e+01 3.7787742959245207e+00 0 0 2
2119 1 3.3289622846778544e-01 1.8869653880353948e+01 7.2494897981808748e+00 0 -1 1
4353 1 5.4715362568738604e+00 1.8104952247884274e+01 9.3899567780093420e+00 0 1 0
4687 1 4.3306723983012390e+00 1.4405740138854217e+01 3.6407393848015692e+00 0 0 1
3067 1 1.0298546941293102e+01 1.9908944754561151e+01 8.9929926646701084e+00 0 0 0
2229 1 7.1789104034898488e+00 1.5154180473383709e+01 8.9391729002331548e+00 -1 0 0
3850 1 7.1513613336809492e+00 2.0282640137611047e+01 8.6354726000379571e+00 0 -1 1
1815 1 1.9465242603655148e+00 2.1256531850117938e+01 7.4258752640962582e+00 0 0 0
19 1 9.7866099821377635e+00 1.6106856425068223e+01 7.9285627393934801e+00 1 0 0
3070 1 1.8910400891285950e+00 1.2795312547897096e+01 4.4826168390032830e+00 0 0 -1
191 1 5.9502079861361485e+00 2.0013754839772336e+01 2.2990114968745918e+00 -1 0 0
3410 1 4.5321186491193028e+00 1.2928583003192854e+01 1.0903337868565785e+01 1 0 0
4668 1 1.1042976223711051e+01 2.3452585812270929e+01 2.4556515199685234e+00 1 0 1
1019 1 7.2560183538575789e+00 2.4443367377873788e+01 2.9592639052758187e+00 1 0 0
3379 1 8.4437007773731736e+00 1.3581987655893220e+01 1.0834208740230238e+01 1 1 1
114 1 5.0274345980713475e+00 1.3443666124553415e+01 1.3766010151555847e+01 0 1 0
2581 1 2.2320929896136081e+00 1.4307705126670772e+01 1.4270401862218115e+01 1 1 -1