
# Create simulation box and atoms

read_data data.ML_graphite_1atm_240K
  orthogonal box = (0 0 2.18931) to (49.22 49.0196 37.8107)
  4 by 4 by 4 MPI processor grid
  reading atoms ...
  4990 atoms
  reading velocities ...
  4990 velocities
group water type 1
2230 atoms in group water
group graphite type 2
2760 atoms in group graphite

# Define potential

pair_style sw
pair_coeff * * MLC_e.sw mW C


# Fix graphite atoms in place

fix 5 graphite setforce 0.0 0.0 0.0
velocity graphite set 0.0 0.0 0.0


# Equilibration of molecular water

# Add velocity/set timestep

velocity	    water create ${TEMP} ${SEED} rot yes dist gaussian
velocity	    water create 240 ${SEED} rot yes dist gaussian
velocity	    water create 240 12405 rot yes dist gaussian
timestep	    5.0

# Define output

compute			1 water msd
compute			3 water temp
thermo	    	50
thermo_style	custom step temp press vol etotal ke pe c_1[4] c_3

# Neighbor lists

neigh_modify    delay 0 every 1 check yes

# Set fixes

fix             1 water momentum 10 linear 1 1 1 rescale
fix             2 water nve
fix             3 water temp/csvr ${TEMP} ${TEMP} 500.0 ${SEED}
fix             3 water temp/csvr 240 ${TEMP} 500.0 ${SEED}
fix             3 water temp/csvr 240 240 500.0 ${SEED}
fix             3 water temp/csvr 240 240 500.0 12405
fix             4 water press/berendsen z ${PRES} ${PRES} 1000.0 modulus 20000
fix             4 water press/berendsen z 1 ${PRES} 1000.0 modulus 20000
fix             4 water press/berendsen z 1 1 1000.0 modulus 20000

# Run 0.5 ns equilibration

dump		    1 all atom 2000 ${DIR}/eq.${NAME}-${TEMP}.dump
dump		    1 all atom 2000 run_11/eq.${NAME}-${TEMP}.dump
dump		    1 all atom 2000 run_11/eq.het_freeze_11-${TEMP}.dump
dump		    1 all atom 2000 run_11/eq.het_freeze_11-240.dump

reset_timestep  0

run	            100000
Neighbor list info ...
  update every 1 steps, delay 0 steps, check yes
  max neighbors/atom: 2000, page size: 100000
  master list distance cutoff = 6.67472
  ghost atom cutoff = 6.67472
  binsize = 3.33736, bins = 15 15 11
  1 neighbor lists, perpetual/occasional/extra = 1 0 0
  (1) pair sw, perpetual
      attributes: full, newton on
      pair build: full/bin/atomonly
      stencil: full/bin/3d
      bin: standard
Per MPI rank memory allocation (min/avg/max) = 4.094 | 4.225 | 4.497 Mbytes
Step Temp Press Volume TotEng KinEng PotEng c_1[4] c_3 
       0     107.2279   -141.85038    85945.351   -21384.105    1594.6141   -22978.719            0          240 
      50    106.16605    -492.9476    85942.696   -21373.741    1578.8231   -22952.564   0.50174231    237.62335 
     100    109.71075    -397.3228    85918.785   -21373.737    1631.5372   -23005.274   0.83903225    245.55716 
     150    106.41081    -380.6129    85862.211   -21379.899    1582.4629   -22962.362    1.1248963    238.17116 
     200    109.84423   -128.96555    85840.409   -21370.948    1633.5222    -23004.47    1.3828497    245.85592 
     250    107.12129   -234.00659    85953.095   -21379.156    1593.0288   -22972.184    1.6440724    239.76139 
     300    105.68453   -487.85865    85977.894   -21429.596    1571.6623   -23001.258    1.9193128    236.54559 
     350    108.73475   -438.19004     86015.41   -21447.696    1617.0228   -23064.719    2.2056262    243.37265 
     400    107.05159   -41.326686    86085.834   -21444.101    1591.9922   -23036.093    2.4115175    239.60537 
     450    109.41013   -461.79804    86139.494   -21424.469    1627.0666   -23051.535    2.6521817     244.8843 
     500    108.38484   -460.28736    86153.447    -21446.24    1611.8193   -23058.059    2.8491531    242.58949 
     550    105.04343   -122.30125    86177.124   -21482.655    1562.1283   -23044.783    3.0053446    235.11067 
     600    106.64618    -577.8619    86119.366   -21483.316    1585.9632   -23069.279    3.2513995    238.69798 
     650    107.30909   -409.70447      86058.8   -21505.819    1595.8216    -23101.64    3.5243605    240.18173 
     700    105.76606   -333.13179    86080.308   -21504.885    1572.8747   -23077.759    3.7765427    236.72807 
     750    108.61525    33.775447    86043.351   -21455.855    1615.2457   -23071.101    3.9819699    243.10519 
     800    105.45774    99.089879    86170.382   -21463.702    1568.2896   -23031.991    4.2195803    236.03798 
     850    109.87032    94.122248    86238.701   -21431.285    1633.9102   -23065.196    4.3959651    245.91431 
     900    106.14507    119.01728    86306.287   -21442.112    1578.5111   -23020.623    4.5663707    237.57638 
     950    107.47449   -360.11728    86362.814   -21451.031    1598.2813   -23049.312    4.7163829    240.55193 
    1000    106.92777   -204.29781     86381.03   -21481.768    1590.1509   -23071.919    4.8034972    239.32825 
    1050    107.67224   -206.00364    86441.718    -21463.15    1601.2221   -23064.372    5.0117476    240.99454 
    1100    106.33415   -464.71526    86421.169   -21460.401    1581.3229   -23041.724    5.2121307    237.99958 
    1150    105.98543   -512.09285    86431.564   -21456.196     1576.137   -23032.333     5.363438    237.21906 
    1200    107.45369   -642.47743    86380.887   -21435.866    1597.9719   -23033.838    5.6463492    240.50537 
    1250    109.43694   -352.43767    86323.215   -21448.983    1627.4653   -23076.449    6.0691206    244.94432 
    1300    107.38939   -176.29221    86327.334    -21459.04    1597.0157   -23056.056    6.3073942    240.36145 
    1350    106.08177   -70.032307    86333.007   -21437.836    1577.5698   -23015.406    6.4506532    237.43471 
    1400    105.40844    2.6526786    86336.282   -21439.052    1567.5565   -23006.608    6.7775054    235.92765 
    1450    106.14617   -192.45947      86405.7    -21466.17    1578.5274   -23044.698    6.9643687    237.57884 
    1500    107.98256    -273.6447     86465.88   -21442.472    1605.8369   -23048.309    7.0445007     241.6891 
    1550    109.77714   -329.32152    86553.438   -21433.893    1632.5246   -23066.417    7.2758368    245.70578 
    1600    107.62489     60.12203    86575.315   -21427.637    1600.5179   -23028.154    7.5408285    240.88855 
    1650    105.25491   -532.51496    86632.579   -21451.673    1565.2733   -23016.947    7.7076419      235.584 
    1700    105.78829   -607.28242    86663.576   -21486.576    1573.2052   -23059.781    7.8366041    236.77782 
    1750    107.67944   -606.96773    86609.949   -21480.012     1601.329   -23081.342    7.9785178    241.01064 
    1800     104.8886   -651.71847    86528.149   -21461.686    1559.8258   -23021.512    8.1659963    234.76413 
    1850    104.36926   -288.24636    86497.132    -21447.42    1552.1025   -22999.522    8.4047135    233.60172 
    1900    105.51029   -585.27258    86512.647   -21449.559    1569.0711    -23018.63    8.6239618     236.1556 
    1950    103.81389     -702.711    86432.077   -21460.932    1543.8434   -23004.775    8.8226447    232.35867 
    2000    106.48838   -423.28381     86368.16   -21448.378    1583.6165   -23031.995    9.0172741    238.34478 
    2050    107.56109   -303.76112    86388.832   -21450.254     1599.569   -23049.823     9.162531    240.74574 
    2100     104.4081   -419.86309     86375.96   -21502.527    1552.6801   -23055.207    9.4448119    233.68865 
    2150    107.95517   -334.66218    86418.378   -21469.752    1605.4295   -23075.181    9.6889934    241.62778 
    2200    106.34516   -307.87941    86392.126    -21477.43    1581.4867   -23058.917    9.8104487    238.02423 
    2250    111.18139   -155.97997     86408.36   -21475.177    1653.4075   -23128.584    9.9493667    248.84879 
    2300    106.98766   -121.03841    86399.357   -21520.877    1591.0415   -23111.919    10.032588     239.4623 
    2350    105.52496   -351.76783    86399.204   -21526.749    1569.2892   -23096.038    10.285949    236.18843 
    2400    108.64611   -55.626398     86469.75   -21477.023    1615.7047   -23092.728    10.453848    243.17427 
    2450    105.91823    94.603498    86535.623   -21489.664    1575.1377   -23064.801    10.614944    237.06866 
    2500    107.03089     -513.528    86535.901   -21508.418    1591.6843   -23100.102    10.784666    239.55904 
    2550    104.67548   -217.95162    86542.797   -21529.953    1556.6565   -23086.609    10.980551    234.28712 
    2600    106.81843    -419.6501    86545.876   -21493.128    1588.5248   -23081.653     11.19749    239.08352 
    2650    105.86577   -240.89058    86583.633   -21463.338    1574.3575   -23037.695    11.472004    236.95124 
    2700    108.55616   -272.64799    86616.108   -21483.725     1614.367   -23098.092    11.741125    242.97293 
    2750    107.25258   -614.58599    86665.655   -21484.461    1594.9812   -23079.443    11.955863    240.05524 
    2800    107.55619   -550.66987    86636.581   -21496.452    1599.4962   -23095.948    12.205498    240.73479 
    2850    107.14552   -389.78676    86666.249   -21503.676    1593.3891   -23097.065    12.377331    239.81562 
    2900    107.90189   -494.75034    86723.496    -21498.58    1604.6372   -23103.217    12.489002    241.50853 
    2950    105.24387   -234.88619    86809.152   -21471.331     1565.109    -23036.44    12.718873    235.55928 
    3000    107.69851   -364.92092    86795.986   -21475.418    1601.6126   -23077.031     12.99864    241.05332 
    3050    105.85347    -347.3602    86825.186   -21480.153    1574.1745   -23054.328    13.304235     236.9237 
    3100    104.01505   -307.60367    86834.376   -21492.219     1546.835   -23039.054    13.283473    232.80892 
    3150    107.29877   -438.36891     86819.38   -21517.212    1595.6681    -23112.88    13.401191    240.15862 
    3200    103.35541   -576.62994    86808.546   -21538.362    1537.0253   -23075.387    13.673685    231.33249 
    3250    107.02137   -460.05453    86796.649   -21489.001    1591.5428   -23080.544     13.89159    239.53774 
    3300    108.09521    169.40529    86842.168   -21451.581    1607.5121   -23059.093    14.085952    241.94123 
    3350    108.14042   -693.70414    86862.594   -21431.424    1608.1845   -23039.608      14.1605    242.04243 
    3400    109.08057   -642.06413    86804.817   -21452.453    1622.1656   -23074.619    14.343915    244.14668 
    3450    109.00461   -554.06911    86826.725   -21423.361     1621.036   -23044.397     14.73895    243.97666 
    3500    106.84319   -675.73292    86778.751   -21434.134     1588.893   -23023.026    15.028864    239.13893 
    3550    108.86317   -397.00779    86792.318   -21386.816    1618.9327   -23005.748    15.287819     243.6601 
    3600    109.20694   -616.60739    86724.246   -21426.987     1624.045   -23051.032    15.595785    244.42953 
    3650    109.49904   -209.33002    86658.005   -21459.815    1628.3889   -23088.204    15.918759    245.08332 
    3700    108.73626   -551.22459    86678.917   -21499.716    1617.0453   -23116.761    16.084492    243.37604 
    3750    104.67355   -341.94601    86636.778   -21471.756    1556.6277   -23028.384    16.245921    234.28279 
    3800    108.95182   -666.76307    86639.322    -21465.26    1620.2509   -23085.511    16.661783    243.85851 
    3850    108.83798   -404.69386    86652.803   -21457.608     1618.558   -23076.166     16.95578    243.60371 
    3900    108.07984   -29.685104    86669.832   -21429.928    1607.2835   -23037.212    17.168765    241.90682 
    3950     106.8497   -508.35636    86734.583   -21450.652    1588.9897   -23039.642    17.487437    239.15349 
    4000    106.97092   -288.98952    86762.744   -21457.285    1590.7925   -23048.078    17.705314    239.42482 
    4050    106.10614   -297.65169    86766.632   -21454.205    1577.9321   -23032.138    17.839874    237.48924 
    4100    104.35948   -494.67577    86840.763   -21449.335    1551.9571   -23001.292     18.06812    233.57983 
    4150    106.09359   -578.23989    86800.495   -21439.159    1577.7455   -23016.905    18.231141    237.46116 
    4200    105.39223   -477.89612    86772.579   -21472.601    1567.3154   -23039.916    18.433376    235.89135 
    4250    105.60084   -341.66099    86780.868   -21466.524    1570.4177   -23036.941    18.659686    236.35828 
    4300    106.70449   -265.20529    86777.932   -21501.904    1586.8304   -23088.734     18.80264     238.8285 
    4350    108.61919   -332.00924    86771.818   -21471.854    1615.3044   -23087.158    18.918827    243.11402 
    4400    110.17186   -272.60539    86782.935   -21485.188    1638.3945   -23123.583    19.068633    246.58923 
    4450    106.06501   -308.35866     86827.57   -21516.423    1577.3206   -23093.743    19.163187     237.3972 
    4500    106.70086   -596.94311    86843.467   -21537.112    1586.7764   -23123.888    19.180083    238.82037 
    4550    107.46903   -358.63383    86923.053   -21521.151    1598.2001   -23119.351    19.358499     240.5397 
    4600     107.1509   -684.37742    86926.169   -21527.117     1593.469   -23120.586    19.581766    239.82765 
    4650    106.59505   -234.82592    86929.467   -21496.534    1585.2028   -23081.737    19.688404    238.58353 
    4700    105.86216   -287.98589    86967.631   -21483.647    1574.3039   -23057.951     19.89073    236.94317 
    4750    105.52422   -254.02727     86996.96   -21531.987    1569.2782   -23101.265    19.912281    236.18678 
    4800    106.44067   -252.23914    87082.788   -21518.932    1582.9071   -23101.839    19.908677    238.23801 
    4850     107.0236    -436.4033    87065.561   -21519.141    1591.5759   -23110.717     20.13422    239.54273 
    4900    103.55956   -116.41177    87039.429   -21524.592    1540.0612   -23064.653    20.255225    231.78942 
    4950     105.5926   -451.67694    87041.055   -21486.678    1570.2951   -23056.973    20.339421    236.33982 
    5000    105.90375    -777.4573    87008.548   -21496.815    1574.9223   -23071.737    20.487133    237.03625 
    5050    106.75838   -286.89824    87014.479    -21525.99    1587.6318   -23113.622    20.738286    238.94912 
    5100    106.81866    -417.0649    87083.806   -21532.142    1588.5282    -23120.67     20.94823    239.08403 
    5150    106.41471   -592.85504    87071.816   -21503.189    1582.5209    -23085.71    21.387353    238.17989 
    5200    107.96619   -657.27435    87028.643    -21485.86    1605.5934   -23091.453    21.531133    241.65245 
    5250    107.59641   -788.81147    87056.832   -21473.634    1600.0943   -23073.728    21.804474     240.8248 
    5300    106.66481   -924.07983     86964.85   -21486.703    1586.2403   -23072.943    22.155136    238.73968 
    5350    106.95594   -535.98731    86951.223   -21486.501    1590.5697    -23077.07     22.47674    239.39128 
    5400    105.47261   -609.60294    86935.597   -21478.405    1568.5108   -23046.916    22.630957    236.07127 
    5450    108.10776   -565.43457    86925.093   -21491.486    1607.6987   -23099.185    22.723971    241.96932 
    5500    110.63764   -442.77391    86912.796   -21427.064    1645.3213   -23072.386    23.116255    247.63177 
    5550    107.34399   -670.82191    86874.453   -21444.543    1596.3406   -23040.884     23.17844    240.25984 
    5600    108.32591   -342.22852    86842.336    -21454.15     1610.943   -23065.093    23.175098     242.4576 
    5650    106.00472   -590.32752    86817.566     -21448.7    1576.4239   -23025.124    23.368873    237.26225 
    5700    107.29358   -411.29548    86804.079   -21454.056    1595.5909   -23049.647    23.509802      240.147 
    5750    105.84795   -395.94759    86793.293   -21496.729    1574.0926   -23070.821    23.628842    236.91137 
    5800    106.50663   -441.56585    86781.773   -21479.027    1583.8879   -23062.915    23.757989    238.38564 
    5850    106.42442   -123.13812    86793.252   -21459.542    1582.6654   -23042.208    23.953015    238.20163 
    5900    105.23193   -468.87622      86750.9   -21475.746    1564.9315   -23040.678    24.061414    235.53257 
    5950    106.61647   -201.15948    86679.012   -21487.385    1585.5214   -23072.906     24.18069    238.63148 
    6000    108.55712   -202.74064    86677.201   -21469.719    1614.3813     -23084.1    24.391791    242.97508 
    6050     103.7864   -368.23424    86713.115   -21438.273    1543.4347   -22981.708    24.445448    232.29716 
    6100    109.01446   -415.21522    86668.105   -21455.847    1621.1826   -23077.029    24.598773    243.99873 
    6150    105.14269    -719.5892    86620.342   -21483.862    1563.6044   -23047.467    24.613536    235.33282 
    6200     104.7478   -522.74452    86578.677   -21499.927    1557.7319   -23057.658    24.697954    234.44898 
    6250     105.7111   -475.08974     86483.97   -21481.572    1572.0574   -23053.629    24.888566    236.60507 
    6300    106.48724   -470.55875    86453.209   -21440.856    1583.5995   -23024.455    24.905432    238.34222 
    6350    106.44138   -192.89861    86435.966   -21435.617    1582.9176   -23018.535    25.043219    238.23959 
    6400     108.4462    -351.5948    86427.745   -21400.192    1612.7317   -23012.924    25.054349    242.72682 
    6450    109.95303    -399.7718    86460.321   -21401.914    1635.1402   -23037.054     25.31154    246.09944 
    6500    110.14427   -211.75974    86451.805   -21375.846    1637.9842    -23013.83     25.49941    246.52748 
    6550    108.51136   -435.64447    86520.359   -21422.926    1613.7008   -23036.627     25.72269    242.87266 
    6600    101.83271   -527.99951    86504.973   -21492.431    1514.3809   -23006.812    26.067858    227.92437 
    6650    109.13416     -158.793    86547.485   -21437.046    1622.9626   -23060.009     26.34188    244.26663 
    6700    107.93068   -362.33964    86643.644   -21455.125    1605.0654    -23060.19    26.543755    241.57299 
    6750    108.80649   -530.61163    86689.463   -21419.226    1618.0898   -23037.316    26.773903    243.53324 
    6800    110.46452   -583.48923    86722.002   -21420.836    1642.7468   -23063.583    27.169269    247.24428 
    6850    109.43772   -367.35664    86721.941   -21402.387     1627.477   -23029.864     27.23655    244.94607 
    6900    105.31542   -344.22652    86660.894   -21453.591    1566.1731   -23019.764    27.358779    235.71944 
    6950    106.01265   -267.27762    86659.779   -21487.828    1576.5418    -23064.37    27.284316       237.28 
    7000    108.40597   -249.53567    86632.862   -21463.907    1612.1335   -23076.041    27.882109    242.63678 
    7050     108.3577    -313.4925    86677.464   -21411.291    1611.4157   -23022.707    28.063309    242.52875 
    7100    110.17571   -234.85907    86719.241   -21415.428    1638.4518    -23053.88     28.16135    246.59786 
    7150    109.49175   -323.71884     86741.34   -21408.898    1628.2805   -23037.178     28.33984      245.067 
    7200    112.13885   -18.954699    86795.134   -21433.242    1667.6462   -23100.888    28.634468    250.99181 
    7250    107.68167   -217.87688    86855.924   -21472.523    1601.3622   -23073.886    28.945097    241.01563 
    7300    106.66359   -767.50252    86833.885   -21464.867    1586.2221   -23051.089    29.089028    238.73694 
    7350    105.86226    -678.4297    86782.424   -21503.283    1574.3053   -23077.589    29.406486    236.94338 
    7400     104.8121   -511.99532     86697.86   -21512.503    1558.6882   -23071.191    29.626057     234.5929 
    7450    107.72727   -499.69441    86632.746   -21504.181    1602.0404   -23106.221     29.65474     241.1177 
    7500    106.31965   -323.06251    86601.582   -21502.093    1581.1072     -23083.2    30.003011    237.96712 
    7550    108.98541   -323.90873    86591.076   -21490.733    1620.7506   -23111.483    30.214323    243.93371 
    7600    108.32558   -232.57982    86573.727   -21491.226     1610.938   -23102.164     30.13404    242.45684 
    7650    105.99805   -190.36092    86665.054    -21515.52    1576.3248   -23091.845    30.426086    237.24733 
    7700    107.35114   -213.98061    86683.079   -21514.416    1596.4469   -23110.863    30.718415    240.27585 
    7750    107.74178   -783.49495    86639.321   -21489.714    1602.2562   -23091.971    31.004427    241.15018 
    7800    107.75988   -343.00898     86664.03   -21484.906    1602.5254   -23087.432    31.381866    241.19069 
    7850    107.98339   -474.64904     86669.75   -21459.697    1605.8493   -23065.546     31.50348    241.69096 
    7900     104.6917   -267.21869    86597.614    -21470.34    1556.8976   -23027.238     31.70024     234.3234 
    7950    106.40192    -460.3969    86542.434   -21487.192    1582.3307   -23069.523    31.862149    238.15126 
    8000    106.93272   -508.37163    86460.927   -21454.373    1590.2245   -23044.597    32.128108    239.33932 
    8050    107.55854    -379.3941    86434.241   -21456.089    1599.5311   -23055.621     32.27895    240.74004 
    8100    113.46237   -566.46423    86487.577    -21410.99    1687.3286   -23098.318    32.331518    253.95413 
    8150    108.07014   -245.44685    86524.409   -21442.588    1607.1393   -23049.728    32.587132    241.88512 
    8200    108.45889     -289.265    86517.414   -21436.511    1612.9206   -23049.432    32.943456    242.75524 
    8250    106.97966   -371.83143    86509.086   -21456.939    1590.9225   -23047.861    33.370237    239.44438 
    8300    110.90394   -450.28229    86505.912   -21436.467    1649.2815   -23085.749    33.643742     248.2278 
    8350    109.78079   -594.37181    86408.049   -21447.071    1632.5788   -23079.649    33.603722    245.71393 
    8400     108.6777   -159.95694    86427.069   -21433.152    1616.1745   -23049.326    33.664482    243.24498 
    8450    108.07811   -293.31227    86547.212   -21436.153    1607.2578   -23043.411    33.811982    241.90296 
    8500    108.50022   -390.41892    86534.367   -21446.386    1613.5351   -23059.921    33.846563    242.84774 
    8550    107.69039   -315.24214    86515.742    -21470.51     1601.492   -23072.002    33.994914    241.03516 
    8600    109.11409   -428.54734    86403.321   -21437.715    1622.6641   -23060.379    34.325251    244.22171 
    8650    107.65062   -143.40648    86376.703   -21440.738    1600.9006   -23041.639    34.619352    240.94615 
    8700    107.29356   -173.50521    86409.342   -21492.562    1595.5905   -23088.153    34.865042    240.14695 
    8750    107.47799    -109.7431    86419.449   -21471.188    1598.3333   -23069.522    34.995826    240.55976 
    8800    110.83149   -206.23738    86455.417   -21433.988    1648.2041   -23082.193    35.117322    248.06565 
    8850    110.90928   -383.43171     86484.47   -21453.838    1649.3609   -23103.199    35.196274    248.23975 
    8900    109.37614   -256.83705    86512.586   -21440.666    1626.5611   -23067.227    35.399075    244.80823 
    8950    110.20895   -195.84727    86495.075   -21465.616    1638.9461   -23104.562    35.527347    246.67226 
    9000    106.99009   -332.96152    86497.283   -21514.473    1591.0776   -23105.551    35.631484    239.46773 
    9050    109.07194   -209.66753     86473.34   -21487.636    1622.0374   -23109.673    35.860717    244.12738 
    9100    105.41111   -170.90207    86466.655    -21506.41    1567.5962   -23074.006    36.315889    235.93362 
    9150    106.43361   -445.27159    86406.749   -21522.209     1582.802   -23105.011    36.329417     238.2222 
    9200    110.22666    20.535799    86480.299   -21506.168    1639.2094   -23145.378    36.473369    246.71188 
    9250    106.29898   -406.39045    86494.814   -21499.939       1580.8   -23080.739    36.843776    237.92087 
    9300    107.06577   -604.47246    86442.402    -21501.99    1592.2031   -23094.193    37.224703    239.63712 
    9350    106.00628   -297.57375     86389.83   -21497.728    1576.4471   -23074.175    37.012923    237.26574 
    9400    107.78445   -458.50258    86364.739    -21475.15    1602.8907   -23078.041    37.016338    241.24567 
    9450    106.26759   -297.82867    86363.863   -21472.484    1580.3331   -23052.818     37.09388     237.8506 
    9500    109.00952   -48.337462    86410.199   -21483.081    1621.1091    -23104.19    37.018884    243.98766 
    9550    106.47308   -411.31996    86390.702   -21464.586     1583.389   -23047.975     37.49313    238.31054 
    9600    105.55589   -394.10988    86396.853   -21490.477    1569.7493   -23060.226    37.633062    236.25767 
    9650    108.97787   -580.22712    86390.072   -21481.723    1620.6385   -23102.361    37.965388    243.91683 
    9700    108.10392   -71.142029    86364.897   -21464.308    1607.6417    -23071.95    38.265446    241.96073 
    9750    105.97551    -494.5848    86437.441   -21463.459    1575.9896   -23039.448    38.499224    237.19688 
    9800    105.49325   -421.95517    86376.541    -21464.52    1568.8177   -23033.338    38.772542    236.11746 
    9850    107.64021   -344.38388     86356.62   -21450.516    1600.7457   -23051.261    38.838077    240.92284 
    9900    109.97016   -390.40227    86383.131    -21419.94    1635.3949   -23055.335    38.885901    246.13778 
    9950    109.26547   -555.17103    86325.484   -21432.711    1624.9154   -23057.627    38.845702    244.56054 
   10000    108.77706   -394.34121    86275.776   -21414.498    1617.6521    -23032.15    39.225065    243.46736 
   10050    109.24939   -740.12164     86301.18   -21432.092    1624.6762   -23056.768    39.412872    244.52454 
   10100    108.54477    -321.1712    86340.906   -21441.443    1614.1977   -23055.641    39.611655    242.94745 
   10150    109.91948   -507.51495    86402.292       -21460    1634.6414   -23094.641    39.749381    246.02436 
   10200    106.85632   -628.90285    86329.004   -21470.459    1589.0882   -23059.547    39.806494    239.16831 
   10250    106.45921   -314.30633    86306.717   -21493.846    1583.1828   -23077.029    39.706366    238.27951 
   10300    106.25222   -159.24158     86287.57   -21502.786    1580.1046    -23082.89    39.809649    237.81622 
   10350    104.05983   -591.67692    86242.499   -21526.168    1547.5009   -23073.668    40.110901    232.90914 
   10400    108.35959   -151.22955     86229.33   -21483.867    1611.4438   -23095.311    40.441481    242.53298 
   10450    109.32345   -182.65008    86168.538   -21441.074    1625.7775   -23066.851    40.747688     244.6903 
   10500    108.65571   -274.43726    86165.403   -21488.373    1615.8475    -23104.22    41.013385    243.19576 
   10550    105.99726   -92.475772    86192.783    -21521.17    1576.3129   -23097.483    41.003933    237.24554 
   10600    108.39835   -400.86153    86253.596   -21500.194    1612.0202   -23112.214    41.384266    242.61973 
   10650    107.33241   -471.30765    86303.725   -21480.604    1596.1683   -23076.772    41.615095    240.23392 
   10700    104.35178   -155.97592    86341.695   -21498.903    1551.8426   -23050.746    42.032486    233.56259 
   10750    109.67958   -100.80238    86323.485   -21460.652    1631.0737   -23091.726    42.244883     245.4874 
   10800    109.83148   -97.875217     86335.84   -21449.258    1633.3327   -23082.591    42.647984     245.8274 
   10850    105.70769   -328.12153    86392.423   -21479.565    1572.0067   -23051.572    42.903325    236.59743 
   10900    106.76697   -317.58925    86399.434   -21491.137    1587.7596   -23078.897     43.08327    238.96834 
   10950      108.692   -211.27044    86493.057   -21464.525    1616.3871   -23080.912    43.373937    243.27698 
   11000    109.33349   -302.42104      86526.6    -21433.52    1625.9269   -23059.447    43.704951    244.71278 
   11050    111.43232   -564.34499    86520.915   -21442.973    1657.1392   -23100.112    43.902304    249.41043 
   11100    110.02444   -377.45703    86506.656   -21447.729    1636.2023   -23083.931    44.079484    246.25929 
   11150    106.21891   -396.67246    86518.035   -21495.464    1579.6092   -23075.073    43.991126    237.74165 
   11200    105.75094   -244.45389    86471.393   -21491.523    1572.6499   -23064.173    44.007763    236.69424 
   11250     108.2759   -335.13071    86435.154   -21481.221    1610.1992    -23091.42    44.087629    242.34565 
   11300    107.58937   -406.31513    86447.154   -21464.945    1599.9897   -23064.935    44.526369    240.80905 
   11350    103.43439   -195.39785    86475.553   -21502.707    1538.1999   -23040.907    44.701873    231.50928 
   11400    108.46818   -599.54271    86442.774   -21497.198    1613.0587   -23110.256     44.98296    242.77602 
   11450    104.97014   -181.58045    86423.771   -21515.377    1561.0383   -23076.415    45.239644    234.94662 
   11500    106.73968   -216.55077    86456.615   -21497.068    1587.3537   -23084.422     45.71716    238.90725 
   11550    108.22439   -433.55599    86524.977   -21474.143    1609.4332   -23083.576    46.269741    242.23036 
   11600    108.13789   -555.38902    86527.568    -21503.01    1608.1468   -23111.157    46.621524    242.03675 
   11650    107.70581   -494.66356    86550.828   -21510.683    1601.7212   -23112.404    46.804269    241.06966 
   11700    107.27189   -628.36956    86522.702   -21498.206    1595.2683   -23093.474     47.16942    240.09845 
   11750    107.86115   -834.17803    86552.294   -21470.578    1604.0313   -23074.609    47.488493    241.41734 
   11800    108.47601   -596.55302    86554.186   -21442.458    1613.1751   -23055.633    47.727937    242.79354 
   11850    109.68403   -464.37131    86507.306   -21425.802    1631.1398   -23056.942    47.984936    245.49736 
   11900    109.08926   -602.52612    86509.543   -21416.964    1622.2948   -23039.259    48.438301    244.16613 
   11950    109.08705    -531.5154    86534.002   -21410.673     1622.262   -23032.936    48.666111    244.16119 
   12000     107.6791   -530.43072    86555.136   -21431.947     1601.324   -23033.271    48.750169    241.00988 
   12050    110.25549   -141.61083     86553.12   -21413.471    1639.6382   -23053.109    48.893406    246.77642 
   12100    108.07267   -233.82039    86514.849   -21431.359    1607.1769   -23038.536    48.848824    241.89078 
   12150    107.69241   -468.27945    86449.952    -21436.52     1601.522   -23038.042    48.754209    241.03968 
   12200    110.00217    -404.0033    86389.255   -21415.638     1635.871   -23051.509    48.901438    246.20942 
   12250    107.47181   -128.72534    86383.911   -21407.654    1598.2413   -23005.895    49.019169    240.54591 
   12300    106.13467   -315.10059    86442.411   -21401.784    1578.3564    -22980.14    49.417437     237.5531 
   12350    110.85382   -357.18369     86469.19   -21430.059    1648.5361   -23078.595    49.653478    248.11561 
   12400    108.30344   -213.62769    86488.461   -21451.316    1610.6088   -23061.925    50.054621     242.4073 
   12450     105.4614   -459.78828    86488.011   -21481.565     1568.344   -23049.909    50.014233    236.04617 
   12500    106.42406   -364.24408    86427.966   -21459.811      1582.66   -23042.471    50.407571    238.20082 
   12550    106.45796   -219.54958    86456.972   -21452.834    1583.1641   -23035.998    50.281793    238.27669 
   12600    105.72113   -287.65045    86444.098   -21495.756    1572.2065   -23067.962     50.29109     236.6275 
   12650    107.40758   -716.92977    86365.091   -21494.756    1597.2862   -23092.043    50.327097    240.40217 
   12700    105.28128   -392.16005    86298.892   -21478.573    1565.6654   -23044.239    50.491341    235.64303 
   12750    105.82541   -409.99436    86321.192    -21487.36    1573.7573   -23061.118     50.84965     236.8609 
   12800    105.69469   -566.65787    86306.004    -21495.76    1571.8134   -23067.574    50.943431    236.56834 
   12850    104.41845   -161.28538    86338.575   -21519.425    1552.8341   -23072.259    50.958903    233.71183 
   12900    107.54612   -376.87905    86360.394   -21478.865    1599.3464   -23078.211    50.983381    240.71223 
   12950    106.81802   -555.54082    86398.455   -21449.851    1588.5187   -23038.369    51.413529    239.08259 
   13000    108.22651    -385.9518    86393.359   -21441.971    1609.4647   -23051.436    51.716361     242.2351 
   13050    106.67362   -404.39783    86454.578   -21434.249    1586.3713    -23020.62    52.179989     238.7594 
   13100    105.53991   -364.30225    86462.342   -21497.012    1569.5115   -23066.524    52.444236    236.22189 
   13150    106.96207   -58.589725    86461.812   -21495.429    1590.6609    -23086.09    52.967051    239.40501 
   13200    108.73373   -433.02774    86526.802   -21494.395    1617.0078   -23111.403    53.664569    243.37039 
   13250    106.37046    -165.3421    86587.827   -21497.467     1581.863    -23079.33    53.946948    238.08086 
   13300    106.34165   -410.31446    86567.656   -21498.637    1581.4344   -23080.072    54.262485    238.01637 
   13350    103.75253   -246.71192     86606.17   -21515.677     1542.931   -23058.608    54.454126    232.22134 
   13400    105.00996   -14.991067    86647.076   -21477.189    1561.6306    -23038.82    54.629264    235.03576 
   13450    106.20771   -152.58087    86643.195   -21456.977    1579.4426    -23036.42    54.790718    237.71658 
   13500    107.13627   -163.88053    86668.742   -21435.489    1593.2515    -23028.74    55.166149    239.79491 
   13550    107.67185   -377.94965    86617.543   -21419.341    1601.2163   -23020.557    55.292849    240.99366 
   13600    109.18524   -271.29568    86634.974   -21433.411    1623.7222   -23057.133    55.406821    244.38095 
   13650    108.56401   -152.02093    86701.231   -21428.665    1614.4838   -23043.149    55.573388    242.99051 
   13700    108.32108   -644.01027    86784.618   -21404.601    1610.8712   -23015.473    56.137913    242.44679 
   13750    110.65289   -321.93765    86784.762   -21361.549     1645.548   -23007.097    56.393256    247.66588 
   13800    107.20912   -559.49464     86755.11   -21389.141    1594.3349   -22983.475    56.629125    239.95797 
   13850    108.98659   -331.43671    86707.304   -21444.279    1620.7681   -23065.047    56.817338    243.93634 
   13900    106.58351   -348.34067    86682.234   -21504.935    1585.0313   -23089.967     57.20697    238.55772 
   13950     105.5881   -360.30903    86673.418   -21490.843    1570.2282   -23061.071    57.646714    236.32975 
   14000    103.73928   -590.44325    86677.734   -21525.497     1542.734   -23068.231    57.784541     232.1917 
   14050    106.22376   -513.50914    86705.373   -21476.756    1579.6813   -23056.438    58.060303    237.75251 
   14100    104.81801   -658.14313    86668.902   -21480.021    1558.7761   -23038.797    58.217953    234.60613 
   14150    108.31087    -426.5379    86644.808   -21445.931    1610.7192   -23056.651    58.660468    242.42392 
   14200    107.18023   -656.59884     86604.16   -21516.207    1593.9052   -23110.112    58.679699     239.8933 
   14250    105.25057    -379.5065    86581.432   -21465.689    1565.2087   -23030.898     58.61923    235.57429 
   14300    108.44189   -557.30205    86554.754   -21476.192    1612.6677   -23088.859    58.530543    242.71718 
   14350    104.62298   -296.94457    86563.418   -21475.305    1555.8757    -23031.18    58.627013     234.1696 
   14400    108.05701   -194.98588    86610.197   -21486.589     1606.944   -23093.533    58.952985    241.85572 
   14450    107.40273   -239.75946    86699.376   -21457.797    1597.2141   -23055.011    59.229818     240.3913 
   14500    106.56099   -343.90093    86742.307   -21468.351    1584.6963   -23053.048    59.571727     238.5073 
   14550    106.19102    -183.9533     86768.23   -21485.441    1579.1944   -23064.636    59.634178    237.67923 
   14600    104.91029   -268.59733    86821.312   -21490.731    1560.1484    -23050.88    59.619737    234.81267 
   14650    106.42984   -484.91145    86838.605   -21551.235     1582.746   -23133.981    59.844166    238.21376 
   14700    104.14143   -680.41074    86853.313   -21568.248    1548.7144   -23116.962    60.132835    233.09178 
   14750      104.451   -319.80374    86824.362   -21552.233    1553.3181   -23105.551    60.237401    233.78467 
   14800    104.06143   -185.85454     86742.51   -21558.416    1547.5247   -23105.941    60.392796    232.91273 
   14850    108.03026   -451.64586    86738.738   -21551.211    1606.5462   -23157.757    60.896682    241.79585 
   14900    106.99043   -94.316632    86819.839   -21513.669    1591.0827   -23104.752    61.297082     239.4685 
   14950    105.39747   -390.56662    86878.385   -21495.613    1567.3933   -23063.006    61.732187    235.90308 
   15000    106.97898   -636.30195    86830.859   -21486.808    1590.9123    -23077.72     61.72894    239.44285 
   15050    108.08843   -193.72304    86865.449   -21477.842    1607.4113   -23085.253    61.753897    241.92605 
   15100    109.06442   -428.38207     86882.97   -21465.735    1621.9255    -23087.66    61.920958    244.11054 
   15150    106.43971   -460.61072     86851.14   -21473.891    1582.8927   -23056.783    62.159892    238.23584 
   15200    109.25248   -415.57254    86780.456   -21474.632    1624.7222   -23099.354    62.191048    244.53146 
   15250    108.74461   -629.42387    86749.083    -21471.51    1617.1695   -23088.679    62.073386    243.39473 
   15300     107.8305   -260.06284    86747.123   -21464.208    1603.5755   -23067.784    62.215032    241.34875 
   15350    107.20702   -364.64165     86818.16   -21461.674    1594.3036   -23055.977    62.386283    239.95327 
   15400     105.7134   -788.04014    86786.786   -21431.095    1572.0916   -23003.187    62.452449     236.6102 
   15450    105.76457   -268.18363    86787.295   -21454.826    1572.8526   -23027.679    62.713378    236.72474 
   15500    105.63354   -223.93445    86797.274   -21475.927     1570.904   -23046.831    62.827765    236.43146 
   15550    106.59624   -548.41982     86734.77   -21468.539    1585.2205    -23053.76     62.95789    238.58619 
   15600    107.62809   -137.41126    86733.384   -21476.551    1600.5654   -23077.116    63.025948    240.89571 
   15650     106.2805   -489.69791    86645.361   -21458.051    1580.5251   -23038.576    63.439906     237.8795 
   15700    106.00411   -532.14468    86582.812   -21492.141    1576.4148   -23068.556    63.713812    237.26087 
   15750     105.2246   -296.72307     86614.31    -21474.23    1564.8226   -23039.052    64.075778    235.51617 
   15800    105.28638    -539.8277    86636.639   -21440.691    1565.7412   -23006.432    64.134055    235.65444 
   15850     108.4853   -174.69334    86625.462   -21429.716    1613.3133   -23043.029     64.32335    242.81435 
   15900    107.84706   -170.50936    86651.006   -21453.345    1603.8219   -23057.167    64.626471    241.38582 
   15950    104.78149   -301.78279    86593.959   -21460.758    1558.2329   -23018.991    64.661927    234.52439 
   16000     106.6225   -178.01579    86603.623    -21436.77     1585.611   -23022.381    64.933939    238.64497 
   16050    110.73559   -574.60184    86547.405    -21440.54    1646.7778   -23087.317    64.938935    247.85098 
   16100    107.27253   -417.15423    86502.568   -21437.976    1595.2779   -23033.254    65.124793     240.0999 
   16150    106.68139   -312.72522    86499.357   -21442.467    1586.4869   -23028.954    65.262702    238.77679 
   16200    107.55624   -372.38585    86496.781   -21471.962     1599.497   -23071.459    65.146906    240.73491 
   16250    106.61765   -525.08452    86502.245   -21503.937    1585.5389   -23089.476    65.146206    238.63412 
   16300     106.5568   -269.90831    86430.337    -21478.87    1584.6341   -23063.504    65.472001    238.49793 
   16350    105.73927   -528.66941    86435.743   -21460.471    1572.4763   -23032.947    65.828853    236.66811 
   16400    106.86127   -504.45034    86512.155   -21429.305    1589.1618   -23018.466    66.158362    239.17939 
   16450    106.48975   -369.93368    86503.095   -21455.048     1583.637   -23038.685    66.399278    238.34786 
   16500    107.09566   -357.77737    86545.557   -21448.264    1592.6475   -23040.912    66.641558    239.70401 
   16550    109.77077   -336.26002    86548.929   -21450.737    1632.4297   -23083.167    66.958185     245.6915 
   16600    109.34885   -368.91058    86613.276    -21459.61    1626.1553   -23085.765    67.192341    244.74716 
   16650    105.45018   -571.00059     86582.74   -21478.836    1568.1772   -23047.013    67.453925    236.02106 
   16700    105.88238   -555.74244    86551.383   -21477.077    1574.6045   -23051.682    67.881856    236.98842 
   16750    106.28506     -713.347    86544.414   -21470.279    1580.5929   -23050.872    68.233827    237.88972 
   16800    104.83042   -582.92716     86483.66   -21466.867    1558.9606   -23025.827    68.295371     234.6339 
   16850    105.69548   -538.40322    86422.688    -21480.79    1571.8251   -23052.615    68.523395    236.57009 
   16900    105.01324    6.1146557    86322.777   -21444.193    1561.6794   -23005.872    68.871591     235.0431 
   16950    107.86691    -161.2167    86280.631   -21371.506    1604.1169   -22975.623    69.233234    241.43023 
   17000    111.30532    154.77888    86194.792   -21341.761    1655.2506   -22997.012    69.332184    249.12618 
   17050    109.72488     152.4998    86195.336   -21354.723    1631.7473    -22986.47     69.74614    245.58879 
   17100     105.5856   -160.58116    86220.567   -21461.549     1570.191    -23031.74    70.157718    236.32415 
   17150     105.4113    -686.9895    86117.362   -21464.996    1567.5991   -23032.595    70.595805    235.93405 
   17200    105.26076   -301.77726    86074.743   -21491.454    1565.3603   -23056.814    70.487368     235.5971 
   17250    108.43135   -304.16523    86081.841   -21495.052    1612.5109   -23107.563     70.47097    242.69358 
   17300    109.02314   -186.63967    86049.598   -21472.134    1621.3116   -23093.445    70.568684    244.01814 
   17350    108.28826   -360.42999    86129.198    -21476.56    1610.3829   -23086.943    70.966686    242.37331 
   17400    108.05562   -461.87998    86093.045   -21476.091    1606.9233   -23083.015    71.266526    241.85262 
   17450     107.0381   -206.20684    86082.225   -21461.297    1591.7915   -23053.089    71.034082    239.57517 
   17500    108.39966   -589.38561    86121.802   -21454.445    1612.0396   -23066.484     71.46066    242.62265 
   17550    110.07571   -354.30261      86125.6   -21422.279    1636.9646   -23059.243     71.82555    246.37403 
   17600    109.74692   -276.99118    86135.588   -21433.682    1632.0751   -23065.757    72.051143    245.63812 
   17650    106.22443   -279.21813     86199.36   -21417.943    1579.6913   -22997.634    72.209326    237.75402 
   17700    105.77429   -173.73892    86255.412   -21440.089    1572.9971   -23013.086    72.476611    236.74649 
   17750    109.28997    -483.9432    86310.945   -21431.614    1625.2797   -23056.894    72.524026    244.61537 
   17800      108.272   -300.01251    86282.776   -21453.217    1610.1412   -23063.358    72.951335    242.33693 
   17850     107.7801   -569.25665    86285.932   -21451.833     1602.826   -23054.659     73.26946    241.23594 
   17900    108.37327   -591.85719    86274.368   -21432.852    1611.6472   -23044.499    73.576419    242.56359 
   17950     109.3055   -271.20611    86221.178   -21380.156    1625.5107   -23005.667    73.744248    244.65013 
   18000    108.55628   -319.97196    86190.665   -21409.615    1614.3688   -23023.984    73.983751    242.97321 
   18050    107.14074   -175.45853    86199.064   -21436.451     1593.318   -23029.769    74.412089    239.80492 
   18100    105.07184   -499.37463    86228.567   -21431.793    1562.5509   -22994.344    74.933497    235.17426 
   18150    110.56193   -439.09451    86274.013    -21401.07    1644.1954   -23045.266    75.165919    247.46231 
   18200    110.37409   -528.26836    86316.695   -21454.475    1641.4019   -23095.877    75.249842    247.04187 
   18250     107.3962   -369.80969    86274.658   -21454.928    1597.1169   -23052.045    75.307966    240.37668 
   18300    107.94702    -441.1037    86271.653   -21467.682    1605.3083    -23072.99     75.32273    241.60954 
   18350    107.82627   -333.47178    86264.826    -21436.58    1603.5126   -23040.092    75.756631    241.33927 
   18400     106.6448   -112.08986    86335.826    -21443.05    1585.9428   -23028.993    75.894731     238.6949 
   18450     106.9873   -374.83336    86349.009   -21443.335    1591.0361   -23034.371    75.882393    239.46148 
   18500    105.88721   -248.00523    86360.285    -21448.67    1574.6764   -23023.347    76.112419    236.99923 
   18550    107.27354     -428.148    86308.691   -21475.877    1595.2929    -23071.17    76.085313    240.10215 
   18600    104.16423   -527.41859    86359.667   -21507.537    1549.0535    -23056.59    75.896543    233.14282 
   18650     105.5896   -416.54873    86342.238    -21451.17    1570.2505   -23021.421    75.842828    236.33311 
   18700    105.36311   -558.48573     86326.15   -21443.631    1566.8824   -23010.514     75.98787    235.82619 
   18750    106.64009   -345.12906    86353.271   -21437.656    1585.8726   -23023.529    76.051418    238.68434 
   18800    109.99107   -457.18396     86379.69   -21435.363    1635.7059   -23071.069    76.252879    246.18458 
   18850    106.78105   -640.58501    86386.433   -21445.118    1587.9688   -23033.087    76.539877    238.99984 
   18900     108.5581   -103.90979    86367.132    -21444.01    1614.3959   -23058.406    76.387483    242.97729 
   18950    108.76274   -188.74112    86372.413   -21459.235    1617.4391   -23076.675    76.309407    243.43531 
   19000      108.166   -296.63207    86406.693   -21476.426    1608.5649   -23084.991    76.411851    242.09968 
   19050    107.99178   -418.05799    86391.193   -21501.165     1605.974   -23107.138    76.306058    241.70973 
   19100    106.26226   -408.71609    86379.701   -21513.472    1580.2539   -23093.725    76.556523    237.83869 
   19150    105.69698   -246.74429    86366.401   -21525.546    1571.8474   -23097.394    76.854939    236.57345 
   19200    107.58157   -459.30482    86324.972   -21486.134    1599.8737   -23086.008    77.067033    240.79159 
   19250    107.96039   -268.65211     86240.29   -21446.312    1605.5072   -23051.819    76.977514    241.63948 
   19300    106.33338   -327.06929    86282.406   -21451.819    1581.3115    -23033.13    77.274082    237.99786 
   19350     105.9269   -2.6900931      86288.2    -21482.55    1575.2666   -23057.816    77.621172    237.08807 
   19400    108.62924   -258.22815    86342.601   -21468.276    1615.4538    -23083.73     77.77188    243.13651 
   19450    109.13258     -378.697    86383.359   -21476.582    1622.9391   -23099.521    78.084933    244.26309 
   19500     107.1006   -261.96098    86409.143   -21448.164    1592.7209   -23040.884    78.162946    239.71506 
   19550    107.33989   -637.04547    86394.581    -21476.11    1596.2796   -23072.389    78.204491    240.25066 
   19600    109.26578   -408.50033     86416.86   -21450.023      1624.92   -23074.943    78.379414    244.56123 
   19650    106.63561   -518.46604    86368.994   -21480.106    1585.8061   -23065.912    78.749232    238.67433 
   19700    106.80343   -664.06599    86399.786   -21482.205    1588.3016   -23070.507    79.117219    239.04993 
   19750    108.60765   -548.34093    86313.971   -21458.758    1615.1327   -23073.891    79.474204    243.08818 
   19800    106.99895   -370.97947    86194.809   -21450.875    1591.2094   -23042.084    79.587043    239.48756 
   19850    108.03361    -174.4691     86175.05   -21458.711    1606.5961   -23065.307    79.615238    241.80337 
   19900    107.64239   -467.66875    86174.065   -21401.373    1600.7781   -23002.151    79.795963    240.92772 
   19950    108.67249   -498.40723    86112.445   -21432.841     1616.097   -23048.938    79.989491    243.23331 
   20000    108.44654    -611.0753    86140.234   -21442.226    1612.7368   -23054.963    80.262268    242.72758 
   20050    106.40252    -277.1995    86128.945   -21431.706    1582.3397   -23014.046    80.573564    238.15261 
   20100    108.51657   -171.17032    86099.075    -21431.07    1613.7783   -23044.848    80.630936    242.88433 
   20150    108.23358    -375.8708    86148.333   -21434.358    1609.5699   -23043.928    81.042111    242.25093 
   20200    109.49459   -434.05454    86108.586   -21441.069    1628.3227   -23069.391    81.190536    245.07336 
   20250    107.16311   -382.65995    86089.716   -21479.946    1593.6506   -23073.597    81.523872    239.85498 
   20300    105.41221   -355.26422    86077.444   -21449.044    1567.6126   -23016.657    81.826988    235.93608 
   20350     105.5193   -537.37016    86048.896   -21474.248    1569.2051   -23043.453    81.699833    236.17577 
   20400    104.04173   -269.91711    86046.677   -21474.267    1547.2318   -23021.499    81.597332    232.86864 
   20450    106.44285   -594.63734    86014.411   -21436.105    1582.9394   -23019.045    81.659339    238.24288 
   20500    108.38533   -380.25306    86055.235   -21428.974    1611.8266     -23040.8    81.920419    242.59059 
   20550    108.45676   -252.98101    86102.347   -21428.515    1612.8888   -23041.404    82.159635    242.75045 
   20600    109.13632   -436.36082    86184.974   -21407.053    1622.9947   -23030.048    82.544354    244.27146 
   20650    107.12898   -317.35293    86163.325   -21407.313    1593.1431   -23000.456    82.643687     239.7786 
   20700    105.17029   -338.80651    86245.129   -21459.904    1564.0149   -23023.919    82.600239    235.39461 
   20750    105.37511   -669.81532    86245.369   -21458.184    1567.0608   -23025.245    82.954657    235.85305 
   20800    105.14135   -462.84567    86224.454   -21507.651    1563.5846   -23071.235    83.064559    235.32984 
   20850    106.59022   -410.10611    86202.901    -21506.79     1585.131   -23091.921    83.201882    238.57272 
   20900    107.31933   -325.03748    86164.449   -21499.134    1595.9738   -23095.108    83.660555    240.20464 
   20950    103.06688   -393.50628    86137.423   -21476.336    1532.7345   -23009.071    83.680317     230.6867 
   21000    104.12836   -382.11403      86087.7   -21488.934    1548.5201   -23037.455    83.796684    233.06254 
   21050    104.71613   -341.19898    86026.163     -21488.5     1557.261   -23045.761    84.045312     234.3781 
   21100    105.78648    -602.3146     85971.25   -21519.352    1573.1784    -23092.53    84.421451    236.77378 
   21150    104.95385   -460.28136     85954.47   -21491.718    1560.7962   -23052.514     84.69496    234.91017 
   21200    107.84609   -257.61981    85995.299   -21502.553    1603.8074   -23106.361    84.727785    241.38365 
   21250    104.72591   -371.26004    85971.496    -21528.29    1557.4063   -23085.696    84.846757    234.39998 
   21300    104.28565   -479.91195    85949.871   -21481.498    1550.8592   -23032.357     85.37482    233.41459 
   21350    107.32483   -452.40597    85976.957   -21514.453    1596.0555   -23110.508    85.466157    240.21694 
   21400    107.53133   -436.19246    86078.676   -21489.983    1599.1266    -23089.11     85.27328    240.67915 
   21450    105.53653   -320.57228    86047.408    -21462.73    1569.4613   -23032.192    85.604126    236.21433 
   21500    106.45577   -455.67538    86072.275   -21450.955    1583.1315   -23034.086    86.053888    238.27179 
   21550    109.12966   -291.99119     86111.44   -21411.175    1622.8957    -23034.07    86.355633    244.25656 
   21600    108.36902   -593.81081    86105.919   -21451.598     1611.584   -23063.182    86.388886    242.55407 
   21650    110.28807   -166.57942    86078.287   -21429.877    1640.1227       -23070    86.635978    246.84934 
   21700     107.7899   -308.91939    86166.151   -21423.517    1602.9718   -23026.489    87.075498    241.25789 
   21750    106.71595   -581.49342    86174.901   -21452.301    1587.0007   -23039.301    86.969367    238.85413 
   21800    108.93008   -129.30753    86247.694       -21479    1619.9277   -23098.927    87.294311    243.80985 
   21850    106.33208   -262.00764    86333.169   -21514.718    1581.2922    -23096.01    87.914708    237.99496 
   21900    108.12103    63.307795    86362.515   -21494.484    1607.8961    -23102.38    87.933235    241.99903 
   21950    107.45094   -144.08841    86346.632   -21471.904     1597.931   -23069.835    88.151812    240.49921 
   22000    104.93863     -506.162    86320.255   -21489.368    1560.5698   -23049.938    88.428099    234.87609 
   22050    108.79811   -22.436854    86301.512   -21480.166    1617.9652   -23098.132    88.736764    243.51449 
   22100    107.13891   -186.23746    86225.444   -21508.249    1593.2908    -23101.54    89.036556    239.80082 
   22150    107.18903   -403.07935    86220.947   -21515.299     1594.036   -23109.335    89.256798    239.91299 
   22200    108.56351   -63.378783    86253.899   -21519.133    1614.4763   -23133.609    89.470317    242.98939 
   22250    107.00068   -196.61005    86253.728   -21497.641    1591.2351   -23088.876    89.597551    239.49143 
   22300    106.00285   -525.08965    86276.275   -21508.083    1576.3961   -23084.479    90.046196    237.25806 
   22350    106.06619    -835.3899    86230.846   -21549.868    1577.3381   -23127.206     90.68911    237.39984 
   22400    105.16429   -555.07698    86118.415   -21554.941    1563.9257   -23118.867    90.990092    235.38119 
   22450    104.78559   -458.62047     86027.38   -21531.041    1558.2939   -23089.335    91.179731    234.53356 
   22500    103.51718    -431.6258     85965.21   -21549.292    1539.4311   -23088.723    91.148099    231.69459 
   22550    104.24062   -457.02039    85908.084   -21534.108    1550.1894   -23084.297    91.293055    233.31379 
   22600     105.7731   -210.35954    85883.966   -21513.992    1572.9795   -23086.972    91.546083    236.74384 
   22650    106.76312   -214.99849    85968.955   -21450.007    1587.7023   -23037.709    91.719856    238.95972 
   22700    104.24554   -178.76774    86027.182   -21421.716    1550.2626   -22971.979    91.897901     233.3248 
   22750    105.45117    -150.6921    86058.738   -21457.619    1568.1918   -23025.811    92.123121    236.02327 
   22800     107.7012   -509.59651     86044.47   -21450.166    1601.6527   -23051.819    92.300573    241.05935 
   22850    108.06522   -272.21962     86055.15   -21442.908    1607.0661   -23049.974    92.427124     241.8741 
   22900     103.5119   -437.61134    86044.007   -21425.853    1539.3525   -22965.206    92.879605    231.68275 
   22950    104.40837   -511.84449    85939.965   -21428.317    1552.6842   -22981.001    93.294742    233.68926 
   23000     108.8945     -210.733    85932.349    -21410.01    1619.3985   -23029.409    93.674392    243.73022 
   23050    104.36534   -355.66226    85912.894   -21419.988    1552.0442   -22972.033    93.817004    233.59294 
   23100    108.96392    -204.5238    85860.919   -21435.827    1620.4309   -23056.258    93.923948    243.88559 
   23150    105.52595   -378.79053    85897.238   -21430.567     1569.304   -22999.871    94.105609    236.19066 
   23200    105.10131   -182.79938    85971.495   -21425.328    1562.9891   -22988.317    94.089085    235.24022 
   23250    107.17607   -404.57303    86014.566   -21382.617    1593.8433   -22976.461    93.988135    239.88399 
   23300    108.16847   -253.60278    86031.888   -21386.011    1608.6016   -22994.612    94.079336    242.10521 
   23350    107.30934   -314.66244    85984.651   -21405.853    1595.8252   -23001.678    94.547028    240.18228 
   23400    105.66139   -510.30235    86004.285   -21444.414    1571.3182   -23015.732    95.172834    236.49381 
   23450     105.8457   -123.94678    86002.664   -21435.886    1574.0591   -23009.945    95.345241    236.90633 
   23500    107.13283   -379.03842    86051.119   -21426.469    1593.2004    -23019.67    95.414934    239.78722 
   23550    106.52173   -372.01012    86030.303   -21419.216    1584.1125   -23003.328    95.575251    238.41943 
   23600    107.47313   -390.34599    86000.837   -21455.279     1598.261    -23053.54    95.860479    240.54888 
   23650    105.19404   -310.28687    85955.695   -21439.006    1564.3681   -23003.374    96.051135    235.44777 
   23700    105.70609   -396.12168     85960.42   -21436.925    1571.9829   -23008.907    96.121337    236.59385 
   23750    108.02588   -598.68186    85990.105   -21418.733    1606.4811   -23025.214    96.576675    241.78605 
   23800    107.89604    -479.5442    86049.789   -21411.293    1604.5503   -23015.843    97.073372    241.49545 
   23850    107.43807    -249.2651    86112.396   -21381.345    1597.7396   -22979.085     97.53277    240.47041 
   23900    107.36587    -145.1208    86201.969   -21365.566    1596.6659   -22962.232    98.074926     240.3088 
   23950    108.97658    -701.6141    86200.323   -21330.274    1620.6192   -22950.893    98.260578    243.91394 
   24000    109.45672   -277.97573    86169.484   -21313.167    1627.7595   -22940.927     98.47544    244.98859 
   24050    109.06845   -220.27619    86120.598   -21284.095    1621.9854   -22906.081    98.786081    244.11956 
   24100    110.18348   -431.52018      86064.5   -21301.096    1638.5673   -22939.663    98.896165    246.61523 
   24150    109.52962   -439.37672    86044.253   -21291.253    1628.8436   -22920.097    99.013352    245.15176 
   24200    105.87779   -346.95983    86059.375   -21335.812    1574.5363   -22910.349    99.428714    236.97815 
   24250    111.93497   -591.86723    86023.435   -21306.766    1664.6142    -22971.38    99.840846    250.53547 
   24300    106.10908   -374.83781    85950.554   -21326.175    1577.9758    -22904.15    100.19772    237.49582 
   24350    108.26395   -296.57654    85887.161   -21326.691    1610.0214   -22936.713    100.41261     242.3189 
   24400    110.61089   -791.20961    85885.997   -21343.327    1644.9235   -22988.251      100.278    247.57189 
   24450    108.57618   -270.65614    85894.829   -21345.429    1614.6648   -22960.094    100.58847    243.01775 
   24500     105.3923   -444.81258    85879.398   -21375.568    1567.3164   -22942.884    101.00986    235.89151 
   24550    107.12746   -377.71188    85845.801   -21382.694    1593.1204   -22975.815    101.20463    239.77518 
   24600    107.05376   -228.57447    85787.064   -21364.546    1592.0245   -22956.571     101.4316    239.61024 
   24650    107.19896   -40.809741    85718.203   -21385.395    1594.1837   -22979.578    101.54224    239.93522 
   24700     107.2314   -286.49753    85699.083   -21381.604    1594.6662   -22976.271    101.51818    240.00783 
   24750    106.74767   -37.116631    85691.018   -21404.733    1587.4725   -22992.206    101.41321    238.92513 
   24800    106.88392   -344.48403    85743.023   -21413.192    1589.4986    -23002.69    101.52694    239.23008 
   24850    107.85477   -257.41017    85713.712   -21374.495    1603.9365   -22978.432    101.76991    241.40308 
   24900    110.57657   0.44413145    85756.363   -21373.526    1644.4131   -23017.939    102.26631    247.49507 
   24950    105.33759   -445.59634    85776.162   -21392.971    1566.5029   -22959.474    102.51235    235.76906 
   25000    107.18199   -406.88434    85810.503   -21360.355    1593.9314   -22954.287    102.80433    239.89725 
   25050    110.82157   -446.69363    85795.238   -21349.404    1648.0566   -22997.461    102.82923    248.04344 
   25100    105.72483   -370.90659    85833.909   -21377.739    1572.2616       -22950    103.15956    236.63579 
   25150    106.91622    -371.6162    85870.101   -21334.463     1589.979   -22924.442    103.22729    239.30238 
   25200    106.34693   -224.71225    85964.087   -21357.507     1581.513    -22939.02    102.83612    238.02818 
   25250    107.80239   -244.06137    85989.823   -21321.502    1603.1576    -22924.66    102.92979    241.28584 
   25300    107.95836   -186.09766    86016.266   -21360.343    1605.4769    -22965.82    103.15714    241.63492 
   25350    107.12779   -593.12794     85979.37   -21394.333    1593.1253   -22987.458     103.3973    239.77592 
   25400    105.08917   -319.86486     85980.75   -21363.893    1562.8085   -22926.701    103.50072    235.21305 
   25450    108.04029   -144.29837    85948.233   -21326.556    1606.6953   -22933.252     103.4603     241.8183 
   25500    109.17809   -482.09657    85924.263   -21335.081     1623.616   -22958.697    103.74833    244.36497 
   25550    110.37708   -294.69493    85938.351   -21325.869    1641.4464   -22967.315    104.06476    247.04857 
   25600    107.20393   -381.49654    85933.745   -21333.527    1594.2577   -22927.784     103.8713    239.94635 
   25650    105.15746    -416.7546    85948.354   -21344.054    1563.8241   -22907.878    103.87643     235.3659 
   25700    107.48958   -430.11645    85968.191   -21344.353    1598.5057   -22942.859    104.34281     240.5857 
   25750    109.27977   -178.17202    85984.083   -21318.616     1625.128   -22943.744    104.84427    244.59253 
   25800    107.08001   -229.07732    86042.379   -21300.227    1592.4149   -22892.642    105.07345    239.66899 
   25850    107.88137   -396.87864    85964.228   -21327.962     1604.332   -22932.294    105.30626     241.4626 
   25900    111.39029   -650.96467    85894.287   -21325.187    1656.5141   -22981.701    105.73183    249.31636 
   25950    106.46798   -359.22891    85882.757   -21389.568    1583.3131   -22972.882    106.18869    238.29912 
   26000    107.91243   -526.05462    85957.446   -21438.242    1604.7939   -23043.036    106.45343    241.53212 
   26050    109.02428   -99.896831    86020.367   -21439.073    1621.3285   -23060.401    106.60859    244.02069 
   26100    107.09715   -200.65557    86168.616   -21469.935    1592.6697   -23062.605    106.76555    239.70734 
   26150    109.91783   -190.43524    86223.652   -21454.996    1634.6167   -23089.612    106.94225    246.02066 
   26200    104.87674   -315.06107    86223.063   -21446.851    1559.6494     -23006.5    107.34848    234.73757 
   26250    106.76128   -100.12332    86255.213   -21415.828     1587.675   -23003.503    107.46738    238.95561 
   26300    107.28698   -509.86924     86305.56   -21446.289    1595.4928   -23041.782    107.59131    240.13224 
   26350    106.37065   -420.22387    86295.113   -21410.308    1581.8657   -22992.174    107.80214    238.08127 
   26400    105.46479   -465.43497    86310.294   -21396.063    1568.3944   -22964.457    108.09698    236.05376 
   26450    107.80463   -342.86237    86285.715   -21403.449    1603.1908    -23006.64    108.28228    241.29084 
   26500    104.52398   -719.53153    86243.821   -21402.433    1554.4034   -22956.836    108.28092    233.94802 
   26550    109.47072   -294.56213    86221.241   -21372.259    1627.9678   -23000.227    108.67237    245.01994 
   26600    105.52431   -301.46339    86287.633   -21376.898    1569.2795   -22946.177    108.64464    236.18698 
   26650    105.75316   -484.78787     86299.89   -21407.415    1572.6828   -22980.098     108.7438    236.69919 
   26700    107.09814   -391.73065     86342.35   -21438.005    1592.6845    -23030.69    108.64668    239.70957 
   26750    105.96899   -450.86547    86385.784   -21453.628    1575.8926    -23029.52    108.75546    237.18228 
   26800    107.40163   -570.98481    86435.251   -21424.107    1597.1977   -23021.305    109.54319    240.38885 
   26850    108.00633   -385.37313    86426.559   -21387.398    1606.1904   -22993.589    109.86419     241.7423 
   26900    107.03604   -294.95972    86438.803   -21390.921     1591.761   -22982.682    110.42189    239.57058 
   26950    108.43316   -704.46533    86440.302   -21430.316    1612.5378   -23042.854    110.68508    242.69763 
   27000    107.36749    -228.9591    86352.516   -21413.421      1596.69   -23010.111      110.911    240.31242 
   27050    107.37602   -276.95169    86410.584   -21422.174    1596.8169   -23018.991    111.22898    240.33153 
   27100    105.76878   -327.45945    86436.497   -21463.871    1572.9152   -23036.786    111.72747    236.73416 
   27150     105.8604    -70.36831    86429.683   -21472.437    1574.2776   -23046.715    112.10411    236.93922 
   27200    110.18089   -257.32175    86428.026    -21448.38    1638.5287   -23086.909     112.6042    246.60944 
   27250    107.56765   -279.95479    86343.455   -21455.567    1599.6666   -23055.234    112.43307    240.76042 
   27300     106.1706    -406.0523    86302.487   -21442.964    1578.8907   -23021.855    112.43768    237.63352 
   27350    106.93618    76.404261    86337.975   -21441.463    1590.2759   -23031.739    112.48451    239.34706 
   27400    109.23538   -104.17946    86378.526    -21428.27    1624.4678   -23052.738    112.30423    244.49317 
   27450    109.49907   -277.66686    86316.362   -21380.014    1628.3892   -23008.403    112.26071    245.08337 
   27500    107.85816   -311.31379    86324.529   -21385.031    1603.9869   -22989.018    112.13817    241.41066 
   27550     110.6559   -284.56743    86295.057     -21318.6    1645.5928   -22964.193     112.5453    247.67262 
   27600    112.68957   -209.14254    86334.859   -21328.067    1675.8361   -23003.903    113.21367    252.22444 
   27650    107.88292   -414.40814    86354.372   -21333.467    1604.3551   -22937.822    113.51359    241.46608 
   27700    108.28887   -434.92521    86344.047   -21388.359    1610.3921   -22998.751    113.31704    242.37469 
   27750    109.65741   -653.86844    86328.853   -21382.575    1630.7439   -23013.319    113.64186    245.43777 
   27800    105.65685   -484.48903    86335.456   -21425.911    1571.2507   -22997.162     113.6338    236.48365 
   27850    105.99426   -98.914975    86301.599   -21449.432    1576.2684   -23025.701    113.71767    237.23884 
   27900    106.42584   -372.17205    86303.739   -21473.402    1582.6865   -23056.088    114.19911     238.2048 
   27950    106.20335   -608.48799     86263.09    -21439.01    1579.3778   -23018.387    114.86079    237.70683 
   28000    107.21778   -305.05207    86248.078   -21452.588    1594.4637   -23047.052    114.87869    239.97736 
   28050    107.75721   -514.75558    86195.631   -21473.854    1602.4857    -23076.34    115.17878    241.18472 
   28100    106.98912   -364.47179    86206.662   -21480.469    1591.0632   -23071.532    115.37082    239.46556 
   28150    108.42052   -63.513463    86295.128   -21483.109    1612.3499   -23095.459     115.6783    242.66935 
   28200    104.03057   -324.82928     86344.27   -21469.589    1547.0659   -23016.655    115.64756    232.84367 
   28250    108.42831   -497.46739    86339.844   -21462.832    1612.4658   -23075.297    115.41542    242.68679 
   28300    106.74386   -258.97252    86324.684    -21496.26    1587.4159   -23083.676     115.2871    238.91662 
   28350    105.07753   -434.13557    86372.359   -21483.105    1562.6355   -23045.741    115.70011      235.187 
   28400    108.17958   -538.06429    86438.304   -21473.655    1608.7668   -23082.422    116.05824    242.13006 
   28450    107.13398   -170.53302    86450.496   -21500.093    1593.2174    -23093.31    115.99876    239.78979 
   28500    106.57771   -185.31739    86495.117    -21515.73     1584.945   -23100.675    116.12756    238.54474 
   28550    104.74586    -275.7935    86536.107   -21488.381     1557.703   -23046.084    116.30283    234.44463 
   28600    105.88428   -246.19123    86518.461   -21511.305    1574.6328   -23085.938    116.55002    236.99267 
   28650    107.78937   -114.31797    86507.539    -21501.16     1602.964   -23104.124     116.8743     241.2567 
   28700     106.6256   -316.94331    86487.237   -21513.144    1585.6571   -23098.801    117.38069    238.65191 
   28750    105.92519   -315.16928    86470.637     -21523.4    1575.2411   -23098.641    117.85947    237.08423 
   28800    105.15647   -638.50274    86481.052    -21540.19    1563.8093   -23103.999    118.27506    235.36367 
   28850    105.00449   -125.89713    86477.263   -21526.728    1561.5492   -23088.277    118.39147    235.02351 
   28900    102.68258   -495.07594    86518.478   -21527.291    1527.0194    -23054.31    119.07707    229.82655 
   28950    105.34259   -579.31161    86444.048    -21528.22    1566.5771   -23094.798      119.131    235.78024 
   29000    107.44246    -413.6377    86397.919   -21493.899    1597.8049   -23091.704    119.28048    240.48023 
   29050    103.49114   -541.93752    86330.561   -21523.119    1539.0439   -23062.163    119.71335     231.6363 
   29100    105.80837    -262.1487    86333.819   -21504.966     1573.504    -23078.47    120.05652    236.82278 
   29150    106.37855   -298.06493    86337.172   -21535.277    1581.9832    -23117.26    119.96113    238.09895 
   29200    106.72903   -381.39145    86353.246   -21484.449    1587.1952   -23071.644    120.31931    238.88341 
   29250    108.11107   -454.65596    86351.473    -21473.32     1607.748   -23081.068    120.64297    241.97673 
   29300    106.79595   -407.48412     86330.47   -21483.103    1588.1905   -23071.293    121.08547     239.0332 
   29350    108.94742   -140.56572    86304.024   -21490.425    1620.1855   -23110.611    121.32073    243.84866 
   29400    106.41815   -296.14745    86248.389   -21483.476    1582.5722   -23066.048    121.49074     238.1876 
   29450    105.86571    -274.8602    86164.465   -21506.086    1574.3566   -23080.442    121.72919     236.9511 
   29500    103.72385   -342.91543    86153.486   -21508.495    1542.5044   -23050.999    121.76969    232.15714 
   29550    105.79583   -186.96978    86191.001   -21516.713    1573.3174    -23090.03     122.2124    236.79471 
   29600     105.4749   -229.68537    86163.896   -21517.512    1568.5448   -23086.057    122.25601    236.07639 
   29650    106.56327   -232.05855     86120.55   -21460.706    1584.7302   -23045.437    122.58042     238.5124 
   29700    106.76765   -321.40374    86048.658   -21470.635    1587.7696   -23058.404    122.80711    238.96985 
   29750    106.60667   -550.33924     85982.75    -21398.82    1585.3756   -22984.196    122.85568    238.60954 
   29800     105.5815   -452.57504    85966.765   -21426.054    1570.1301   -22996.184    123.28339    236.31499 
   29850    107.03481   -129.30845    85944.831   -21445.671    1591.7426   -23037.414    123.71106    239.56781 
   29900    104.34168   -217.28071    85942.853   -21435.322    1551.6924   -22987.014    124.49873       233.54 
   29950    106.49186   -188.89661    85957.793    -21409.46    1583.6682   -22993.129     124.5461    238.35256 
   30000    107.51528   -205.17067    85985.715   -21426.887    1598.8878   -23025.775    124.76862    240.64322 
   30050    107.59361   -585.36359     85964.86   -21411.363    1600.0526   -23011.416    125.51893    240.81853 
   30100    106.75406   -547.37074    85953.705   -21430.625    1587.5676   -23018.193    125.79606    238.93945 
   30150    109.53866   -562.81518    85944.784   -21406.897     1628.978   -23035.875    125.93901    245.17199 
   30200    107.77572   -246.52003    85890.002   -21445.939    1602.7609     -23048.7    126.08636    241.22614 
   30250    105.64992   -440.85835    85907.363   -21423.902    1571.1475    -22995.05    126.04114    236.46812 
   30300    107.81066   -290.58317    85947.387   -21441.307    1603.2806   -23044.588    126.41371    241.30435 
   30350    106.29214   -339.27929    86027.918   -21463.988    1580.6982   -23044.687    126.64819    237.90556 
   30400    108.26238   -178.81575    86019.557   -21433.799    1609.9982   -23043.797    126.72943    242.31539 
   30450    107.59093   -63.770637    86115.676   -21427.037    1600.0128    -23027.05    126.76124    240.81253 
   30500    106.92776   -361.86308    86096.517   -21455.826    1590.1506   -23045.977    126.68845    239.32821 
   30550    110.29524   -361.02671    86048.849   -21459.968    1640.2293   -23100.197    126.92698    246.86539 
   30600    107.69647   -155.54511    86084.093   -21484.555    1601.5823   -23086.137    127.05274    241.04876 
   30650     107.9209   -345.52863    86115.639   -21509.705    1604.9199   -23114.625    127.13563    241.55109 
   30700    106.27279   -119.26002    86177.801   -21490.838    1580.4105   -23071.248    127.01438    237.86226 
   30750    108.98344    -248.0234    86208.323   -21448.039    1620.7212    -23068.76     127.3461    243.92929 
   30800    106.57554   -623.90336    86263.591   -21474.478    1584.9126   -23059.391    127.57077    238.53986 
   30850    105.53207     -106.461    86201.676   -21479.073     1569.395   -23048.468    128.07872    236.20436 
   30900     107.3126   -22.982546     86173.24    -21481.36    1595.8737   -23077.234     128.3526    240.18957 
   30950    105.35242   -148.69768    86164.859   -21482.236    1566.7234   -23048.959    128.09991    235.80225 
   31000    107.06216   -375.78812    86177.081   -21456.673    1592.1493   -23048.823    128.46387    239.62903 
   31050    107.94522   -442.47805    86139.349   -21461.283    1605.2816   -23066.565    128.52737    241.60553 
   31100    108.98592   -298.18238     86128.31   -21453.598    1620.7581   -23074.356    128.26127    243.93485 
   31150    105.60506   -508.94146    86105.784   -21448.614    1570.4804   -23019.095    128.15507    236.36772 
   31200    109.96974   -324.51795    86026.676   -21454.125    1635.3888   -23089.514    128.05399    246.13686 
   31250    108.05379   -155.68652    85915.206   -21459.713    1606.8961   -23066.609    127.91685    241.84852 
   31300     107.1969   -170.09792    85966.047   -21445.348    1594.1531   -23039.501    128.30575    239.93062 
   31350    108.25112   -195.94184    85981.877   -21405.894    1609.8308   -23015.724    128.56604     242.2902 
   31400    108.03896   -124.64114    86081.314   -21419.715    1606.6756    -23026.39    128.89359    241.81533 
   31450    104.74508    -413.6831    86088.628   -21409.956    1557.6914   -22967.647     129.0116    234.44288 
   31500    106.88576   -472.88645    86111.256    -21409.83    1589.5261   -22999.356    128.76723    239.23422 
   31550    106.59574   -553.50575    86071.996   -21420.261    1585.2131   -23005.474    128.96001    238.58508 
   31600    109.08584   -450.15875     86094.12   -21450.065     1622.244   -23072.309    129.28402    244.15848 
   31650    105.36614   -315.74857    86070.029   -21434.944    1566.9274   -23001.872    129.47782    235.83296 
   31700    103.24648   -384.95744     86125.76   -21455.666    1535.4053   -22991.072    129.89049    231.08868 
   31750    106.21817   -365.87898    86152.765   -21440.755    1579.5982   -23020.354    130.24111       237.74 
   31800    105.73869   -226.66393    86201.862   -21439.758    1572.4677   -23012.226    130.68936    236.66682 
   31850    106.28493   -492.48562    86208.247   -21426.961     1580.591   -23007.552    131.10513    237.88942 
   31900    108.18105   -347.51698    86203.628   -21431.311    1608.7886     -23040.1    131.37603    242.13336 
   31950    106.64108   -111.79878    86241.162   -21404.857    1585.8874   -22990.744    131.72996    238.68657 
   32000     106.7797    -187.8666    86266.794   -21424.835    1587.9488   -23012.784    132.16936    238.99682 
   32050    109.03063   -259.49741    86328.397   -21426.944    1621.4229   -23048.367    132.77166     244.0349 
   32100    107.87477   -413.53525    86364.897   -21418.072    1604.2339   -23022.306    133.00259    241.44784 
   32150    108.56671   -313.58462    86299.944   -21378.217    1614.5239   -22992.741    132.92279    242.99656 
   32200    104.16766   -474.58987    86308.457   -21408.033    1549.1045   -22957.138    133.04457    233.15049 
   32250    110.05593   -442.41523    86289.774   -21424.573    1636.6705   -23061.243    133.38266    246.32977 
   32300    105.57079   -219.60435    86268.677   -21440.115    1569.9707   -23010.086     133.6033      236.291 
   32350    107.45937   -454.41479    86285.226   -21394.525    1598.0564   -22992.581    133.78294    240.51808 
   32400    109.07243     -355.729    86251.361   -21439.144    1622.0447   -23061.189    133.88878    244.12848 
   32450    106.84621   -120.66854    86267.671    -21458.23    1588.9379   -23047.168    134.25961    239.14569 
   32500    106.79165     -90.9261    86271.262   -21450.814    1588.1266   -23038.941    134.15612    239.02358 
   32550    108.10363   -471.95658    86327.922   -21424.489    1607.6374   -23032.126    134.60733    241.96008 
   32600    107.52235   -591.88949    86281.634   -21418.115     1598.993   -23017.108    135.62239    240.65905 
   32650    109.06512   -681.26795    86263.832   -21416.627    1621.9358   -23038.563    135.95635    244.11209 
   32700    109.89245   -335.05945    86357.251   -21405.054    1634.2393   -23039.293    136.29223    245.96385 
   32750    106.41497   -298.11545    86386.094   -21419.088    1582.5248   -23001.612    136.88184    238.18048 
   32800    106.29639   -460.25442    86326.261   -21434.012    1580.7614   -23014.773    137.12902    237.91507 
   32850    107.86035   -478.01227    86363.574   -21440.268    1604.0195   -23044.287    137.35116    241.41557 
   32900    109.22452   -352.58443    86363.328   -21429.374    1624.3064   -23053.681    137.12972    244.46888 
   32950    109.58206   -283.92944    86326.877   -21396.459    1629.6234   -23026.082    137.44635    245.26912 
   33000     106.5303   -103.84841    86357.957   -21404.084    1584.2399   -22988.324    137.82241    238.43861 
   33050    111.45029    -72.88464    86365.357   -21399.456    1657.4065   -23056.862    137.98515    249.45066 
   33100     107.2587   -388.49067     86467.25   -21393.777    1595.0722   -22988.849    138.30783    240.06894 
   33150    109.54188   -749.96286    86432.553   -21350.447    1629.0259   -22979.473     139.1443    245.17919 
   33200     107.2573   -360.42405    86383.781   -21402.417    1595.0514   -22997.468    139.58624    240.06581 
   33250    109.78011    -585.9098    86360.861    -21431.21    1632.5687   -23063.779    139.90824    245.71241 
   33300    105.00319   -469.19229    86310.029   -21439.765    1561.5298   -23001.295    140.40053    235.02059 
   33350    105.84013   -631.78136    86326.479   -21478.335    1573.9763   -23052.311    140.67748    236.89387 
   33400    105.76817    -418.0936    86274.939   -21476.305    1572.9061   -23049.211    140.52078    236.73279 
   33450    104.68844   -474.90363    86295.695   -21457.203    1556.8491   -23014.052    140.74356    234.31611 
   33500    106.34276   -488.72172    86354.459   -21467.765     1581.451   -23049.216    140.57241    238.01885 
   33550    106.18122   -296.87405    86350.728   -21499.178    1579.0486   -23078.226    140.45433    237.65728 
   33600    105.67399    -403.6556     86343.42   -21483.593    1571.5056   -23055.098    140.12026      236.522 
   33650    108.33024   -540.63289    86301.257   -21488.423    1611.0074    -23099.43    140.24156    242.46729 
   33700    104.55109   -381.49744    86284.633   -21502.203    1554.8066    -23057.01    140.44665     234.0087 
   33750    107.45113   -602.66515    86218.617   -21464.462    1597.9338   -23062.396    140.46013    240.49962 
   33800    108.62215   -383.31731    86212.375   -21451.838    1615.3484   -23067.186     140.9308    243.12064 
   33850    105.10096   -420.97858    86267.621   -21473.451    1562.9839   -23036.434     140.7284    235.23944 
   33900    108.08485   -345.58734    86391.485   -21495.728    1607.3581   -23103.086    140.99325    241.91805 
   33950    107.02792   -371.55219    86405.229   -21466.081    1591.6402   -23057.721    141.43298     239.5524 
[...]
   92000    105.51605   -486.07605    86075.787   -21364.328    1569.1568   -22933.485    353.64387     236.1685 
   92050    108.60589   -317.72563    86062.194   -21376.515    1615.1066   -22991.621     354.1876    243.08425 
   92100     108.6207   -202.03713     85954.23   -21385.359    1615.3268   -23000.686    354.14619    243.11739 
   92150    105.91434   -477.70524    85933.335   -21397.561    1575.0799   -22972.641    354.05019    237.05996 
   92200    107.40096   -111.83087    85998.334   -21389.427    1597.1877   -22986.614    354.23006    240.38733 
   92250    109.61099   -211.56329     86050.69    -21346.46    1630.0537   -22976.514    354.25937    245.33389 
   92300    111.35095    -50.59677    86042.833   -21347.375    1655.9291   -23003.304    354.26634    249.22831 
   92350    108.48477    -701.2443    86072.029   -21342.012    1613.3054   -22955.317    354.40295    242.81315 
   92400    108.95646      162.071    86089.203    -21359.38      1620.32     -22979.7    354.20415     243.8689 
   92450    109.42988   -221.69337    86095.344   -21371.629    1627.3603    -22998.99    354.54724    244.92851 
   92500    105.25812    -443.4956    86135.197   -21403.151    1565.3209   -22968.472    354.40991    235.59118 
   92550    106.61847   -268.98482    86187.973   -21379.037    1585.5511   -22964.588    354.94996    238.63595 
   92600    108.54957   -432.42034    86236.792   -21345.104    1614.2691   -22959.373    355.26822     242.9582 
   92650    108.29228   -429.06982    86244.362   -21386.184    1610.4428   -22996.627    355.57255    242.38231 
   92700    107.21529   -335.05618    86266.495   -21400.316    1594.4266   -22994.742     355.6616    239.97178 
   92750    104.40172   -290.15262    86289.562   -21428.209    1552.5852   -22980.794    355.83827    233.67437 
   92800    107.94444   -187.81935    86313.116   -21415.201      1605.27   -23020.471    356.07452    241.60377 
   92850    108.51204   -324.64343    86326.674   -21420.104    1613.7109   -23033.815    356.04651    242.87418 
   92900    106.95954   -463.80754    86328.447   -21419.482    1590.6232   -23010.105    356.67367    239.39934 
   92950    106.67011   -478.37676    86411.469   -21419.742    1586.3191   -23006.062    357.00945    238.75155 
   93000    105.80445   -216.96542    86392.584   -21408.522    1573.4457   -22981.968    356.55169    236.81401 
   93050    105.62221   -299.38875    86368.292   -21414.641    1570.7355   -22985.376    356.41249    236.40611 
   93100    109.26726   -396.83455    86378.146   -21342.597     1624.942   -22967.539    356.94004    244.56454 
   93150    107.39085   -634.60947    86389.521   -21382.869    1597.0374   -22979.906    357.41195    240.36472 
   93200    108.43037   -214.76948    86406.473   -21368.073    1612.4964   -22980.569    357.70846     242.6914 
   93250    110.89983   -544.78535     86406.11   -21332.694    1649.2204   -22981.915    358.47314    248.21861 
   93300    110.40636    -538.8484    86441.503   -21359.394    1641.8818   -23001.276    358.33601     247.1141 
   93350    107.48504   -267.07674    86490.025   -21367.775    1598.4382   -22966.213    358.42057    240.57554 
   93400    107.67715   -548.55874    86478.329   -21385.508     1601.295   -22986.803    358.53789    241.00551 
   93450    106.20349   -728.11585     86445.61   -21376.514    1579.3798   -22955.893    359.02436    237.70713 
   93500     109.4342   -331.97161    86401.455   -21390.291    1627.4247   -23017.716    359.37049     244.9382 
   93550    107.81787   -377.29635    86345.445   -21397.511    1603.3876   -23000.899    359.60412    241.32047 
   93600    106.18792   -169.24384     86318.87   -21374.528    1579.1483   -22953.677    359.79392    237.67229 
   93650     109.0616   -403.93117    86299.548   -21378.117    1621.8836       -23000    360.57875    244.10423 
   93700    108.49208   -550.79578    86282.703   -21453.004    1613.4141   -23066.418    360.19147    242.82952 
   93750    105.63608   -547.91307    86294.719    -21457.57    1570.9418   -23028.511    360.23518    236.43716 
   93800    104.57901   -362.51493    86260.986   -21453.207    1555.2218   -23008.429    360.42241     234.0712 
   93850    106.95129   -289.58899    86223.542   -21433.617    1590.5006   -23024.118    360.17915    239.38088 
   93900    107.34616   -709.24353    86201.742   -21407.077    1596.3728   -23003.449    360.68617    240.26469 
   93950    108.73648   -462.11021    86177.799    -21406.81    1617.0486   -23023.858    360.53079    243.37654 
   94000    109.03282   -256.18954    86208.194   -21437.939    1621.4555   -23059.394    360.25999    244.03981 
   94050    105.30718   -212.91412    86285.485   -21455.489    1566.0506    -23021.54    360.69547      235.701 
   94100    106.20903    -359.2113    86336.334   -21447.016    1579.4622   -23026.479    360.68915    237.71953 
   94150    110.98808   -159.57434    86339.313   -21435.775    1650.5328   -23086.308    360.72088    248.41612 
   94200    105.74317    -198.8835    86370.173    -21450.33    1572.5344   -23022.864    361.04707    236.67685 
   94250    109.83726   -405.40951    86397.242   -21411.203    1633.4185   -23044.622     361.1164    245.84032 
   94300    108.62424   -204.75845    86443.163   -21396.614    1615.3795   -23011.994    361.77614    243.12532 
   94350     109.6783   -395.87248    86429.261   -21392.785    1631.0547    -23023.84    361.94942    245.48454 
   94400    107.59232   -366.91269    86429.811   -21446.867    1600.0335     -23046.9    361.67547    240.81565 
   94450    105.05302   -117.67082    86522.261   -21467.724    1562.2708   -23029.995    361.98744    235.13212 
   94500    105.46368   -292.83036    86585.177   -21495.369    1568.3779   -23063.747    362.17235    236.05127 
   94550    105.84461   -372.38919    86518.491    -21502.29    1574.0429   -23076.332    361.78457    236.90389 
   94600    105.53547   -286.05627    86525.993   -21547.629    1569.4456   -23117.075    361.76347    236.21197 
   94650    104.18314   -514.35486    86453.837   -21522.651    1549.3347   -23071.986    361.47968    233.18514 
   94700    105.46956   -453.70439    86418.497   -21473.963    1568.4654   -23042.428    361.40296    236.06444 
   94750    105.05448   -464.02541    86413.364   -21490.445    1562.2927   -23052.738    360.95546     235.1354 
   94800    104.37624   -455.79755    86450.667   -21485.035    1552.2063   -23037.241    361.51109    233.61734 
   94850    105.86273   -476.22432    86412.793   -21460.159    1574.3123   -23034.472    361.58147    236.94444 
   94900    103.91709   -342.48859    86442.759   -21443.394    1545.3782   -22988.772    361.36448    232.58966 
   94950    105.31632    -601.8215     86400.68   -21454.574    1566.1864    -23020.76    361.49581    235.72144 
   95000      106.206   -777.37583    86329.282   -21478.925    1579.4172   -23058.342    361.54525    237.71276 
   95050    107.42319   -492.93658    86282.303   -21441.087    1597.5184   -23038.606    361.62363     240.4371 
   95100    107.59243   -208.38448    86302.712   -21402.241    1600.0352   -23002.276     362.2661    240.81591 
   95150    108.83384   -414.49474    86301.864   -21407.426    1618.4964   -23025.922    363.00677    243.59444 
   95200    107.72002   -602.28587    86284.862    -21408.56    1601.9326   -23010.493    363.33424    241.10147 
   95250    106.13981    -190.2935    86301.394   -21381.687    1578.4328    -22960.12    363.33744     237.5646 
   95300    110.28981   -395.01156     86295.13   -21368.579    1640.1485   -23008.728     363.3448    246.85323 
   95350    111.01044     -409.482    86292.065   -21379.543    1650.8653   -23030.408    363.59859    248.46617 
   95400    107.28661   -398.66965    86304.945   -21403.962    1595.4873    -22999.45    363.62799    240.13141 
   95450    105.23563   -590.90407    86313.873   -21399.015    1564.9866   -22964.001    363.55699    235.54085 
   95500    104.58187   -330.26968    86293.121   -21432.117    1555.2644   -22987.381    364.24799     234.0776 
   95550    105.77289   -11.914056    86338.627   -21417.131    1572.9763   -22990.107    364.25989    236.74336 
   95600    109.13506    -333.2949    86372.218   -21423.448    1622.9759   -23046.424     364.8709    244.26864 
   95650    107.28237   -563.65083    86437.942    -21438.85    1595.4241   -23034.275    365.07404    240.12191 
   95700    108.63729    -341.8095    86447.086    -21434.39    1615.5736   -23049.964    365.13951    243.15454 
   95750    107.50982   -156.53883    86571.962   -21419.757    1598.8066   -23018.563    366.06703      240.631 
   95800    106.60716   -166.88457    86592.342   -21447.374    1585.3829   -23032.756    366.01737    238.61064 
   95850     106.9553   -599.20498    86581.678   -21493.625    1590.5602   -23084.185    366.09931    239.38985 
   95900    105.97109   -556.58742    86548.311   -21460.374    1575.9238   -23036.297    366.48482    237.18697 
   95950    105.87833   -390.77803    86507.799   -21459.077    1574.5444   -23033.621    366.44372    236.97936 
   96000    105.93477   -351.42066     86498.82   -21443.596    1575.3836   -23018.979    366.65779    237.10568 
   96050    107.65894   -333.37825    86490.626   -21396.885    1601.0242   -22997.909    367.30785    240.96476 
   96100     109.7118    -154.8315    86510.573   -21389.153    1631.5529   -23020.706    367.47948    245.55953 
   96150    108.34756   -394.78139     86512.29   -21363.663    1611.2649   -22974.927    367.89255    242.50605 
   96200    109.66785   -523.02217    86505.185   -21369.108    1630.8992   -23000.007    368.23938    245.46114 
   96250    110.19969   -253.41618    86533.466    -21379.47    1638.8084   -23018.279    367.37268    246.65154 
   96300     105.1791   -338.97209    86502.189   -21411.552    1564.1459   -22975.698      367.939    235.41432 
   96350    105.04156    -325.8298    86488.615   -21445.247    1562.1004   -23007.347    368.36846    235.10647 
   96400      108.154   -412.66904    86395.941    -21443.53    1608.3864   -23051.916    367.94664    242.07281 
   96450    105.34199   -487.56703    86365.183   -21461.858    1566.5683   -23028.427     367.4474    235.77892 
   96500    107.54977   -204.64952    86371.988   -21444.942    1599.4007   -23044.343    367.55143    240.72041 
   96550    109.64638   -235.93353    86409.723   -21463.938      1630.58   -23094.518    367.75066     245.4131 
   96600    107.73995   -329.94493    86433.506   -21465.337     1602.229   -23067.566    367.47077    241.14608 
   96650    109.37832   -355.58741    86450.663   -21445.674    1626.5935   -23072.268    366.92964    244.81311 
   96700    108.00447   -322.97817    86445.938   -21426.738    1606.1627   -23032.901    367.44624    241.73813 
   96750     107.5049   -290.64108    86435.739   -21406.436    1598.7334    -23005.17    367.51817    240.61997 
   96800    109.34067   -128.72099     86430.67   -21373.372    1626.0336   -22999.405    367.61446    244.72884 
   96850    107.79638   -289.14133    86479.518   -21406.566    1603.0682   -23009.634      367.465    241.27238 
   96900    108.34717    31.907517    86499.534   -21375.092    1611.2591   -22986.352     367.4057    242.50518 
   96950     107.7838   -476.33311    86493.851   -21400.768     1602.881   -23003.649    367.84938    241.24422 
   97000    107.00414    31.519009    86463.774   -21365.009    1591.2866   -22956.296    367.40206    239.49918 
   97050    104.52422   -384.37142    86480.989   -21416.613     1554.407    -22971.02    367.75419    233.94856 
   97100    108.21077   -80.511169    86465.024   -21425.524    1609.2306   -23034.755    367.50831    242.19988 
   97150    107.78384   -452.99408    86514.914   -21392.392    1602.8817   -22995.274    367.60853    241.24432 
   97200    110.54882   -70.308407    86561.615   -21417.636    1644.0004   -23061.636    368.16665    247.43296 
   97250    106.33258   -429.96874    86622.998   -21456.148    1581.2996   -23037.447    368.58918    237.99607 
   97300    107.89594   -278.29473    86642.328   -21438.039    1604.5488   -23042.588    368.40763    241.49523 
   97350    107.41254    -329.6004    86675.487   -21472.486      1597.36   -23069.846    369.27798    240.41327 
   97400    105.17956   -409.52895    86726.526   -21417.585    1564.1528   -22981.738    369.66107    235.41536 
   97450    107.48735   -538.50499    86763.112   -21473.604    1598.4725   -23072.076    370.04335     240.5807 
   97500    103.71606   -454.59291    86743.171   -21503.282    1542.3887   -23045.671    370.11787    232.13972 
   97550    107.41531   -273.50264     86745.78   -21480.118    1597.4011    -23077.52     370.4116    240.41946 
   97600    103.68602   -372.37948    86787.689   -21477.502    1541.9419   -23019.443    371.06599    232.07247 
   97650    104.79173   -684.75342    86726.061    -21477.07    1558.3852   -23035.455    371.13267     234.5473 
   97700    105.97287   -307.03059    86676.492   -21495.425    1575.9502   -23071.375    371.22354    237.19095 
   97750    106.75161   -395.85626    86641.621   -21434.753    1587.5311   -23022.284     371.7886    238.93396 
   97800    107.71219   -302.91516    86608.702   -21447.101    1601.8161   -23048.917    371.40476    241.08394 
   97850    110.19955   -554.57847    86561.788   -21444.732    1638.8063   -23083.538    371.39289    246.65121 
   97900    108.38924   -124.45575    86516.985   -21436.983    1611.8847   -23048.868    371.99652    242.59934 
   97950    108.79497   -291.69752    86528.109    -21419.81    1617.9185   -23037.728    372.43703    243.50746 
   98000    108.18317   -283.30905    86594.408   -21428.292    1608.8202   -23037.112    372.59237    242.13811 
   98050    107.27369    -237.8168    86664.838   -21428.761     1595.295   -23024.056    372.52933    240.10248 
   98100    105.05491   -12.495822    86715.608   -21425.662     1562.299   -22987.961    372.37711    235.13635 
   98150    107.21467    -235.2051    86692.538   -21473.121    1594.4173   -23067.538    372.26278    239.97038 
   98200    105.02969   -546.90448    86661.227    -21467.05    1561.9239   -23028.974    372.32505    235.07991 
   98250    104.43122   -202.98307    86688.677   -21456.742     1553.024   -23009.766    372.69252     233.7404 
   98300    106.29216   -469.20436     86712.34     -21447.1    1580.6985   -23027.799    372.45327     237.9056 
   98350    105.09648   -259.97177    86676.394   -21444.496    1562.9173   -23007.413    372.78033    235.22941 
   98400    104.39386   -318.94712    86687.362   -21476.094    1552.4684   -23028.562    372.55846    233.65678 
   98450    106.71839    -149.6744    86693.943   -21480.148    1587.0371   -23067.185    372.82148    238.85961 
   98500    107.09082   -655.13411    86724.892   -21493.674    1592.5755   -23086.249    373.75381    239.69317 
   98550    105.83789   -400.03129    86740.775   -21464.967    1573.9429    -23038.91    373.58258    236.88885 
   98600    105.31807    -235.3197    86683.843   -21471.748    1566.2125   -23037.961    373.37835    235.72536 
   98650     109.5737   -398.00386    86690.929   -21477.223    1629.4991   -23106.722    373.66493    245.25041 
   98700     107.6444   -475.36787    86674.571   -21489.508     1600.808   -23090.316    373.83507    240.93222 
   98750    108.51483   -447.55748    86724.889   -21485.424    1613.7524   -23099.176    374.30809    242.88043 
   98800    107.71424   -686.41902    86698.476   -21472.252    1601.8466   -23074.099    374.10845    241.08853 
   98850    109.78047   -911.36322    86619.036   -21485.975    1632.5741   -23118.549    374.42004    245.71323 
   98900    105.16643   -472.16988    86541.632   -21507.642    1563.9574     -23071.6    374.74192    235.38596 
   98950    104.03871   -399.71089    86461.138   -21479.285    1547.1868   -23026.472    375.25206    232.86187 
   99000    105.17019   -680.28198    86486.026   -21465.446    1564.0134    -23029.46    375.81153    235.39439 
   99050    107.35115   -134.15175    86478.539    -21480.87    1596.4471   -23077.317    376.35334    240.27587 
   99100    103.98136   -160.56129     86503.51   -21493.421     1546.334   -23039.755    376.44222    232.73353 
   99150    106.65622   -394.37122    86478.089   -21470.743    1586.1125   -23056.856    377.28567    238.72044 
   99200      106.472   -409.01359    86418.556   -21468.988    1583.3729   -23052.361     377.4043    238.30811 
   99250    106.72747   -86.499247    86357.567   -21505.528    1587.1721     -23092.7    377.47265    238.87992 
   99300    106.84259   -526.17046    86313.298   -21565.385    1588.8841   -23154.269    378.34689     239.1376 
   99350    104.56023   -347.59339    86307.725   -21558.417    1554.9426   -23113.359    378.59867    234.02916 
   99400    104.29226   -451.65773    86329.884   -21534.271    1550.9575   -23085.228    378.92873    233.42938 
   99450    106.80369   -318.80757    86333.374   -21536.954    1588.3056    -23125.26    379.58042    239.05052 
   99500    105.71555   -366.77219    86386.592   -21528.127    1572.1236   -23100.251    379.69702    236.61502 
   99550    102.96047   -167.65257    86432.813   -21565.597     1531.152   -23096.749    379.78078    230.44853 
   99600    107.19353   -539.29683     86408.84   -21536.966     1594.103   -23131.069    379.41804    239.92307 
   99650    107.92972   -291.16515    86351.079   -21513.028    1605.0511   -23118.079    379.52005    241.57083 
   99700     105.3308   -583.48959    86279.257     -21512.5    1566.4019   -23078.902    379.73949    235.75386 
   99750    106.47096   -191.67606    86268.288   -21492.982    1583.3575    -23076.34    379.64025    238.30579 
   99800    111.12138   -314.46737    86224.975   -21426.876    1652.5151   -23079.391    379.31212    248.71448 
   99850    107.15595   -50.078932    86206.383   -21431.348    1593.5442   -23024.892    379.60485    239.83896 
   99900     106.7166    -185.4357    86206.163   -21485.875    1587.0105   -23072.885    379.68979     238.8556 
   99950    107.44824   -355.39692    86256.565   -21484.929    1597.8908    -23082.82    380.60853    240.49316 
  100000    108.39304    -322.6414    86303.283   -21466.434    1611.9412   -23078.375    380.58434    242.60784 
Loop time of 82.4372 on 64 procs for 100000 steps with 4990 atoms

Performance: 524.035 ns/day, 0.046 hours/ns, 1213.044 timesteps/s
100.0% CPU use with 64 MPI tasks x no OpenMP threads

MPI task timing breakdown:
Section |  min time  |  avg time  |  max time  |%varavg| %total
---------------------------------------------------------------
Pair    | 12.31      | 34.054     | 59.123     | 368.6 | 41.31
Neigh   | 0.61362    | 1.6248     | 3.5766     |  85.8 |  1.97
Comm    | 14.253     | 38.876     | 62.799     | 331.6 | 47.16
Output  | 0.1177     | 0.11923    | 0.13189    |   0.5 |  0.14
Modify  | 4.631      | 7.0702     | 12.692     | 110.5 |  8.58
Other   |            | 0.693      |            |       |  0.84

Nlocal:    77.9688 ave 149 max 38 min
Histogram: 32 0 0 6 10 0 0 0 4 12
Nghost:    811.219 ave 1000 max 647 min
Histogram: 32 0 0 0 0 0 0 5 11 16
Neighs:    0 ave 0 max 0 min
Histogram: 64 0 0 0 0 0 0 0 0 0
FullNghs:  7494.25 ave 18416 max 1502 min
Histogram: 32 0 0 0 16 0 0 0 3 13

Total # of neighbors = 479632
Ave neighs/atom = 96.1186
Neighbor list builds = 5771
Dangerous builds = 0

write_data		${DIR}/data.eq-${NAME}-${TEMP}
write_data		run_11/data.eq-${NAME}-${TEMP}
write_data		run_11/data.eq-het_freeze_11-${TEMP}
write_data		run_11/data.eq-het_freeze_11-240
undump          1

reset_timestep  0

unfix           2
unfix           3
unfix           4


################################################
#######         Run Simulation         #########
################################################

log				${DIR}/log.run_${NAME}
log				run_11/log.run_${NAME}
log				run_11/log.run_het_freeze_11
