LAMMPS data file via write_data, version 16 Mar 2018, timestep = 100000

4055 atoms
2 atom types

0.0000000000000000e+00 4.9219999999999999e+01 xlo xhi
0.0000000000000000e+00 4.9019635930410494e+01 ylo yhi
1.8760565823524491e+00 2.6063943417648101e+01 zlo zhi

Masses

1 18.015
2 12.01

Atoms # atomic

53 2 0.0000000000000000e+00 2.8417180249513345e+00 3.4004887604871117e+00 0 0 0
55 2 0.0000000000000000e+00 0.0000000000000000e+00 3.4004887604871117e+00 0 0 0
57 2 1.2305000000000001e+00 7.1042950623783474e-01 3.4004887604871117e+00 0 0 0
64 2 1.2305000000000001e+00 2.1312885187134998e+00 3.4004887604871117e+00 0 0 0
66 2 2.4610000000000003e+00 2.8417180249513345e+00 3.4004887604871117e+00 0 0 0
68 2 2.4610000000000003e+00 0.0000000000000000e+00 3.4004887604871117e+00 0 0 0
70 2 3.6915000000000004e+00 7.1042950623783474e-01 3.4004887604871117e+00 0 0 0
85 2 3.6914999999999996e+00 2.1312885187134998e+00 3.4004887604871117e+00 0 0 0
87 2 4.9220000000000006e+00 2.8417180249513332e+00 3.4004887604871117e+00 0 0 0
89 2 4.9220000000000006e+00 0.0000000000000000e+00 3.4004887604871117e+00 0 0 0
60 2 0.0000000000000000e+00 4.2625770374269996e+00 3.4004887604871117e+00 0 0 0
81 2 2.4610000000000003e+00 4.2625770374269996e+00 3.4004887604871117e+00 0 0 0
110 2 4.9220000000000006e+00 4.2625770374269978e+00 3.4004887604871117e+00 0 0 0
62 2 1.2305000000000001e+00 4.9730065436648339e+00 3.4004887604871117e+00 0 0 0
77 2 1.2305000000000001e+00 6.3938655561404980e+00 3.4004887604871117e+00 0 0 0
83 2 3.6914999999999996e+00 4.9730065436648339e+00 3.4004887604871117e+00 0 0 0
106 2 3.6914999999999996e+00 6.3938655561404980e+00 3.4004887604871117e+00 0 0 0
58 2 0.0000000000000000e+00 7.1042950623783341e+00 3.4004887604871117e+00 0 0 0
73 2 0.0000000000000000e+00 8.5251540748539991e+00 3.4004887604871117e+00 0 0 0
75 2 1.2305000000000001e+00 9.2355835810918343e+00 3.4004887604871117e+00 0 0 0
79 2 2.4610000000000003e+00 7.1042950623783341e+00 3.4004887604871117e+00 0 0 0
102 2 2.4610000000000003e+00 8.5251540748539991e+00 3.4004887604871117e+00 0 0 0
104 2 3.6915000000000004e+00 9.2355835810918343e+00 3.4004887604871117e+00 0 0 0
108 2 4.9220000000000006e+00 7.1042950623783341e+00 3.4004887604871117e+00 0 0 0
139 2 4.9220000000000006e+00 8.5251540748539991e+00 3.4004887604871117e+00 0 0 0
54 2 0.0000000000000000e+00 1.4208590124756650e+00 6.2842551883181130e+00 0 0 0
56 2 0.0000000000000000e+00 0.0000000000000000e+00 6.2842551883181130e+00 0 0 0
65 2 1.2305000000000001e+00 2.1312885187134998e+00 6.2842551883181130e+00 0 0 0
67 2 2.4610000000000003e+00 1.4208590124756650e+00 6.2842551883181130e+00 0 0 0
69 2 2.4610000000000003e+00 0.0000000000000000e+00 6.2842551883181130e+00 0 0 0
86 2 3.6914999999999996e+00 2.1312885187134998e+00 6.2842551883181130e+00 0 0 0
382 2 0.0000000000000000e+00 2.8417180249513345e+00 9.1680216161485859e+00 0 0 0
383 2 0.0000000000000000e+00 0.0000000000000000e+00 9.1680216161485859e+00 0 0 0
384 2 1.2305000000000001e+00 7.1042950623783474e-01 9.1680216161485859e+00 0 0 0
388 2 1.2305000000000001e+00 2.1312885187134998e+00 9.1680216161485859e+00 0 0 0
389 2 2.4610000000000003e+00 2.8417180249513345e+00 9.1680216161485859e+00 0 0 0
390 2 2.4610000000000003e+00 0.0000000000000000e+00 9.1680216161485859e+00 0 0 0
391 2 3.6915000000000004e+00 7.1042950623783474e-01 9.1680216161485859e+00 0 0 0
399 2 3.6914999999999996e+00 2.1312885187134998e+00 9.1680216161485859e+00 0 0 0
88 2 4.9220000000000006e+00 1.4208590124756650e+00 6.2842551883181130e+00 0 0 0
90 2 4.9220000000000006e+00 0.0000000000000000e+00 6.2842551883181130e+00 0 0 0
400 2 4.9220000000000006e+00 2.8417180249513332e+00 9.1680216161485859e+00 0 0 0
401 2 4.9220000000000006e+00 0.0000000000000000e+00 9.1680216161485859e+00 0 0 0
61 2 0.0000000000000000e+00 4.2625770374269996e+00 6.2842551883181130e+00 0 0 0
63 2 1.2305000000000001e+00 3.5521475311891644e+00 6.2842551883181130e+00 0 0 0
82 2 2.4610000000000003e+00 4.2625770374269996e+00 6.2842551883181130e+00 0 0 0
84 2 3.6914999999999996e+00 3.5521475311891644e+00 6.2842551883181130e+00 0 0 0
386 2 0.0000000000000000e+00 4.2625770374269996e+00 9.1680216161485859e+00 0 0 0
397 2 2.4610000000000003e+00 4.2625770374269996e+00 9.1680216161485859e+00 0 0 0
111 2 4.9220000000000006e+00 4.2625770374269978e+00 6.2842551883181130e+00 0 0 0
412 2 4.9220000000000006e+00 4.2625770374269978e+00 9.1680216161485859e+00 0 0 0
59 2 0.0000000000000000e+00 5.6834360499026637e+00 6.2842551883181130e+00 0 0 0
78 2 1.2305000000000001e+00 6.3938655561404980e+00 6.2842551883181130e+00 0 0 0
80 2 2.4610000000000003e+00 5.6834360499026637e+00 6.2842551883181130e+00 0 0 0
107 2 3.6914999999999996e+00 6.3938655561404980e+00 6.2842551883181130e+00 0 0 0
387 2 1.2305000000000001e+00 4.9730065436648339e+00 9.1680216161485859e+00 0 0 0
395 2 1.2305000000000001e+00 6.3938655561404980e+00 9.1680216161485859e+00 0 0 0
398 2 3.6914999999999996e+00 4.9730065436648339e+00 9.1680216161485859e+00 0 0 0
410 2 3.6914999999999996e+00 6.3938655561404980e+00 9.1680216161485859e+00 0 0 0
109 2 4.9220000000000006e+00 5.6834360499026637e+00 6.2842551883181130e+00 0 0 0
74 2 0.0000000000000000e+00 8.5251540748539991e+00 6.2842551883181130e+00 0 0 0
76 2 1.2305000000000001e+00 7.8147245686161639e+00 6.2842551883181130e+00 0 0 0
103 2 2.4610000000000003e+00 8.5251540748539991e+00 6.2842551883181130e+00 0 0 0
105 2 3.6914999999999996e+00 7.8147245686161639e+00 6.2842551883181130e+00 0 0 0
385 2 0.0000000000000000e+00 7.1042950623783341e+00 9.1680216161485859e+00 0 0 0
393 2 0.0000000000000000e+00 8.5251540748539991e+00 9.1680216161485859e+00 0 0 0
394 2 1.2305000000000001e+00 9.2355835810918343e+00 9.1680216161485859e+00 0 0 0
396 2 2.4610000000000003e+00 7.1042950623783341e+00 9.1680216161485859e+00 0 0 0
408 2 2.4610000000000003e+00 8.5251540748539991e+00 9.1680216161485859e+00 0 0 0
409 2 3.6915000000000004e+00 9.2355835810918343e+00 9.1680216161485859e+00 0 0 0
140 2 4.9220000000000006e+00 8.5251540748539991e+00 6.2842551883181130e+00 0 0 0
411 2 4.9220000000000006e+00 7.1042950623783341e+00 9.1680216161485859e+00 0 0 0
427 2 4.9220000000000006e+00 8.5251540748539991e+00 9.1680216161485859e+00 0 0 0
2699 1 3.8373935224541462e+00 4.3018986782692918e+00 1.2428313634869371e+01 0 0 0
635 1 6.3453551432716493e-01 7.7830477251975534e+00 1.1922707707350140e+01 0 1 0
3417 1 1.7176931986344917e+00 2.6663602094683481e+00 1.1258754590940161e+01 1 -1 0
643 1 3.6035382886150802e+00 7.0049413897536166e+00 1.1863812757348526e+01 1 0 0
3981 1 2.8220156261932033e-01 4.9953955770835892e+00 1.2140254458362193e+01 0 0 -1
3237 1 1.9041412061151516e-01 5.1751619134054183e-01 1.2090602178883762e+01 0 2 0
2550 1 4.2164487084102928e+00 8.9170879597873132e-01 1.2193964849570795e+01 1 1 -1
1295 1 3.1763495827825494e-01 8.9804123304571792e+00 1.4277039325108385e+01 0 0 -1
3306 1 5.1204064460773706e+00 2.5081799591189289e+00 1.9584754826659079e+01 0 0 0
2613 1 1.8275997216136957e+00 2.1025753791620740e+00 1.6672481787161725e+01 1 0 -1
3900 1 3.9366156757670168e+00 3.9249382093431788e+00 1.7690755892934632e+01 0 0 0
3913 1 1.0572450911474209e+00 2.5876730390787888e+00 2.1398813977624968e+01 0 0 0
575 1 1.0589097757032679e+00 6.6561245004535579e+00 1.8336624492407367e+01 0 1 0
1927 1 1.6100513775946607e-01 6.6354267237866926e+00 1.5680427739583420e+01 0 -1 0
694 1 1.0962453627418267e+00 2.6822274067822760e+00 2.4358588098749507e+01 0 1 0
2058 1 3.7108029157373763e+00 7.4118343742383193e+00 1.4837888777132077e+01 2 0 -1
1404 1 3.8379952379707460e+00 6.7959256192255051e+00 1.7795119224433165e+01 1 0 -1
1261 1 3.5461539617156381e+00 1.7024736250630077e+00 2.1744590237168509e+01 1 1 0
2773 1 9.3741687113031247e-01 3.8562085062574205e+00 1.8869851254739572e+01 0 1 0
3436 1 2.2077842957079956e+00 4.8294997107133302e+00 1.4844514259543496e+01 0 1 0
2640 1 2.1646555803191521e+00 7.0556121560726002e+00 2.2095673220198933e+01 1 0 -1
3261 1 5.6322427519937426e+00 3.6558224435263367e+00 2.2701371749227988e+01 0 1 0
2724 1 5.3031581333518192e+00 3.8953557256026561e+00 1.5360126301090700e+01 0 1 0
1238 1 3.8515216350977268e+00 1.9263901928847527e+00 2.4967471614170222e+01 0 0 0
3329 1 3.8309219247214594e+00 8.5558427753950212e+00 1.9822685453623123e+01 1 1 -1
1962 1 4.9037993380482190e+00 6.5327456775773944e+00 2.2110846096191374e+01 0 0 -1
2036 1 4.4724089127040312e+00 6.5037884721642918e+00 2.4897893673298043e+01 0 1 0
2617 1 6.0851451847082663e+00 9.3495724214558784e+00 1.4596596454516501e+01 0 -1 0
732 1 1.6574465873234803e+00 7.0980808073565047e+00 2.4804979975888934e+01 0 1 0
1396 1 2.9873714328799922e-01 2.4282640729667211e+00 1.4247804959970809e+01 2 1 0
649 1 1.1364486402798677e+00 9.1738204076914851e+00 1.9359655703104735e+01 1 0 1
3395 1 4.0527688925699765e+00 1.3661295164327605e-01 1.5158212078862482e+01 0 1 0
670 1 6.0929401816075428e+00 8.9500104253794301e+00 2.4802589782426836e+01 0 0 0
3391 1 5.8119907416217469e+00 9.6106349937919866e+00 2.2190666311918875e+01 0 1 0
764 1 4.0001584056497563e-02 5.3577101982711559e+00 2.1819165254667794e+01 0 1 0
1963 1 1.0985473468903493e+00 9.6177182916053194e+00 2.5075840068728226e+01 1 -1 -1
71 2 0.0000000000000000e+00 1.1366872099805333e+01 3.4004887604871117e+00 0 0 0
94 2 0.0000000000000000e+00 1.2787731112280996e+01 3.4004887604871117e+00 0 0 0
96 2 1.2305000000000001e+00 1.3498160618518829e+01 3.4004887604871117e+00 0 0 0
98 2 1.2305000000000001e+00 1.0656442593567498e+01 3.4004887604871117e+00 0 0 0
100 2 2.4610000000000003e+00 1.1366872099805333e+01 3.4004887604871117e+00 0 0 0
131 2 2.4610000000000003e+00 1.2787731112280996e+01 3.4004887604871117e+00 0 0 0
133 2 3.6915000000000004e+00 1.3498160618518829e+01 3.4004887604871117e+00 0 0 0
135 2 3.6914999999999996e+00 1.0656442593567499e+01 3.4004887604871117e+00 0 0 0
137 2 4.9220000000000006e+00 1.1366872099805333e+01 3.4004887604871117e+00 0 0 0
176 2 4.9220000000000006e+00 1.2787731112280996e+01 3.4004887604871117e+00 0 0 0
178 2 6.1524999999999990e+00 1.3498160618518829e+01 3.4004887604871117e+00 0 0 0
92 2 0.0000000000000000e+00 1.5629449137232333e+01 3.4004887604871117e+00 0 0 0
123 2 0.0000000000000000e+00 1.7050308149707998e+01 3.4004887604871117e+00 0 0 0
127 2 1.2305000000000001e+00 1.4919019630994494e+01 3.4004887604871117e+00 0 0 0
129 2 2.4610000000000003e+00 1.5629449137232328e+01 3.4004887604871117e+00 0 0 0
168 2 2.4610000000000003e+00 1.7050308149707998e+01 3.4004887604871117e+00 0 0 0
172 2 3.6915000000000004e+00 1.4919019630994494e+01 3.4004887604871117e+00 0 0 0
174 2 4.9220000000000006e+00 1.5629449137232333e+01 3.4004887604871117e+00 0 0 0
215 2 4.9220000000000006e+00 1.7050308149707998e+01 3.4004887604871117e+00 0 0 0
219 2 6.1524999999999990e+00 1.4919019630994494e+01 3.4004887604871117e+00 0 0 0
125 2 1.2305000000000001e+00 1.7760737655945832e+01 3.4004887604871117e+00 0 0 0
164 2 1.2305000000000001e+00 1.9181596668421495e+01 3.4004887604871117e+00 0 0 0
170 2 3.6914999999999996e+00 1.7760737655945832e+01 3.4004887604871117e+00 0 0 0
211 2 3.6914999999999996e+00 1.9181596668421495e+01 3.4004887604871117e+00 0 0 0
72 2 0.0000000000000000e+00 9.9460130873296642e+00 6.2842551883181130e+00 0 0 0
101 2 2.4610000000000003e+00 9.9460130873296642e+00 6.2842551883181130e+00 0 0 0
138 2 4.9220000000000006e+00 9.9460130873296642e+00 6.2842551883181130e+00 0 0 0
95 2 0.0000000000000000e+00 1.2787731112280996e+01 6.2842551883181130e+00 0 0 0
97 2 1.2305000000000001e+00 1.2077301606043163e+01 6.2842551883181130e+00 0 0 0
99 2 1.2305000000000001e+00 1.0656442593567498e+01 6.2842551883181130e+00 0 0 0
132 2 2.4610000000000003e+00 1.2787731112280996e+01 6.2842551883181130e+00 0 0 0
134 2 3.6914999999999996e+00 1.2077301606043163e+01 6.2842551883181130e+00 0 0 0
136 2 3.6914999999999996e+00 1.0656442593567499e+01 6.2842551883181130e+00 0 0 0
392 2 0.0000000000000000e+00 1.1366872099805333e+01 9.1680216161485859e+00 0 0 0
404 2 0.0000000000000000e+00 1.2787731112280996e+01 9.1680216161485859e+00 0 0 0
405 2 1.2305000000000001e+00 1.3498160618518829e+01 9.1680216161485859e+00 0 0 0
406 2 1.2305000000000001e+00 1.0656442593567498e+01 9.1680216161485859e+00 0 0 0
407 2 2.4610000000000003e+00 1.1366872099805333e+01 9.1680216161485859e+00 0 0 0
423 2 2.4610000000000003e+00 1.2787731112280996e+01 9.1680216161485859e+00 0 0 0
424 2 3.6915000000000004e+00 1.3498160618518829e+01 9.1680216161485859e+00 0 0 0
425 2 3.6914999999999996e+00 1.0656442593567499e+01 9.1680216161485859e+00 0 0 0
177 2 4.9220000000000006e+00 1.2787731112280996e+01 6.2842551883181130e+00 0 0 0
426 2 4.9220000000000006e+00 1.1366872099805333e+01 9.1680216161485859e+00 0 0 0
446 2 4.9220000000000006e+00 1.2787731112280996e+01 9.1680216161485859e+00 0 0 0
447 2 6.1524999999999990e+00 1.3498160618518829e+01 9.1680216161485859e+00 0 0 0
93 2 0.0000000000000000e+00 1.4208590124756663e+01 6.2842551883181130e+00 0 0 0
130 2 2.4610000000000003e+00 1.4208590124756663e+01 6.2842551883181130e+00 0 0 0
175 2 4.9220000000000006e+00 1.4208590124756663e+01 6.2842551883181130e+00 0 0 0
124 2 0.0000000000000000e+00 1.7050308149707998e+01 6.2842551883181130e+00 0 0 0
126 2 1.2305000000000001e+00 1.6339878643470165e+01 6.2842551883181130e+00 0 0 0
128 2 1.2305000000000001e+00 1.4919019630994494e+01 6.2842551883181130e+00 0 0 0
169 2 2.4610000000000003e+00 1.7050308149707998e+01 6.2842551883181130e+00 0 0 0
171 2 3.6915000000000004e+00 1.6339878643470165e+01 6.2842551883181130e+00 0 0 0
173 2 3.6915000000000004e+00 1.4919019630994494e+01 6.2842551883181130e+00 0 0 0
403 2 0.0000000000000000e+00 1.5629449137232333e+01 9.1680216161485859e+00 0 0 0
419 2 0.0000000000000000e+00 1.7050308149707998e+01 9.1680216161485859e+00 0 0 0
421 2 1.2305000000000001e+00 1.4919019630994494e+01 9.1680216161485859e+00 0 0 0
422 2 2.4610000000000003e+00 1.5629449137232328e+01 9.1680216161485859e+00 0 0 0
442 2 2.4610000000000003e+00 1.7050308149707998e+01 9.1680216161485859e+00 0 0 0
444 2 3.6915000000000004e+00 1.4919019630994494e+01 9.1680216161485859e+00 0 0 0
216 2 4.9220000000000006e+00 1.7050308149707998e+01 6.2842551883181130e+00 0 0 0
220 2 6.1524999999999990e+00 1.4919019630994494e+01 6.2842551883181130e+00 0 0 0
445 2 4.9220000000000006e+00 1.5629449137232333e+01 9.1680216161485859e+00 0 0 0
466 2 4.9220000000000006e+00 1.7050308149707998e+01 9.1680216161485859e+00 0 0 0
468 2 6.1524999999999990e+00 1.4919019630994494e+01 9.1680216161485859e+00 0 0 0
122 2 0.0000000000000000e+00 1.8471167162183658e+01 6.2842551883181130e+00 0 0 0
165 2 1.2305000000000001e+00 1.9181596668421495e+01 6.2842551883181130e+00 0 0 0
167 2 2.4610000000000003e+00 1.8471167162183658e+01 6.2842551883181130e+00 0 0 0
212 2 3.6914999999999996e+00 1.9181596668421495e+01 6.2842551883181130e+00 0 0 0
420 2 1.2305000000000001e+00 1.7760737655945832e+01 9.1680216161485859e+00 0 0 0
440 2 1.2305000000000001e+00 1.9181596668421495e+01 9.1680216161485859e+00 0 0 0
443 2 3.6914999999999996e+00 1.7760737655945832e+01 9.1680216161485859e+00 0 0 0
464 2 3.6914999999999996e+00 1.9181596668421495e+01 9.1680216161485859e+00 0 0 0
214 2 4.9220000000000006e+00 1.8471167162183658e+01 6.2842551883181130e+00 0 0 0
1973 1 5.8888295334038399e-01 1.8216712831988293e+01 1.1901357265599803e+01 0 0 -1
1423 1 5.0709084762787819e+00 1.2703890895065902e+01 1.1751803978824867e+01 0 1 0
2009 1 3.3062905631468005e+00 1.4853152605134623e+01 1.1767947869601263e+01 1 1 -1
1957 1 3.1812527783455886e+00 1.7504848029253232e+01 1.1896012998017010e+01 0 0 1
3325 1 3.8636798838344824e+00 1.0021683060619289e+01 1.2293485225262293e+01 1 -1 -1
2051 1 1.2040444622497448e+00 1.3615591146942807e+01 1.2700412380022664e+01 1 2 -1
14 1 6.9203309956104864e-01 1.1196950678737979e+01 1.1770025986528008e+01 0 1 1
1373 1 5.3152840778791779e+00 1.5669527692135064e+01 1.3764672061152877e+01 0 0 -2
717 1 5.6189456292710327e+00 1.9490304116277105e+01 1.1774736969844311e+01 0 0 0
2559 1 4.1967857937704274e+00 1.4506086170737804e+01 1.6274496409016045e+01 0 1 -1
2607 1 1.2723963136524448e+00 1.1846414062171380e+01 1.7586708699268932e+01 0 0 0
765 1 1.2379598265169345e+00 1.6614621142575078e+01 2.4589479434738898e+01 0 0 1
2746 1 3.5644331813213879e+00 1.1539903957465166e+01 2.2408909690419094e+01 0 1 -1
616 1 4.8540945066109273e+00 1.2364482090309425e+01 1.4563244128427769e+01 1 1 0
1267 1 4.6050120684166140e+00 1.0223447925981695e+01 1.7519032199082243e+01 -1 1 0
2683 1 3.0253379506198206e+00 1.7011945911484524e+01 1.7769290712801308e+01 1 2 0
1919 1 3.7722508354236091e+00 1.7954224709649743e+01 1.4927669507126312e+01 0 0 0
3921 1 2.3964192154377700e-01 1.4953706820624976e+01 2.0359546182311398e+01 2 1 -1
1426 1 1.5131752750513408e+00 1.4114790944979406e+01 1.5644549177200254e+01 1 0 -1
1369 1 5.2852569624192354e+00 1.6670808158727858e+01 1.9813396418239542e+01 0 -1 -1
1406 1 1.2888163222620814e+00 1.7248345355883504e+01 2.1600966528644506e+01 0 0 0
3341 1 4.0423858002215800e+00 1.5016236215456072e+01 2.4453275823153263e+01 1 0 0
2581 1 4.7671864536673008e+00 1.2984787475863900e+01 1.8482481721034574e+01 0 1 0
3333 1 2.4813347251078444e+00 1.3040409899822844e+01 2.0103554988209403e+01 1 0 -1
3389 1 2.7085001215881683e+00 1.0256611061102239e+01 1.5352279632827475e+01 0 0 0
3383 1 2.5372148868164652e+00 1.8830262509143420e+01 1.9411192762197466e+01 0 1 -1
3947 1 3.4851398986666569e+00 1.8277083375335003e+01 2.4991262795675453e+01 1 0 0
3983 1 3.4635114094660997e+00 1.5580435693319458e+01 2.1623041206302958e+01 0 0 0
3912 1 7.6644076207631973e-01 1.8082418022924688e+01 1.4825028368321627e+01 1 1 0
2667 1 8.8364956180907173e-01 1.4023165853555231e+01 2.4962960422589873e+01 0 1 -1
2713 1 2.8439866711717423e+00 1.2064554089063639e+01 2.5134063467270259e+01 0 1 0
38 1 2.4297646663663527e-01 1.6100968011915089e+01 1.7583420319739375e+01 0 0 0
1923 1 5.9669911644294622e+00 1.2174622320416949e+01 2.5067396583826827e+01 0 0 0
1344 1 1.3353315245738842e+00 1.0028531742788330e+01 2.2030741204110861e+01 0 0 0
28 1 3.1443588617096498e+00 1.9513310960277543e+01 2.2373509860602155e+01 0 0 0
121 2 0.0000000000000000e+00 1.9892026174659328e+01 3.4004887604871117e+00 0 0 0
166 2 2.4610000000000003e+00 1.9892026174659328e+01 3.4004887604871117e+00 0 0 0
213 2 4.9220000000000006e+00 1.9892026174659328e+01 3.4004887604871117e+00 0 0 0
158 2 0.0000000000000000e+00 2.4154603212086325e+01 3.4004887604871117e+00 0 0 0
160 2 0.0000000000000000e+00 2.1312885187134999e+01 3.4004887604871117e+00 0 0 0
162 2 1.2304999999999993e+00 2.2023314693372832e+01 3.4004887604871117e+00 0 0 0
203 2 1.2304999999999993e+00 2.3444173705848499e+01 3.4004887604871117e+00 0 0 0
205 2 2.4610000000000003e+00 2.4154603212086325e+01 3.4004887604871117e+00 0 0 0
207 2 2.4610000000000003e+00 2.1312885187134995e+01 3.4004887604871117e+00 0 0 0
209 2 3.6914999999999996e+00 2.2023314693372832e+01 3.4004887604871117e+00 0 0 0
250 2 3.6915000000000004e+00 2.3444173705848499e+01 3.4004887604871117e+00 0 0 0
252 2 4.9220000000000006e+00 2.4154603212086325e+01 3.4004887604871117e+00 0 0 0
254 2 4.9220000000000006e+00 2.1312885187134995e+01 3.4004887604871117e+00 0 0 0
256 2 6.1524999999999990e+00 2.2023314693372832e+01 3.4004887604871117e+00 0 0 0
774 2 0.0000000000000000e+00 2.5575462224561992e+01 3.4004887604871117e+00 0 0 0
776 2 1.2305000000000001e+00 2.6285891730799833e+01 3.4004887604871117e+00 0 0 0
784 2 1.2305000000000010e+00 2.7706750743275496e+01 3.4004887604871117e+00 0 0 0
788 2 2.4610000000000003e+00 2.5575462224561992e+01 3.4004887604871117e+00 0 0 0
790 2 3.6914999999999991e+00 2.6285891730799833e+01 3.4004887604871117e+00 0 0 0
806 2 3.6914999999999996e+00 2.7706750743275496e+01 3.4004887604871117e+00 0 0 0
810 2 4.9220000000000006e+00 2.5575462224561992e+01 3.4004887604871117e+00 0 0 0
836 2 6.1524999999999990e+00 2.7706750743275496e+01 3.4004887604871117e+00 0 0 0
772 2 0.0000000000000000e+00 2.8417180249513333e+01 3.4004887604871117e+00 0 0 0
786 2 2.4610000000000003e+00 2.8417180249513326e+01 3.4004887604871117e+00 0 0 0
808 2 4.9220000000000006e+00 2.8417180249513336e+01 3.4004887604871117e+00 0 0 0
163 2 1.2305000000000001e+00 2.0602455680897162e+01 6.2842551883181130e+00 0 0 0
210 2 3.6915000000000004e+00 2.0602455680897162e+01 6.2842551883181130e+00 0 0 0
418 2 0.0000000000000000e+00 1.9892026174659328e+01 9.1680216161485859e+00 0 0 0
441 2 2.4610000000000003e+00 1.9892026174659328e+01 9.1680216161485859e+00 0 0 0
465 2 4.9220000000000006e+00 1.9892026174659328e+01 9.1680216161485859e+00 0 0 0
159 2 0.0000000000000000e+00 2.2733744199610655e+01 6.2842551883181130e+00 0 0 0
161 2 0.0000000000000000e+00 2.1312885187134999e+01 6.2842551883181130e+00 0 0 0
204 2 1.2304999999999993e+00 2.3444173705848499e+01 6.2842551883181130e+00 0 0 0
206 2 2.4610000000000003e+00 2.2733744199610655e+01 6.2842551883181130e+00 0 0 0
208 2 2.4610000000000003e+00 2.1312885187134995e+01 6.2842551883181130e+00 0 0 0
251 2 3.6915000000000004e+00 2.3444173705848499e+01 6.2842551883181130e+00 0 0 0
437 2 0.0000000000000000e+00 2.4154603212086325e+01 9.1680216161485859e+00 0 0 0
438 2 0.0000000000000000e+00 2.1312885187134999e+01 9.1680216161485859e+00 0 0 0
439 2 1.2304999999999993e+00 2.2023314693372832e+01 9.1680216161485859e+00 0 0 0
460 2 1.2304999999999993e+00 2.3444173705848499e+01 9.1680216161485859e+00 0 0 0
461 2 2.4610000000000003e+00 2.4154603212086325e+01 9.1680216161485859e+00 0 0 0
462 2 2.4610000000000003e+00 2.1312885187134995e+01 9.1680216161485859e+00 0 0 0
463 2 3.6914999999999996e+00 2.2023314693372832e+01 9.1680216161485859e+00 0 0 0
484 2 3.6915000000000004e+00 2.3444173705848499e+01 9.1680216161485859e+00 0 0 0
253 2 4.9220000000000006e+00 2.2733744199610655e+01 6.2842551883181130e+00 0 0 0
255 2 4.9220000000000006e+00 2.1312885187134995e+01 6.2842551883181130e+00 0 0 0
485 2 4.9220000000000006e+00 2.4154603212086325e+01 9.1680216161485859e+00 0 0 0
486 2 4.9220000000000006e+00 2.1312885187134995e+01 9.1680216161485859e+00 0 0 0
487 2 6.1524999999999990e+00 2.2023314693372832e+01 9.1680216161485859e+00 0 0 0
773 2 0.0000000000000000e+00 2.6996321237037659e+01 6.2842551883181130e+00 0 0 0
775 2 0.0000000000000000e+00 2.5575462224561992e+01 6.2842551883181130e+00 0 0 0
777 2 1.2305000000000001e+00 2.4865032718324155e+01 6.2842551883181130e+00 0 0 0
785 2 1.2305000000000010e+00 2.7706750743275496e+01 6.2842551883181130e+00 0 0 0
787 2 2.4610000000000003e+00 2.6996321237037659e+01 6.2842551883181130e+00 0 0 0
789 2 2.4610000000000003e+00 2.5575462224561992e+01 6.2842551883181130e+00 0 0 0
791 2 3.6914999999999996e+00 2.4865032718324166e+01 6.2842551883181130e+00 0 0 0
807 2 3.6914999999999996e+00 2.7706750743275496e+01 6.2842551883181130e+00 0 0 0
1088 2 0.0000000000000000e+00 2.5575462224561992e+01 9.1680216161485859e+00 0 0 0
1089 2 1.2305000000000001e+00 2.6285891730799833e+01 9.1680216161485859e+00 0 0 0
1093 2 1.2305000000000010e+00 2.7706750743275496e+01 9.1680216161485859e+00 0 0 0
1095 2 2.4610000000000003e+00 2.5575462224561992e+01 9.1680216161485859e+00 0 0 0
1096 2 3.6914999999999991e+00 2.6285891730799833e+01 9.1680216161485859e+00 0 0 0
1104 2 3.6914999999999996e+00 2.7706750743275496e+01 9.1680216161485859e+00 0 0 0
809 2 4.9220000000000006e+00 2.6996321237037659e+01 6.2842551883181130e+00 0 0 0
811 2 4.9220000000000006e+00 2.5575462224561992e+01 6.2842551883181130e+00 0 0 0
813 2 6.1524999999999990e+00 2.4865032718324155e+01 6.2842551883181130e+00 0 0 0
837 2 6.1524999999999990e+00 2.7706750743275496e+01 6.2842551883181130e+00 0 0 0
1106 2 4.9220000000000006e+00 2.5575462224561992e+01 9.1680216161485859e+00 0 0 0
1119 2 6.1524999999999990e+00 2.7706750743275496e+01 9.1680216161485859e+00 0 0 0
783 2 1.2304999999999993e+00 2.9127609755751163e+01 6.2842551883181130e+00 0 0 0
805 2 3.6914999999999991e+00 2.9127609755751152e+01 6.2842551883181130e+00 0 0 0
1087 2 0.0000000000000000e+00 2.8417180249513333e+01 9.1680216161485859e+00 0 0 0
1094 2 2.4610000000000003e+00 2.8417180249513326e+01 9.1680216161485859e+00 0 0 0
835 2 6.1524999999999981e+00 2.9127609755751152e+01 6.2842551883181130e+00 0 0 0
1105 2 4.9220000000000006e+00 2.8417180249513336e+01 9.1680216161485859e+00 0 0 0
1948 1 3.9851615232104680e+00 2.2199609002699059e+01 1.1663837766964425e+01 1 0 -1
2059 1 1.1326080913807752e+00 2.2933283118730664e+01 1.1473618580615007e+01 1 0 -1
581 1 8.9840576415013584e-01 2.8009895689505385e+01 1.2079647951065084e+01 1 0 0
556 1 3.5629059729371404e+00 2.8786212276054165e+01 1.1823447704822049e+01 2 0 0
3364 1 1.2032693381460323e-01 2.5373779107077873e+01 1.2258924287758356e+01 1 1 0
733 1 5.9367786229010937e+00 2.6834589207580574e+01 1.1742387060464402e+01 0 0 0
4006 1 3.5843888177696898e-01 1.9874021684517935e+01 1.8410630540658907e+01 0 -1 0
675 1 7.6336020258009274e-01 2.1608495248298372e+01 1.6252865615691444e+01 1 0 0
1412 1 3.7709166342600620e+00 2.1272938041594649e+01 2.5019322886948075e+01 0 1 1
1418 1 3.4274569206022587e+00 2.7750216490041023e+01 2.1865988224121530e+01 1 0 -1
36 1 4.5741770808784175e+00 2.3544659298328785e+01 2.2454824014945736e+01 1 0 0
4035 1 9.8939299181833484e-01 2.7472508302794211e+01 1.5364422948356060e+01 1 -1 0
2019 1 3.5110825732432618e+00 2.8339023358041793e+01 1.4615441736466940e+01 1 0 -1
2568 1 3.8441758190301512e+00 2.8079853629092685e+01 1.7463754200805234e+01 0 0 0
4009 1 4.4005155099571818e+00 2.0737556859399511e+01 1.8618289414801467e+01 0 1 -1
2692 1 3.3101576470644742e+00 2.0913880656369471e+01 1.5633302272844807e+01 1 1 -1
735 1 5.4414489714498213e+00 2.4106297680817434e+01 1.4585670230412914e+01 1 0 -1
2704 1 2.5929904345957695e+00 2.3097655363688716e+01 1.8700116375113623e+01 1 0 0
1999 1 1.9457065618565966e-01 2.4414826773077088e+01 1.7783253355813606e+01 0 0 -1
1980 1 2.9108728665332011e+00 2.3473796993820912e+01 1.4101836437282927e+01 2 0 1
594 1 6.5231169550222345e-01 2.7228235140460651e+01 1.8178253531760916e+01 1 -1 0
678 1 1.3558763921055208e+00 2.5636302527604396e+01 2.2483885071952770e+01 1 -1 -1
1318 1 5.1700064388292759e+00 2.5767083852184999e+01 2.0973583801842331e+01 2 0 0
13 1 5.5505251880565842e-01 2.4548529850320907e+01 1.5138268577198128e+01 1 0 0
2628 1 4.2634497454562590e+00 2.5450905526929599e+01 1.8436531288670786e+01 1 0 -1
3384 1 3.8844170293986164e+00 2.4841325179975080e+01 2.4900198703890020e+01 1 0 0
3350 1 2.1272843802362420e+00 2.3370251754977168e+01 2.1366626562049547e+01 1 0 0
1922 1 1.4525986212977258e+00 2.3359338791146435e+01 2.5067419056289324e+01 1 0 -1
3241 1 1.1842652625400607e+00 2.1426025954971557e+01 2.3091644374152210e+01 1 -1 0
1384 1 5.6260720049578907e+00 2.0838458498521646e+01 2.1312256658311838e+01 1 1 -1
3997 1 3.7159568882458784e+00 2.7803647614915512e+01 2.4839207561679501e+01 0 -1 1
736 1 2.4013056094964336e+00 2.9210893550857179e+01 1.9739511769641275e+01 1 0 1
760 1 5.6518783695572417e+00 2.9360556954797104e+01 2.3492751644802780e+01 1 0 1
780 2 0.0000000000000000e+00 2.9838039261988989e+01 3.4004887604871117e+00 0 0 0
782 2 1.2304999999999993e+00 3.0548468768226829e+01 3.4004887604871117e+00 0 0 0
802 2 2.4610000000000003e+00 2.9838039261988989e+01 3.4004887604871117e+00 0 0 0
804 2 3.6915000000000004e+00 3.0548468768226829e+01 3.4004887604871117e+00 0 0 0
832 2 4.9220000000000006e+00 2.9838039261988989e+01 3.4004887604871117e+00 0 0 0
778 2 0.0000000000000000e+00 3.2679757286940330e+01 3.4004887604871117e+00 0 0 0
794 2 0.0000000000000000e+00 3.4100616299415996e+01 3.4004887604871117e+00 0 0 0
798 2 1.2304999999999993e+00 3.1969327780702493e+01 3.4004887604871117e+00 0 0 0
800 2 2.4610000000000003e+00 3.2679757286940337e+01 3.4004887604871117e+00 0 0 0
824 2 2.4609999999999985e+00 3.4100616299415996e+01 3.4004887604871117e+00 0 0 0
828 2 3.6914999999999996e+00 3.1969327780702493e+01 3.4004887604871117e+00 0 0 0
830 2 4.9220000000000015e+00 3.2679757286940337e+01 3.4004887604871117e+00 0 0 0
862 2 4.9220000000000006e+00 3.4100616299415996e+01 3.4004887604871117e+00 0 0 0
796 2 1.2305000000000010e+00 3.4811045805653833e+01 3.4004887604871117e+00 0 0 0
826 2 3.6915000000000018e+00 3.4811045805653833e+01 3.4004887604871117e+00 0 0 0
792 2 0.0000000000000000e+00 3.6942334324367337e+01 3.4004887604871117e+00 0 0 0
816 2 0.0000000000000000e+00 3.8363193336842990e+01 3.4004887604871117e+00 0 0 0
820 2 1.2304999999999993e+00 3.6231904818129486e+01 3.4004887604871117e+00 0 0 0
822 2 2.4610000000000021e+00 3.6942334324367337e+01 3.4004887604871117e+00 0 0 0
854 2 2.4610000000000003e+00 3.8363193336842990e+01 3.4004887604871117e+00 0 0 0
858 2 3.6914999999999996e+00 3.6231904818129486e+01 3.4004887604871117e+00 0 0 0
860 2 4.9220000000000006e+00 3.6942334324367316e+01 3.4004887604871117e+00 0 0 0
899 2 4.9220000000000006e+00 3.8363193336842990e+01 3.4004887604871117e+00 0 0 0
818 2 1.2305000000000010e+00 3.9073622843080841e+01 3.4004887604871117e+00 0 0 0
856 2 3.6915000000000018e+00 3.9073622843080820e+01 3.4004887604871117e+00 0 0 0
779 2 0.0000000000000000e+00 3.1258898274464656e+01 6.2842551883181130e+00 0 0 0
781 2 0.0000000000000000e+00 2.9838039261988989e+01 6.2842551883181130e+00 0 0 0
801 2 2.4609999999999985e+00 3.1258898274464656e+01 6.2842551883181130e+00 0 0 0
803 2 2.4610000000000003e+00 2.9838039261988989e+01 6.2842551883181130e+00 0 0 0
1091 2 0.0000000000000000e+00 2.9838039261988989e+01 9.1680216161485859e+00 0 0 0
1092 2 1.2304999999999993e+00 3.0548468768226829e+01 9.1680216161485859e+00 0 0 0
1102 2 2.4610000000000003e+00 2.9838039261988989e+01 9.1680216161485859e+00 0 0 0
1103 2 3.6915000000000004e+00 3.0548468768226829e+01 9.1680216161485859e+00 0 0 0
831 2 4.9219999999999979e+00 3.1258898274464656e+01 6.2842551883181130e+00 0 0 0
833 2 4.9220000000000006e+00 2.9838039261988989e+01 6.2842551883181130e+00 0 0 0
1117 2 4.9220000000000006e+00 2.9838039261988989e+01 9.1680216161485859e+00 0 0 0
795 2 0.0000000000000000e+00 3.4100616299415996e+01 6.2842551883181130e+00 0 0 0
797 2 1.2304999999999993e+00 3.3390186793178160e+01 6.2842551883181130e+00 0 0 0
799 2 1.2304999999999993e+00 3.1969327780702493e+01 6.2842551883181130e+00 0 0 0