LAMMPS data file via write_data, version 16 Mar 2018, timestep = 8000000

4055 atoms
2 atom types

0.0000000000000000e+00 4.9219999999999999e+01 xlo xhi
0.0000000000000000e+00 4.9019635930410494e+01 ylo yhi
1.2872274017093357e+00 2.6652772598285765e+01 zlo zhi

Masses

1 18.015
2 12.01

Atoms # atomic

53 2 0.0000000000000000e+00 2.8417180249513345e+00 2.8858810409006397e+00 0 0 0
55 2 0.0000000000000000e+00 0.0000000000000000e+00 2.8858810409006397e+00 0 0 0
57 2 1.2305000000000001e+00 7.1042950623783474e-01 2.8858810409006397e+00 0 0 0
64 2 1.2305000000000001e+00 2.1312885187134998e+00 2.8858810409006397e+00 0 0 0
66 2 2.4610000000000003e+00 2.8417180249513345e+00 2.8858810409006397e+00 0 0 0
68 2 2.4610000000000003e+00 0.0000000000000000e+00 2.8858810409006397e+00 0 0 0
70 2 3.6915000000000004e+00 7.1042950623783474e-01 2.8858810409006397e+00 0 0 0
85 2 3.6914999999999996e+00 2.1312885187134998e+00 2.8858810409006397e+00 0 0 0
87 2 4.9220000000000006e+00 2.8417180249513332e+00 2.8858810409006397e+00 0 0 0
89 2 4.9220000000000006e+00 0.0000000000000000e+00 2.8858810409006397e+00 0 0 0
60 2 0.0000000000000000e+00 4.2625770374269996e+00 2.8858810409006397e+00 0 0 0
81 2 2.4610000000000003e+00 4.2625770374269996e+00 2.8858810409006397e+00 0 0 0
110 2 4.9220000000000006e+00 4.2625770374269978e+00 2.8858810409006397e+00 0 0 0
62 2 1.2305000000000001e+00 4.9730065436648339e+00 2.8858810409006397e+00 0 0 0
77 2 1.2305000000000001e+00 6.3938655561404980e+00 2.8858810409006397e+00 0 0 0
83 2 3.6914999999999996e+00 4.9730065436648339e+00 2.8858810409006397e+00 0 0 0
106 2 3.6914999999999996e+00 6.3938655561404980e+00 2.8858810409006397e+00 0 0 0
58 2 0.0000000000000000e+00 7.1042950623783341e+00 2.8858810409006397e+00 0 0 0
73 2 0.0000000000000000e+00 8.5251540748539991e+00 2.8858810409006397e+00 0 0 0
75 2 1.2305000000000001e+00 9.2355835810918343e+00 2.8858810409006397e+00 0 0 0
79 2 2.4610000000000003e+00 7.1042950623783341e+00 2.8858810409006397e+00 0 0 0
102 2 2.4610000000000003e+00 8.5251540748539991e+00 2.8858810409006397e+00 0 0 0
104 2 3.6915000000000004e+00 9.2355835810918343e+00 2.8858810409006397e+00 0 0 0
108 2 4.9220000000000006e+00 7.1042950623783341e+00 2.8858810409006397e+00 0 0 0
139 2 4.9220000000000006e+00 8.5251540748539991e+00 2.8858810409006397e+00 0 0 0
54 2 0.0000000000000000e+00 1.4208590124756650e+00 5.9100521129584678e+00 0 0 0
56 2 0.0000000000000000e+00 0.0000000000000000e+00 5.9100521129584678e+00 0 0 0
65 2 1.2305000000000001e+00 2.1312885187134998e+00 5.9100521129584678e+00 0 0 0
67 2 2.4610000000000003e+00 1.4208590124756650e+00 5.9100521129584678e+00 0 0 0
69 2 2.4610000000000003e+00 0.0000000000000000e+00 5.9100521129584678e+00 0 0 0
86 2 3.6914999999999996e+00 2.1312885187134998e+00 5.9100521129584678e+00 0 0 0
382 2 0.0000000000000000e+00 2.8417180249513345e+00 8.9342231850146305e+00 0 0 0
383 2 0.0000000000000000e+00 0.0000000000000000e+00 8.9342231850146305e+00 0 0 0
384 2 1.2305000000000001e+00 7.1042950623783474e-01 8.9342231850146305e+00 0 0 0
388 2 1.2305000000000001e+00 2.1312885187134998e+00 8.9342231850146305e+00 0 0 0
389 2 2.4610000000000003e+00 2.8417180249513345e+00 8.9342231850146305e+00 0 0 0
390 2 2.4610000000000003e+00 0.0000000000000000e+00 8.9342231850146305e+00 0 0 0
391 2 3.6915000000000004e+00 7.1042950623783474e-01 8.9342231850146305e+00 0 0 0
399 2 3.6914999999999996e+00 2.1312885187134998e+00 8.9342231850146305e+00 0 0 0
88 2 4.9220000000000006e+00 1.4208590124756650e+00 5.9100521129584678e+00 0 0 0
90 2 4.9220000000000006e+00 0.0000000000000000e+00 5.9100521129584678e+00 0 0 0
400 2 4.9220000000000006e+00 2.8417180249513332e+00 8.9342231850146305e+00 0 0 0
401 2 4.9220000000000006e+00 0.0000000000000000e+00 8.9342231850146305e+00 0 0 0
61 2 0.0000000000000000e+00 4.2625770374269996e+00 5.9100521129584678e+00 0 0 0
63 2 1.2305000000000001e+00 3.5521475311891644e+00 5.9100521129584678e+00 0 0 0
82 2 2.4610000000000003e+00 4.2625770374269996e+00 5.9100521129584678e+00 0 0 0
84 2 3.6914999999999996e+00 3.5521475311891644e+00 5.9100521129584678e+00 0 0 0
386 2 0.0000000000000000e+00 4.2625770374269996e+00 8.9342231850146305e+00 0 0 0
397 2 2.4610000000000003e+00 4.2625770374269996e+00 8.9342231850146305e+00 0 0 0
111 2 4.9220000000000006e+00 4.2625770374269978e+00 5.9100521129584678e+00 0 0 0
412 2 4.9220000000000006e+00 4.2625770374269978e+00 8.9342231850146305e+00 0 0 0
59 2 0.0000000000000000e+00 5.6834360499026637e+00 5.9100521129584678e+00 0 0 0
78 2 1.2305000000000001e+00 6.3938655561404980e+00 5.9100521129584678e+00 0 0 0
80 2 2.4610000000000003e+00 5.6834360499026637e+00 5.9100521129584678e+00 0 0 0
107 2 3.6914999999999996e+00 6.3938655561404980e+00 5.9100521129584678e+00 0 0 0
387 2 1.2305000000000001e+00 4.9730065436648339e+00 8.9342231850146305e+00 0 0 0
395 2 1.2305000000000001e+00 6.3938655561404980e+00 8.9342231850146305e+00 0 0 0
398 2 3.6914999999999996e+00 4.9730065436648339e+00 8.9342231850146305e+00 0 0 0
410 2 3.6914999999999996e+00 6.3938655561404980e+00 8.9342231850146305e+00 0 0 0
109 2 4.9220000000000006e+00 5.6834360499026637e+00 5.9100521129584678e+00 0 0 0
74 2 0.0000000000000000e+00 8.5251540748539991e+00 5.9100521129584678e+00 0 0 0
76 2 1.2305000000000001e+00 7.8147245686161639e+00 5.9100521129584678e+00 0 0 0
103 2 2.4610000000000003e+00 8.5251540748539991e+00 5.9100521129584678e+00 0 0 0
105 2 3.6914999999999996e+00 7.8147245686161639e+00 5.9100521129584678e+00 0 0 0
385 2 0.0000000000000000e+00 7.1042950623783341e+00 8.9342231850146305e+00 0 0 0
393 2 0.0000000000000000e+00 8.5251540748539991e+00 8.9342231850146305e+00 0 0 0
394 2 1.2305000000000001e+00 9.2355835810918343e+00 8.9342231850146305e+00 0 0 0
396 2 2.4610000000000003e+00 7.1042950623783341e+00 8.9342231850146305e+00 0 0 0
408 2 2.4610000000000003e+00 8.5251540748539991e+00 8.9342231850146305e+00 0 0 0
409 2 3.6915000000000004e+00 9.2355835810918343e+00 8.9342231850146305e+00 0 0 0
140 2 4.9220000000000006e+00 8.5251540748539991e+00 5.9100521129584678e+00 0 0 0
411 2 4.9220000000000006e+00 7.1042950623783341e+00 8.9342231850146305e+00 0 0 0
427 2 4.9220000000000006e+00 8.5251540748539991e+00 8.9342231850146305e+00 0 0 0
2640 1 2.2199154342126741e+00 3.9033845313130247e+00 1.2023184093462101e+01 1 0 -1
1959 1 4.2756631949165582e+00 2.1722746453442268e+00 1.1330877125816073e+01 0 -1 -1
3313 1 1.0343679416195779e+00 8.1195191452871960e+00 1.1784435042421695e+01 1 0 0
2772 1 3.0106319001130744e+00 6.3325228967914606e+00 1.2018499441855921e+01 1 1 0
705 1 5.8576429241787924e+00 6.1981017347638447e+00 1.2212645314835090e+01 1 0 0
2090 1 4.2224270604373748e+00 2.1981816591596899e+00 1.5654407525929516e+01 0 0 0
1275 1 2.1659433739058458e+00 4.0247420948000912e+00 1.4649815122323727e+01 1 1 -1
1930 1 4.1086415839357686e+00 2.0621312569249670e+00 1.8423682881110501e+01 1 1 -1
620 1 2.9399443491807942e+00 6.5608213785121432e+00 1.5265136982271596e+01 1 0 0
3444 1 1.0967967877128049e+00 8.3411168881261677e+00 1.4618390754885230e+01 0 1 0
3281 1 5.8751848927615820e+00 7.4048610619250619e+00 1.4812451614981628e+01 -1 1 -1
3987 1 1.5230888503155131e+00 1.2888494049061254e+00 1.9225384321858144e+01 1 -1 0
3993 1 4.7638880022882022e+00 4.5617884661533630e+00 1.9429719913004561e+01 -1 0 0
1323 1 4.6263062592817326e+00 4.5443695181321200e+00 2.2084490649006931e+01 1 1 0
1318 1 1.8374593322937420e+00 9.8905023112140045e-01 2.2022718119705395e+01 2 1 0
1985 1 5.3776538763034090e+00 6.8659408438402663e+00 2.2878201188150605e+01 1 1 0
1234 1 2.7972336720456910e+00 6.4148966406628771e+00 1.8333275120689912e+01 2 0 1
3405 1 3.6655440830655381e+00 8.6585165175867580e+00 1.9371004388740900e+01 0 0 0
1316 1 3.4938622879449692e+00 8.8261569622671381e+00 2.2079987554215748e+01 0 2 0
1969 1 2.0674199467607998e-01 5.4790721260427135e+00 2.1892032277821222e+01 -1 0 1
49 1 4.7115111012722621e-01 5.5498611571178316e+00 1.9229896751102821e+01 0 0 -1
1308 1 2.2485399174484808e+00 3.7531199797200196e+00 2.2967058201100592e+01 1 0 -1
616 1 2.3847676204764130e+00 3.5679432598963108e+00 2.5571303571308846e+01 1 1 0
2636 1 2.0154742164872532e+00 5.8588115719565059e-01 2.5444798336153461e+01 1 1 0
1381 1 3.9161426476217955e+00 8.8190583416142960e+00 2.5424837319668065e+01 0 -2 0
2580 1 4.5411677840666870e-01 5.4913277709869046e+00 2.5904395937790660e+01 -1 0 0
3427 1 1.3112056974035360e+00 8.0833108433364504e+00 2.5202863188267443e+01 -1 -1 0
2017 1 8.3597020196361016e-01 8.0894673617945969e+00 2.2748694338224624e+01 1 1 -1
3262 1 4.9201267429043432e+00 4.2057961308366405e+00 2.5511732470236055e+01 -1 1 -1
1383 1 5.9409765378947066e+00 6.8522160011033009e+00 2.5619135428029175e+01 1 0 0
3886 1 5.8286083141133762e+00 1.0771648804335848e-02 1.9306137683442088e+01 2 1 -1
71 2 0.0000000000000000e+00 1.1366872099805333e+01 2.8858810409006397e+00 0 0 0
94 2 0.0000000000000000e+00 1.2787731112280996e+01 2.8858810409006397e+00 0 0 0
96 2 1.2305000000000001e+00 1.3498160618518829e+01 2.8858810409006397e+00 0 0 0
98 2 1.2305000000000001e+00 1.0656442593567498e+01 2.8858810409006397e+00 0 0 0
100 2 2.4610000000000003e+00 1.1366872099805333e+01 2.8858810409006397e+00 0 0 0
131 2 2.4610000000000003e+00 1.2787731112280996e+01 2.8858810409006397e+00 0 0 0
133 2 3.6915000000000004e+00 1.3498160618518829e+01 2.8858810409006397e+00 0 0 0
135 2 3.6914999999999996e+00 1.0656442593567499e+01 2.8858810409006397e+00 0 0 0
137 2 4.9220000000000006e+00 1.1366872099805333e+01 2.8858810409006397e+00 0 0 0
176 2 4.9220000000000006e+00 1.2787731112280996e+01 2.8858810409006397e+00 0 0 0
178 2 6.1524999999999990e+00 1.3498160618518829e+01 2.8858810409006397e+00 0 0 0
92 2 0.0000000000000000e+00 1.5629449137232333e+01 2.8858810409006397e+00 0 0 0
123 2 0.0000000000000000e+00 1.7050308149707998e+01 2.8858810409006397e+00 0 0 0
127 2 1.2305000000000001e+00 1.4919019630994494e+01 2.8858810409006397e+00 0 0 0
129 2 2.4610000000000003e+00 1.5629449137232328e+01 2.8858810409006397e+00 0 0 0
168 2 2.4610000000000003e+00 1.7050308149707998e+01 2.8858810409006397e+00 0 0 0
172 2 3.6915000000000004e+00 1.4919019630994494e+01 2.8858810409006397e+00 0 0 0
174 2 4.9220000000000006e+00 1.5629449137232333e+01 2.8858810409006397e+00 0 0 0
215 2 4.9220000000000006e+00 1.7050308149707998e+01 2.8858810409006397e+00 0 0 0
219 2 6.1524999999999990e+00 1.4919019630994494e+01 2.8858810409006397e+00 0 0 0
125 2 1.2305000000000001e+00 1.7760737655945832e+01 2.8858810409006397e+00 0 0 0
164 2 1.2305000000000001e+00 1.9181596668421495e+01 2.8858810409006397e+00 0 0 0
170 2 3.6914999999999996e+00 1.7760737655945832e+01 2.8858810409006397e+00 0 0 0
211 2 3.6914999999999996e+00 1.9181596668421495e+01 2.8858810409006397e+00 0 0 0
72 2 0.0000000000000000e+00 9.9460130873296642e+00 5.9100521129584678e+00 0 0 0
101 2 2.4610000000000003e+00 9.9460130873296642e+00 5.9100521129584678e+00 0 0 0
138 2 4.9220000000000006e+00 9.9460130873296642e+00 5.9100521129584678e+00 0 0 0
95 2 0.0000000000000000e+00 1.2787731112280996e+01 5.9100521129584678e+00 0 0 0
97 2 1.2305000000000001e+00 1.2077301606043163e+01 5.9100521129584678e+00 0 0 0
99 2 1.2305000000000001e+00 1.0656442593567498e+01 5.9100521129584678e+00 0 0 0
132 2 2.4610000000000003e+00 1.2787731112280996e+01 5.9100521129584678e+00 0 0 0
134 2 3.6914999999999996e+00 1.2077301606043163e+01 5.9100521129584678e+00 0 0 0
136 2 3.6914999999999996e+00 1.0656442593567499e+01 5.9100521129584678e+00 0 0 0
392 2 0.0000000000000000e+00 1.1366872099805333e+01 8.9342231850146305e+00 0 0 0
404 2 0.0000000000000000e+00 1.2787731112280996e+01 8.9342231850146305e+00 0 0 0
405 2 1.2305000000000001e+00 1.3498160618518829e+01 8.9342231850146305e+00 0 0 0
406 2 1.2305000000000001e+00 1.0656442593567498e+01 8.9342231850146305e+00 0 0 0
407 2 2.4610000000000003e+00 1.1366872099805333e+01 8.9342231850146305e+00 0 0 0
423 2 2.4610000000000003e+00 1.2787731112280996e+01 8.9342231850146305e+00 0 0 0
424 2 3.6915000000000004e+00 1.3498160618518829e+01 8.9342231850146305e+00 0 0 0
425 2 3.6914999999999996e+00 1.0656442593567499e+01 8.9342231850146305e+00 0 0 0
177 2 4.9220000000000006e+00 1.2787731112280996e+01 5.9100521129584678e+00 0 0 0
426 2 4.9220000000000006e+00 1.1366872099805333e+01 8.9342231850146305e+00 0 0 0
446 2 4.9220000000000006e+00 1.2787731112280996e+01 8.9342231850146305e+00 0 0 0
447 2 6.1524999999999990e+00 1.3498160618518829e+01 8.9342231850146305e+00 0 0 0
93 2 0.0000000000000000e+00 1.4208590124756663e+01 5.9100521129584678e+00 0 0 0
130 2 2.4610000000000003e+00 1.4208590124756663e+01 5.9100521129584678e+00 0 0 0
175 2 4.9220000000000006e+00 1.4208590124756663e+01 5.9100521129584678e+00 0 0 0
124 2 0.0000000000000000e+00 1.7050308149707998e+01 5.9100521129584678e+00 0 0 0
126 2 1.2305000000000001e+00 1.6339878643470165e+01 5.9100521129584678e+00 0 0 0
128 2 1.2305000000000001e+00 1.4919019630994494e+01 5.9100521129584678e+00 0 0 0
169 2 2.4610000000000003e+00 1.7050308149707998e+01 5.9100521129584678e+00 0 0 0
171 2 3.6915000000000004e+00 1.6339878643470165e+01 5.9100521129584678e+00 0 0 0
173 2 3.6915000000000004e+00 1.4919019630994494e+01 5.9100521129584678e+00 0 0 0
403 2 0.0000000000000000e+00 1.5629449137232333e+01 8.9342231850146305e+00 0 0 0
419 2 0.0000000000000000e+00 1.7050308149707998e+01 8.9342231850146305e+00 0 0 0
421 2 1.2305000000000001e+00 1.4919019630994494e+01 8.9342231850146305e+00 0 0 0
422 2 2.4610000000000003e+00 1.5629449137232328e+01 8.9342231850146305e+00 0 0 0
442 2 2.4610000000000003e+00 1.7050308149707998e+01 8.9342231850146305e+00 0 0 0
444 2 3.6915000000000004e+00 1.4919019630994494e+01 8.9342231850146305e+00 0 0 0
216 2 4.9220000000000006e+00 1.7050308149707998e+01 5.9100521129584678e+00 0 0 0
220 2 6.1524999999999990e+00 1.4919019630994494e+01 5.9100521129584678e+00 0 0 0
445 2 4.9220000000000006e+00 1.5629449137232333e+01 8.9342231850146305e+00 0 0 0
466 2 4.9220000000000006e+00 1.7050308149707998e+01 8.9342231850146305e+00 0 0 0
468 2 6.1524999999999990e+00 1.4919019630994494e+01 8.9342231850146305e+00 0 0 0
122 2 0.0000000000000000e+00 1.8471167162183658e+01 5.9100521129584678e+00 0 0 0
165 2 1.2305000000000001e+00 1.9181596668421495e+01 5.9100521129584678e+00 0 0 0
167 2 2.4610000000000003e+00 1.8471167162183658e+01 5.9100521129584678e+00 0 0 0
212 2 3.6914999999999996e+00 1.9181596668421495e+01 5.9100521129584678e+00 0 0 0
420 2 1.2305000000000001e+00 1.7760737655945832e+01 8.9342231850146305e+00 0 0 0
440 2 1.2305000000000001e+00 1.9181596668421495e+01 8.9342231850146305e+00 0 0 0
443 2 3.6914999999999996e+00 1.7760737655945832e+01 8.9342231850146305e+00 0 0 0
464 2 3.6914999999999996e+00 1.9181596668421495e+01 8.9342231850146305e+00 0 0 0
214 2 4.9220000000000006e+00 1.8471167162183658e+01 5.9100521129584678e+00 0 0 0
2012 1 1.7977269293014544e+00 1.0813465378984153e+01 1.1171883210696027e+01 0 2 -1
4047 1 4.1858772469101906e+00 1.2032500533158901e+01 1.2316340719694800e+01 0 0 0
771 1 4.2394613946810678e+00 1.6948083519118452e+01 1.1326766249714819e+01 -1 0 1
3982 1 3.2073280928580554e+00 1.4440625059759673e+01 1.1638288573865479e+01 0 1 0
2630 1 3.9149413373630737e-01 1.4605093875954941e+01 1.1024973745709536e+01 1 0 0
1917 1 2.3141140629704786e+00 1.9133310322847851e+01 1.1625566961218334e+01 -1 0 0
3298 1 1.9041992918506594e+00 1.0524299579722401e+01 1.5641127411220202e+01 -1 -1 0
653 1 4.9864915606668507e+00 1.4026428309905764e+01 1.5495365847394572e+01 -1 0 0
743 1 4.4178974567101612e+00 1.1522002838225228e+01 1.4890674214643512e+01 0 0 0
3244 1 3.9969704949297152e-01 1.4934198399473480e+01 1.5429477939989694e+01 0 -1 0
2684 1 3.1047909937818750e+00 1.5661156879776945e+01 1.4470391759189345e+01 1 0 0
1330 1 4.0933983536503744e+00 1.8319011234281440e+01 1.5602949986053485e+01 1 1 -1
2654 1 3.8606233798161571e+00 1.8295907547205601e+01 1.8232298366355145e+01 1 0 0
644 1 6.6093025146710838e-01 1.4731421134751111e+01 1.8180094355474466e+01 0 -1 0
2038 1 1.8458966302882223e+00 1.0569788950196067e+01 1.8577634112696146e+01 0 0 0
3408 1 4.8975088256066490e+00 1.4133011556395918e+01 1.8215489280008299e+01 1 0 0
1288 1 2.5161049590405256e+00 1.3189266095967209e+01 1.8962238212959477e+01 1 0 0
1948 1 2.5138947072241167e+00 1.3013124131190636e+01 2.1785294584275320e+01 0 1 -1
2702 1 1.4700071012337239e+00 1.7347738136094296e+01 1.9224461533949849e+01 2 0 -1
2045 1 1.7267342635545415e+00 1.7340948211738855e+01 2.1846331296114712e+01 0 -1 -1
3369 1 6.1038730129000447e+00 1.6179300835982971e+01 2.1579818831422372e+01 1 1 -1
3396 1 1.7735043840835629e+00 1.8330107037253644e+01 2.5858288419109954e+01 0 1 0
3311 1 4.5848698837775927e+00 1.1304289182787871e+01 2.2635882093834645e+01 2 0 1
2042 1 4.8721477948106227e+00 1.1336585923003929e+01 2.5537285256159961e+01 0 0 0
2660 1 2.9282016163421161e+00 1.3120598768722212e+01 2.5517343491602496e+01 0 0 -1
2672 1 3.5527223581980438e+00 1.6174173674738505e+01 2.5351652394663809e+01 0 0 0
747 1 3.6427954252483068e+00 1.5481701576528742e+01 2.2694253387535831e+01 0 1 1
2661 1 5.7672389105309394e+00 1.6468048132150052e+01 1.8882527091146450e+01 0 0 0
1337 1 1.0769042181310493e-01 1.2860144324260165e+01 2.5672803804692201e+01 1 1 0
1277 1 2.0195475455005152e-01 1.2388702223901417e+01 2.2983121743286581e+01 0 0 0
121 2 0.0000000000000000e+00 1.9892026174659328e+01 2.8858810409006397e+00 0 0 0
166 2 2.4610000000000003e+00 1.9892026174659328e+01 2.8858810409006397e+00 0 0 0
213 2 4.9220000000000006e+00 1.9892026174659328e+01 2.8858810409006397e+00 0 0 0
158 2 0.0000000000000000e+00 2.4154603212086325e+01 2.8858810409006397e+00 0 0 0
160 2 0.0000000000000000e+00 2.1312885187134999e+01 2.8858810409006397e+00 0 0 0
162 2 1.2304999999999993e+00 2.2023314693372832e+01 2.8858810409006397e+00 0 0 0
203 2 1.2304999999999993e+00 2.3444173705848499e+01 2.8858810409006397e+00 0 0 0
205 2 2.4610000000000003e+00 2.4154603212086325e+01 2.8858810409006397e+00 0 0 0
207 2 2.4610000000000003e+00 2.1312885187134995e+01 2.8858810409006397e+00 0 0 0
209 2 3.6914999999999996e+00 2.2023314693372832e+01 2.8858810409006397e+00 0 0 0
250 2 3.6915000000000004e+00 2.3444173705848499e+01 2.8858810409006397e+00 0 0 0
252 2 4.9220000000000006e+00 2.4154603212086325e+01 2.8858810409006397e+00 0 0 0
254 2 4.9220000000000006e+00 2.1312885187134995e+01 2.8858810409006397e+00 0 0 0
256 2 6.1524999999999990e+00 2.2023314693372832e+01 2.8858810409006397e+00 0 0 0
774 2 0.0000000000000000e+00 2.5575462224561992e+01 2.8858810409006397e+00 0 0 0
776 2 1.2305000000000001e+00 2.6285891730799833e+01 2.8858810409006397e+00 0 0 0
784 2 1.2305000000000010e+00 2.7706750743275496e+01 2.8858810409006397e+00 0 0 0
788 2 2.4610000000000003e+00 2.5575462224561992e+01 2.8858810409006397e+00 0 0 0
790 2 3.6914999999999991e+00 2.6285891730799833e+01 2.8858810409006397e+00 0 0 0
806 2 3.6914999999999996e+00 2.7706750743275496e+01 2.8858810409006397e+00 0 0 0
810 2 4.9220000000000006e+00 2.5575462224561992e+01 2.8858810409006397e+00 0 0 0
836 2 6.1524999999999990e+00 2.7706750743275496e+01 2.8858810409006397e+00 0 0 0
772 2 0.0000000000000000e+00 2.8417180249513333e+01 2.8858810409006397e+00 0 0 0
786 2 2.4610000000000003e+00 2.8417180249513326e+01 2.8858810409006397e+00 0 0 0
808 2 4.9220000000000006e+00 2.8417180249513336e+01 2.8858810409006397e+00 0 0 0
163 2 1.2305000000000001e+00 2.0602455680897162e+01 5.9100521129584678e+00 0 0 0
210 2 3.6915000000000004e+00 2.0602455680897162e+01 5.9100521129584678e+00 0 0 0
418 2 0.0000000000000000e+00 1.9892026174659328e+01 8.9342231850146305e+00 0 0 0
441 2 2.4610000000000003e+00 1.9892026174659328e+01 8.9342231850146305e+00 0 0 0
465 2 4.9220000000000006e+00 1.9892026174659328e+01 8.9342231850146305e+00 0 0 0
159 2 0.0000000000000000e+00 2.2733744199610655e+01 5.9100521129584678e+00 0 0 0
161 2 0.0000000000000000e+00 2.1312885187134999e+01 5.9100521129584678e+00 0 0 0
204 2 1.2304999999999993e+00 2.3444173705848499e+01 5.9100521129584678e+00 0 0 0
206 2 2.4610000000000003e+00 2.2733744199610655e+01 5.9100521129584678e+00 0 0 0
208 2 2.4610000000000003e+00 2.1312885187134995e+01 5.9100521129584678e+00 0 0 0
251 2 3.6915000000000004e+00 2.3444173705848499e+01 5.9100521129584678e+00 0 0 0
437 2 0.0000000000000000e+00 2.4154603212086325e+01 8.9342231850146305e+00 0 0 0
438 2 0.0000000000000000e+00 2.1312885187134999e+01 8.9342231850146305e+00 0 0 0
439 2 1.2304999999999993e+00 2.2023314693372832e+01 8.9342231850146305e+00 0 0 0
460 2 1.2304999999999993e+00 2.3444173705848499e+01 8.9342231850146305e+00 0 0 0
461 2 2.4610000000000003e+00 2.4154603212086325e+01 8.9342231850146305e+00 0 0 0
462 2 2.4610000000000003e+00 2.1312885187134995e+01 8.9342231850146305e+00 0 0 0
463 2 3.6914999999999996e+00 2.2023314693372832e+01 8.9342231850146305e+00 0 0 0
484 2 3.6915000000000004e+00 2.3444173705848499e+01 8.9342231850146305e+00 0 0 0
253 2 4.9220000000000006e+00 2.2733744199610655e+01 5.9100521129584678e+00 0 0 0
255 2 4.9220000000000006e+00 2.1312885187134995e+01 5.9100521129584678e+00 0 0 0
485 2 4.9220000000000006e+00 2.4154603212086325e+01 8.9342231850146305e+00 0 0 0
486 2 4.9220000000000006e+00 2.1312885187134995e+01 8.9342231850146305e+00 0 0 0
487 2 6.1524999999999990e+00 2.2023314693372832e+01 8.9342231850146305e+00 0 0 0
773 2 0.0000000000000000e+00 2.6996321237037659e+01 5.9100521129584678e+00 0 0 0
775 2 0.0000000000000000e+00 2.5575462224561992e+01 5.9100521129584678e+00 0 0 0
777 2 1.2305000000000001e+00 2.4865032718324155e+01 5.9100521129584678e+00 0 0 0
785 2 1.2305000000000010e+00 2.7706750743275496e+01 5.9100521129584678e+00 0 0 0
787 2 2.4610000000000003e+00 2.6996321237037659e+01 5.9100521129584678e+00 0 0 0
789 2 2.4610000000000003e+00 2.5575462224561992e+01 5.9100521129584678e+00 0 0 0
791 2 3.6914999999999996e+00 2.4865032718324166e+01 5.9100521129584678e+00 0 0 0
807 2 3.6914999999999996e+00 2.7706750743275496e+01 5.9100521129584678e+00 0 0 0
1088 2 0.0000000000000000e+00 2.5575462224561992e+01 8.9342231850146305e+00 0 0 0
1089 2 1.2305000000000001e+00 2.6285891730799833e+01 8.9342231850146305e+00 0 0 0
1093 2 1.2305000000000010e+00 2.7706750743275496e+01 8.9342231850146305e+00 0 0 0
1095 2 2.4610000000000003e+00 2.5575462224561992e+01 8.9342231850146305e+00 0 0 0
1096 2 3.6914999999999991e+00 2.6285891730799833e+01 8.9342231850146305e+00 0 0 0
1104 2 3.6914999999999996e+00 2.7706750743275496e+01 8.9342231850146305e+00 0 0 0
809 2 4.9220000000000006e+00 2.6996321237037659e+01 5.9100521129584678e+00 0 0 0
811 2 4.9220000000000006e+00 2.5575462224561992e+01 5.9100521129584678e+00 0 0 0
813 2 6.1524999999999990e+00 2.4865032718324155e+01 5.9100521129584678e+00 0 0 0
837 2 6.1524999999999990e+00 2.7706750743275496e+01 5.9100521129584678e+00 0 0 0
1106 2 4.9220000000000006e+00 2.5575462224561992e+01 8.9342231850146305e+00 0 0 0
1119 2 6.1524999999999990e+00 2.7706750743275496e+01 8.9342231850146305e+00 0 0 0
783 2 1.2304999999999993e+00 2.9127609755751163e+01 5.9100521129584678e+00 0 0 0
805 2 3.6914999999999991e+00 2.9127609755751152e+01 5.9100521129584678e+00 0 0 0
1087 2 0.0000000000000000e+00 2.8417180249513333e+01 8.9342231850146305e+00 0 0 0
1094 2 2.4610000000000003e+00 2.8417180249513326e+01 8.9342231850146305e+00 0 0 0
835 2 6.1524999999999981e+00 2.9127609755751152e+01 5.9100521129584678e+00 0 0 0
1105 2 4.9220000000000006e+00 2.8417180249513336e+01 8.9342231850146305e+00 0 0 0
38 1 3.1060297457459183e+00 2.2178699983791706e+01 1.1786166043082673e+01 -1 0 0
2743 1 1.2106244268994339e+00 2.4259516949924418e+01 1.1704722632051194e+01 1 -1 1
2735 1 1.5147751815564132e+00 2.7120782316418687e+01 1.1273453070275160e+01 0 0 0
2773 1 4.2007548029168094e+00 2.8015814688930387e+01 1.1764708282846263e+01 -1 1 0
4043 1 5.6494675317297709e+00 2.3329095910791416e+01 1.1864399187174193e+01 1 1 0
3249 1 2.7975448024412972e+00 2.2339073862338857e+01 1.5129520183429092e+01 -1 0 0
3260 1 2.1203135854845558e+00 1.9892330912408433e+01 1.4321657172614186e+01 1 0 -1
2070 1 1.0663793874220755e+00 2.4284432318366626e+01 1.4524457957209879e+01 1 0 -1
2710 1 1.4325021715709170e+00 2.6090453102449850e+01 2.5550186067191156e+01 2 -1 0
4031 1 1.8294589284193514e+00 2.6892738017382278e+01 1.5257245118365621e+01 1 -1 0
673 1 1.8269288291014520e+00 2.7113466677791720e+01 1.7964941476663689e+01 1 0 1
2021 1 2.3902692854767347e+00 2.9361999515269911e+01 2.1714989849746843e+01 1 0 -1
2006 1 3.0986333181175225e+00 2.2459330949485949e+01 1.7856703279469343e+01 0 0 0
645 1 4.9117832383253681e+00 2.0794298361468208e+01 1.9086333516899558e+01 0 1 0
2027 1 4.8013658481368102e+00 2.1131900800697487e+01 2.1896828788604168e+01 2 -1 0
1266 1 3.5830760767375600e+00 2.5314567576439583e+01 2.1831633055746330e+01 1 1 -1
3309 1 3.3635738122443275e+00 2.5141583443961849e+01 1.8938177430776207e+01 2 1 0
3312 1 1.0600230840841554e+00 2.4254350119175445e+01 2.2620771436006336e+01 1 1 0
3329 1 5.6640447400293183e+00 2.3443681071393719e+01 1.4670139955774792e+01 1 1 -1
2704 1 4.3144568538811106e+00 2.8023464482978099e+01 1.4448661170393851e+01 1 0 0
583 1 3.4615266313473603e-01 2.1628477426412626e+01 2.1707585887265168e+01 1 -1 0
641 1 2.3295264070736423e+00 2.0879506388745323e+01 2.5265293575168947e+01 1 1 -1
2091 1 5.5410000736364875e+00 2.3724824016661774e+01 2.2750405602512302e+01 -1 0 1
3976 1 5.0507743265574332e+00 2.1479187565200025e+01 2.5838253955934107e+01 0 1 -1
4044 1 4.4640104906692796e-01 2.3186352449625360e+01 2.5254953722468720e+01 1 1 0
611 1 2.3421049023362523e+00 2.0117110757217826e+01 2.2608301264890265e+01 1 -1 0
2709 1 4.5153536087557766e+00 2.7654403816001274e+01 2.2758757825938886e+01 0 -1 -1
1950 1 3.9218077532021001e+00 2.7063093877013475e+01 2.5469569611645085e+01 1 0 -1
2685 1 5.3223291246611275e+00 2.4467401336125981e+01 2.5608294077844256e+01 0 -1 0
3941 1 4.3637018121627480e-01 2.1804212613963042e+01 1.8880371244784037e+01 1 -1 0
562 1 5.9602606002279916e+00 2.6014917590787938e+01 1.5233429589295026e+01 0 0 -1
3398 1 6.0049568568244736e+00 2.5965297142750995e+01 1.7999020592445220e+01 0 1 0
2701 1 6.2720631625083456e-02 2.8475890131692836e+01 2.2559807302788563e+01 1 -1 0
780 2 0.0000000000000000e+00 2.9838039261988989e+01 2.8858810409006397e+00 0 0 0
782 2 1.2304999999999993e+00 3.0548468768226829e+01 2.8858810409006397e+00 0 0 0
802 2 2.4610000000000003e+00 2.9838039261988989e+01 2.8858810409006397e+00 0 0 0
804 2 3.6915000000000004e+00 3.0548468768226829e+01 2.8858810409006397e+00 0 0 0
832 2 4.9220000000000006e+00 2.9838039261988989e+01 2.8858810409006397e+00 0 0 0
778 2 0.0000000000000000e+00 3.2679757286940330e+01 2.8858810409006397e+00 0 0 0
794 2 0.0000000000000000e+00 3.4100616299415996e+01 2.8858810409006397e+00 0 0 0
798 2 1.2304999999999993e+00 3.1969327780702493e+01 2.8858810409006397e+00 0 0 0
800 2 2.4610000000000003e+00 3.2679757286940337e+01 2.8858810409006397e+00 0 0 0
824 2 2.4609999999999985e+00 3.4100616299415996e+01 2.8858810409006397e+00 0 0 0
828 2 3.6914999999999996e+00 3.1969327780702493e+01 2.8858810409006397e+00 0 0 0
830 2 4.9220000000000015e+00 3.2679757286940337e+01 2.8858810409006397e+00 0 0 0
862 2 4.9220000000000006e+00 3.4100616299415996e+01 2.8858810409006397e+00 0 0 0
796 2 1.2305000000000010e+00 3.4811045805653833e+01 2.8858810409006397e+00 0 0 0
826 2 3.6915000000000018e+00 3.4811045805653833e+01 2.8858810409006397e+00 0 0 0
792 2 0.0000000000000000e+00 3.6942334324367337e+01 2.8858810409006397e+00 0 0 0
816 2 0.0000000000000000e+00 3.8363193336842990e+01 2.8858810409006397e+00 0 0 0
820 2 1.2304999999999993e+00 3.6231904818129486e+01 2.8858810409006397e+00 0 0 0
822 2 2.4610000000000021e+00 3.6942334324367337e+01 2.8858810409006397e+00 0 0 0
854 2 2.4610000000000003e+00 3.8363193336842990e+01 2.8858810409006397e+00 0 0 0
858 2 3.6914999999999996e+00 3.6231904818129486e+01 2.8858810409006397e+00 0 0 0
860 2 4.9220000000000006e+00 3.6942334324367316e+01 2.8858810409006397e+00 0 0 0
899 2 4.9220000000000006e+00 3.8363193336842990e+01 2.8858810409006397e+00 0 0 0
818 2 1.2305000000000010e+00 3.9073622843080841e+01 2.8858810409006397e+00 0 0 0
856 2 3.6915000000000018e+00 3.9073622843080820e+01 2.8858810409006397e+00 0 0 0
779 2 0.0000000000000000e+00 3.1258898274464656e+01 5.9100521129584678e+00 0 0 0
781 2 0.0000000000000000e+00 2.9838039261988989e+01 5.9100521129584678e+00 0 0 0
801 2 2.4609999999999985e+00 3.1258898274464656e+01 5.9100521129584678e+00 0 0 0
803 2 2.4610000000000003e+00 2.9838039261988989e+01 5.9100521129584678e+00 0 0 0
1091 2 0.0000000000000000e+00 2.9838039261988989e+01 8.9342231850146305e+00 0 0 0
1092 2 1.2304999999999993e+00 3.0548468768226829e+01 8.9342231850146305e+00 0 0 0
1102 2 2.4610000000000003e+00 2.9838039261988989e+01 8.9342231850146305e+00 0 0 0
1103 2 3.6915000000000004e+00 3.0548468768226829e+01 8.9342231850146305e+00 0 0 0
831 2 4.9219999999999979e+00 3.1258898274464656e+01 5.9100521129584678e+00 0 0 0
833 2 4.9220000000000006e+00 2.9838039261988989e+01 5.9100521129584678e+00 0 0 0
1117 2 4.9220000000000006e+00 2.9838039261988989e+01 8.9342231850146305e+00 0 0 0
795 2 0.0000000000000000e+00 3.4100616299415996e+01 5.9100521129584678e+00 0 0 0
797 2 1.2304999999999993e+00 3.3390186793178160e+01 5.9100521129584678e+00 0 0 0
799 2 1.2304999999999993e+00 3.1969327780702493e+01 5.9100521129584678e+00 0 0 0
825 2 2.4609999999999985e+00 3.4100616299415996e+01 5.9100521129584678e+00 0 0 0
827 2 3.6914999999999978e+00 3.3390186793178160e+01 5.9100521129584678e+00 0 0 0
829 2 3.6914999999999996e+00 3.1969327780702493e+01 5.9100521129584678e+00 0 0 0
1090 2 0.0000000000000000e+00 3.2679757286940330e+01 8.9342231850146305e+00 0 0 0
1098 2 0.0000000000000000e+00 3.4100616299415996e+01 8.9342231850146305e+00 0 0 0
1100 2 1.2304999999999993e+00 3.1969327780702493e+01 8.9342231850146305e+00 0 0 0
1101 2 2.4610000000000003e+00 3.2679757286940337e+01 8.9342231850146305e+00 0 0 0
1113 2 2.4609999999999985e+00 3.4100616299415996e+01 8.9342231850146305e+00 0 0 0
1115 2 3.6914999999999996e+00 3.1969327780702493e+01 8.9342231850146305e+00 0 0 0
863 2 4.9220000000000006e+00 3.4100616299415996e+01 5.9100521129584678e+00 0 0 0