
# Create simulation box and atoms

read_data data.ML_graphite_m500atm_240K
  orthogonal box = (0 0 1.84677) to (49.22 49.0196 26.0932)
  8 by 5 by 2 MPI processor grid
  reading atoms ...
  4055 atoms
  reading velocities ...
  4055 velocities
group water type 1
1295 atoms in group water
group graphite type 2
2760 atoms in group graphite

# Define potential

pair_style sw
pair_coeff * * MLC_e.sw mW C


# Fix graphite atoms in place

fix 5 graphite setforce 0.0 0.0 0.0
velocity graphite set 0.0 0.0 0.0


# Equilibration of molecular water

# Add velocity/set timestep

velocity	    water create ${TEMP} ${SEED} rot yes dist gaussian
velocity	    water create 240 ${SEED} rot yes dist gaussian
velocity	    water create 240 19248 rot yes dist gaussian
timestep	    5.0

# Define output

compute			1 water msd
compute			3 water temp
thermo	    	50
thermo_style	custom step temp press vol etotal ke pe c_1[4] c_3

# Neighbor lists

neigh_modify    delay 0 every 1 check yes

# Set fixes

fix             1 water momentum 10 linear 1 1 1 rescale
fix             2 water nve
fix             3 water temp/csvr ${TEMP} ${TEMP} 500.0 ${SEED}
fix             3 water temp/csvr 240 ${TEMP} 500.0 ${SEED}
fix             3 water temp/csvr 240 240 500.0 ${SEED}
fix             3 water temp/csvr 240 240 500.0 19248
fix             4 water press/berendsen z ${PRES} ${PRES} 1000.0 modulus 20000
fix             4 water press/berendsen z -500 ${PRES} 1000.0 modulus 20000
fix             4 water press/berendsen z -500 -500 1000.0 modulus 20000

# Run 0.5 ns equilibration

dump		    1 all atom 2000 ${DIR}/eq.${NAME}-${TEMP}.dump
dump		    1 all atom 2000 run_6/eq.${NAME}-${TEMP}.dump
dump		    1 all atom 2000 run_6/eq.het_freeze_6-${TEMP}.dump
dump		    1 all atom 2000 run_6/eq.het_freeze_6-240.dump

reset_timestep  0

run	            100000
Neighbor list info ...
  update every 1 steps, delay 0 steps, check yes
  max neighbors/atom: 2000, page size: 100000
  master list distance cutoff = 6.67472
  ghost atom cutoff = 6.67472
  binsize = 3.33736, bins = 15 15 8
  1 neighbor lists, perpetual/occasional/extra = 1 0 0
  (1) pair sw, perpetual
      attributes: full, newton on
      pair build: full/bin/atomonly
      stencil: full/bin/3d
      bin: standard
Per MPI rank memory allocation (min/avg/max) = 4.096 | 4.284 | 4.472 Mbytes
Step Temp Press Volume TotEng KinEng PotEng c_1[4] c_3 
       0    76.605821   -1210.2423    58500.543   -12658.119    925.72037   -13583.839            0          240 
      50    77.412773   -1352.1164    58491.006   -12666.708    935.47173    -13602.18   0.50084016    242.52812 
     100    77.709104   -1042.2425    58494.126   -12663.377    939.05266    -13602.43   0.80613907     243.4565 
     150    75.889214   -674.91901    58482.959    -12644.24    917.06073   -13561.301    1.0355052    237.75492 
     200    76.378316   -1148.5958    58493.802   -12638.002    922.97115   -13560.974     1.224329    239.28724 
     250     76.97826   -1190.0039    58472.837   -12648.419    930.22099    -13578.64    1.3821387    241.16682 
     300    76.893482   -1063.2867    58471.553   -12644.832    929.19652   -13574.029    1.5747466    240.90122 
     350    77.460152    -858.6554    58485.125   -12641.496    936.04427    -13577.54    1.7121979    242.67655 
     400    78.294826    -1005.581    58527.252   -12612.598    946.13064   -13558.728    1.8717636    245.29152 
     450    77.958987   -1225.1178    58572.459   -12624.746     942.0723   -13566.818    2.0692243    244.23936 
     500    77.891996   -922.05001     58594.87   -12616.899    941.26277   -13558.162    2.2402494    244.02948 
     550    76.905869   -1062.9426    58615.199   -12643.869     929.3462   -13573.215    2.3175884    240.94002 
     600    74.942234   -1168.9755    58588.874   -12621.776    905.61725   -13527.393    2.5187403    234.78811 
     650     77.65559   -1134.3096    58549.379   -12606.746    938.40599   -13545.152    2.7199651    243.28884 
     700    78.689042   -721.14088    58569.497   -12621.211    950.89443   -13572.106    2.8366043    246.52657 
     750    77.584143   -777.44258    58569.284   -12647.104    937.54261   -13584.646    2.9942207      243.065 
     800    76.720686   -723.05826    58590.994   -12651.492    927.10842     -13578.6    3.1198701    240.35986 
     850    74.746185   -1009.8161    58678.275   -12681.264    903.24814   -13584.512    3.2419446    234.17391 
     900    75.435631   -930.10608    58733.982   -12668.583    911.57954   -13580.163    3.3587189    236.33388 
     950    76.974132   -920.51514    58737.589   -12663.629    930.17111     -13593.8    3.4023575    241.15389 
    1000    77.462488   -789.28408    58737.768   -12644.071     936.0725   -13580.144    3.5184199    242.68387 
    1050    75.083187    -738.8614    58712.744   -12637.731    907.32054   -13545.051    3.6825988    235.22971 
    1100    79.704415    -899.0024    58727.435   -12628.592     963.1644   -13591.756    3.8765357    249.70765 
    1150    77.456652   -1015.8365    58730.688   -12644.178    936.00198    -13580.18    4.0826924    242.66558 
    1200    76.547591   -886.52844    58718.437   -12658.901     925.0167   -13583.918    4.2291996    239.81757 
    1250     78.15536   -1209.4163    58719.573   -12664.212    944.44531   -13608.657    4.3616837    244.85458 
    1300     77.96276   -983.02223    58707.787   -12705.198    942.11789   -13647.316    4.4632873    244.25118 
    1350    76.722987   -1078.0828    58686.774   -12709.608    927.13622   -13636.744    4.6735506    240.36707 
    1400    76.511716   -723.06416    58668.086   -12706.984    924.58318   -13631.567    4.9084291    239.70517 
    1450    78.177805   -851.67101    58668.302   -12689.492    944.71654   -13634.208    5.0609497     244.9249 
    1500    74.516535   -1046.9298    58655.984   -12697.272      900.473   -13597.745    5.1486437    233.45443 
    1550    77.040465   -1232.6094    58648.733   -12669.552    930.97269   -13600.525    5.1776204     241.3617 
    1600    76.345226      -1188.6    58665.691   -12689.065    922.57128   -13611.636      5.25564    239.18357 
    1650    76.942657   -860.24124    58670.557   -12712.178    929.79076   -13641.968    5.4115935    241.05528 
    1700    76.981344   -1169.5804    58666.436   -12702.518    930.25827   -13632.776     5.553232    241.17648 
    1750    76.337199   -744.39962    58705.315   -12686.665    922.47429   -13609.139    5.6735049    239.15843 
    1800    76.042481   -1112.1417    58613.836   -12702.752    918.91285   -13621.665    5.6977249     238.2351 
    1850    76.523751   -1138.2307    58540.632   -12691.603    924.72862   -13616.332    5.7851497    239.74288 
    1900    73.962933   -1533.6378    58447.629   -12698.417    893.78316     -13592.2    5.9552609    231.72004 
    1950    75.582924   -1120.2828    58413.417   -12683.939    913.35947   -13597.299    6.0766471    236.79534 
    2000    77.326744   -712.60812    58392.094    -12666.07    934.43214   -13600.502    6.2172352    242.25859 
    2050    75.399381   -734.76298    58430.542   -12691.479    911.14149    -13602.62    6.4391525    236.22032 
    2100    75.806842   -1174.5813    58479.927   -12686.071    916.06534   -13602.136    6.5084985    237.49686 
    2150    74.968188   -943.50774    58479.694   -12682.877    905.93087   -13588.808    6.6312505    234.86942 
    2200    74.289913    -783.8766    58565.504   -12683.658    897.73447   -13581.392     6.742851    232.74444 
    2250    77.717801   -967.90756    58631.183   -12677.173    939.15775   -13616.331     7.014642    243.48374 
    2300    75.220606   -905.22327    58683.942   -12679.375    908.98114   -13588.357    7.3605537    235.66023 
    2350    74.047266   -1139.4999    58666.621    -12686.24    894.80226   -13581.043    7.5293521    231.98425 
    2400     74.01846   -1124.3916    58596.627   -12648.073    894.45416   -13542.527    7.7549271      231.894 
    2450    77.609012   -1409.7342     58515.19    -12679.68    937.84313   -13617.524    7.9377752    243.14292 
    2500    73.997946   -1106.7145    58433.307   -12697.503    894.20627    -13591.71    8.1917852    231.82973 
    2550    73.352103    -1029.036    58397.677    -12734.23    886.40177   -13620.632     8.344421    229.80636 
    2600     72.79449   -1473.1996    58373.599   -12748.209    879.66346   -13627.872    8.6376669     228.0594 
    2650    75.101349    -890.9474    58332.376    -12762.41    907.54002    -13669.95    8.7238418    235.28661 
    2700    72.821602   -1337.8389    58299.882   -12743.962    879.99109   -13623.953    8.7324828    228.14434 
    2750    75.182958   -1020.3777    58275.868   -12741.972    908.52619   -13650.498    8.8941308    235.54228 
    2800     76.00475   -873.71864     58253.11   -12722.048    918.45689   -13640.505    9.1991639    238.11689 
    2850    73.732385   -944.28469     58271.46   -12755.167    890.99717   -13646.164    9.4834595    230.99775 
    2900    74.106096   -1071.2313    58309.297   -12725.603    895.51318   -13621.116    9.6122338    232.16856 
    2950     72.36494   -689.32027    58340.825   -12720.378    874.47269   -13594.851    9.8475566    226.71365 
    3000    75.054534   -760.09561    58333.629   -12708.612    906.97429   -13615.586    9.9341932    235.13994 
    3050    76.018862   -998.96119    58394.739   -12680.357    918.62744   -13598.985    10.137371     238.1611 
    3100    75.052555   -1084.0629     58377.08   -12662.356    906.95039   -13569.306     10.38067    235.13374 
    3150    76.940131   -1156.9947     58359.82   -12660.135    929.76023   -13589.896     10.69584    241.04736 
    3200    74.806016   -991.00339    58381.859   -12674.025    903.97115   -13577.996    10.836556    234.36135 
    3250    75.524887   -763.07116    58427.711   -12676.323    912.65814   -13588.981    10.937511    236.61352 
    3300    77.280586   -1253.4821    58444.886   -12702.201    933.87436   -13636.075    11.229119    242.11398 
    3350     76.24267   -1048.4651    58465.472   -12685.126    921.33197   -13606.458    11.651715    238.86227 
    3400       76.139   -954.31051    58423.662   -12681.657     920.0792   -13601.736    11.902778    238.53748 
    3450    77.588051   -1267.2562    58427.905   -12646.755    937.58983   -13584.345    12.086291    243.07725 
    3500    78.642749   -1011.0984    58426.933    -12669.88    950.33502   -13620.215    12.191502    246.38153 
    3550    75.670253   -1120.2511    58423.741   -12677.488    914.41477   -13591.903    12.329254    237.06894 
    3600    76.310239    -1013.677    58414.332   -12689.188    922.14849   -13611.336    12.524016    239.07396 
    3650     76.61719   -1038.2331    58458.909   -12689.215    925.85775   -13615.072    12.644208    240.03562 
    3700    77.351154   -1071.8052    58485.846   -12702.027    934.72712   -13636.754    12.794763    242.33507 
    3750    76.732578   -1416.3256    58488.877   -12729.104    927.25212   -13656.357    12.877482    240.39712 
    3800    74.974948    -1107.706    58450.902   -12718.517    906.01257   -13624.529    12.997609     234.8906 
    3850    75.458113   -1045.8221    58398.757   -12737.529    911.85122   -13649.381    12.963815    236.40432 
    3900    70.951271   -1243.2766    58354.389   -12729.589    857.38962   -13586.978    13.123718    222.28474 
    3950    76.135065    -991.2983     58367.85   -12717.169    920.03165     -13637.2    13.139103    238.52516 
    4000    78.043927   -947.86397     58373.88   -12699.302    943.09873   -13642.401    13.264302    244.50547 
    4050    76.342535   -1209.6705    58395.922   -12721.543    922.53876   -13644.082    13.579913    239.17514 
    4100    75.873865   -854.63051    58383.179   -12730.138    916.87526   -13647.014    13.811658    237.70684 
    4150    75.428129   -788.04561    58395.126   -12758.763    911.48889   -13670.252    14.069605    236.31038 
    4200    73.339394    -1100.434    58396.126   -12745.635    886.24819   -13631.883    14.292148    229.76654 
    4250    74.831681   -823.55995    58470.647   -12751.089     904.2813   -13655.371     14.42973    234.44176 
    4300    77.426999   -717.08851    58518.017     -12729.5    935.64364   -13665.144    14.711156    242.57268 
    4350    77.514417   -1192.2137    58529.434   -12710.632    936.70003   -13647.332    14.868453    242.84656 
    4400    78.203666   -1422.3626    58488.532   -12708.696    945.02905   -13653.725    14.949392    245.00592 
    4450    75.636495   -1134.6101     58471.63   -12730.383    914.00683    -13644.39    15.099433    236.96318 
    4500    75.201231   -948.76732    58445.498       -12731    908.74701   -13639.747     15.28696    235.59953 
    4550    75.029108    -731.7756    58488.113   -12746.389    906.66705   -13653.056    15.444751    235.06028 
    4600    72.528798   -911.99305    58508.257   -12738.782    876.45279   -13615.235    15.383758    227.22701 
    4650    76.254569   -624.90642    58528.132   -12716.757    921.47577   -13638.232    15.484008    238.89956 
    4700     75.28576   -1018.2926    58540.565   -12758.384    909.76847   -13668.152    15.787783    235.86435 
    4750    73.255648   -1364.8623    58518.355   -12736.108    885.23618   -13621.344    16.018092    229.50417 
    4800    73.633506   -1420.9596    58452.295   -12730.961     889.8023   -13620.763    16.198546    230.68797 
    4850    77.694224   -1020.5207    58450.101   -12699.646    938.87285   -13638.519    16.262624    243.40988 
    4900     76.96229   -916.25634    58504.585   -12709.044    930.02801   -13639.072    16.261687    241.11679 
    4950    75.939237   -949.41854    58492.608   -12723.017    917.66522   -13640.682    16.516029    237.91164 
    5000    78.027105   -1310.7814    58485.851   -12728.723    942.89545   -13671.618    16.630533    244.45277 
    5050    74.458383   -981.31364    58421.723   -12718.865    899.77029   -13618.635    16.777004    233.27225 
    5100    81.945709   -865.94174    58400.034   -12666.256    990.24866   -13656.505    17.001994    256.72945 
    5150    76.590991   -644.19205    58423.086    -12702.94    925.54116   -13628.481     17.19549    239.95354 
    5200    76.461985   -1103.8728    58427.336   -12708.767    923.98222   -13632.749    17.317147    239.54937 
    5250    75.804821    -1202.937      58434.4   -12728.833    916.04091   -13644.874    17.487751    237.49053 
    5300    74.725107   -1159.4426    58440.447   -12739.947    902.99344    -13642.94    17.387678    234.10787 
    5350    76.758907   -1312.3429    58462.328   -12730.749    927.57029    -13658.32    17.505803    240.47961 
    5400    75.860775   -954.23205    58465.931   -12724.245    916.71708   -13640.963    17.538942    237.66583 
    5450    77.770779   -1023.2587    58485.228    -12726.77    939.79796   -13666.568     17.38814    243.64972 
    5500    75.409246   -1115.4236    58491.932     -12716.8    911.26071   -13628.061    17.499411    236.25122 
    5550    75.558345   -1045.1576    58466.093   -12707.086    913.06245   -13620.149    17.852224    236.71834 
    5600    78.073883   -1237.2483    58412.395   -12687.775    943.46073   -13631.236    18.079843    244.59932 
    5650    78.330146   -1310.2249    58398.283   -12699.117    946.55746   -13645.675     18.15007    245.40217 
    5700     77.70661   -766.91863    58408.683   -12712.035    939.02252   -13651.058    18.208684    243.44868 
    5750    74.944517   -1176.9136    58408.553   -12719.823    905.64483   -13625.468    18.435196    234.79526 
    5800    75.803658   -1215.6736    58412.982   -12730.968    916.02686   -13646.995    18.530642    237.48689 
    5850    78.275067    -1182.861    58369.741   -12734.841    945.89188   -13680.733    18.535356    245.22962 
    5900    76.760937   -835.42815    58386.896   -12723.629    927.59481   -13651.224    18.754861    240.48596 
    5950    76.549625   -909.76757    58370.896   -12716.827    925.04128   -13641.868    18.971982    239.82394 
    6000    74.809195    -1011.716    58344.955    -12723.19    904.00957   -13627.199    19.301522    234.37131 
    6050    77.496216   -864.13609    58365.421   -12696.627    936.48007   -13633.107    19.342303    242.78953 
    6100    75.852343   -1136.0429     58391.39   -12739.527    916.61519   -13656.142    19.537255    237.63941 
    6150    78.046426   -923.50036    58394.848   -12725.553    943.12893   -13668.682    19.711272     244.5133 
    6200    76.293808   -947.98598    58443.509    -12709.55    921.94993     -13631.5    20.058123    239.02249 
    6250    78.700418   -552.63009    58521.999   -12730.783     951.0319   -13681.815    20.219262     246.5622 
    6300    74.732327   -858.79815    58552.049   -12756.569    903.08068    -13659.65    20.272187    234.13049 
    6350    73.008553   -848.01106    58535.898   -12778.476    882.25024   -13660.726    20.418229    228.73004 
    6400      73.5395   -755.53379    58573.275   -12759.045    888.66632   -13647.711     20.62422    230.39346 
    6450    76.074421   -754.14413    58628.413   -12732.002    919.29881   -13651.301    20.845176    238.33516 
    6500    74.975451   -810.51991     58641.55   -12749.885    906.01864   -13655.903    20.912593    234.89218 
    6550    76.422397    -1100.098    58610.389   -12744.373    923.50383   -13667.876    21.144226    239.42534 
    6600    75.640127   -1009.8347    58558.855   -12750.235    914.05073   -13664.286    21.275707    236.97456 
    6650    78.388704   -966.00784    58569.896   -12709.255    947.26509    -13656.52    21.405264    245.58563 
    6700    76.028361   -751.53733    58595.917   -12708.148    918.74223   -13626.891    21.498552    238.19086 
    6750    76.738288   -1131.1706    58569.239   -12716.861    927.32112   -13644.182    21.617283    240.41501 
    6800    78.483975   -864.14855    58562.674   -12722.613    948.41636   -13671.029    21.891895    245.88411 
    6850    78.990596   -791.89943    58540.163   -12722.637    954.53847   -13677.175    21.922686    247.47131 
    6900     76.85282   -996.32949    58575.785   -12687.705    928.70515    -13616.41    21.728583    240.77383 
    6950     76.72692   -932.57548    58589.288   -12713.129    927.18375   -13640.313    21.919106    240.37939 
    7000    75.362801   -916.45388    58564.256   -12743.938    910.69946   -13654.638     21.81751    236.10571 
    7050    77.822189   -937.57382    58578.304   -12732.561    940.41921    -13672.98    22.260784    243.81078 
    7100    77.067226   -693.42015    58605.941   -12728.041    931.29608   -13659.337    22.452637    241.44554 
    7150    78.113357   -749.17915    58625.446   -12704.984    943.93773   -13648.922    22.675629    244.72299 
    7200    78.113178   -1088.3405    58613.281   -12714.669    943.93557   -13658.605    22.860344    244.72243 
    7250    76.897898   -582.66786    58633.675   -12718.877    929.24988   -13648.127    23.029399    240.91505 
    7300     77.30479   -1196.5692    58650.955   -12717.358    934.16685   -13651.525    23.375507    242.18981 
    7350    76.181119   -551.27207    58649.774   -12723.547    920.58818   -13644.135     23.43379    238.66944 
    7400     75.37352   -1063.0525    58633.926    -12703.67    910.82899   -13614.499    23.613345     236.1393 
    7450    76.336568   -953.76407    58596.301   -12700.316    922.46666   -13622.782    23.726083    239.15645 
    7500    76.387042   -1516.7867     58596.49   -12681.617     923.0766   -13604.694    23.900062    239.31458 
    7550    76.520829   -1201.9261    58568.192   -12701.398     924.6933   -13626.091    23.703293    239.73372 
    7600    78.119573   -863.38685    58551.685   -12695.357    944.01285    -13639.37    23.748508    244.74246 
    7650    80.235697   -1071.9161     58537.04   -12669.089    969.58452   -13638.673    23.817756    251.37211 
    7700    77.704762   -986.37956    58516.062   -12658.963    939.00019   -13597.963    23.990907    243.44289 
    7750    77.467462   -1048.3956    58512.114     -12663.9     936.1326   -13600.032    24.190757    242.69945 
    7800    76.782092   -837.54868    58521.681   -12683.022    927.85046   -13610.873    24.143099    240.55224 
    7850     77.98912   -1162.2746    58558.973   -12737.164    942.43643     -13679.6    24.286753    244.33377 
    7900    74.941363   -1102.1554    58574.566   -12702.371    905.60671   -13607.978    24.414074    234.78538 
    7950    78.443313   -855.11931    58594.241   -12705.579    947.92499   -13653.504    24.359123    245.75672 
    8000    77.217758   -972.39073     58594.59   -12699.277    933.11514   -13632.393    24.128775    241.91715 
    8050    73.414268    -721.4967    58610.029     -12722.5    887.15299   -13609.653    24.410418    230.00112 
    8100    77.411691   -932.02346    58599.459   -12721.315    935.45867   -13656.774    24.803691    242.52473 
    8150     76.44362   -791.11822    58650.016   -12713.984    923.76029   -13637.745    25.051845    239.49184 
    8200    76.911314   -742.44519    58716.352   -12727.509      929.412   -13656.921    25.384036    240.95708 
    8250    75.389798   -1053.8756    58760.961   -12708.894    911.02569    -13619.92    25.670808    236.19029 
    8300    75.916083   -749.77218    58772.293   -12724.696    917.38543   -13642.081    25.716734     237.8391 
    8350    74.816012   -1272.7006    58784.447   -12726.183    904.09195   -13630.275    25.862343    234.39267 
    8400    77.065647   -993.78018    58798.963   -12729.365      931.277   -13660.642    25.809011     241.4406 
    8450    75.693563   -893.59779    58739.099   -12712.802    914.69645   -13627.498    25.836558    237.14197 
    8500    77.692961   -684.47885     58729.43   -12727.212    938.85758    -13666.07    25.786493    243.40592 
    8550    74.304184   -1115.3636    58690.933   -12740.422    897.90691   -13638.329    25.860232    232.78915 
    8600    74.935473   -1418.2864    58618.337   -12745.783    905.53554   -13651.318    25.768047    234.76693 
    8650    73.899783   -1564.6563    58508.665   -12780.035    893.02005   -13673.055    25.772963     231.5222 
    8700     72.29439   -1210.2768    58433.969   -12778.994    873.62016   -13652.615    25.902222    226.49263 
    8750    74.441136   -1207.3619    58411.494   -12773.464    899.56187   -13673.026    26.123449    233.21821 
    8800    73.409546   -1036.6254    58453.234   -12764.299    887.09593   -13651.395    26.395453    229.98632 
    8850    74.655399   -950.28121    58464.543   -12761.331    902.15107   -13663.482    26.573249    233.88948 
    8900    75.100437   -874.51616    58506.338   -12772.856      907.529   -13680.385    26.723326    235.28375 
    8950     74.67886    -756.4959    58562.588   -12781.863    902.43458   -13684.297     26.71289    233.96298 
    9000    74.809045   -792.68022    58589.792   -12792.672    904.00775    -13696.68    26.648657    234.37084 
    9050    72.590181   -1165.2465    58658.719   -12801.863    877.19455   -13679.058    27.023396    227.41931 
    9100    74.436151    -689.1785    58663.961   -12788.937    899.50163   -13688.439    27.323254    233.20259 
    9150    74.778468   -930.59677    58667.462   -12768.767    903.63826   -13672.406    27.508078    234.27505 
    9200    76.741635   -1132.1316    58721.164   -12792.485    927.36157   -13719.847    27.652055    240.42549 
    9250    75.862573   -870.56694    58778.493   -12758.272     916.7388   -13675.011    27.706166    237.67146 
    9300    77.977139    -1174.673    58801.318   -12746.298    942.29165    -13688.59    28.243871    244.29623 
    9350    73.684314   -929.30817    58793.509   -12751.185    890.41628   -13641.601    28.210345    230.84715 
    9400    73.621359   -1102.2468    58767.304    -12755.51    889.65552   -13645.166    28.219555    230.64992 
    9450     77.36104   -864.43306    58729.858   -12739.989    934.84659   -13674.835    28.112871    242.36604 
    9500    77.429049   -1105.1339    58697.648   -12751.882    935.66842    -13687.55    28.153315    242.57911 
    9550    76.932922   -1148.1806    58688.645    -12725.48    929.67312   -13655.153    28.119508    241.02478 
    9600    73.606635   -1155.0247    58628.165   -12767.968    889.47758   -13657.446     28.04017    230.60378 
    9650    76.349277   -1177.2455    58594.402   -12756.681    922.62024   -13679.301    28.182933    239.19627 
    9700    74.138692   -1089.9061    58602.303   -12777.475    895.90707   -13673.382    28.302372    232.27068 
    9750    75.349007   -1209.3166    58557.435   -12778.521    910.53277   -13689.054    28.588371     236.0625 
    9800    72.562204   -1200.7134    58507.451   -12778.489    876.85648   -13655.346     28.83742    227.33167 
    9850    75.905676   -635.81379    58512.974   -12787.302    917.25967   -13704.561    29.121879     237.8065 
    9900    76.279084   -968.53301    58554.347    -12793.21      921.772   -13714.982    29.147475    238.97636 
    9950    77.697211   -823.57001    58549.114   -12750.737    938.90894   -13689.646    29.065076    243.41924 
   10000    76.181798   -709.88119    58657.503   -12744.959    920.59638   -13665.556    29.198516    238.67157 
   10050    74.449924   -802.86965    58654.211   -12757.703    899.66807   -13657.371    29.010067    233.24574 
   10100    77.091222   -793.76376    58661.871   -12732.516    931.58605   -13664.102    29.257587    241.52072 
   10150    77.563274   -953.60773    58674.473   -12754.084    937.29042   -13691.374    29.678885    242.99962 
   10200    75.027829   -948.12711    58687.287   -12799.061    906.65159   -13705.713    29.829077    235.05627 
   10250    75.458999   -1042.8482    58656.907   -12795.694    911.86193   -13707.556    30.032644     236.4071 
   10300    75.692492    -847.6515     58663.69   -12808.891    914.68351   -13723.574    30.096663    237.13861 
   10350     74.32374   -830.50303    58676.609   -12822.718    898.14323   -13720.861    30.329876    232.85042 
   10400    74.462569   -821.17572    58722.257   -12817.757    899.82087   -13717.578    30.450243    233.28536 
   10450    78.622269   -929.49702    58745.204   -12794.824    950.08754   -13744.911    30.600312    246.31737 
   10500    79.223766   -506.97764    58800.376   -12778.188    957.35615   -13735.544    31.119447    248.20181 
   10550    77.615904   -881.96151    58904.911   -12773.978    937.92641   -13711.905     31.47261    243.16451 
   10600    75.956126   -796.75928    58991.923   -12790.568    917.86931   -13708.437    31.547171    237.96455 
   10650    74.859864   -1164.7053    59005.961   -12804.667    904.62186   -13709.289    31.533773    234.53005 
   10700    77.941594   -952.00403     59023.79   -12759.648    941.86211    -13701.51    31.589266    244.18487 
   10750    77.343576   -1358.5742    59035.882   -12762.947    934.63555   -13697.583    31.846299    242.31133 
   10800    73.412289    -802.0873    59019.882   -12753.581    887.12908    -13640.71    31.804961    229.99492 
   10850    75.391888   -604.51465    59041.853   -12741.103    911.05095   -13652.154    31.779443    236.19684 
   10900    78.713021   -717.02653    59017.103   -12733.679     951.1842   -13684.863     31.69769    246.60169 
   10950    77.553626    -1002.802    59006.483   -12744.746    937.17383    -13681.92    31.748723     242.9694 
   11000    75.823754   -1306.4055    59016.987   -12727.198    916.26971   -13643.468    31.780836    237.54985 
   11050    76.711013   -845.27172    58987.771       -12715    926.99153   -13641.991    31.885799    240.32956 
   11100    77.559949   -929.06667    58977.346   -12702.511    937.25024   -13639.761     32.32448    242.98921 
   11150    75.967996   -674.23529    58951.112   -12684.951    918.01275   -13602.963    32.477735    238.00174 
   11200    79.269858   -1123.0304    59035.063   -12641.425    957.91313   -13599.338    32.577465    248.34622 
   11250    76.633871   -792.12808    59087.867   -12666.692    926.05932   -13592.751    32.628907    240.08788 
   11300      77.2552   -850.42126    59130.109   -12656.844    933.56759   -13590.412     32.71058    242.03445 
   11350    81.479973   -1166.1683    59106.743   -12615.621    984.62061   -13600.242    32.751002    255.27033 
   11400    77.525789     -1271.96    59138.451    -12640.27    936.83745   -13577.107    32.841397    242.88219 
   11450    78.931423   -1124.3829    59042.808   -12623.083    953.82341   -13576.907    33.468104    247.28593 
   11500    80.404999    -1171.043    58994.376   -12624.358    971.63041   -13595.989    33.414208    251.90252 
   11550    78.936967   -1035.6405    58962.194   -12647.017    953.89041   -13600.908    33.570173    247.30329 
   11600    78.664835   -1167.8102    58961.542   -12662.954    950.60191   -13613.555    33.609265    246.45073 
   11650    76.204137   -1039.1252    59022.733   -12692.163    920.86633   -13613.029    33.778337    238.74155 
   11700    77.583955   -1117.2466    59007.214   -12674.087    937.54033   -13611.628    33.970435    243.06442 
   11750    78.988739   -1251.2537    58961.992   -12673.527    954.51604   -13628.043    34.326952    247.46549 
   11800     74.35844   -1445.7936    58915.124   -12695.605    898.56255   -13594.167     34.54674    232.95913 
   11850    77.360565   -1003.1126    58908.554   -12678.927    934.84084   -13613.768    34.771374    242.36455 
   11900    75.971385    -1445.115    58875.286   -12714.377    918.05371   -13632.431    34.933298    238.01236 
   11950    75.565391   -1235.0371    58820.007   -12705.688    913.14759   -13618.835    35.284338    236.74041 
   12000    75.319817   -1073.6496     58775.81   -12721.956    910.18003   -13632.136    35.473408    235.97105 
   12050     76.86876   -1206.1012    58737.904   -12717.142    928.89778    -13646.04    35.411365    240.82377 
   12100    73.360361   -969.06422    58718.475   -12771.527    886.50157   -13658.029    35.409654    229.83223 
   12150    74.945403   -1135.7587     58700.14   -12804.979    905.65553   -13710.635    35.469635    234.79804 
   12200    74.687178   -1299.0727    58717.241   -12777.142    902.53509   -13679.677    35.622911    233.98904 
   12250    75.627367   -1243.4605    58691.553   -12781.212    913.89652   -13695.108    35.588832    236.93458 
   12300    73.314506   -1035.4114    58680.104   -12746.844    885.94745   -13632.791    35.688321    229.68857 
   12350      76.1658   -1327.6642      58659.9   -12737.446    920.40306   -13657.849    35.326891    238.62145 
   12400    76.721101   -1139.4701    58597.889   -12712.191    927.11343   -13639.305     35.24798    240.36116 
   12450    73.966507   -1123.9129    58545.708   -12710.112    893.82636   -13603.939    35.529396    231.73124 
   12500    75.261839   -1045.7779    58557.194   -12705.481    909.47941   -13614.961    35.698666    235.78941 
   12550    75.683169   -816.55904    58593.518   -12735.544    914.57085   -13650.115    35.604875     237.1094 
   12600    75.650098    -1128.076    58639.312   -12747.828    914.17121       -13662    35.651568    237.00579 
   12650    75.190665   -1258.9461    58598.271   -12747.792    908.61933   -13656.411    35.690368    235.56643 
   12700    74.542714   -1100.8175    58575.111   -12757.115    900.78936   -13657.904    36.101882    233.53645 
   12750    76.711841   -995.12506    58604.606   -12754.577    927.00153   -13681.578    36.645079    240.33215 
   12800    74.722115   -1206.4895    58658.256    -12765.73    902.95728   -13668.688     36.87532     234.0985 
   12850    76.869745   -1282.8963    58686.231   -12736.292    928.90968   -13665.202    36.967375    240.82685 
   12900    74.636564   -1246.5171    58714.258   -12727.584    901.92347   -13629.507    36.905806    233.83047 
   12950    76.654439   -1354.2329    58659.189   -12768.117    926.30788   -13694.425    37.090824    240.15232 
   13000    74.292031   -1377.7112    58634.407   -12810.618    897.76006   -13708.378     37.19225    232.75108 
   13050    72.193457   -975.70025    58614.641   -12802.424    872.40045   -13674.825    37.086501    226.17641 
   13100    74.022878   -1210.2505    58538.664   -12790.696    894.50756   -13685.204    37.109896    231.90784 
   13150    74.239067   -840.37812    58607.648   -12791.945    897.12002   -13689.065    37.027525    232.58514 
   13200    76.053535   -1085.4518    58615.477   -12779.941    919.04643   -13698.988    36.997617    238.26973 
   13250     73.20958   -1122.0755    58599.419   -12779.406    884.67949   -13664.086    37.169131    229.35984 
   13300    76.869362   -1222.4724    58548.626   -12772.059    928.90505   -13700.964    37.384332    240.82565 
   13350    74.578442    -778.8649    58551.631   -12765.747     901.2211   -13666.968     37.45981    233.64838 
   13400    76.552454    -622.8688    58628.542   -12742.503    925.07546   -13667.578    37.700098     239.8328 
   13450     78.34171   -913.33271    58657.988   -12683.854     946.6972   -13630.551     37.78171     245.4384 
   13500    78.992831   -1262.0194    58679.487   -12716.155    954.56548    -13670.72    37.933763    247.47831 
   13550     75.80151   -947.30671    58687.714   -12721.284    916.00091   -13637.285    38.151807    237.48016 
   13600    77.581653   -1026.3545    58673.693   -12702.174    937.51252   -13639.686    38.519389     243.0572 
   13650    78.946924   -810.66798    58726.406   -12704.702    954.01073   -13658.712    38.660986    247.33449 
   13700    77.353704   -771.64531    58726.024   -12693.102    934.75793    -13627.86    38.798933    242.34306 
   13750    79.480987   -1337.6224    58734.787   -12685.912    960.46446   -13646.377    38.905134    249.00767 
   13800    80.231866   -802.11368    58795.043   -12664.605    969.53823   -13634.143    39.030666    251.36011 
   13850    78.444069   -1240.3093    58797.019   -12681.427    947.93412   -13629.361    38.994021    245.75908 
   13900    78.920223   -1462.9225    58755.439   -12697.908    953.68807   -13651.596    39.285488    247.25084 
   13950    75.331857   -935.59605    58757.694   -12721.249    910.32553   -13631.575    39.315906    236.00877 
   14000    78.879647    -962.6976    58737.609   -12737.529    953.19774   -13690.727     39.51219    247.12372 
   14050    78.340066   -898.08137    58716.879    -12725.77    946.67733   -13672.448    39.716614    245.43325 
   14100    78.156799   -1276.2005    58727.744   -12707.717     944.4627    -13652.18    39.881075    244.85909 
   14150    78.720886   -1086.9818    58734.233   -12744.507    951.27924   -13695.786    40.497194    246.62633 
   14200    77.882527   -784.49637    58833.223   -12741.049    941.14834   -13682.197    40.859554    243.99982 
   14250    76.476323   -1245.6931    58858.879   -12751.232    924.15549   -13675.388    41.363209    239.59429 
   14300    78.791595   -1193.6804    58800.316    -12761.55     952.1337   -13713.683    41.713265    246.84786 
   14350    78.757751   -1266.0269    58777.265   -12733.255    951.72472   -13684.979     42.30732    246.74183 
   14400    76.758322   -1537.6756    58759.733   -12723.257    927.56322    -13650.82    42.560187    240.47777 
   14450    78.003705   -1208.9654    58758.903   -12741.761    942.61268   -13684.374    42.914683    244.37946 
   14500    78.459526   -1225.9324    58719.823   -12737.286    948.12092   -13685.407    42.775861    245.80751 
   14550     78.28844   -837.51268    58706.858    -12727.85    946.05347   -13673.903    42.694013    245.27151 
   14600    78.236546   -1007.6701    58702.279   -12720.407    945.42638   -13665.834    42.541747    245.10893 
   14650    81.313938    -866.2598    58741.295   -12673.313    982.61421   -13655.928     42.42434    254.75016 
   14700     80.27923   -943.04231    58797.253   -12672.351    970.11059   -13642.461    42.426152     251.5085 
   14750    78.607787   -1293.0231    58785.287   -12682.411    949.91253   -13632.324     42.24983      246.272 
   14800    79.090457   -921.29422    58823.826   -12702.326    955.74522   -13658.071    41.970641    247.78417 
   14850    75.330678   -1061.0286    58895.508   -12717.061    910.31128   -13627.372    41.635278    236.00508 
   14900    75.476385   -885.96173    58944.971   -12737.992    912.07203   -13650.064    41.782397    236.46156 
   14950     77.20126   -1110.1646    58980.875   -12716.328    932.91577   -13649.244    42.155604    241.86546 
   15000    76.899864   -1023.2505    59001.585   -12727.537    929.27364   -13656.811    41.886527    240.92121 
   15050    77.179886   -1170.7074    59020.724   -12690.705    932.65749   -13623.363    41.988314     241.7985 
   15100    76.917674   -1040.6553    59005.465   -12721.029    929.48886   -13650.518    41.976951    240.97701 
   15150    76.616441   -1237.3437     59018.16   -12746.023     925.8487   -13671.872    42.141598    240.03327 
   15200    74.223572    -1163.428    59003.023   -12741.865    896.93278   -13638.797    42.127885     232.5366 
   15250    74.267069   -1331.5797    58946.067   -12722.871    897.45841   -13620.329    42.124497    232.67287 
   15300    76.305015   -1001.3345    58932.365   -12693.229    922.08536   -13615.315    42.080197     239.0576 
   15350    77.443029   -1027.0969    58918.865   -12716.322    935.83735   -13652.159    42.356479     242.6229 
   15400    76.743653   -1100.6995    58958.348   -12715.713    927.38596   -13643.099    42.715432    240.43182 
   15450    80.372838   -1025.7573    59013.692    -12702.58    971.24176   -13673.822    42.963023    251.80176 
   15500    76.420412   -1030.7582    59052.558   -12745.204    923.47985   -13668.684    43.112237    239.41913 
   15550    75.884451   -764.05225    59028.713     -12755.1    917.00318   -13672.103    43.464209       237.74 
   15600    78.152957   -830.31707    59101.314   -12732.217    944.41627   -13676.633    43.850229    244.84705 
   15650     78.39498   -1316.8561    59075.705    -12736.23    947.34092   -13683.571     44.06918    245.60529 
   15700    79.425399    -1245.286    59020.279   -12725.063    959.79271   -13684.855     44.36621    248.83351 
   15750    77.464998   -750.86243    58961.777   -12705.201    936.10284   -13641.303    44.292788    242.69173 
   15800     80.59838     -1080.01    58898.115    -12720.17    973.96726   -13694.137    44.447927    252.50837 
   15850    76.393485   -1148.1231    58896.944   -12750.298    923.15445   -13673.453    44.356403    239.33477 
   15900    76.870631   -982.35648    58912.026   -12765.343    928.92039   -13694.263    44.235264    240.82963 
   15950    77.656827   -995.20048    58915.643   -12771.072    938.42093   -13709.493    44.307363    243.29272 
   16000    74.849352   -1198.5829    58915.226    -12795.11    904.49483   -13699.605     44.27724    234.49712 
   16050     77.10431   -871.17024    58960.585   -12762.973    931.74421   -13694.717    44.511406    241.56173 
   16100    76.052117   -1105.2917    58973.533   -12709.118    919.02929   -13628.148     44.86621    238.26529 
   16150    78.642989   -1198.9652    59016.827    -12690.24    950.33792   -13640.578    45.275645    246.38229 
   16200    77.007561   -1235.2727     59021.24   -12697.963    930.57507   -13628.538    45.425576    241.25862 
   16250    78.716434   -1512.7489    59029.489    -12677.95    951.22545   -13629.175    45.516921    246.61238 
   16300    78.588032   -1346.4073    59000.177   -12691.718     949.6738   -13641.392    45.649722    246.21011 
   16350    79.247255   -1035.1325    59064.936   -12678.031    957.63999   -13635.671    45.513107     248.2754 
   16400    77.193401   -1060.5369    59131.336   -12677.657     932.8208   -13610.478    45.979638    241.84084 
   16450    78.267985   -872.57532    59180.522   -12656.267    945.80629   -13602.073    46.352672    245.20743 
   16500    79.605886   -724.49353    59203.037   -12677.284    961.97376   -13639.258    46.531009    249.39897 
   16550    76.866273   -1086.8198    59213.585   -12698.053    928.86772    -13626.92    46.801902    240.81597 
   16600    78.509993   -1175.8378    59203.804   -12702.813    948.73076   -13651.544    47.217609    245.96562 
   16650    77.699621   -901.45005    59160.454   -12717.673    938.93806   -13656.611    47.082199    243.42679 
   16700    74.256278   -1264.2348    59198.072   -12739.718    897.32801   -13637.046    47.266113    232.63907 
   16750    74.857442   -925.15213     59160.69   -12747.852     904.5926   -13652.445    47.325031    234.52247 
   16800    74.314359   -1134.8767    59173.386   -12751.014    898.02987   -13649.044     47.10786    232.82103 
   16850    75.329275   -1039.1241    59102.109   -12727.158    910.29432   -13637.452    47.266031    236.00068 
   16900    76.390283   -1149.7969    59087.784   -12712.788    923.11576   -13635.904    47.394461    239.32474 
   16950    77.409402   -1160.6101    59076.044   -12708.772    935.43101   -13644.203     47.43402    242.51756 
   17000    73.436355   -1512.3673    59067.967   -12727.623    887.41989   -13615.043    47.318203    230.07031 
   17050    78.365618   -930.03612      59018.7   -12732.067    946.98611   -13679.053    47.490691    245.51331 
   17100    76.790877   -1478.3422    58980.151   -12716.898    927.95661   -13644.854    47.970412    240.57976 
   17150     75.96357    -1291.903    58913.689   -12729.006    917.95928   -13646.965    47.913462    237.98788 
   17200    75.666908    -1239.594    58856.863   -12741.426    914.37435     -13655.8    47.880548    237.05846 
   17250    77.872723   -1011.6972    58882.929   -12736.409    941.02986   -13677.439    47.956085     243.9691 
   17300    75.906623   -633.19708    58908.522   -12747.332    917.27111   -13664.603    48.216378    237.80947 
   17350    76.421805   -899.99898    58915.044   -12755.809    923.49667   -13679.306    48.383761    239.42349 
   17400    77.743515    -968.2385    58943.438   -12766.338    939.46849   -13705.806    48.461507     243.5643 
   17450    73.915742   -1174.0656    58908.151   -12793.963     893.2129   -13687.176    48.426178    231.57219 
   17500    74.237443   -1131.7827     58861.52   -12747.345     897.1004   -13644.446    48.556804    232.58006 
   17550    78.605274    -946.3896    58828.505   -12726.287    949.88216   -13676.169    49.175481    246.26413 
   17600    77.307225   -1384.3657     58804.78   -12753.276    934.19628   -13687.472    49.315233    242.19744 
   17650     75.66197   -867.82368    58778.374   -12743.596    914.31468    -13657.91    49.231526    237.04299 
   17700    75.131995   -1052.1211    58785.639   -12751.502    907.91035   -13659.413    49.021683    235.38262 
   17750    75.808522   -1177.5514    58854.865   -12739.006    916.08564   -13655.091    49.070541    237.50212 
   17800    76.773369   -959.06487    58875.308   -12721.169    927.74504   -13648.914    49.234494    240.52491 
   17850    76.759038    -1040.351     58874.83    -12719.67    927.57187   -13647.242    49.100627    240.48001 
   17900    77.164591   -1076.2491    58883.132   -12685.938    932.47265    -13618.41    49.350787    241.75058 
   17950     76.81318   -1151.3693    58841.227    -12718.48    928.22613   -13646.707    49.579633    240.64964 
   18000    76.404018   -1339.8197    58826.299   -12683.535    923.28173   -13606.816    49.612826    239.36777 
   18050    80.227371   -1081.2014    58853.272   -12643.266    969.48392    -13612.75    49.922867    251.34603 
   18100    78.203066   -1425.4339     58843.87   -12618.004     945.0218   -13563.026    50.532446    245.00404 
   18150    76.179978   -1407.4998    58778.547   -12653.008    920.57439   -13573.582    50.718698    238.66586 
   18200    80.795199   -1267.5294      58714.9   -12646.939    976.34566   -13623.284    50.853226    253.12499 
   18250    76.916523   -1258.5653    58716.277   -12652.706    929.47495   -13582.181    50.977003     240.9734 
   18300    77.744498   -1037.0329    58706.177   -12655.701    939.48037   -13595.182     51.35079    243.56738 
   18350    78.326096   -1041.2548    58660.559   -12652.479    946.50852   -13598.988     51.38813    245.38948 
   18400    77.151635   -1406.2069    58638.543   -12672.214    932.31609    -13604.53    51.592472    241.70999 
   18450    78.460412   -1256.5465    58603.658   -12649.126    948.13162   -13597.257    51.841167    245.81029 
   18500    80.624718   -1226.8152    58554.898   -12659.332    974.28553   -13633.618    52.176486    252.59089 
   18550    79.014496   -980.47699    58524.139   -12662.865    954.82728   -13617.693    52.402969    247.54619 
   18600    78.452067   -1307.5544    58506.616    -12666.14    948.03078    -13614.17    52.680563    245.78414 
   18650    77.268683   -1346.3246    58514.885   -12692.465    933.73052   -13626.195    52.502549    242.07669 
   18700    79.702673   -738.64614    58559.893   -12669.511    963.14335   -13632.654    52.461128    249.70219 
   18750    76.117267   -1168.6066    58586.876   -12675.049    919.81658   -13594.866    52.265079     238.4694 
   18800    77.465649   -1369.1782     58613.43   -12657.779     936.1107   -13593.889    51.861252    242.69377 
   18850    76.386135   -797.00091    58642.159   -12690.346    923.06563   -13613.412    51.746839    239.31174 
   18900    75.776936   -1142.0461    58656.042   -12710.514    915.70395   -13626.218    51.428246    237.40317 
   18950     76.31989   -1395.1287    58688.219   -12718.344    922.26511   -13640.609    51.720808     239.1042 
   19000    75.887909   -1145.6759    58697.328   -12716.326    917.04497   -13633.371    51.696884    237.75084 
   19050    77.584822   -1373.2607    58687.657   -12726.536    937.55081   -13664.087    51.943342    243.06713 
   19100    74.337987   -1160.1478    58699.907   -12752.782    898.31539   -13651.097    52.023857    232.89505 
   19150    74.167065   -1223.5345    58709.277   -12783.043    896.24994   -13679.293    51.900058    232.35957 
   19200    74.827669   -1001.0115    58694.019   -12785.107    904.23281    -13689.34    51.768121    234.42919 
   19250    72.415142   -1012.5392    58679.268   -12800.373    875.07934   -13675.452    51.901214    226.87093 
   19300    73.879162   -1291.9649    58639.758   -12740.721    892.77086   -13633.492     52.19339    231.45759 
   19350    74.871283   -822.08563    58652.984   -12733.925    904.75986   -13638.685    52.273976    234.56583 
   19400    74.760335   -946.87936    58699.511   -12749.322    903.41913   -13652.741    52.632494    234.21824 
   19450    78.113829   -1235.4246     58693.94   -12724.311    943.94344   -13668.254    53.182828    244.72447 
   19500      76.6732   -786.39461     58694.56   -12699.914    926.53459   -13626.449    53.288622    240.21109 
   19550    76.395312   -1338.9976    58689.473    -12702.78    923.17653   -13625.957    53.515753    239.34049 
   19600    77.262252   -1039.7582    58715.149   -12719.049    933.65281   -13652.702    53.661404    242.05654 
   19650    75.580546   -1426.0143    58679.295   -12712.524    913.33073   -13625.855    53.822965    236.78789 
   19700     77.98511   -1028.4537    58597.744   -12703.864    942.38797   -13646.252    53.989977     244.3212 
   19750    78.471805   -1081.5142    58651.681   -12689.521     948.2693   -13637.791    54.282305    245.84598 
   19800    75.498539   -1126.3491    58666.652   -12711.189    912.33975   -13623.529    54.265208    236.53097 
   19850    75.786071   -1150.4232    58650.407   -12725.098    915.81434   -13640.912    54.604274    237.43179 
   19900    78.735199   -899.41793    58603.737   -12700.769     951.4522   -13652.222    54.733804    246.67117 
   19950    79.144941   -869.14193    58664.902   -12708.782    956.40361   -13665.185    54.885373    247.95486 
   20000    76.214505   -804.07975    58673.709   -12716.347    920.99162   -13637.339     54.78622    238.77404 
   20050    77.080717   -1072.7008    58667.211   -12688.664     931.4591   -13620.123    54.864152    241.48781 
   20100    77.512278   -1241.9157    58698.975   -12677.485    936.67418   -13614.159    55.002329    242.83986 
   20150    80.136259   -1241.2867    58710.823   -12675.526     968.3829   -13643.909    55.266359    251.06058 
   20200     78.67899   -1197.1152    58685.105   -12658.753    950.77296   -13609.526    55.509812    246.49507 
   20250    80.300383   -1125.1682     58704.51   -12622.021    970.36621   -13592.388    55.352858    251.57477 
   20300     78.92237   -965.09955    58746.315   -12618.074    953.71401   -13571.788    55.674778    247.25756 
   20350     77.63909   -707.32724    58766.787   -12641.896     938.2066   -13580.103    56.046195    243.23715 
   20400    75.774375   -708.35202    58717.333    -12678.13      915.673   -13593.803    56.448316    237.39514 
   20450    75.938645   -1293.9846    58749.785    -12701.09    917.65807   -13618.748    56.432251    237.90979 
   20500    75.526309   -584.04624    58748.582    -12690.42    912.67532   -13603.095     56.09881    236.61797 
   20550    75.592324   -1260.6155    58777.893    -12715.24    913.47306   -13628.713    56.152705    236.82479 
   20600    75.564688   -832.76621    58775.459   -12722.162     913.1391   -13635.301    56.604379    236.73821 
   20650     78.25328   -735.14871    58806.609   -12700.719     945.6286   -13646.348    56.731374    245.16136 
   20700    74.291256   -976.56631    58823.262   -12736.396    897.75069   -13634.146    56.777413    232.74865 
   20750      73.6439   -1295.2138    58863.567    -12735.49    889.92791   -13625.418    56.741257    230.72053 
   20800    75.168847   -1114.2483    58856.693   -12746.284    908.35567   -13654.639     56.80878    235.49807 
   20850    74.479585   -1052.9098    58850.611   -12752.335     900.0265   -13652.361    56.766297    233.33867 
   20900     75.45495     -1022.86    58844.829   -12749.333      911.813   -13661.146    56.798867    236.39441 
   20950    77.560281   -1092.6994    58845.659   -12731.898    937.25425   -13669.153    57.401842    242.99025 
   21000    74.468597   -1374.1899    58859.351   -12699.823    899.89371   -13599.717    57.777048    233.30424 
   21050    77.070248    -1486.522     58853.71   -12681.032    931.33259   -13612.365    57.887085    241.45501 
   21100    75.823271   -1445.7492    58737.005    -12707.04    916.26387   -13623.304    58.275599    237.54833 
   21150    76.246995   -1085.0083    58730.411   -12686.686    921.38424    -13608.07    58.643404    238.87583 
   21200    80.101833   -868.07766    58730.058   -12676.695    967.96689   -13644.662    58.902459    250.95273 
   21250    76.376677   -1253.3937    58759.634    -12691.48    922.95134   -13614.431    59.152546    239.28211 
   21300    78.070812    -1147.833    58719.235   -12643.651    943.42362   -13587.074    59.162458     244.5897 
   21350    76.366651   -882.25765    58680.503    -12658.53    922.83019    -13581.36    59.309988     239.2507 
   21400    77.350403   -957.02996    58722.486   -12674.979    934.71804   -13609.697    59.399878    242.33271 
   21450    78.286034   -1425.5881    58684.051    -12671.95     946.0244   -13617.974    59.460501    245.26397 
   21500    77.013864   -1231.8421    58592.749   -12694.105    930.65124   -13624.756    59.616145    241.27837 
   21550    75.193317   -1418.6495    58472.499   -12703.222    908.65138   -13611.873    59.488339    235.57474 
   21600    77.101848   -1271.2538    58403.876    -12696.32    931.71446   -13628.035    59.654027    241.55401 
   21650    77.869229   -851.17182    58355.616   -12676.713    940.98765   -13617.701    59.957596    243.95816 
   21700     77.29428   -1133.0425    58349.565   -12700.262    934.03984   -13634.302    60.135443    242.15689 
   21750    76.922502   -894.49825    58348.328   -12701.764     929.5472   -13631.311    60.658228    240.99214 
   21800    77.797797   -987.01405    58366.559   -12686.509    940.12444   -13626.633    60.863293    243.73436 
   21850    78.078917    -1006.188     58411.84   -12651.088    943.52155   -13594.609     61.12272    244.61509 
   21900    75.432879   -1182.0184    58438.395    -12679.67    911.54629   -13591.216    61.430829    236.32526 
   21950    76.841756   -1211.3498    58437.847   -12642.245    928.57145   -13570.816    61.218668    240.73916 
   22000    77.547842   -814.50645     58455.39   -12618.809    937.10393   -13555.913    61.238288    242.95128 
   22050     76.79903   -1190.6121    58508.975   -12636.826    928.05514   -13564.881    61.578411    240.60531 
   22100    77.898272   -962.05706    58480.193   -12637.321    941.33861    -13578.66    61.745342    244.04915 
   22150    75.914001   -1056.3918    58440.235    -12634.64    917.36027       -13552    62.067917    237.83258 
   22200    77.489442   -1251.4631    58437.954   -12628.842    936.39822    -13565.24    62.374195    242.76831 
   22250    78.713893   -1138.0384     58490.43   -12646.436    951.19473   -13597.631    62.616013    246.60442 
   22300    78.814272    -1000.184    58557.379   -12625.054    952.40774   -13577.461    62.972465     246.9189 
   22350    76.794272   -1082.5641    58614.022   -12628.376    927.99765   -13556.374    63.025849     240.5904 
   22400    78.610556   -654.65101    58661.541   -12639.413    949.94599   -13589.359    62.919707    246.28068 
   22450    76.994127    -1075.613    58638.535   -12650.998    930.41274   -13581.411     63.06091    241.21653 
   22500    78.945852   -768.55882    58705.626   -12643.068    953.99778   -13597.065    63.510022    247.33113 
   22550     80.34136   -909.31337    58702.943    -12606.58    970.86138   -13577.442    63.641562    251.70315 
   22600    78.551685   -478.12805    58742.948   -12612.517    949.23458   -13561.751    63.930747    246.09624 
   22650     80.34023   -1011.7275    58827.764   -12630.782    970.84773    -13601.63    64.559065    251.69961 
   22700    78.888309   -569.27749    58895.995   -12607.905    953.30242   -13561.208    65.060821    247.15085 
   22750    80.268914   -968.86654     58947.45   -12651.689    969.98593   -13621.675    65.500468    251.47618 
   22800    78.128092   -476.50175    58949.167   -12664.761     944.1158   -13608.877    65.401832    244.76915 
   22850    79.677176   -982.86294    58950.137   -12661.824    962.83524    -13624.66    65.308953    249.62231 
   22900    76.972287   -825.32853     58977.91   -12673.182    930.14882   -13603.331    65.247031    241.14811 
   22950    79.138491    -1078.141    59006.216   -12662.712    956.32567   -13619.038     65.23675    247.93465 
   23000    76.619566   -1071.8465    59028.974   -12700.912    925.88646   -13626.799    64.954211    240.04306 
   23050    76.852934   -1111.8883    58996.696   -12706.101    928.70653   -13634.807    64.902041    240.77418 
   23100    77.433699   -799.36595    58968.196   -12707.496    935.72461   -13643.221    65.023172    242.59368 
   23150    75.015829   -950.22979    59034.826   -12737.985    906.50657   -13644.491    65.147404    235.01868 
   23200    73.615898   -965.96431    59020.443   -12739.952    889.58953   -13629.541    64.714306    230.63281 
   23250     72.17685   -989.78256    58988.943   -12706.402    872.19978   -13578.602    64.836514    226.12438 
   23300    76.412909   -572.35521    58944.097   -12694.282    923.38918   -13617.671    64.675817    239.39562 
   23350    76.402949   -845.44718    58945.792    -12675.11    923.26882   -13598.379    64.835069    239.36442 
   23400    75.218413   -868.48951    58895.873   -12682.932    908.95464   -13591.887    64.496402    235.65336 
   23450    74.189862    -892.2192    58783.772   -12653.161    896.52542   -13549.687    64.546843    232.43099 
   23500    77.680958   -1011.0476    58728.464   -12631.855    938.71253   -13570.568    64.905319    243.36832 
   23550    79.169348   -790.93121    58691.735   -12610.738    956.69854   -13567.437    65.018727    248.03133 
   23600    78.028986   -964.19478    58655.648   -12644.666    942.91818   -13587.584    65.200795    244.45866 
   23650    75.166549   -870.09501    58632.104   -12681.898     908.3279   -13590.226    65.443475    235.49087 
   23700    74.380568   -792.08837     58613.97   -12695.767    898.82996   -13594.597    65.505585    233.02846 
   23750    75.554933    -695.8428    58604.252   -12705.597    913.02122   -13618.618    65.664664    236.70765 
   23800    76.158195   -1251.6066    58568.106   -12714.542    920.31116   -13634.853    65.914904    238.59762 
   23850    75.531392   -1147.1716    58563.308   -12688.102    912.73675   -13600.839    66.038877     236.6339 
   23900    80.466853   -736.38765    58543.607   -12660.044    972.37786   -13632.422    65.896904    252.09631 
   23950    76.218059   -1283.4539    58572.151   -12659.432    921.03457   -13580.467     66.01252    238.78517 
   24000    76.236289   -1308.0469    58514.088   -12691.814    921.25486   -13613.069    66.362002    238.84228 
   24050     76.18802   -776.77592    58448.291   -12673.554    920.67158   -13594.226    66.663333    238.69106 
   24100    78.509413   -991.56119    58482.636   -12700.564    948.72375   -13649.288    66.880223     245.9638 
   24150    75.542407   -910.37233    58508.998   -12703.001    912.86985   -13615.871    67.010926    236.66841 
   24200    72.733491   -632.98385    58492.564   -12705.256    878.92634   -13584.182    67.402156    227.86829 
   24250    75.441403   -561.91953    58502.612   -12699.215     911.6493   -13610.864    67.716825    236.35197 
   24300    77.041502   -1324.0469    58528.653   -12692.696    930.98523   -13623.681    68.010207    241.36495 
   24350    78.594787   -835.61879     58527.71   -12673.532    949.75543   -13623.288    68.353207    246.23127 
   24400    77.222304   -814.87195     58558.95   -12669.594    933.17007   -13602.764    68.417885    241.93139 
   24450     78.87928   -934.45012    58618.049   -12666.435    953.19331   -13619.629    68.599982    247.12257 
   24500    74.389273   -1320.2855    58623.973   -12687.167    898.93514   -13586.102    68.897896    233.05573 
   24550    75.307172   -1053.3079    58585.348   -12701.826    910.02723   -13611.853    69.002699    235.93143 
   24600    79.074598   -816.44556    58640.705   -12669.557    955.55357   -13625.111    69.243447    247.73448 
   24650    78.617473    -983.7866     58692.11    -12688.59    950.02957   -13638.619    69.296486    246.30234 
   24700    78.447124   -1097.7837    58731.359   -12660.643    947.97105   -13608.614    69.778824    245.76866 
   24750    77.489957   -931.78302    58711.065   -12689.319    936.40444   -13625.724     69.52318    242.76993 
   24800    73.199835   -1623.5895    58708.156    -12688.46    884.56173   -13573.022    69.891625    229.32931 
   24850    75.662542    -1152.371     58645.52   -12709.394    914.32159   -13623.716    70.160737    237.04478 
   24900    76.355446   -1100.4354    58615.905   -12712.411    922.69478   -13635.106    70.333117    239.21559 
   24950    73.388007   -1188.6188    58633.391   -12709.774    886.83564    -13596.61    70.397932    229.91884 
   25000    72.513623   -1468.8029    58584.825   -12722.347    876.26941   -13598.616     70.71864    227.17947 
   25050    74.812443   -1308.4772     58497.56     -12703.6    904.04882   -13607.649    70.978965    234.38149 
   25100      75.0406   -1361.2042    58452.386   -12731.607    906.80592   -13638.413     71.13192    235.09628 
   25150    73.858015   -1089.0063    58446.856   -12692.782    892.51531   -13585.298    71.174843    231.39134 
   25200    75.642622   -1070.6352     58413.56    -12672.27    914.08088   -13586.351    70.718239    236.98237 
   25250    78.190263   -1443.6572    58463.085   -12609.197    944.86708   -13554.064     70.83306    244.96393 
   25300    80.447571   -1138.7095    58448.317   -12591.252    972.14486   -13563.396    71.311445     252.0359 
   25350    78.990196   -1234.8957    58446.417   -12593.389    954.53364   -13547.923    71.460305    247.47006 
   25400    79.596407   -1024.6747    58459.354   -12599.405    961.85922   -13561.264    71.575073    249.36927 
   25450     79.45393   -1109.3273    58476.002   -12577.023     960.1375    -13537.16     71.67042     248.9229 
   25500    79.803705   -974.28505    58450.407   -12600.641    964.36424   -13565.005     71.67745    250.01872 
   25550    79.473901   -995.70245    58401.807   -12628.528    960.37882   -13588.906    71.906728    248.98547 
   25600    78.059457   -1241.8912    58343.585    -12627.41    943.28639   -13570.696    71.877429    244.55412 
   25650    78.072728   -1396.3812    58322.854   -12621.455    943.44677   -13564.902    71.612123     244.5957 
   25700    82.286145   -1085.0106    58349.336   -12614.305    994.36255   -13608.667    71.793074      257.796 
   25750    80.018469    -510.9618    58294.631   -12636.846     966.9595   -13603.806    72.100335    250.69156 
   25800    76.444999   -946.58626    58329.226   -12707.203    923.77696    -13630.98    72.011879    239.49616 
   25850    76.148396    -886.9435    58261.107   -12686.702    920.19275   -13606.894    72.032039    238.56692 
   25900    75.966402   -825.67701    58279.359   -12672.787    917.99349    -13590.78    72.350543    237.99675 
   25950    75.216441   -862.55098    58290.052   -12658.598    908.93081   -13567.529    72.151505    235.64718 
   26000    76.051291   -1462.2987    58326.384   -12689.291    919.01931   -13608.311    72.628344     238.2627 
   26050    76.997333   -863.63053    58375.256   -12674.637    930.45148   -13605.088    72.517674    241.22658 
   26100    73.250434   -1371.5443    58394.729   -12678.108    885.17319   -13563.281    72.804793    229.48784 
   26150     75.21164   -910.91577    58397.706   -12712.045    908.87279   -13620.918    72.927719    235.63214 
   26200    76.358446   -1114.0755    58412.382   -12715.036    922.73104   -13637.767    72.821889    239.22499 
   26250    75.184566   -1466.4653     58369.53   -12698.359    908.54563   -13606.904    73.146862    235.54732 
   26300    76.143733   -1311.7318     58347.86    -12698.27     920.1364   -13618.407    73.792262    238.55231 
   26350    75.342184   -801.54886    58326.802   -12708.852    910.45032   -13619.302    73.492435    236.04112 
   26400    75.423099   -909.25992    58257.525   -12705.836    911.42811   -13617.264    73.406635    236.29462 
   26450    76.003264   -930.15462    58282.014   -12704.474    918.43894   -13622.913    73.757903    238.11224 
   26500     75.92667   -618.75062    58305.923    -12686.89    917.51336   -13604.403    74.028401    237.87227 
   26550    75.318299   -997.56886    58354.957   -12706.128    910.16169    -13616.29    74.313022     235.9663 
   26600    77.161295   -927.59259     58348.43   -12692.668    932.43282   -13625.101    74.734066    241.74025 
   26650    73.842339   -964.46572     58381.65   -12696.784    892.32588    -13589.11     74.93568    231.34223 
   26700    75.100813   -801.08332    58404.645   -12707.214    907.53354   -13614.748    75.001468    235.28493 
   26750    75.172593   -1249.9931    58406.635   -12717.893    908.40094   -13626.294    75.286388    235.50981 
   26800    75.854062   -1096.2009    58373.404   -12722.409    916.63596   -13639.045    75.482816     237.6448 
   26850    74.576775   -1024.5696    58388.731   -12700.836    901.20095   -13602.037    75.758757    233.64316 
   26900    73.441439   -849.43838    58432.231   -12702.986    887.48133   -13590.467    75.941289    230.08624 
   26950    75.283345   -960.52957    58454.287   -12692.276    909.73929   -13602.016    76.109354    235.85679 
   27000    75.387146     -879.491    58439.088   -12713.087    910.99365    -13624.08    76.202278    236.18199 
   27050    76.265339   -1014.3977    58428.845   -12692.114    921.60591    -13613.72    76.184325     238.9333 
   27100    79.072895   -979.76167    58481.629   -12653.477    955.53299    -13609.01    76.142844    247.72915 
   27150    77.894432   -839.61275    58504.916   -12697.346     941.2922   -13638.638    76.367347    244.03712 
   27200    77.788909   -983.72624    58536.042   -12690.366    940.01704   -13630.383    76.890372    243.70652 
   27250    76.209096   -1094.4155    58530.171   -12660.003    920.92626    -13580.93    76.771052    238.75709 
   27300    79.038309   -818.52069    58512.858   -12647.535    955.11505    -13602.65      76.9849    247.62079 
   27350    78.521006   -853.58447    58494.366   -12644.979    948.86385   -13593.843    77.269081    246.00012 
   27400    81.664393    -1034.499     58500.12   -12630.272    986.84917   -13617.121    77.209104     255.8481 
   27450    77.936802   -1051.6191     58463.99   -12649.344     941.8042   -13591.148    77.353548    244.16986 
   27500    77.880171   -871.59536     58436.97   -12662.495    941.11987   -13603.615    77.861576    243.99244 
   27550    79.165608   -823.16236    58428.693   -12635.061    956.65335   -13591.714    78.342868    248.01961 
   27600    78.690447   -806.85617     58471.77   -12670.163    950.91141   -13621.074    78.716192    246.53097 
   27650    79.118313   -637.87226    58472.723   -12668.838    956.08183    -13624.92    79.204818    247.87144 
   27700    77.574062   -731.01705    58563.834   -12671.808    937.42079   -13609.229    79.669393    243.03342 
   27750    78.305303   -973.11291    58637.592   -12672.774    946.25726   -13619.032    79.244306    245.32434 
   27800    79.397118    -899.1963    58637.357   -12675.941    959.45097   -13635.392    79.176051    248.74491 
   27850    77.334196   -1472.0546    58605.708   -12688.569    934.52219   -13623.091    79.044085    242.28194 
   27900    78.823801   -1254.8052    58595.453   -12676.732    952.52289   -13629.255    78.963678    246.94876 
   27950    79.796843   -991.87891    58607.788   -12663.906    964.28132   -13628.188    79.574784    249.99722 
   28000    77.348255    -1017.488    58629.968   -12670.038    934.69209    -13604.73    79.383408    242.32599 
   28050    77.224056   -1204.2018    58630.214   -12663.528    933.19124   -13596.719    79.491359    241.93688 
   28100    78.388131   -1095.0697    58533.862   -12686.077    947.25816   -13633.335    79.529109    245.58384 
   28150    77.740542   -723.80201    58568.366   -12678.553    939.43256   -13617.985    79.562427    243.55499 
   28200    77.412137   -652.41668    58557.706   -12710.826    935.46406    -13646.29    79.526872    242.52612 
   28250    75.928586   -1144.9002    58544.916    -12683.61    917.53652   -13601.146    79.671148    237.87828 
   28300    76.700476   -730.03028    58532.255   -12707.936    926.86419     -13634.8    80.095971    240.29654 
   28350    74.707737    -1003.149    58553.282   -12730.837    902.78353   -13633.621     80.17449    234.05345 
   28400    76.586672     -714.909    58555.849   -12735.414    925.48897   -13660.903     80.39684    239.94001 
   28450     76.97242   -763.79901    58607.294   -12706.083    930.15042   -13636.233    80.740078    241.14852 
   28500    77.084031   -695.16196    58638.179   -12699.688    931.49915   -13631.187    80.400337    241.49819 
   28550     76.25007   -1017.4029    58619.333    -12701.49     921.4214   -13622.911    80.540074    238.88546 
   28600    73.509549   -912.68359     58651.87   -12734.179    888.30438   -13622.484    80.783881    230.29962 
   28650    75.662282   -1135.1864    58669.346   -12703.095    914.31844   -13617.413    81.061834    237.04396 
   28700    79.869229   -1048.0544    58679.891    -12715.59    965.15605   -13680.746    80.884624      250.224 
   28750    78.683072   -1035.7786    58673.274   -12678.568    950.82228   -13629.391    81.116346    246.50786 
   28800    75.817541   -1325.8847    58676.621   -12711.659    916.19463   -13627.854    81.302345    237.53038 
   28850    72.830358   -993.79236    58599.446   -12737.625     880.0969   -13617.722    81.585199    228.17177 
   28900    75.027206   -938.56499    58555.675   -12747.795    906.64406   -13654.439     81.67646    235.05432 
   28950    75.416858   -777.23733    58558.105   -12706.939    911.35269   -13618.292    82.132797    236.27507 
   29000      74.7893   -830.37822    58584.463   -12685.585    903.76915   -13589.354    82.461344    234.30898 
   29050    76.323566   -1009.8239    58554.359   -12704.079    922.30954   -13626.388    82.403667    239.11572 
   29100    75.575127   -1000.9145     58555.12   -12697.066    913.26525   -13610.331    82.930856    236.77092 
   29150    75.449144   -1094.4712    58579.169   -12686.507    911.74285    -13598.25    82.794099    236.37622 
   29200     77.37961   -961.87435    58570.392   -12688.595    935.07098   -13623.666    82.814288    242.42422 
   29250    74.461771   -1062.5495    58575.798   -12717.024    899.81122   -13616.835    83.162158    233.28286 
   29300    75.072118   -874.50088    58584.758   -12735.476    907.18678   -13642.662    83.272062    235.19503 
   29350    77.756534   -1125.1383    58586.101   -12718.535    939.62581   -13658.161     83.41485    243.60509 
   29400      76.9982   -1107.7963    58574.228   -12705.397    930.46196   -13635.859    83.503175    241.22929 
   29450    73.944702    -1165.618    58576.858   -12714.329    893.56286   -13607.892    83.752064    231.66292 
   29500    78.518868   -1055.1516    58531.685   -12712.264    948.83802   -13661.102    83.555285    245.99343 
   29550    74.815008   -783.94118    58517.048    -12731.13    904.07981   -13635.209     83.73266    234.38952 
   29600    77.615997   -990.74215     58523.18   -12702.843    937.92753   -13640.771    84.167201     243.1648 
   29650    75.782224   -1171.7628    58513.629   -12716.808    915.76785   -13632.576    84.464964    237.41974 
   29700    76.270567   -1335.8755    58563.439   -12752.224    921.66909   -13673.893    84.819158    238.94967 
   29750    72.220091   -967.79631    58504.723   -12743.714     872.7223   -13616.436    84.834242    226.25985 
   29800    77.145934    -956.8172    58478.223   -12730.355    932.24719   -13662.602    85.152997    241.69213 
   29850    76.411789   -1311.8802    58518.803   -12747.293    923.37564   -13670.669    85.320771    239.39211 
   29900    76.523425   -992.98908    58513.635   -12761.371    924.72467   -13686.096    85.169185    239.74186 
   29950    77.208039   -1073.0486    58530.216    -12741.98    932.99769   -13674.978    85.184591     241.8867 
   30000    76.116892   -858.20371    58560.194   -12701.263    919.81205   -13621.075    85.313057    238.46822 
   30050    76.793836   -938.08076    58547.302   -12728.453    927.99238   -13656.445    85.852745    240.58904 
   30100    76.057528   -1190.0224     58530.75   -12741.853    919.09469   -13660.948     85.99828    238.28224 
   30150    75.285772   -697.41382    58538.322    -12740.54    909.76863   -13650.309    86.105269    235.86439 
   30200    74.934569    -1094.101    58571.167    -12744.81    905.52461   -13650.334    86.033626     234.7641 
   30250    73.874711   -732.24225    58591.975   -12763.433    892.71708    -13656.15    86.089328    231.44365 
   30300     74.72056    -1521.018    58535.661   -12725.232    902.93849    -13628.17    86.315759    234.09362 
   30350    75.553397   -1223.2143    58522.343   -12697.771    913.00265   -13610.773     86.45291    236.70284 
   30400    77.581093   -1027.3198     58525.64   -12726.345    937.50575   -13663.851    86.915225    243.05545 
   30450    74.331231     -796.056    58518.709   -12742.874    898.23376   -13641.108    87.336558    232.87389 
   30500    76.871511   -805.14861    58566.734   -12759.242    928.93102   -13688.173    87.418476    240.83238 
   30550    74.961181   -1202.1128    58552.786   -12765.822     905.8462   -13671.668    87.324963    234.84747 
   30600    76.242482   -1149.2941    58591.499   -12740.608     921.3297   -13661.938    87.409409    238.86169 
   30650    78.546941   -1225.0151    58574.691   -12739.601    949.17726   -13688.778    87.383773    246.08138 
   30700    75.245382   -1219.3534    58551.157   -12729.895    909.28055   -13639.175    86.986783    235.73785 
   30750    77.179209    -1002.717     58577.83    -12734.04     932.6493    -13666.69    87.169466    241.79638 
   30800    79.739258   -1217.9901    58553.885   -12716.546    963.58546   -13680.131    87.665234    249.81681 
   30850    75.138748    -966.5847    58576.995   -12723.942    907.99196   -13631.934    87.619591    235.40378 
   30900    78.353006   -1189.6175    58590.012   -12699.414    946.83371   -13646.247    87.653132    245.47379 
   30950    75.836665   -1146.2075     58591.31   -12711.223    916.42573   -13627.649    87.283545    237.59029 
   31000    76.612725   -1118.3191    58531.235   -12724.188    925.80379   -13649.991    87.431411    240.02163 
   31050    78.303147   -823.47163    58504.777   -12697.797     946.2312   -13644.028    87.281498    245.31759 
   31100    78.381604   -861.72904    58501.118   -12678.904    947.17929   -13626.084    87.423243    245.56339 
   31150    77.482241   -983.45947    58528.848   -12696.785     936.3112   -13633.096    87.580635    242.74575 
   31200    73.830093   -907.40822    58538.565     -12719.8     892.1779   -13611.978    87.692281    231.30386 
   31250    74.337411   -869.42084    58570.252   -12699.383    898.30843   -13597.691    87.867154    232.89325 
   31300    77.389052   -997.97856    58609.761   -12724.528    935.18509   -13659.713    87.990978     242.4538 
   31350    75.478334   -770.73315    58602.135   -12729.955    912.09558    -13642.05    88.108233    236.46767 
   31400    77.931524    -792.4653    58645.275   -12689.378    941.74042   -13631.118    87.987154    244.15332 
   31450    78.834222   -1086.7201    58643.973   -12665.885    952.64882   -13618.534    88.192471     246.9814 
   31500    77.302314   -867.29975    58643.166   -12695.366    934.13693   -13629.503    88.266068    242.18206 
   31550    77.064403   -1111.3953    58630.862    -12691.58    931.26196   -13622.842    88.791673     241.4367 
   31600    75.569464   -999.89162    58593.381   -12686.481    913.19681   -13599.678     88.94139    236.75317 
   31650    77.331512   -1072.3001    58583.879   -12724.493    934.48976   -13658.983    89.086523    242.27353 
   31700    77.834482   -1126.6427     58554.68    -12710.48    940.56775   -13651.048    88.993911     243.8493 
   31750    76.038947   -888.86812    58560.524   -12714.836    918.87014   -13633.706    89.079466    238.22403 
   31800    75.103118   -1035.6729     58521.52   -12685.788    907.56139   -13593.349    89.017402    235.29215 
   31850    75.667788   -1227.4848    58530.159   -12699.488    914.38499   -13613.873    89.207771    237.06122 
   31900    74.497837   -956.63889    58537.909    -12707.18    900.24705   -13607.427    89.294282    233.39585 
   31950    75.828813   -793.65906    58544.717   -12712.092    916.33084   -13628.423    89.601632    237.56569 
   32000    75.235193   -923.78846    58553.721   -12694.933    909.15742    -13604.09    89.816667    235.70593 
   32050    76.333345   -981.33642     58580.48   -12671.472     922.4277     -13593.9     90.08958    239.14635 
   32100    78.485006   -1309.2563    58583.475   -12643.028    948.42882   -13591.457    90.119908    245.88734 
   32150    78.748698    -965.2679      58624.5   -12605.982    951.61533   -13557.598    90.180334    246.71346 
   32200     80.00936   -1364.1103    58692.006   -12605.194    966.84943   -13572.043    90.782658    250.66302 
   32250    77.667594   -1124.1967    58679.382   -12607.125    938.55105   -13545.676    90.639749    243.32645 
   32300    79.819375   -876.77118    58655.903   -12616.695     964.5536   -13581.248    90.833119    250.06781 
   32350     78.69284   -998.75941    58662.299   -12612.777    950.94033   -13563.718    90.988772    246.53847 
   32400    80.357106   -753.91991    58654.547   -12620.911    971.05165   -13591.963    91.116515    251.75248 
   32450    77.029116   -787.46049    58667.175   -12651.449    930.83555   -13582.285    91.449862    241.32615 
   32500    78.783528    -1035.443    58650.921   -12649.854    952.03622    -13601.89    91.461698    246.82258 
   32550    77.851951   -1005.1773    58641.955   -12656.947    940.77885   -13597.725    91.727808    243.90403 
   32600    79.137039   -1233.9802    58626.234   -12652.127    956.30811   -13608.435    91.862822     247.9301 
   32650    79.234571   -1264.0779    58612.902   -12685.975    957.48671   -13643.462    92.026086    248.23566 
   32700    75.818229   -1271.6301    58615.997   -12675.452    916.20294   -13591.655    91.979607    237.53253 
   32750    78.305432   -938.76677    58541.678   -12676.726     946.2588   -13622.985    91.939605    245.32474 
   32800     75.91579   -1043.7717    58531.201   -12685.258    917.38189    -13602.64     92.41095    237.83819 
   32850    80.657002   -1191.1512    58567.948   -12647.586    974.67566   -13622.261    92.512483    252.69203 
   32900    76.221102    -943.9243    58588.986   -12645.619    921.07134   -13566.691     92.75737     238.7947 
   32950    78.031564   -1554.6943    58624.665   -12661.497    942.94933   -13604.446    93.033079    244.46674 
   33000    76.482302   -1142.2093    58562.425   -12686.508    924.22774   -13610.736    93.201904    239.61302 
   33050    77.997102   -1091.0786    58539.718    -12715.63    942.53288   -13658.163    93.088198    244.35877 
   33100    76.768155    -1440.703    58552.239   -12704.503    927.68205   -13632.185    93.445759    240.50858 
   33150    73.490171   -818.29216     58561.98   -12730.138    888.07021   -13618.208      93.6996    230.23891 
   33200    74.383667   -1314.7926     58532.05   -12712.397     898.8674   -13611.264    93.671268    233.03817 
   33250    76.633669   -816.71896    58524.944   -12700.063    926.05688    -13626.12    93.943645    240.08724 
   33300    76.680167   -1155.6479    58572.754   -12694.553    926.61878   -13621.171    94.506194    240.23292 
   33350    78.204282   -1073.1981    58650.493   -12667.133     945.0365    -13612.17    94.700315    245.00785 
   33400    75.203967   -1406.0436    58636.834   -12680.623    908.78007   -13589.403    95.030724     235.6081 
   33450    77.644278   -1070.3981    58584.966   -12679.652    938.26929   -13617.921    95.238196     243.2534 
   33500    77.322669   -1150.0674    58588.432   -12699.146     934.3829   -13633.529    95.324717    242.24583 
   33550    79.284555   -1164.0735     58579.91    -12709.11    958.09073   -13667.201    95.580294    248.39226 
   33600    78.999968     -1179.55    58607.553   -12697.451    954.65172   -13652.103    96.204636    247.50067 
   33650    78.625334   -975.87056    58646.983   -12677.353    950.12457   -13627.478    96.551858    246.32697 
   33700    77.219433   -1479.2914    58642.536   -12700.238    933.13538   -13633.373    96.359359     241.9224 
   33750     76.91914   -938.95476    58659.305   -12679.724    929.50658   -13609.231    96.710069     240.9816 
   33800    77.154955   -832.56114    58667.432   -12664.695    932.35621   -13597.051    96.677053    241.72039 
   33850     77.56854   -1166.7128    58708.668   -12647.568    937.35406   -13584.922    96.475418    243.01612 
   33900    77.621339   -1536.8716    58716.645    -12671.88    937.99209   -13609.872    96.989691    243.18154 
   33950    77.927767   -1265.8049    58724.026   -12654.746    941.69503   -13596.441    97.346837    244.14155 
[...]
   92000    78.752913   -1133.5625    58530.955    -12683.64    951.66626   -13635.306     231.6605    246.72667 
   92050    77.194528   -1071.9783    58503.563   -12701.151    932.83442   -13633.985    231.56788    241.84437 
   92100     76.91235   -1372.6451    58440.954   -12725.856    929.42452   -13655.281    232.03332    240.96033 
   92150    76.609639    -1160.652    58406.648   -12740.344     925.7665   -13666.111    232.41001    240.01196 
   92200    76.645351   -1378.4045    58419.162   -12711.782    926.19806    -13637.98    233.06334    240.12384 
   92250    75.595211   -557.02599    58400.921   -12712.538    913.50794   -13626.046    232.80692    236.83384 
   92300    76.220101   -1147.3543    58358.229   -12713.155    921.05925   -13634.214    233.17279    238.79157 
   92350    77.419545   -915.13452    58394.676   -12706.545    935.55357   -13642.099    232.90735    242.54933 
   92400    77.589616    -1139.046    58487.096   -12677.878    937.60875   -13615.487    233.64109    243.08215 
   92450    77.385686   -1046.5338    58468.595   -12671.929    935.14441   -13607.074    233.42484    242.44325 
   92500    77.583886   -1211.1075    58426.275   -12659.287     937.5395   -13596.827    233.56698     243.0642 
   92550    77.611952   -791.29655    58422.522   -12667.275    937.87866   -13605.154    233.08609    243.15213 
   92600    76.148288   -1515.7312    58424.538   -12675.711    920.19144   -13595.902    232.77621    238.56658 
   92650    75.906222   -1200.3349    58455.314   -12661.414    917.26627   -13578.681    233.06645    237.80821 
   92700    75.675503   -905.07763    58426.784   -12681.958    914.47821   -13596.437    232.70468    237.08539 
   92750    76.903917   -1095.4292    58405.446   -12716.026    929.32261   -13645.349    233.22482    240.93391 
   92800    76.785542   -1100.7973    58443.928   -12704.974    927.89215   -13632.866    233.58785    240.56305 
   92850     77.51961   -1079.0283     58422.44   -12716.272    936.76278   -13653.034    233.77275    242.86283 
   92900    76.456625   -1369.8868    58447.628   -12726.793    923.91744    -13650.71    233.99266    239.53258 
   92950     73.99327   -770.10054     58525.99   -12714.012    894.14977   -13608.162    234.37177    231.81508 
   93000    76.201056   -1383.1556    58556.014   -12714.576     920.8291   -13635.405    234.85678     238.7319 
   93050    72.937597   -1165.3076    58544.696   -12713.337    881.39279   -13594.729    235.49406    228.50774 
   93100    76.445252   -959.80618    58550.216   -12706.068    923.78001   -13629.848    235.99409    239.49695 
   93150    75.657656   -663.31119    58601.783   -12683.517    914.26254    -13597.78    235.91211    237.02947 
   93200    76.565246   -1063.2859    58639.663   -12703.531    925.23005   -13628.761    236.30101    239.87288 
   93250    73.959285   -1148.3867    58672.055   -12745.144    893.73908   -13638.883    236.06017    231.70861 
   93300    76.792352    -943.5439    58736.068   -12733.411    927.97444   -13661.385    236.32427    240.58439 
   93350    74.877878   -1044.4114    58786.172   -12722.635    904.83955   -13627.475    236.73299    234.58649 
   93400    78.005197   -1264.8366    58772.096   -12715.414    942.63071   -13658.045    237.31934    244.38413 
   93450    76.935089   -1404.0686    58750.871   -12721.487    929.69931   -13651.187    237.66275    241.03157 
   93500    77.460681   -1375.9339    58724.569    -12760.36    936.05067    -13696.41    237.74506    242.67821 
   93550    74.172845   -1343.4211     58706.55   -12771.498    896.31979   -13667.818    238.35388    232.37768 
   93600    75.256566   -1073.2087    58680.107   -12775.334     909.4157    -13684.75    238.26429    235.77289 
   93650    76.447205   -1289.4657    58626.228   -12740.162    923.80362   -13663.966    238.43653    239.50307 
   93700    79.134103   -1049.8604    58629.229    -12734.76    956.27263   -13691.033    238.06297    247.92091 
   93750    75.564137   -1104.6737    58619.442   -12704.137    913.13244   -13617.269    238.65781    236.73649 
   93800    78.515436   -1167.8306    58668.042   -12690.996    948.79654   -13639.792    238.98151    245.98267 
   93850    73.909338   -1226.8028    58674.579   -12727.528    893.13551   -13620.664    238.97189    231.55213 
   93900    75.579399   -1428.6008    58660.854   -12750.663    913.31687   -13663.979    238.82121     236.7843 
   93950    78.459133   -991.45503    58662.013   -12727.927    948.11616   -13676.043    239.33897    245.80628 
   94000    73.141986   -1090.6422     58696.12   -12721.224    883.86268   -13605.087    239.17979    229.14808 
   94050     74.58813   -1219.3789    58682.396   -12728.637    901.33818   -13629.975    239.01362    233.67873 
   94100    74.482384   -1148.5175    58665.899   -12713.379    900.06032    -13613.44    238.47192    233.34744 
   94150    75.541024   -947.98282    58604.256   -12719.674    912.85314   -13632.527    238.68721    236.66407 
   94200    78.210163   -882.22461    58640.924   -12712.815    945.10756   -13657.923    238.67158    245.02628 
   94250    76.266688   -723.90669    58670.785   -12707.627    921.62221   -13629.249    238.35997    238.93752 
   94300    76.056044   -822.00136    58725.682   -12681.078    919.07675   -13600.155    238.90728    238.27759 
   94350    80.108226    -741.6867    58768.061   -12682.774    968.04414   -13650.818     238.5338    250.97276 
   94400      76.7666   -839.53859    58793.108   -12693.135    927.66325   -13620.799    238.91258    240.50371 
   94450    76.689991   -1119.8846    58788.728   -12697.408     926.7375   -13624.146    238.72267     240.2637 
   94500    78.410748   -1371.0707    58752.207   -12728.427    947.53148   -13675.959    238.97053    245.65469 
   94550    76.776555   -1093.2138      58735.2   -12758.522    927.78354   -13686.306    239.18294    240.53489 
   94600    74.986216    -1692.786      58705.1   -12760.872    906.14873   -13667.021    239.25632     234.9259 
   94650    76.220302   -1394.1915    58703.113   -12768.585    921.06167   -13689.647    239.17078     238.7922 
   94700    74.033074   -1229.0633     58627.44   -12756.397    894.63076   -13651.028    239.51545    231.93978 
   94750    75.422749   -1026.6656     58649.78   -12743.616    911.42388    -13655.04    240.09227    236.29353 
   94800    73.959087   -1465.9349    58565.291   -12747.601    893.73669   -13641.338    240.65297    231.70799 
   94850     76.59707   -1380.7345    58513.669   -12718.639    925.61461   -13644.254    240.60841    239.97258 
   94900    75.611246    -1279.009    58475.155   -12712.891    913.70172   -13626.593    241.03039    236.88407 
   94950    74.082181   -1333.6575    58529.523   -12685.194    895.22419   -13580.418    241.13226    232.09363 
   95000    82.448329    -1171.697     58568.64    -12628.47    996.32243   -13624.792    241.29505    258.30412 
   95050    81.367565   -711.84554    58524.976   -12632.314    983.26225   -13615.577    241.24529    254.91817 
   95100    78.783228   -1173.1168    58540.287   -12650.384    952.03259   -13602.416    242.15726    246.82164 
   95150    78.692611   -1004.7388    58498.177   -12658.724    950.93756   -13609.661    242.49024    246.53775 
   95200    75.119096   -1110.5969    58434.597   -12716.602    907.75447   -13624.356    242.79993    235.34221 
   95250    75.132535    -1471.352    58327.005   -12705.713    907.91688    -13613.63     242.7549    235.38431 
   95300    77.492279   -1119.8792    58269.645   -12711.874     936.4325   -13648.307    243.41332     242.7772 
   95350    77.465277   -1146.7071    58271.942    -12696.42     936.1062   -13632.527    244.16324    242.69261 
   95400     76.86653   -1293.2419    58284.751   -12705.078    928.87082   -13633.949    243.72134    240.81678 
   95450     76.34987   -1651.4273    58240.956   -12702.901     922.6274   -13625.529    244.03657    239.19812 
   95500    77.988866   -1169.3892    58236.329   -12710.746    942.43336   -13653.179    243.93291    244.33297 
   95550    76.488764    -876.9584    58212.885   -12700.175    924.30583   -13624.481    243.34903    239.63327 
   95600    76.423964   -1183.8298    58182.164     -12674.6    923.52277   -13598.122     243.8739    239.43026 
   95650    75.878145   -1143.4992    58122.791   -12712.169    916.92698   -13629.096    243.62014    237.72025 
   95700     74.50881   -901.29223    58103.304    -12705.09    900.37966    -13605.47    243.68892    233.43023 
   95750    76.146475   -835.22356    58172.851   -12717.583    920.16953   -13637.753    243.93342     238.5609 
   95800    77.238843    -872.4966    58229.091   -12691.483    933.36993   -13624.853    244.42839    241.98321 
   95850    73.852427   -685.10876    58275.084   -12673.639    892.44778   -13566.087     245.2159    231.37383 
   95900    79.936983   -1061.2145    58328.073   -12664.337    965.97481   -13630.312    245.94257    250.43627 
   95950    76.799704   -1153.6075    58366.012   -12659.721    928.06329   -13587.784      245.843    240.60742 
   96000    76.255445   -1007.4996    58382.925   -12670.292    921.48635   -13591.779    245.53679     238.9023 
   96050    77.962023   -860.69604    58343.141    -12658.94    942.10899   -13601.049     245.0299    244.24887 
   96100    74.844357   -997.12877     58342.72   -12702.817    904.43447   -13607.251    244.32409    234.48147 
   96150    77.459143    -994.8396    58302.671   -12695.532    936.03208   -13631.565    244.23427    242.67339 
   96200    76.531964   -1311.0217    58305.298   -12698.992    924.82786   -13623.819    244.69471    239.76861 
   96250    74.462448   -1120.4863    58282.277   -12725.781    899.81941     -13625.6    244.53819    233.28498 
   96300    74.873229   -1332.5136    58303.102   -12704.372    904.78337   -13609.155    244.41091    234.57193 
   96350    74.484693    -968.9454    58311.661   -12679.315    900.08823   -13579.404    244.82007    233.35467 
   96400    78.626185    -1174.696    58294.309   -12651.703    950.13485   -13601.838    245.62875    246.32964 
   96450    77.793719   -797.12705    58317.374   -12644.955    940.07517    -13585.03    246.24565    243.72159 
   96500    76.401863   -1130.2465    58321.823   -12682.081    923.25569   -13605.336    246.23509    239.36101 
   96550    78.019834   -1007.1121    58375.826   -12658.269    942.80759   -13601.077    246.45109    244.42999 
   96600    78.334569   -1228.2973    58381.247   -12653.497    946.61091   -13600.107    246.50735    245.41603 
   96650    77.843897   -1670.2852    58299.236   -12700.525    940.68153   -13641.206    246.35658    243.87879 
   96700    74.612327   -1348.4432    58269.481   -12719.294    901.63057   -13620.925    247.25463    233.75454 
   96750    75.650551   -1189.7767    58212.542   -12709.704    914.17669   -13623.881    247.36598    237.00721 
   96800    78.471841   -1008.7341    58229.028    -12698.85    948.26973    -13647.12    247.28626    245.84609 
   96850    77.923463    -1508.093    58202.426   -12686.362    941.64302   -13628.005    248.04864    244.12807 
   96900    78.046818   -1378.3583    58137.224   -12690.955    943.13366   -13634.089    248.26384    244.51453 
   96950    80.090575     -999.844    58138.369   -12706.235    967.83085   -13674.066    248.22549    250.91746 
   97000     76.19792   -1087.9403    58148.875   -12718.143     920.7912   -13638.935    248.11295    238.72208 
   97050    76.084722   -1132.8051    58108.426   -12706.963     919.4233   -13626.386    247.53826    238.36744 
   97100    75.934247   -978.81865    58153.128   -12685.636    917.60493   -13603.241    248.10976    237.89601 
   97150    76.241542   -1076.9565     58185.85   -12676.109    921.31834   -13597.428    248.20729    238.85874 
   97200    76.658602    -1279.737    58171.045   -12699.844    926.35818   -13626.202    248.70544    240.16536 
   97250    75.572041   -972.14799    58194.429   -12697.499    913.22795   -13610.727    248.64408    236.76125 
   97300    79.353322   -1230.6335    58174.294   -12686.579    958.92172   -13645.501    249.24019     248.6077 
   97350    75.546577   -1287.3612    58187.471   -12706.957    912.92024   -13619.877    249.33343    236.68147 
   97400    76.892908    -1103.229    58159.493   -12682.446    929.18958   -13611.635    249.78074    240.89942 
   97450    77.968928   -1007.5002    58137.128   -12674.163    942.19243   -13616.355    249.94301    244.27051 
   97500    75.743887   -989.21683    58160.708   -12690.631    915.30458   -13605.936    250.12974    237.29963 
   97550    76.759123   -1170.8159    58169.398    -12704.56     927.5729   -13632.133    251.04576    240.48028 
   97600    74.003075   -745.40212    58136.159   -12678.734    894.26826   -13573.002    250.83113     231.8458 
   97650    76.995484   -1157.5125     58024.72   -12698.635    930.42913   -13629.064    251.21279    241.22078 
   97700    74.576401   -750.57773    58035.304   -12721.732    901.19644   -13622.929    251.38807    233.64198 
   97750    74.730948   -672.90221    58102.628   -12716.122    903.06402   -13619.186    251.42393    234.12617 
   97800    74.865231   -694.72989    58167.224   -12725.727    904.68672   -13630.413    251.78473    234.54687 
   97850    74.718523   -834.41532     58192.58   -12726.726    902.91387    -13629.64    251.60736    234.08724 
   97900    73.629989   -1096.1163    58197.728   -12743.627     889.7598   -13633.387    251.77569    230.67695 
   97950     75.51707   -1071.5897    58187.314   -12719.279    912.56367   -13631.843    251.67518    236.58903 
   98000    76.265045   -827.36621    58216.612   -12709.717    921.60235   -13631.319    251.65529    238.93237 
   98050    78.000801   -785.41471    58209.994   -12696.544    942.57759   -13639.122    251.25103    244.37036 
   98100     77.63024   -1077.7641    58216.977   -12680.926    938.09966   -13619.026    250.91906    243.20942 
   98150    75.756777   -1205.4165    58210.054   -12685.622    915.46035   -13601.082    250.99638    237.34001 
   98200    75.211233   -1198.0639    58169.869   -12657.853    908.86788   -13566.721    251.43158    235.63086 
   98250    75.003501   -828.30628    58161.029   -12700.585     906.3576   -13606.943    252.25666    234.98006 
   98300    77.814009   -1189.6169    58164.019   -12680.101    940.32035   -13620.422    252.79894    243.78516 
   98350    77.764894   -844.00616    58190.654   -12672.689    939.72684   -13612.416    253.19773    243.63128 
   98400    75.304905   -810.07608    58205.625   -12695.831    909.99983   -13605.831    253.68912    235.92433 
   98450    76.599028   -795.07366    58242.343   -12691.045    925.63828   -13616.683    253.18008    239.97872 
   98500    75.029289   -1247.7162    58272.289   -12691.304    906.66923   -13597.973    253.44102    235.06085 
   98550    74.455454   -862.81705    58317.176   -12712.701    899.73489   -13612.436    253.18453    233.26307 
   98600    73.884291   -835.88004    58334.179   -12711.671    892.83284   -13604.504    253.38873    231.47366 
   98650    75.830757   -909.95995    58327.039    -12702.56    916.35434   -13618.914    253.16189    237.57179 
   98700    74.716133   -1267.0694    58328.247   -12728.516    902.88499   -13631.401    253.13582    234.07976 
   98750    75.560738   -1094.0877    58371.055   -12693.119    913.09137    -13606.21    253.08447    236.72584 
   98800    77.917138   -1243.5198    58360.545   -12676.061    941.56659   -13617.627    252.99252    244.10825 
   98850    73.250723   -771.18095    58371.553   -12688.747    885.17667   -13573.924    252.47336    229.48874 
   98900    74.931176   -1501.1569    58321.677   -12703.392    905.48361   -13608.875    252.62887    234.75347 
   98950     75.41094   -1055.6968    58325.315    -12712.64    911.28117   -13623.921    252.90976    236.25653 
   99000    71.775014   -919.74688    58364.465   -12742.193    867.34391   -13609.537    252.42733    224.86546 
   99050    75.361982   -1300.3572     58379.13   -12714.254    910.68956   -13624.944    252.39969    236.10315 
   99100     75.76465   -1262.0278    58395.971   -12691.919    915.55548   -13607.474    251.89104    237.36468 
   99150    76.549589   -1396.7401    58338.973   -12726.384    925.04085   -13651.425    252.45769    239.82383 
   99200    74.402676   -1448.2801    58283.929   -12746.226    899.09711   -13645.323    252.86033    233.09772 
   99250    74.390734   -932.88215    58226.255    -12746.44     898.9528   -13645.393    252.74935    233.06031 
   99300    74.090548   -1160.6985     58188.97   -12746.781     895.3253   -13642.106    253.44992    232.11985 
   99350    76.336878   -1311.4719    58172.524   -12719.394     922.4704   -13641.865    253.44418    239.15742 
   99400    75.755329   -1418.3102    58171.089   -12722.056    915.44284   -13637.498    253.66279    237.33547 
   99450     76.29815   -1344.1027    58150.793   -12700.539     922.0024   -13622.541    253.68266    239.03609 
   99500    75.886216     -1176.02    58184.988   -12708.692    917.02451   -13625.716    253.86931    237.74553 
   99550    72.850955   -1048.9017    58155.946   -12729.693     880.3458   -13610.039    254.03189     228.2363 
   99600    77.425152   -881.76939    58129.112   -12691.191    935.62133   -13626.812    253.77089     242.5669 
   99650    76.843077   -1264.3754    58151.089   -12719.002    928.58741    -13647.59    253.19914     240.7433 
   99700     74.44687   -1218.2891    58154.758   -12735.677    899.63117   -13635.308    253.73356    233.23618 
   99750    75.224565   -1149.0261    58162.115   -12761.485    909.02898   -13670.514    254.21305    235.67263 
   99800    73.559932   -1088.5583    58218.766   -12759.685    888.91322   -13648.598    254.15092    230.45747 
   99850    74.775765   -1263.5521    58237.724   -12757.821     903.6056   -13661.426     253.9554    234.26658 
   99900    78.285868   -685.23385    58264.368   -12743.846     946.0224   -13689.869    254.26254    245.26345 
   99950    75.993522   -1065.1137    58349.402   -12736.979    918.32121     -13655.3    254.44149    238.08171 
  100000    72.479114   -1007.5018    58359.239   -12758.505    875.85239   -13634.358    255.17728    227.07135 
Loop time of 81.2437 on 80 procs for 100000 steps with 4055 atoms

Performance: 531.734 ns/day, 0.045 hours/ns, 1230.865 timesteps/s
99.5% CPU use with 80 MPI tasks x no OpenMP threads

MPI task timing breakdown:
Section |  min time  |  avg time  |  max time  |%varavg| %total
---------------------------------------------------------------
Pair    | 46.58      | 50.529     | 55.729     |  32.5 | 62.19
Neigh   | 0.44909    | 1.0443     | 1.9185     |  58.0 |  1.29
Comm    | 15.132     | 21.07      | 25.092     |  59.0 | 25.93
Output  | 0.13674    | 0.14025    | 0.26801    |   3.8 |  0.17
Modify  | 6.4794     | 7.4977     | 8.2597     |  14.6 |  9.23
Other   |            | 0.9623     |            |       |  1.18

Nlocal:    50.6875 ave 86 max 22 min
Histogram: 37 3 0 0 0 0 2 10 17 11
Nghost:    719.312 ave 757 max 677 min
Histogram: 2 6 11 7 10 11 8 8 15 2
Neighs:    0 ave 0 max 0 min
Histogram: 80 0 0 0 0 0 0 0 0 0
FullNghs:  5588 ave 11112 max 1233 min
Histogram: 40 0 0 0 0 0 0 9 19 12

Total # of neighbors = 447040
Ave neighs/atom = 110.244
Neighbor list builds = 5497
Dangerous builds = 0

write_data		${DIR}/data.eq-${NAME}-${TEMP}
write_data		run_6/data.eq-${NAME}-${TEMP}
write_data		run_6/data.eq-het_freeze_6-${TEMP}
write_data		run_6/data.eq-het_freeze_6-240
undump          1

reset_timestep  0

unfix           2
unfix           3
unfix           4


################################################
#######         Run Simulation         #########
################################################

log				${DIR}/log.run_${NAME}
log				run_6/log.run_${NAME}
log				run_6/log.run_het_freeze_6
