LAMMPS data file via write_data, version 16 Mar 2018, timestep = 100000

6337 atoms
2 atom types

0.0000000000000000e+00 4.9219999999999999e+01 xlo xhi
0.0000000000000000e+00 4.9019635930410494e+01 ylo yhi
2.4696475637233846e+00 5.7592352436274027e+01 zlo zhi

Masses

1 18.015
2 12.01

Atoms # atomic

3665 1 3.6653005736678446e+00 1.7434518534676877e+00 3.8635548746834636e+00 1 0 1
5051 1 6.4506969988318268e+00 9.1767508123958486e+00 8.2820755302833060e+00 0 0 0
5038 1 8.0859031234894410e+00 3.5969513997292375e+00 3.5700755345956465e+00 1 1 0
5093 1 7.9785910029226825e-01 1.0204141586995563e+01 4.0590387229036509e+00 1 0 0
1897 1 9.5355378997503646e+00 9.4039454192681617e+00 5.8671336193681292e+00 0 -1 0
1279 1 3.5878488784275202e+00 1.0425189781829783e+01 7.8220116739581265e+00 0 0 1
227 1 3.6184210019151988e+00 4.9760804929459761e+00 3.6572600979510588e+00 0 -1 0
2124 1 4.7345494653341342e+00 5.7611921359150005e+00 6.2428023338182053e+00 0 1 0
1389 1 1.0193735498999061e+01 6.6790840359176542e+00 5.7715176125400074e+00 -1 0 1
505 1 7.6184717860440827e+00 5.0973035206200628e+00 6.0489486905880900e+00 0 0 1
4448 1 9.7991380445125464e-01 5.4829197698810397e+00 4.1001897574774802e+00 1 -1 1
3683 1 1.1075400189677659e+01 4.5666002918923843e+00 3.6310503104858070e+00 0 1 1
307 1 4.5064783690685450e+00 1.1444127675788021e+01 3.4029120510289377e+00 0 0 1
3353 1 7.1383370455045760e+00 7.9794130255295936e+00 5.4195770891605308e+00 1 0 0
6256 1 1.0931290171158444e+01 9.9299444882652406e+00 3.4814907656815617e+00 0 1 1
1268 1 2.3355859172193263e-01 7.9256201463103437e+00 5.5686080262345037e+00 0 0 1
74 1 1.0623189588430471e+01 9.7029158698490043e+00 8.5421530993894184e+00 0 0 0
6119 1 6.6717656976568547e+00 1.0533299860573873e+00 7.4863643503965038e+00 2 1 0
63 1 2.8659240859837682e+00 7.7612838422031150e+00 7.1453862849977563e+00 1 -1 1
1299 1 6.4814119702052411e+00 1.5908916920234468e+00 4.5813216404344734e+00 1 0 0
3534 1 7.7143449595991571e+00 3.7058050871660986e+00 8.3474383317955017e+00 0 0 0
1801 1 1.0648248622395295e+01 3.2305559705428744e+00 8.3300537901572689e+00 0 1 0
3621 1 4.3510687344623742e+00 2.8787753756877610e+00 6.8255724562235081e+00 0 0 0
3706 1 1.0144088684545224e+01 1.7410040666910107e+00 2.8235006759417947e+00 0 1 1
2139 1 1.2023503089163047e+01 5.3627970785907930e+00 7.6552928489714196e+00 0 0 1
3371 1 2.6536016006021041e+00 1.1815263146985673e+01 5.4987514355227702e+00 0 0 0
1724 1 7.4239717229344642e+00 5.4566393583777968e+00 1.5814039447990810e+01 0 0 0
195 1 1.9292710439073688e+00 1.0473114628642682e+01 1.0267739743356969e+01 0 1 0
1365 1 3.5909123758400319e+00 2.5170582200335061e+00 9.5076894841741968e+00 0 0 1
2951 1 8.3222974331866588e+00 3.3942576598313337e+00 1.2126803368685268e+01 0 0 0
3736 1 1.0187887617010224e+01 1.8733834215309024e+00 1.0847471142985116e+01 1 0 1
1442 1 3.1429822943421182e-01 7.8396496582068078e+00 1.3626882702167004e+01 1 -1 1
1860 1 1.5573859784872550e+00 3.3033348233071234e+00 1.2526907077693791e+01 0 1 0
1676 1 1.9474019497169766e+00 3.6046931599385341e+00 1.6072319404085054e+01 1 1 0
3202 1 6.2360547620191165e+00 6.6870935553114244e+00 1.1620402809086256e+01 0 1 0
362 1 1.0098681723943562e+01 5.5833311682839009e+00 1.2250567903658897e+01 0 0 0
3135 1 1.0111456339477924e+01 1.1265719723796628e+00 1.5885814311582852e+01 0 1 1
3658 1 5.9079978404421496e+00 3.9503836057158122e+00 1.0429676288719445e+01 0 0 0
5212 1 4.7041673755284386e+00 8.4663559769589174e+00 1.0433518631213856e+01 1 0 0
3093 1 1.9156820963084114e+00 1.0208479919255499e+01 1.3694029723039874e+01 1 1 1
6335 1 8.0522120647475930e+00 8.1302728435111931e+00 1.5003758303732956e+01 0 0 1
57 1 8.5689475449124597e+00 7.6238047470786956e+00 1.2488513514027007e+01 0 0 0
319 1 9.6146825733728161e+00 1.0047508969611716e+01 1.1174602980546203e+01 0 0 0
5077 1 6.5553216598209776e+00 1.1706562596089199e+01 1.3558467011465849e+01 1 1 0
3450 1 5.2287124143415094e+00 8.4349712232488780e+00 1.5666865537347729e+01 -1 0 0
6211 1 8.0623250307775187e+00 2.8054302741077684e+00 1.4601131691582216e+01 0 1 1
2863 1 4.4635731608855505e+00 3.1398992329912949e+00 1.3075071139903983e+01 1 0 1
3358 1 2.5596933323288953e+00 6.2494025130871247e+00 1.4858003858521906e+01 1 -1 0
6224 1 1.1496842517255738e+01 1.0863553026618172e+01 1.3036565968469210e+01 1 -1 1
5200 1 4.6425748606739425e+00 9.8085085015684843e+00 1.3014845915149563e+01 1 -1 0
3478 1 5.5147188737392270e+00 1.7123003907299545e+00 1.5397504134449171e+01 0 0 0
6317 1 2.4848180472840320e+00 6.6840361827265315e+00 9.6167767894740361e+00 1 0 1
473 1 5.2571933112758371e+00 5.8460124464123542e+00 1.4045908633340385e+01 0 0 1
366 1 1.2970602981624164e+00 4.2804717380194761e+00 1.0131387708408134e+01 1 0 0
3248 1 7.4767364902452271e-01 1.1761914073892781e+00 1.5114819258800511e+01 1 0 0
3326 1 8.0039903633274623e+00 1.2122601875568209e+01 1.1275987096748516e+01 1 1 0
3123 1 3.7561967649628176e+00 9.7006353274246671e-02 1.1842934090120117e+01 0 0 0
3539 1 1.2147174127207700e+01 8.9628354319873544e+00 1.4655315620925400e+01 0 0 0
5122 1 1.0993503823139103e-01 8.3453145235935422e-01 1.1997971966788020e+01 1 1 0
240 1 2.9116720843757571e-01 8.0019888997398496e+00 1.0575923705823197e+01 1 0 0
5057 1 5.7335944839465993e+00 1.1645575826249248e+01 9.6524446928771432e+00 0 0 0
1717 1 1.1245710195978096e+00 4.3644384035553632e+00 1.8595061894180315e+01 1 -1 1
4808 1 4.3987247404029173e+00 3.0688212083324187e+00 1.7739714684481275e+01 1 0 0
5280 1 1.1289762355243941e+01 1.4495695110074700e+00 1.8374530361942824e+01 1 1 0
3230 1 1.1652495056040916e+01 4.2054362728321850e+00 1.8416914932336006e+01 1 0 0
138 1 5.7738393605007410e+00 5.4033705374440055e+00 1.7966102535808844e+01 0 1 0
3527 1 7.0447787806025142e-01 8.9450651416540534e+00 2.1132900541281746e+01 0 0 0
121 1 9.8373683759333552e+00 5.8615795102111532e+00 1.7881193097423022e+01 0 0 1
139 1 2.0856570347735062e+00 1.0597360855826388e+01 1.7312254485694204e+01 0 1 0
1938 1 2.7931564036074628e+00 7.7180249042490932e+00 1.7454735336096441e+01 0 0 0
3262 1 4.2615039539601458e+00 7.4542958779705817e+00 1.9982083726340839e+01 1 0 1
92 1 1.0539328831821328e+01 1.1147053573173677e+01 2.1820552869918540e+01 0 0 1
1752 1 1.0614641890263393e+01 8.0632115353029565e+00 1.8499071288812527e+01 1 0 0
417 1 1.0038591319260794e+01 5.8383448107821811e+00 2.1615480542577270e+01 0 0 0
1989 1 1.6306518401574288e+00 9.7535289432403449e-01 2.1410985339437563e+01 1 1 0
328 1 5.2925675079464787e+00 1.9399221573787617e-01 1.8947076413645025e+01 0 0 0
3475 1 6.4043277125617966e+00 2.4928434558885302e+00 2.0702972663894460e+01 1 0 0
1672 1 9.4617006862151527e+00 2.6041740339425026e+00 2.1849319005606763e+01 0 1 1
6159 1 3.5132157390019314e+00 3.1428382459306778e+00 2.0430905272711389e+01 1 0 1
5127 1 2.5079181890210664e+00 5.5856994257051342e+00 2.1359539419345722e+01 0 0 0
371 1 7.8510728162916479e+00 4.8273072265083083e+00 1.9743769277212238e+01 0 1 0
129 1 6.5804163570126848e+00 6.2567064240200789e+00 2.1712670294972266e+01 1 1 1
1719 1 1.0320279789682443e+01 3.3367525342189097e-01 2.0707482316443521e+01 0 -1 0
1838 1 4.1782132075571781e+00 9.5971509738229681e+00 2.1812127773199649e+01 0 -1 0
4853 1 2.0088053207906413e+00 1.1227092081311243e+01 2.0012344647123609e+01 0 0 1
1873 1 9.0791403953351590e+00 8.6365590212431051e+00 2.1018830090738785e+01 1 0 1
2165 1 6.5726344765023983e+00 9.6932323976044863e+00 2.0022583947597127e+01 1 1 1
538 1 4.1152414786776372e+00 1.2217772213282116e+01 1.6422517589348981e+01 0 0 0
3164 1 5.1581906917917575e-01 7.0440276617584052e+00 1.9232803463642750e+01 1 0 1
5190 1 1.0148545101944277e+01 9.6014045721222381e+00 1.6393600979793923e+01 0 1 0
3470 1 6.2570496573558403e+00 1.0464074171503919e+01 1.7273696194099738e+01 0 0 0
4975 1 7.3204083077777904e+00 1.2029305523387174e+01 2.1577289438736365e+01 1 1 0
1859 1 1.0763767024430294e+01 1.2048806252652579e+01 1.7520045161747767e+01 0 1 0
6291 1 1.2297607342576104e+01 8.6074291668210545e+00 2.0826059744633397e+01 0 0 1
5091 1 4.0638122358228923e+00 2.6842708150819741e+00 2.4296013372483547e+01 1 1 0
730 2 9.8440000000000012e+00 1.1366872099805333e+01 2.6856653691173229e+01 0 0 0
2876 1 6.8325627392663293e+00 2.2131702829719351e+00 2.3580553458911901e+01 0 1 0
3025 1 1.0085070832070713e+01 1.2981379977935639e+00 2.4677502908879703e+01 1 1 1
3480 1 9.3478626729151255e+00 8.9622463973571147e+00 2.4097865993418356e+01 1 0 0
4983 1 1.1336901580802897e+01 5.7341320246312613e+00 2.4119231608133891e+01 0 0 0
3627 1 2.8341258030850209e+00 5.2952877152001729e+00 2.4081535971246439e+01 0 0 1
2050 1 8.8877693593934328e+00 4.3177968464338337e+00 2.4438369916737887e+01 1 0 0
1622 1 4.4764260565293350e+00 7.3372448275509710e+00 2.4181540276018325e+01 0 2 1
6286 1 7.5527113947690516e+00 6.8936628175131922e+00 2.4356850413887081e+01 1 0 1
30 1 2.7382570023751533e+00 3.5745474087264217e-01 2.3941612191694237e+01 0 0 0
1681 1 8.9730211647690750e-01 7.9507441498234064e+00 2.3600725695632580e+01 0 1 0
728 2 8.6134999999999984e+00 1.0656442593567498e+01 2.6856653691173229e+01 0 0 0
212 1 2.6038354123564931e+00 9.5130384175055767e+00 2.4736110230467482e+01 0 0 0
554 2 0.0000000000000000e+00 2.8417180249513345e+00 2.6856653691173229e+01 0 0 0
556 2 0.0000000000000000e+00 0.0000000000000000e+00 2.6856653691173229e+01 0 0 0
558 2 1.2305000000000001e+00 7.1042950623783474e-01 2.6856653691173229e+01 0 0 0
565 2 1.2305000000000001e+00 2.1312885187134998e+00 2.6856653691173229e+01 0 0 0
567 2 2.4610000000000003e+00 2.8417180249513345e+00 2.6856653691173229e+01 0 0 0
569 2 2.4610000000000003e+00 0.0000000000000000e+00 2.6856653691173229e+01 0 0 0
571 2 3.6915000000000004e+00 7.1042950623783474e-01 2.6856653691173229e+01 0 0 0
586 2 3.6914999999999996e+00 2.1312885187134998e+00 2.6856653691173229e+01 0 0 0
588 2 4.9220000000000006e+00 2.8417180249513332e+00 2.6856653691173229e+01 0 0 0
590 2 4.9220000000000006e+00 0.0000000000000000e+00 2.6856653691173229e+01 0 0 0
592 2 6.1524999999999999e+00 7.1042950623783407e-01 2.6856653691173229e+01 0 0 0
615 2 6.1524999999999999e+00 2.1312885187134989e+00 2.6856653691173229e+01 0 0 0
617 2 7.3829999999999991e+00 2.8417180249513345e+00 2.6856653691173229e+01 0 0 0
619 2 7.3829999999999991e+00 0.0000000000000000e+00 2.6856653691173229e+01 0 0 0
621 2 8.6134999999999984e+00 7.1042950623783407e-01 2.6856653691173229e+01 0 0 0
652 2 8.6134999999999984e+00 2.1312885187135002e+00 2.6856653691173229e+01 0 0 0
654 2 9.8440000000000012e+00 2.8417180249513332e+00 2.6856653691173229e+01 0 0 0
656 2 9.8440000000000012e+00 0.0000000000000000e+00 2.6856653691173229e+01 0 0 0
658 2 1.1074500000000002e+01 7.1042950623783330e-01 2.6856653691173229e+01 0 0 0
697 2 1.1074500000000002e+01 2.1312885187135002e+00 2.6856653691173229e+01 0 0 0
561 2 0.0000000000000000e+00 4.2625770374269996e+00 2.6856653691173229e+01 0 0 0
563 2 1.2305000000000001e+00 4.9730065436648339e+00 2.6856653691173229e+01 0 0 0
578 2 1.2305000000000001e+00 6.3938655561404980e+00 2.6856653691173229e+01 0 0 0
582 2 2.4610000000000003e+00 4.2625770374269996e+00 2.6856653691173229e+01 0 0 0
584 2 3.6914999999999996e+00 4.9730065436648339e+00 2.6856653691173229e+01 0 0 0
607 2 3.6914999999999996e+00 6.3938655561404980e+00 2.6856653691173229e+01 0 0 0
559 2 0.0000000000000000e+00 7.1042950623783341e+00 2.6856653691173229e+01 0 0 0
580 2 2.4610000000000003e+00 7.1042950623783341e+00 2.6856653691173229e+01 0 0 0
611 2 4.9220000000000006e+00 4.2625770374269978e+00 2.6856653691173229e+01 0 0 0
613 2 6.1524999999999999e+00 4.9730065436648339e+00 2.6856653691173229e+01 0 0 0
644 2 6.1524999999999999e+00 6.3938655561404980e+00 2.6856653691173229e+01 0 0 0
648 2 7.3829999999999991e+00 4.2625770374269996e+00 2.6856653691173229e+01 0 0 0
609 2 4.9220000000000006e+00 7.1042950623783341e+00 2.6856653691173229e+01 0 0 0
646 2 7.3830000000000009e+00 7.1042950623783341e+00 2.6856653691173229e+01 0 0 0
650 2 8.6135000000000002e+00 4.9730065436648339e+00 2.6856653691173229e+01 0 0 0
689 2 8.6135000000000002e+00 6.3938655561404980e+00 2.6856653691173229e+01 0 0 0
693 2 9.8440000000000012e+00 4.2625770374270004e+00 2.6856653691173229e+01 0 0 0
695 2 1.1074500000000002e+01 4.9730065436648339e+00 2.6856653691173229e+01 0 0 0
736 2 1.1074500000000002e+01 6.3938655561404980e+00 2.6856653691173229e+01 0 0 0
691 2 9.8440000000000012e+00 7.1042950623783341e+00 2.6856653691173229e+01 0 0 0
574 2 0.0000000000000000e+00 8.5251540748539991e+00 2.6856653691173229e+01 0 0 0
576 2 1.2305000000000001e+00 9.2355835810918343e+00 2.6856653691173229e+01 0 0 0
603 2 2.4610000000000003e+00 8.5251540748539991e+00 2.6856653691173229e+01 0 0 0
605 2 3.6915000000000004e+00 9.2355835810918343e+00 2.6856653691173229e+01 0 0 0
572 2 0.0000000000000000e+00 1.1366872099805333e+01 2.6856653691173229e+01 0 0 0
599 2 1.2305000000000001e+00 1.0656442593567498e+01 2.6856653691173229e+01 0 0 0
601 2 2.4610000000000003e+00 1.1366872099805333e+01 2.6856653691173229e+01 0 0 0
636 2 3.6914999999999996e+00 1.0656442593567499e+01 2.6856653691173229e+01 0 0 0
640 2 4.9220000000000006e+00 8.5251540748539991e+00 2.6856653691173229e+01 0 0 0
642 2 6.1524999999999999e+00 9.2355835810918343e+00 2.6856653691173229e+01 0 0 0
685 2 7.3830000000000009e+00 8.5251540748539991e+00 2.6856653691173229e+01 0 0 0
638 2 4.9220000000000006e+00 1.1366872099805333e+01 2.6856653691173229e+01 0 0 0
681 2 6.1524999999999999e+00 1.0656442593567499e+01 2.6856653691173229e+01 0 0 0
683 2 7.3829999999999991e+00 1.1366872099805333e+01 2.6856653691173229e+01 0 0 0
732 2 9.8440000000000012e+00 8.5251540748539956e+00 2.6856653691173229e+01 0 0 0
734 2 1.1074500000000002e+01 9.2355835810918343e+00 2.6856653691173229e+01 0 0 0
777 2 1.2304999999999998e+01 1.1366872099805333e+01 2.6856653691173229e+01 0 0 0
687 2 8.6134999999999984e+00 9.2355835810918343e+00 2.6856653691173229e+01 0 0 0
775 2 1.1074500000000002e+01 1.0656442593567498e+01 2.6856653691173229e+01 0 0 0
1857 1 8.2229493634718711e+00 1.1513555830647297e+01 2.4433194535005313e+01 0 1 0
1736 1 1.2211209233375424e+01 8.3691296324432614e+00 2.3920784728367806e+01 1 1 0
282 1 5.5874308155807357e+00 1.0862933406328322e+01 2.4234029724464655e+01 0 0 0
1644 1 1.4694463885022790e+00 1.1778688331815616e+01 2.3917277933130627e+01 0 0 0
555 2 0.0000000000000000e+00 1.4208590124756650e+00 3.0030999999998741e+01 0 0 0
557 2 0.0000000000000000e+00 0.0000000000000000e+00 3.0030999999998741e+01 0 0 0
566 2 1.2305000000000001e+00 2.1312885187134998e+00 3.0030999999998741e+01 0 0 0
568 2 2.4610000000000003e+00 1.4208590124756650e+00 3.0030999999998741e+01 0 0 0
570 2 2.4610000000000003e+00 0.0000000000000000e+00 3.0030999999998741e+01 0 0 0
587 2 3.6914999999999996e+00 2.1312885187134998e+00 3.0030999999998741e+01 0 0 0
564 2 1.2305000000000001e+00 3.5521475311891644e+00 3.0030999999998741e+01 0 0 0
585 2 3.6914999999999996e+00 3.5521475311891644e+00 3.0030999999998741e+01 0 0 0
883 2 0.0000000000000000e+00 2.8417180249513345e+00 3.3205346308824396e+01 0 0 0
884 2 0.0000000000000000e+00 0.0000000000000000e+00 3.3205346308824396e+01 0 0 0
885 2 1.2305000000000001e+00 7.1042950623783474e-01 3.3205346308824396e+01 0 0 0
889 2 1.2305000000000001e+00 2.1312885187134998e+00 3.3205346308824396e+01 0 0 0
890 2 2.4610000000000003e+00 2.8417180249513345e+00 3.3205346308824396e+01 0 0 0
891 2 2.4610000000000003e+00 0.0000000000000000e+00 3.3205346308824396e+01 0 0 0
892 2 3.6915000000000004e+00 7.1042950623783474e-01 3.3205346308824396e+01 0 0 0
900 2 3.6914999999999996e+00 2.1312885187134998e+00 3.3205346308824396e+01 0 0 0
589 2 4.9220000000000006e+00 1.4208590124756650e+00 3.0030999999998741e+01 0 0 0
591 2 4.9220000000000006e+00 0.0000000000000000e+00 3.0030999999998741e+01 0 0 0
616 2 6.1524999999999999e+00 2.1312885187134989e+00 3.0030999999998741e+01 0 0 0
618 2 7.3829999999999991e+00 1.4208590124756659e+00 3.0030999999998741e+01 0 0 0
620 2 7.3829999999999991e+00 0.0000000000000000e+00 3.0030999999998741e+01 0 0 0
614 2 6.1524999999999999e+00 3.5521475311891644e+00 3.0030999999998741e+01 0 0 0
901 2 4.9220000000000006e+00 2.8417180249513332e+00 3.3205346308824396e+01 0 0 0
902 2 4.9220000000000006e+00 0.0000000000000000e+00 3.3205346308824396e+01 0 0 0
903 2 6.1524999999999999e+00 7.1042950623783407e-01 3.3205346308824396e+01 0 0 0
915 2 6.1524999999999999e+00 2.1312885187134989e+00 3.3205346308824396e+01 0 0 0
916 2 7.3829999999999991e+00 2.8417180249513345e+00 3.3205346308824396e+01 0 0 0
917 2 7.3829999999999991e+00 0.0000000000000000e+00 3.3205346308824396e+01 0 0 0
653 2 8.6134999999999984e+00 2.1312885187135002e+00 3.0030999999998741e+01 0 0 0
655 2 9.8440000000000012e+00 1.4208590124756659e+00 3.0030999999998741e+01 0 0 0
657 2 9.8440000000000012e+00 0.0000000000000000e+00 3.0030999999998741e+01 0 0 0
698 2 1.1074500000000002e+01 2.1312885187135002e+00 3.0030999999998741e+01 0 0 0
651 2 8.6134999999999984e+00 3.5521475311891657e+00 3.0030999999998741e+01 0 0 0
696 2 1.1074500000000002e+01 3.5521475311891644e+00 3.0030999999998741e+01 0 0 0
918 2 8.6134999999999984e+00 7.1042950623783407e-01 3.3205346308824396e+01 0 0 0
934 2 8.6134999999999984e+00 2.1312885187135002e+00 3.3205346308824396e+01 0 0 0
935 2 9.8440000000000012e+00 2.8417180249513332e+00 3.3205346308824396e+01 0 0 0
936 2 9.8440000000000012e+00 0.0000000000000000e+00 3.3205346308824396e+01 0 0 0
937 2 1.1074500000000002e+01 7.1042950623783330e-01 3.3205346308824396e+01 0 0 0
957 2 1.1074500000000002e+01 2.1312885187135002e+00 3.3205346308824396e+01 0 0 0
560 2 0.0000000000000000e+00 5.6834360499026637e+00 3.0030999999998741e+01 0 0 0
562 2 0.0000000000000000e+00 4.2625770374269996e+00 3.0030999999998741e+01 0 0 0
579 2 1.2305000000000001e+00 6.3938655561404980e+00 3.0030999999998741e+01 0 0 0
581 2 2.4610000000000003e+00 5.6834360499026637e+00 3.0030999999998741e+01 0 0 0
583 2 2.4610000000000003e+00 4.2625770374269996e+00 3.0030999999998741e+01 0 0 0
608 2 3.6914999999999996e+00 6.3938655561404980e+00 3.0030999999998741e+01 0 0 0
577 2 1.2305000000000001e+00 7.8147245686161639e+00 3.0030999999998741e+01 0 0 0
606 2 3.6914999999999996e+00 7.8147245686161639e+00 3.0030999999998741e+01 0 0 0
887 2 0.0000000000000000e+00 4.2625770374269996e+00 3.3205346308824396e+01 0 0 0
888 2 1.2305000000000001e+00 4.9730065436648339e+00 3.3205346308824396e+01 0 0 0
896 2 1.2305000000000001e+00 6.3938655561404980e+00 3.3205346308824396e+01 0 0 0
898 2 2.4610000000000003e+00 4.2625770374269996e+00 3.3205346308824396e+01 0 0 0
899 2 3.6914999999999996e+00 4.9730065436648339e+00 3.3205346308824396e+01 0 0 0
911 2 3.6914999999999996e+00 6.3938655561404980e+00 3.3205346308824396e+01 0 0 0
886 2 0.0000000000000000e+00 7.1042950623783341e+00 3.3205346308824396e+01 0 0 0
897 2 2.4610000000000003e+00 7.1042950623783341e+00 3.3205346308824396e+01 0 0 0
610 2 4.9220000000000006e+00 5.6834360499026637e+00 3.0030999999998741e+01 0 0 0
612 2 4.9220000000000006e+00 4.2625770374269978e+00 3.0030999999998741e+01 0 0 0
645 2 6.1524999999999999e+00 6.3938655561404980e+00 3.0030999999998741e+01 0 0 0
647 2 7.3829999999999991e+00 5.6834360499026637e+00 3.0030999999998741e+01 0 0 0
649 2 7.3829999999999991e+00 4.2625770374269996e+00 3.0030999999998741e+01 0 0 0
643 2 6.1524999999999999e+00 7.8147245686161639e+00 3.0030999999998741e+01 0 0 0
913 2 4.9220000000000006e+00 4.2625770374269978e+00 3.3205346308824396e+01 0 0 0
914 2 6.1524999999999999e+00 4.9730065436648339e+00 3.3205346308824396e+01 0 0 0
930 2 6.1524999999999999e+00 6.3938655561404980e+00 3.3205346308824396e+01 0 0 0
932 2 7.3829999999999991e+00 4.2625770374269996e+00 3.3205346308824396e+01 0 0 0
912 2 4.9220000000000006e+00 7.1042950623783341e+00 3.3205346308824396e+01 0 0 0
931 2 7.3830000000000009e+00 7.1042950623783341e+00 3.3205346308824396e+01 0 0 0
690 2 8.6135000000000002e+00 6.3938655561404980e+00 3.0030999999998741e+01 0 0 0
692 2 9.8440000000000012e+00 5.6834360499026637e+00 3.0030999999998741e+01 0 0 0
694 2 9.8440000000000012e+00 4.2625770374270004e+00 3.0030999999998741e+01 0 0 0
737 2 1.1074500000000002e+01 6.3938655561404980e+00 3.0030999999998741e+01 0 0 0
688 2 8.6135000000000002e+00 7.8147245686161639e+00 3.0030999999998741e+01 0 0 0
735 2 1.1074500000000002e+01 7.8147245686161639e+00 3.0030999999998741e+01 0 0 0
933 2 8.6135000000000002e+00 4.9730065436648339e+00 3.3205346308824396e+01 0 0 0
953 2 8.6135000000000002e+00 6.3938655561404980e+00 3.3205346308824396e+01 0 0 0
955 2 9.8440000000000012e+00 4.2625770374270004e+00 3.3205346308824396e+01 0 0 0
956 2 1.1074500000000002e+01 4.9730065436648339e+00 3.3205346308824396e+01 0 0 0
977 2 1.1074500000000002e+01 6.3938655561404980e+00 3.3205346308824396e+01 0 0 0
954 2 9.8440000000000012e+00 7.1042950623783341e+00 3.3205346308824396e+01 0 0 0
573 2 0.0000000000000000e+00 9.9460130873296642e+00 3.0030999999998741e+01 0 0 0
575 2 0.0000000000000000e+00 8.5251540748539991e+00 3.0030999999998741e+01 0 0 0
602 2 2.4610000000000003e+00 9.9460130873296642e+00 3.0030999999998741e+01 0 0 0
604 2 2.4610000000000003e+00 8.5251540748539991e+00 3.0030999999998741e+01 0 0 0
598 2 1.2305000000000001e+00 1.2077301606043163e+01 3.0030999999998741e+01 0 0 0
600 2 1.2305000000000001e+00 1.0656442593567498e+01 3.0030999999998741e+01 0 0 0
635 2 3.6914999999999996e+00 1.2077301606043163e+01 3.0030999999998741e+01 0 0 0
637 2 3.6914999999999996e+00 1.0656442593567499e+01 3.0030999999998741e+01 0 0 0
894 2 0.0000000000000000e+00 8.5251540748539991e+00 3.3205346308824396e+01 0 0 0
895 2 1.2305000000000001e+00 9.2355835810918343e+00 3.3205346308824396e+01 0 0 0
909 2 2.4610000000000003e+00 8.5251540748539991e+00 3.3205346308824396e+01 0 0 0
910 2 3.6915000000000004e+00 9.2355835810918343e+00 3.3205346308824396e+01 0 0 0
893 2 0.0000000000000000e+00 1.1366872099805333e+01 3.3205346308824396e+01 0 0 0
907 2 1.2305000000000001e+00 1.0656442593567498e+01 3.3205346308824396e+01 0 0 0
908 2 2.4610000000000003e+00 1.1366872099805333e+01 3.3205346308824396e+01 0 0 0
926 2 3.6914999999999996e+00 1.0656442593567499e+01 3.3205346308824396e+01 0 0 0
639 2 4.9220000000000006e+00 9.9460130873296642e+00 3.0030999999998741e+01 0 0 0
641 2 4.9220000000000006e+00 8.5251540748539991e+00 3.0030999999998741e+01 0 0 0
684 2 7.3830000000000009e+00 9.9460130873296642e+00 3.0030999999998741e+01 0 0 0
686 2 7.3830000000000009e+00 8.5251540748539991e+00 3.0030999999998741e+01 0 0 0
680 2 6.1524999999999999e+00 1.2077301606043163e+01 3.0030999999998741e+01 0 0 0
682 2 6.1524999999999999e+00 1.0656442593567499e+01 3.0030999999998741e+01 0 0 0
928 2 4.9220000000000006e+00 8.5251540748539991e+00 3.3205346308824396e+01 0 0 0
929 2 6.1524999999999999e+00 9.2355835810918343e+00 3.3205346308824396e+01 0 0 0
951 2 7.3830000000000009e+00 8.5251540748539991e+00 3.3205346308824396e+01 0 0 0
927 2 4.9220000000000006e+00 1.1366872099805333e+01 3.3205346308824396e+01 0 0 0
949 2 6.1524999999999999e+00 1.0656442593567499e+01 3.3205346308824396e+01 0 0 0
950 2 7.3829999999999991e+00 1.1366872099805333e+01 3.3205346308824396e+01 0 0 0
731 2 9.8440000000000012e+00 9.9460130873296642e+00 3.0030999999998741e+01 0 0 0
733 2 9.8440000000000012e+00 8.5251540748539956e+00 3.0030999999998741e+01 0 0 0
727 2 8.6135000000000002e+00 1.2077301606043163e+01 3.0030999999998741e+01 0 0 0
729 2 8.6134999999999984e+00 1.0656442593567498e+01 3.0030999999998741e+01 0 0 0
774 2 1.1074500000000002e+01 1.2077301606043163e+01 3.0030999999998741e+01 0 0 0
776 2 1.1074500000000002e+01 1.0656442593567498e+01 3.0030999999998741e+01 0 0 0
952 2 8.6134999999999984e+00 9.2355835810918343e+00 3.3205346308824396e+01 0 0 0
975 2 9.8440000000000012e+00 8.5251540748539956e+00 3.3205346308824396e+01 0 0 0
976 2 1.1074500000000002e+01 9.2355835810918343e+00 3.3205346308824396e+01 0 0 0
973 2 8.6134999999999984e+00 1.0656442593567498e+01 3.3205346308824396e+01 0 0 0
974 2 9.8440000000000012e+00 1.1366872099805333e+01 3.3205346308824396e+01 0 0 0
997 2 1.1074500000000002e+01 1.0656442593567498e+01 3.3205346308824396e+01 0 0 0
998 2 1.2304999999999998e+01 1.1366872099805333e+01 3.3205346308824396e+01 0 0 0
4688 1 2.7116184411049500e+00 4.6761850876183342e+00 3.5987694677726026e+01 0 2 -1
4511 1 1.9566974735137865e+00 1.8590432623786148e+00 3.5606158576666687e+01 1 1 0
3134 1 1.1176931041918941e+01 9.0965735977174091e+00 3.5565585339417567e+01 0 1 0
1882 1 9.0055337348383180e-01 6.9987082104867619e+00 3.6173532991806162e+01 1 0 -1
4843 1 1.1070510968056603e+01 3.1666217746766900e+00 3.5290184346201379e+01 0 0 -1
2114 1 1.1533085919405448e+01 1.1672404742090874e+01 3.6353110128969284e+01 0 1 0
6269 1 1.3281694851532158e+00 9.6426175016244500e+00 3.5582863393661128e+01 0 1 0
1804 1 6.2777933360514675e+00 1.3354316674500228e+00 3.5735269006370729e+01 1 0 0
4626 1 8.7385830486614875e+00 8.0840003332300476e+00 3.6499773425238644e+01 1 1 -1
5119 1 6.1522881259721300e+00 8.2537337052580213e+00 3.5708874867478805e+01 1 0 -1
1921 1 6.8936639108447908e+00 3.8181714479505993e+00 3.6631966224689762e+01 0 1 -1
3494 1 9.1572149143995052e+00 5.1726252279783376e+00 3.6152958112391623e+01 0 0 -1
2135 1 4.4147214368857695e+00 1.0704812964648371e+01 3.5799387848995536e+01 1 1 0
3199 1 5.0297019658716922e+00 5.7437464118590169e+00 3.6874575078607172e+01 1 1 0
3311 1 1.1207020047977508e+01 5.8300473461807301e-01 3.5845659240285464e+01 0 0 -1
3698 1 3.9955328699138040e+00 1.9205955565633231e-01 3.6783410440373430e+01 1 0 0
3557 1 1.4516742084025871e+00 3.9651077928553655e+00 3.8460563259674927e+01 0 0 -1
4427 1 4.7174239835913223e+00 1.6470967772747607e+00 3.9580716344447886e+01 1 0 0
3538 1 7.0339851108851059e+00 3.5801227428130193e+00 3.9560964931582184e+01 0 1 -1
3270 1 9.9613486101734008e+00 3.9815599786052087e+00 3.8664773684491301e+01 1 0 -1
6146 1 8.1779139677418371e+00 8.1822018558240242e+00 4.2710528516480061e+01 0 0 0
3712 1 1.2634554289698305e+00 6.4682895423325988e+00 3.9717400975579395e+01 0 0 0
2948 1 4.1817726321049360e+00 6.6397664803288245e+00 3.9283889275454577e+01 1 1 0
6167 1 1.1629497522601730e+01 5.0446126754628802e+00 4.1006109942371779e+01 0 0 -1
5238 1 1.1746723598403767e+01 1.0955154704465096e+01 4.1889839953636802e+01 1 0 0
3251 1 5.0185656879520941e+00 9.4235406114745537e+00 3.8447520279058637e+01 1 0 -1
6099 1 9.0480840494098764e+00 8.9581498265568751e+00 3.9128980130081729e+01 1 0 0
6293 1 6.9918585276206064e+00 1.1241157751910819e+01 3.9475420044172608e+01 1 1 0
5216 1 1.1608137349208409e+01 1.0407079210491544e+01 3.9020061068331906e+01 0 0 0
1335 1 7.8414955310650134e+00 1.0912328098755623e+01 4.2190750435488205e+01 0 0 0
4461 1 2.0282700780576133e+00 2.4927753813822848e+00 4.2521055340249852e+01 1 1 0
4720 1 5.0119449316081406e+00 2.0828302430455894e+00 4.2733640076173437e+01 1 2 0
1876 1 5.6071979688261289e+00 4.6938502781143843e+00 4.3758111531265378e+01 0 1 -1
1444 1 3.4906507523287971e+00 1.0621445365031519e+01 4.0642779568557977e+01 1 0 0
4951 1 1.0481068320973797e+01 3.0611067169859680e+00 4.2639313620091983e+01 0 1 -1
1689 1 8.0212062017832952e+00 2.0257633972734799e+00 4.1738421861911021e+01 0 0 -1
4533 1 8.3426682522639783e-01 5.1219896970442731e+00 4.2131763060156466e+01 -1 0 0
4424 1 4.9905061002423663e+00 1.1063206943258180e+01 4.2791927273158308e+01 0 0 0
3045 1 1.0960067285814361e+01 8.7945816531578309e+00 4.3144389686717915e+01 0 1 0
5231 1 6.3847139579171790e+00 6.0151294616819024e+00 4.0977215844019938e+01 0 1 0
2826 1 8.9978813016867765e+00 6.5071063415113874e+00 4.0255206945007735e+01 1 0 0
5282 1 1.6911326760446761e+00 8.6642560797826604e+00 4.1318315510616209e+01 1 1 0
3530 1 1.1104070368996275e+01 1.3716380714275844e+00 3.8918956530524163e+01 1 1 -1
3692 1 1.9976933482755423e+00 1.1329753991249212e+00 4.0158661220874237e+01 0 0 0
4947 1 1.6953155874988191e+00 3.4812963534665200e+00 4.6145476687272591e+01 0 1 0
33 1 1.0478713785708413e+01 2.0908942051163661e+00 4.6943502777389448e+01 0 0 -1
6177 1 1.0212844262909636e+01 4.1043066123674619e+00 4.5379297928879524e+01 1 0 0
1832 1 1.0370572676486465e+00 1.1192136954408417e+01 4.9743200168395525e+01 1 0 -1
1583 1 3.0649827515876025e+00 6.0968365680947620e+00 4.8048464505897520e+01 0 1 0
4996 1 7.6124857973491817e+00 4.7745706192663482e+00 4.5832063536750852e+01 1 -1 -1
3040 1 7.4954942792334194e+00 7.6920887131741953e+00 4.5289304201386685e+01 0 1 0
3236 1 6.9805934799899774e+00 7.1679138238056366e+00 4.9963764769768922e+01 1 0 0
59 1 1.2097973451698691e+01 5.7252949374863062e+00 4.6197178439604137e+01 1 0 -1
6278 1 1.1693687225715896e+01 1.1994007701776333e+01 4.5897927057287532e+01 1 0 -1
6073 1 3.5129543286108400e+00 9.4937089522894258e+00 4.4340789913760126e+01 0 0 -1
5020 1 4.9831899113888030e+00 8.4056761899236925e+00 4.6237917758085004e+01 1 0 -1
6227 1 3.3118165118833445e+00 5.6115838692059032e+00 4.5157413280265835e+01 1 0 0
3184 1 4.7580899340606235e+00 1.1265747055642708e+01 4.7104816764445545e+01 1 1 0
6013 1 9.4924388955608645e+00 8.5865698226129030e+00 4.7394233566539683e+01 1 1 0
6019 1 3.2476701456397907e+00 1.9541592869521640e+00 4.7644535314803370e+01 1 0 0
4741 1 8.2455934961185910e+00 2.5363965226340222e+00 4.9724474817264493e+01 1 1 -1
3007 1 1.2620602793874758e+00 4.1159546966696259e-01 4.8984178472599922e+01 -1 0 0
4746 1 6.8132260352212137e+00 4.7209813751377245e+00 4.8382732991775661e+01 1 0 -1
5318 1 9.4580708738050117e+00 1.1308396419200076e+01 4.8236650159066912e+01 0 0 0
1324 1 1.0955908574523372e+01 2.8927328363085114e+00 4.9487210125685444e+01 0 0 0
5990 1 1.1965132691431283e+01 8.6751771846543786e+00 4.5943496451012635e+01 1 0 0
3726 1 4.5171165952095595e+00 3.8818350887200506e+00 4.9202101248977115e+01 0 0 0
6095 1 4.9190638758009806e+00 8.5766825501939117e+00 4.9268132438067184e+01 1 0 0
4809 1 2.7762013355554988e-01 1.2812321983471684e+00 4.4272542231742648e+01 1 1 -1
425 1 1.1316501959085448e+01 7.5731277297716995e+00 4.9934764780539020e+01 0 1 -1
486 1 2.1936166625581359e+00 1.1475501587543194e+01 4.5946888669615291e+01 1 0 0
1478 1 1.6975263978908470e+00 7.6372662920861787e+00 4.4004026938055809e+01 0 0 0