LAMMPS data file via write_data, version 16 Mar 2018, timestep = 6000000

6337 atoms
2 atom types

0.0000000000000000e+00 4.9219999999999999e+01 xlo xhi
0.0000000000000000e+00 4.9019635930410494e+01 ylo yhi
1.9490443541299847e+00 5.8112955645860914e+01 zlo zhi

Masses

1 18.015
2 12.01

Atoms # atomic

3196 1 3.6761152123026406e+00 2.5245477932648845e+00 5.1196401412979178e+00 1 2 1
6100 1 5.6745974453587748e-02 3.7485413820427156e+00 4.6260817727259926e+00 1 4 1
3387 1 7.5546128699298185e+00 2.1537333039041182e+00 3.4989504194289154e+00 5 4 1
5137 1 5.0023394322182986e+00 2.3118209259153373e+00 2.6330601063701340e+00 -1 -3 0
5143 1 1.1318391058517181e+01 1.1005355050878991e+00 4.7169666888117021e+00 2 4 0
2022 1 2.4647222285036485e+00 7.8694388855910464e+00 5.1784668193567658e+00 -4 -1 0
2142 1 6.2221923526177292e-01 4.1325897062581207e+00 1.9626500315162900e+00 3 0 1
1672 1 6.5464892921744200e+00 6.2550885122368198e+00 4.4752839681425876e+00 1 2 1
1800 1 4.8854947128257429e+00 6.5336685550720679e+00 2.1371607365111482e+00 6 1 0
1759 1 1.0209797328407957e+01 5.4293671513794131e+00 2.0571976860643248e+00 0 3 0
1330 1 1.0744108832203352e+01 5.6287486122806802e+00 4.6378521643483994e+00 1 0 1
1703 1 1.7936713289014306e+00 1.2047360825337405e+01 5.2547062179748334e+00 -4 0 0
6299 1 2.0398383685722949e+00 9.1735039554008786e+00 2.8354043374152500e+00 1 1 1
6130 1 1.4976214840939561e+00 1.1885648990217542e+01 2.7129100506570971e+00 0 -2 1
2825 1 5.4104901954936357e+00 1.1143298113403404e+01 4.8037647095446818e+00 0 0 1
3446 1 5.0263189826362655e+00 1.1395365310152759e+01 2.0023657960814121e+00 1 2 0
318 1 9.6360136141635682e+00 9.8737335523685328e+00 4.9145122620676664e+00 2 2 0
5135 1 9.2013068912232399e+00 9.4584423396482631e+00 2.2366792160958568e+00 2 -2 0
2951 1 3.3283458475337131e+00 1.8794779040886311e-01 6.2195226282136451e+00 1 1 0
3613 1 3.0818601192238635e+00 5.7648132099389215e-01 8.7753193845490891e+00 2 1 0
4628 1 5.6819190744725514e+00 4.0439655252027196e+00 8.8855633832270531e+00 4 -1 1
4811 1 9.5080392253603190e+00 2.8758737426032739e+00 8.1824740398926359e+00 -3 0 0
2005 1 9.5547690955919791e+00 3.0827527136277300e+00 5.4677935523585743e+00 1 1 0
3713 1 1.7555102077619231e+00 5.4011415488712604e+00 8.4219452774148564e+00 1 0 1
448 1 2.2278711170514849e+00 5.1085574491963852e+00 5.8223866294459938e+00 0 1 0
1621 1 5.1151317714758537e+00 4.5776874791658910e+00 6.4294242144985274e+00 1 1 0
3405 1 8.8926015529965312e+00 7.0658160902527971e+00 8.5215795208439999e+00 1 3 1
552 1 8.8530184353837313e+00 7.3583976557984476e+00 5.8992528480894784e+00 -1 -1 0
96 1 8.6017396695403781e-01 9.8952610050883312e+00 6.1923081772639179e+00 -1 2 0
3074 1 1.1180834139181606e+00 9.7750945157579814e+00 8.9388180769116943e+00 0 5 1
139 1 7.5891546922396786e+00 1.1820990021391841e+01 5.7651835797694639e+00 -1 2 0
3704 1 5.1851839269166735e+00 8.2963358976506267e+00 5.8604734779286654e+00 0 1 1
5189 1 7.7767908363199538e+00 1.1480710228358490e+01 8.4582814560924415e+00 1 -2 0
5127 1 4.9661195517252192e+00 8.5461689361649658e+00 8.5491874454647281e+00 1 0 0
3231 1 1.2031261352393647e+01 1.0483942785764489e+01 8.5138474237556014e+00 -1 1 0
4445 1 1.2138006738236664e+01 1.0625557493455641e+01 5.7636174432636373e+00 1 -1 1
1458 1 1.4634368088337548e+00 2.7331797879017832e+00 9.6049310267113874e+00 1 2 1
2955 1 1.5049033094105038e+00 2.9008720509011856e+00 1.2427541070878148e+01 -1 1 1
1545 1 5.4721313929634761e+00 1.4048983820363652e+00 9.4967509198201725e+00 0 0 1
2035 1 5.0552895469901014e+00 1.6784017829596278e+00 1.2310034749631455e+01 4 -1 0
5150 1 8.8885269599279777e+00 2.0484809480719535e-01 1.1917712356812620e+01 -1 3 0
1417 1 1.2152760728693025e+01 3.3825314734460123e+00 9.2952045008911046e+00 2 2 1
6289 1 1.2224562962828770e+01 3.6041559677084929e+00 1.2174262042380008e+01 1 2 1
3482 1 9.0030826894082168e+00 4.5078041478150849e-01 9.3027635460447087e+00 -1 2 0
4601 1 4.0869298141331329e+00 6.0679780273357729e+00 9.6839096460128005e+00 2 1 1
148 1 3.1915128811316534e-01 7.1805954531050959e+00 9.6038741989425560e+00 3 0 0
1697 1 4.0713248115933043e+00 6.1034298739979835e+00 1.2375928386777794e+01 2 2 1
5188 1 5.1765283729887646e-01 7.0933103032728644e+00 1.2458743217261544e+01 -1 1 0
417 1 8.0464142650984041e+00 4.5868515782162040e+00 9.4842490610630676e+00 -1 2 0
1311 1 8.1530879290363405e+00 4.6077569250311550e+00 1.2335357260051296e+01 2 0 1
5977 1 1.1463402434243815e+01 8.0589438737243135e+00 1.2302936513577116e+01 2 -1 1
4458 1 1.1297308874879571e+01 8.1110289557631408e+00 9.5472880365058934e+00 4 -1 0
4852 1 3.5769569248616673e+00 1.0556376444971974e+01 9.6577610872539346e+00 1 -3 0
3463 1 7.3309141118065462e+00 9.0258167973059145e+00 9.6394004504455459e+00 -3 1 0
3262 1 1.0299376893097003e+01 1.2023459839409581e+01 9.6674295786849633e+00 2 2 1
5118 1 3.7864915627178961e+00 3.6240042500739000e+00 1.3606501473428548e+01 -2 -2 0
40 1 7.1779962123481478e-01 1.8857536876540934e-01 1.3286871492007418e+01 0 2 0
1247 1 7.5861243269552352e+00 2.0927107598649530e+00 1.3245683945142080e+01 0 -1 1
3015 1 1.1437722574265509e+01 1.1067420416618166e+00 1.3211976429287114e+01 1 1 0
4557 1 2.6581940983929893e+00 8.0262057215739215e+00 1.3286073949301661e+01 -1 -1 1
6096 1 6.6042313863117972e+00 6.5227542195150816e+00 1.3134500726000296e+01 -1 -4 1
1856 1 1.0634937173309426e+01 5.6944222473238009e+00 1.3293473848882970e+01 0 1 0
2097 1 3.6136316170671416e+00 1.0462235029049889e+01 1.2543988658603645e+01 1 2 1
5200 1 6.0528193864894426e+00 1.1151832046125431e+01 1.3654025036009045e+01 -1 -2 0
401 1 7.3052953310348814e+00 8.9247662436157320e+00 1.2560469201077590e+01 -1 3 1
3612 1 9.5973153681482941e+00 9.7004330989924696e+00 1.3530116618353260e+01 -1 4 0
6013 1 1.0433354824951106e+01 1.2129433672073732e+01 1.2510829160926166e+01 -1 0 1
2010 1 1.2019791254994501e+00 2.4142590079624924e+00 1.7017276837003898e+01 -1 -2 0
5056 1 3.6667115194756934e+00 3.3987900020826318e+00 1.6332769043609762e+01 1 0 1
3715 1 8.7521069152880882e-01 1.6457564086280740e-03 1.6362355956641490e+01 2 0 1
265 1 5.3793057907806325e+00 1.5539242268150602e+00 1.7235192563814934e+01 2 1 0
1662 1 7.6573866489656934e+00 1.9128694489564053e+00 1.6108331746357337e+01 0 1 0
3157 1 1.1607515088004586e+01 6.9792756676802248e-01 1.6079819866669208e+01 0 3 1
4464 1 3.8214892551771396e-01 7.0394476770287824e+00 1.7187388495820187e+01 3 2 1
4969 1 2.8324725876868819e+00 7.7228598979456722e+00 1.6075382813403969e+01 -1 -1 1
1583 1 4.3172980554929064e+00 5.7813620101330034e+00 1.7144793747051757e+01 2 1 1
1881 1 6.5989809803078936e+00 6.7365158302940520e+00 1.6106953248000224e+01 2 3 1
514 1 1.0581909414697771e+01 5.0999681324546300e+00 1.6086341674086910e+01 0 -3 1
416 1 8.3021300567814276e+00 4.3614913127095969e+00 1.7303700592913515e+01 -4 2 0
3441 1 1.1096420003407776e+01 7.4293651278002093e+00 1.7079142621834798e+01 2 0 0
1553 1 3.0996839730168850e+00 1.0337647704751586e+01 1.7097164260133603e+01 0 -3 0
4858 1 7.5563818723751446e+00 8.9234994269816621e+00 1.7631676276890950e+01 -4 0 0
5295 1 5.7921652097598484e+00 1.0714572999414019e+01 1.6539826852825598e+01 1 1 1
1625 1 9.8355575903901542e+00 9.5375450261117400e+00 1.6198578367087379e+01 1 0 0
3675 1 1.0269975392255208e+01 1.2233798730170500e+01 1.6854694645376078e+01 1 0 1
4925 1 3.1357102808662756e+00 3.4830576962337961e-01 2.0859815780454898e+01 -4 1 0
6047 1 1.5578340899544529e+00 2.3361873540638598e+00 1.9816923402446896e+01 2 -1 1
3736 1 5.2495126848503553e+00 1.7468935740103555e+00 1.9773433019635622e+01 0 0 1
4572 1 5.8572013148157662e+00 4.0769580039608027e+00 2.0985696747743571e+01 -2 -1 0
3386 1 1.0179520512928086e+01 2.6831845934831451e+00 2.0686546206253325e+01 -1 -2 0
2842 1 9.2311952638896884e+00 1.0370912984893028e-01 1.9967504458475553e+01 0 -1 1
1830 1 6.0387791548483380e-02 6.9564800714491746e+00 2.0002709691168246e+01 1 2 1
3166 1 1.8256860508244672e+00 5.1721196891951573e+00 2.0937277637697925e+01 -1 4 1
6295 1 4.3303885715392685e+00 6.0392691014379949e+00 1.9977983623495081e+01 1 -1 1
2837 1 1.1723864518787439e+01 7.6062147218002183e+00 1.9914476659394950e+01 3 2 1
6120 1 8.3682339707502003e+00 4.5950141803222593e+00 2.0043020587766570e+01 0 1 0
4673 1 9.1657038675608185e+00 6.9338028368003117e+00 2.1111264340768848e+01 -1 2 1
1686 1 9.3975518678587611e-01 9.3598500288149804e+00 2.1246769448174689e+01 -1 0 0
1751 1 3.1879588908303123e+00 1.0151035275606251e+01 2.0158531445472555e+01 -3 0 0
6069 1 7.5583873628279594e+00 9.0469023369350872e+00 2.0432108733247226e+01 -1 2 0
3614 1 5.0192755360152477e+00 8.3795008966062134e+00 2.1256477252714802e+01 1 1 0
2023 1 8.3580259102577195e+00 1.1501015446542374e+01 2.0670344047787111e+01 0 2 0
3081 1 1.0780379645612454e+01 1.2139218865603615e+01 1.9508534814206133e+01 1 4 0
379 1 3.8862713429182092e+00 3.1813473508358712e+00 2.4587526092227424e+01 -3 0 0
1924 1 3.2597660196867531e+00 5.9474381084999373e-01 2.3406167347742880e+01 0 1 0
1611 1 7.8197760228732180e+00 1.6668964639176189e+00 2.4487635292078895e+01 1 -1 1
4463 1 6.2877286945692621e+00 3.7282820167530697e+00 2.3556633972329763e+01 -2 0 0
1354 1 1.0238689506732740e+01 2.4671389694633437e+00 2.3466845578122868e+01 3 0 1
6147 1 1.2026058863302165e+01 5.7075408474139300e-01 2.4254498156179849e+01 2 1 1
5984 1 3.1115819427274145e+00 7.6831486427841806e+00 2.4691719970994392e+01 -2 1 1
113 1 2.1746790832748912e+00 5.2145062238338227e+00 2.3742364809225048e+01 0 0 1
3247 1 7.1005817416302559e+00 5.9949407882782362e+00 2.4518316798182052e+01 2 -5 1
1255 1 9.5755939096024427e+00 6.7934906504635313e+00 2.3859182279554766e+01 -2 1 0
3616 1 1.1198921149654657e+01 4.7653030613009877e+00 2.4475949527210531e+01 -1 1 1
5300 1 1.3030082162406176e+00 9.4903891354656107e+00 2.3965597541570997e+01 1 1 1
3334 1 1.4980485688363283e+00 1.2140455692070436e+01 2.4478224565020454e+01 -3 1 0
3236 1 5.5512513406749635e+00 8.3170858011365105e+00 2.4056021933418705e+01 1 0 1
5966 1 5.7927622443341411e+00 1.0965983238110212e+01 2.4069518621047600e+01 0 -1 1
4583 1 8.2628593650080173e+00 1.1473871295334497e+01 2.3220820641952375e+01 -2 3 1
3439 1 9.8663505002247991e+00 9.2653922385321312e+00 2.4342242699855820e+01 1 0 0
4710 1 1.2230911043570838e+01 1.0482299344782435e+01 2.3481724002308752e+01 0 -1 0
554 2 0.0000000000000000e+00 2.8417180249513345e+00 2.6796693829604887e+01 0 0 0
556 2 0.0000000000000000e+00 0.0000000000000000e+00 2.6796693829604887e+01 0 0 0
558 2 1.2305000000000001e+00 7.1042950623783474e-01 2.6796693829604887e+01 0 0 0
565 2 1.2305000000000001e+00 2.1312885187134998e+00 2.6796693829604887e+01 0 0 0
567 2 2.4610000000000003e+00 2.8417180249513345e+00 2.6796693829604887e+01 0 0 0
569 2 2.4610000000000003e+00 0.0000000000000000e+00 2.6796693829604887e+01 0 0 0
571 2 3.6915000000000004e+00 7.1042950623783474e-01 2.6796693829604887e+01 0 0 0
586 2 3.6914999999999996e+00 2.1312885187134998e+00 2.6796693829604887e+01 0 0 0
588 2 4.9220000000000006e+00 2.8417180249513332e+00 2.6796693829604887e+01 0 0 0
590 2 4.9220000000000006e+00 0.0000000000000000e+00 2.6796693829604887e+01 0 0 0
592 2 6.1524999999999999e+00 7.1042950623783407e-01 2.6796693829604887e+01 0 0 0
615 2 6.1524999999999999e+00 2.1312885187134989e+00 2.6796693829604887e+01 0 0 0
617 2 7.3829999999999991e+00 2.8417180249513345e+00 2.6796693829604887e+01 0 0 0
619 2 7.3829999999999991e+00 0.0000000000000000e+00 2.6796693829604887e+01 0 0 0
621 2 8.6134999999999984e+00 7.1042950623783407e-01 2.6796693829604887e+01 0 0 0
652 2 8.6134999999999984e+00 2.1312885187135002e+00 2.6796693829604887e+01 0 0 0
654 2 9.8440000000000012e+00 2.8417180249513332e+00 2.6796693829604887e+01 0 0 0
656 2 9.8440000000000012e+00 0.0000000000000000e+00 2.6796693829604887e+01 0 0 0
658 2 1.1074500000000002e+01 7.1042950623783330e-01 2.6796693829604887e+01 0 0 0
697 2 1.1074500000000002e+01 2.1312885187135002e+00 2.6796693829604887e+01 0 0 0
561 2 0.0000000000000000e+00 4.2625770374269996e+00 2.6796693829604887e+01 0 0 0
563 2 1.2305000000000001e+00 4.9730065436648339e+00 2.6796693829604887e+01 0 0 0
578 2 1.2305000000000001e+00 6.3938655561404980e+00 2.6796693829604887e+01 0 0 0
582 2 2.4610000000000003e+00 4.2625770374269996e+00 2.6796693829604887e+01 0 0 0
584 2 3.6914999999999996e+00 4.9730065436648339e+00 2.6796693829604887e+01 0 0 0
607 2 3.6914999999999996e+00 6.3938655561404980e+00 2.6796693829604887e+01 0 0 0
559 2 0.0000000000000000e+00 7.1042950623783341e+00 2.6796693829604887e+01 0 0 0
580 2 2.4610000000000003e+00 7.1042950623783341e+00 2.6796693829604887e+01 0 0 0
611 2 4.9220000000000006e+00 4.2625770374269978e+00 2.6796693829604887e+01 0 0 0
613 2 6.1524999999999999e+00 4.9730065436648339e+00 2.6796693829604887e+01 0 0 0
644 2 6.1524999999999999e+00 6.3938655561404980e+00 2.6796693829604887e+01 0 0 0
648 2 7.3829999999999991e+00 4.2625770374269996e+00 2.6796693829604887e+01 0 0 0
609 2 4.9220000000000006e+00 7.1042950623783341e+00 2.6796693829604887e+01 0 0 0
646 2 7.3830000000000009e+00 7.1042950623783341e+00 2.6796693829604887e+01 0 0 0
650 2 8.6135000000000002e+00 4.9730065436648339e+00 2.6796693829604887e+01 0 0 0
689 2 8.6135000000000002e+00 6.3938655561404980e+00 2.6796693829604887e+01 0 0 0
693 2 9.8440000000000012e+00 4.2625770374270004e+00 2.6796693829604887e+01 0 0 0
695 2 1.1074500000000002e+01 4.9730065436648339e+00 2.6796693829604887e+01 0 0 0
736 2 1.1074500000000002e+01 6.3938655561404980e+00 2.6796693829604887e+01 0 0 0
691 2 9.8440000000000012e+00 7.1042950623783341e+00 2.6796693829604887e+01 0 0 0
574 2 0.0000000000000000e+00 8.5251540748539991e+00 2.6796693829604887e+01 0 0 0
576 2 1.2305000000000001e+00 9.2355835810918343e+00 2.6796693829604887e+01 0 0 0
603 2 2.4610000000000003e+00 8.5251540748539991e+00 2.6796693829604887e+01 0 0 0
605 2 3.6915000000000004e+00 9.2355835810918343e+00 2.6796693829604887e+01 0 0 0
572 2 0.0000000000000000e+00 1.1366872099805333e+01 2.6796693829604887e+01 0 0 0
599 2 1.2305000000000001e+00 1.0656442593567498e+01 2.6796693829604887e+01 0 0 0
601 2 2.4610000000000003e+00 1.1366872099805333e+01 2.6796693829604887e+01 0 0 0
636 2 3.6914999999999996e+00 1.0656442593567499e+01 2.6796693829604887e+01 0 0 0
638 2 4.9220000000000006e+00 1.1366872099805333e+01 2.6796693829604887e+01 0 0 0
681 2 6.1524999999999999e+00 1.0656442593567499e+01 2.6796693829604887e+01 0 0 0
683 2 7.3829999999999991e+00 1.1366872099805333e+01 2.6796693829604887e+01 0 0 0
642 2 6.1524999999999999e+00 9.2355835810918343e+00 2.6796693829604887e+01 0 0 0
640 2 4.9220000000000006e+00 8.5251540748539991e+00 2.6796693829604887e+01 0 0 0
685 2 7.3830000000000009e+00 8.5251540748539991e+00 2.6796693829604887e+01 0 0 0
775 2 1.1074500000000002e+01 1.0656442593567498e+01 2.6796693829604887e+01 0 0 0
732 2 9.8440000000000012e+00 8.5251540748539956e+00 2.6796693829604887e+01 0 0 0
730 2 9.8440000000000012e+00 1.1366872099805333e+01 2.6796693829604887e+01 0 0 0
777 2 1.2304999999999998e+01 1.1366872099805333e+01 2.6796693829604887e+01 0 0 0
687 2 8.6134999999999984e+00 9.2355835810918343e+00 2.6796693829604887e+01 0 0 0
734 2 1.1074500000000002e+01 9.2355835810918343e+00 2.6796693829604887e+01 0 0 0
728 2 8.6134999999999984e+00 1.0656442593567498e+01 2.6796693829604887e+01 0 0 0
555 2 0.0000000000000000e+00 1.4208590124756650e+00 3.0030999999995490e+01 0 0 0
557 2 0.0000000000000000e+00 0.0000000000000000e+00 3.0030999999995490e+01 0 0 0
566 2 1.2305000000000001e+00 2.1312885187134998e+00 3.0030999999995490e+01 0 0 0
568 2 2.4610000000000003e+00 1.4208590124756650e+00 3.0030999999995490e+01 0 0 0
570 2 2.4610000000000003e+00 0.0000000000000000e+00 3.0030999999995490e+01 0 0 0
587 2 3.6914999999999996e+00 2.1312885187134998e+00 3.0030999999995490e+01 0 0 0
564 2 1.2305000000000001e+00 3.5521475311891644e+00 3.0030999999995490e+01 0 0 0
585 2 3.6914999999999996e+00 3.5521475311891644e+00 3.0030999999995490e+01 0 0 0
883 2 0.0000000000000000e+00 2.8417180249513345e+00 3.3265306170388754e+01 0 0 0
884 2 0.0000000000000000e+00 0.0000000000000000e+00 3.3265306170388754e+01 0 0 0
885 2 1.2305000000000001e+00 7.1042950623783474e-01 3.3265306170388754e+01 0 0 0
889 2 1.2305000000000001e+00 2.1312885187134998e+00 3.3265306170388754e+01 0 0 0
890 2 2.4610000000000003e+00 2.8417180249513345e+00 3.3265306170388754e+01 0 0 0
891 2 2.4610000000000003e+00 0.0000000000000000e+00 3.3265306170388754e+01 0 0 0
892 2 3.6915000000000004e+00 7.1042950623783474e-01 3.3265306170388754e+01 0 0 0
900 2 3.6914999999999996e+00 2.1312885187134998e+00 3.3265306170388754e+01 0 0 0
589 2 4.9220000000000006e+00 1.4208590124756650e+00 3.0030999999995490e+01 0 0 0
591 2 4.9220000000000006e+00 0.0000000000000000e+00 3.0030999999995490e+01 0 0 0
616 2 6.1524999999999999e+00 2.1312885187134989e+00 3.0030999999995490e+01 0 0 0
618 2 7.3829999999999991e+00 1.4208590124756659e+00 3.0030999999995490e+01 0 0 0
620 2 7.3829999999999991e+00 0.0000000000000000e+00 3.0030999999995490e+01 0 0 0
614 2 6.1524999999999999e+00 3.5521475311891644e+00 3.0030999999995490e+01 0 0 0
901 2 4.9220000000000006e+00 2.8417180249513332e+00 3.3265306170388754e+01 0 0 0
902 2 4.9220000000000006e+00 0.0000000000000000e+00 3.3265306170388754e+01 0 0 0
903 2 6.1524999999999999e+00 7.1042950623783407e-01 3.3265306170388754e+01 0 0 0
915 2 6.1524999999999999e+00 2.1312885187134989e+00 3.3265306170388754e+01 0 0 0
916 2 7.3829999999999991e+00 2.8417180249513345e+00 3.3265306170388754e+01 0 0 0
917 2 7.3829999999999991e+00 0.0000000000000000e+00 3.3265306170388754e+01 0 0 0
653 2 8.6134999999999984e+00 2.1312885187135002e+00 3.0030999999995490e+01 0 0 0
655 2 9.8440000000000012e+00 1.4208590124756659e+00 3.0030999999995490e+01 0 0 0
657 2 9.8440000000000012e+00 0.0000000000000000e+00 3.0030999999995490e+01 0 0 0
698 2 1.1074500000000002e+01 2.1312885187135002e+00 3.0030999999995490e+01 0 0 0
651 2 8.6134999999999984e+00 3.5521475311891657e+00 3.0030999999995490e+01 0 0 0
696 2 1.1074500000000002e+01 3.5521475311891644e+00 3.0030999999995490e+01 0 0 0
918 2 8.6134999999999984e+00 7.1042950623783407e-01 3.3265306170388754e+01 0 0 0
934 2 8.6134999999999984e+00 2.1312885187135002e+00 3.3265306170388754e+01 0 0 0
935 2 9.8440000000000012e+00 2.8417180249513332e+00 3.3265306170388754e+01 0 0 0
936 2 9.8440000000000012e+00 0.0000000000000000e+00 3.3265306170388754e+01 0 0 0
937 2 1.1074500000000002e+01 7.1042950623783330e-01 3.3265306170388754e+01 0 0 0
957 2 1.1074500000000002e+01 2.1312885187135002e+00 3.3265306170388754e+01 0 0 0
560 2 0.0000000000000000e+00 5.6834360499026637e+00 3.0030999999995490e+01 0 0 0
562 2 0.0000000000000000e+00 4.2625770374269996e+00 3.0030999999995490e+01 0 0 0
579 2 1.2305000000000001e+00 6.3938655561404980e+00 3.0030999999995490e+01 0 0 0
581 2 2.4610000000000003e+00 5.6834360499026637e+00 3.0030999999995490e+01 0 0 0
583 2 2.4610000000000003e+00 4.2625770374269996e+00 3.0030999999995490e+01 0 0 0
608 2 3.6914999999999996e+00 6.3938655561404980e+00 3.0030999999995490e+01 0 0 0
577 2 1.2305000000000001e+00 7.8147245686161639e+00 3.0030999999995490e+01 0 0 0
606 2 3.6914999999999996e+00 7.8147245686161639e+00 3.0030999999995490e+01 0 0 0
887 2 0.0000000000000000e+00 4.2625770374269996e+00 3.3265306170388754e+01 0 0 0
888 2 1.2305000000000001e+00 4.9730065436648339e+00 3.3265306170388754e+01 0 0 0
896 2 1.2305000000000001e+00 6.3938655561404980e+00 3.3265306170388754e+01 0 0 0
898 2 2.4610000000000003e+00 4.2625770374269996e+00 3.3265306170388754e+01 0 0 0
899 2 3.6914999999999996e+00 4.9730065436648339e+00 3.3265306170388754e+01 0 0 0
911 2 3.6914999999999996e+00 6.3938655561404980e+00 3.3265306170388754e+01 0 0 0
886 2 0.0000000000000000e+00 7.1042950623783341e+00 3.3265306170388754e+01 0 0 0
897 2 2.4610000000000003e+00 7.1042950623783341e+00 3.3265306170388754e+01 0 0 0
610 2 4.9220000000000006e+00 5.6834360499026637e+00 3.0030999999995490e+01 0 0 0
612 2 4.9220000000000006e+00 4.2625770374269978e+00 3.0030999999995490e+01 0 0 0
645 2 6.1524999999999999e+00 6.3938655561404980e+00 3.0030999999995490e+01 0 0 0
647 2 7.3829999999999991e+00 5.6834360499026637e+00 3.0030999999995490e+01 0 0 0
649 2 7.3829999999999991e+00 4.2625770374269996e+00 3.0030999999995490e+01 0 0 0
643 2 6.1524999999999999e+00 7.8147245686161639e+00 3.0030999999995490e+01 0 0 0
913 2 4.9220000000000006e+00 4.2625770374269978e+00 3.3265306170388754e+01 0 0 0
914 2 6.1524999999999999e+00 4.9730065436648339e+00 3.3265306170388754e+01 0 0 0
930 2 6.1524999999999999e+00 6.3938655561404980e+00 3.3265306170388754e+01 0 0 0
932 2 7.3829999999999991e+00 4.2625770374269996e+00 3.3265306170388754e+01 0 0 0
912 2 4.9220000000000006e+00 7.1042950623783341e+00 3.3265306170388754e+01 0 0 0
931 2 7.3830000000000009e+00 7.1042950623783341e+00 3.3265306170388754e+01 0 0 0
690 2 8.6135000000000002e+00 6.3938655561404980e+00 3.0030999999995490e+01 0 0 0
692 2 9.8440000000000012e+00 5.6834360499026637e+00 3.0030999999995490e+01 0 0 0
694 2 9.8440000000000012e+00 4.2625770374270004e+00 3.0030999999995490e+01 0 0 0
737 2 1.1074500000000002e+01 6.3938655561404980e+00 3.0030999999995490e+01 0 0 0
688 2 8.6135000000000002e+00 7.8147245686161639e+00 3.0030999999995490e+01 0 0 0
735 2 1.1074500000000002e+01 7.8147245686161639e+00 3.0030999999995490e+01 0 0 0
933 2 8.6135000000000002e+00 4.9730065436648339e+00 3.3265306170388754e+01 0 0 0
953 2 8.6135000000000002e+00 6.3938655561404980e+00 3.3265306170388754e+01 0 0 0
955 2 9.8440000000000012e+00 4.2625770374270004e+00 3.3265306170388754e+01 0 0 0
956 2 1.1074500000000002e+01 4.9730065436648339e+00 3.3265306170388754e+01 0 0 0
977 2 1.1074500000000002e+01 6.3938655561404980e+00 3.3265306170388754e+01 0 0 0
954 2 9.8440000000000012e+00 7.1042950623783341e+00 3.3265306170388754e+01 0 0 0
573 2 0.0000000000000000e+00 9.9460130873296642e+00 3.0030999999995490e+01 0 0 0
575 2 0.0000000000000000e+00 8.5251540748539991e+00 3.0030999999995490e+01 0 0 0
602 2 2.4610000000000003e+00 9.9460130873296642e+00 3.0030999999995490e+01 0 0 0
604 2 2.4610000000000003e+00 8.5251540748539991e+00 3.0030999999995490e+01 0 0 0
598 2 1.2305000000000001e+00 1.2077301606043163e+01 3.0030999999995490e+01 0 0 0
600 2 1.2305000000000001e+00 1.0656442593567498e+01 3.0030999999995490e+01 0 0 0
635 2 3.6914999999999996e+00 1.2077301606043163e+01 3.0030999999995490e+01 0 0 0
637 2 3.6914999999999996e+00 1.0656442593567499e+01 3.0030999999995490e+01 0 0 0
894 2 0.0000000000000000e+00 8.5251540748539991e+00 3.3265306170388754e+01 0 0 0
895 2 1.2305000000000001e+00 9.2355835810918343e+00 3.3265306170388754e+01 0 0 0
909 2 2.4610000000000003e+00 8.5251540748539991e+00 3.3265306170388754e+01 0 0 0
910 2 3.6915000000000004e+00 9.2355835810918343e+00 3.3265306170388754e+01 0 0 0
893 2 0.0000000000000000e+00 1.1366872099805333e+01 3.3265306170388754e+01 0 0 0
907 2 1.2305000000000001e+00 1.0656442593567498e+01 3.3265306170388754e+01 0 0 0
908 2 2.4610000000000003e+00 1.1366872099805333e+01 3.3265306170388754e+01 0 0 0
926 2 3.6914999999999996e+00 1.0656442593567499e+01 3.3265306170388754e+01 0 0 0
639 2 4.9220000000000006e+00 9.9460130873296642e+00 3.0030999999995490e+01 0 0 0
641 2 4.9220000000000006e+00 8.5251540748539991e+00 3.0030999999995490e+01 0 0 0
684 2 7.3830000000000009e+00 9.9460130873296642e+00 3.0030999999995490e+01 0 0 0
686 2 7.3830000000000009e+00 8.5251540748539991e+00 3.0030999999995490e+01 0 0 0
680 2 6.1524999999999999e+00 1.2077301606043163e+01 3.0030999999995490e+01 0 0 0
682 2 6.1524999999999999e+00 1.0656442593567499e+01 3.0030999999995490e+01 0 0 0
928 2 4.9220000000000006e+00 8.5251540748539991e+00 3.3265306170388754e+01 0 0 0
929 2 6.1524999999999999e+00 9.2355835810918343e+00 3.3265306170388754e+01 0 0 0
951 2 7.3830000000000009e+00 8.5251540748539991e+00 3.3265306170388754e+01 0 0 0
927 2 4.9220000000000006e+00 1.1366872099805333e+01 3.3265306170388754e+01 0 0 0
949 2 6.1524999999999999e+00 1.0656442593567499e+01 3.3265306170388754e+01 0 0 0
950 2 7.3829999999999991e+00 1.1366872099805333e+01 3.3265306170388754e+01 0 0 0
731 2 9.8440000000000012e+00 9.9460130873296642e+00 3.0030999999995490e+01 0 0 0
733 2 9.8440000000000012e+00 8.5251540748539956e+00 3.0030999999995490e+01 0 0 0
727 2 8.6135000000000002e+00 1.2077301606043163e+01 3.0030999999995490e+01 0 0 0
729 2 8.6134999999999984e+00 1.0656442593567498e+01 3.0030999999995490e+01 0 0 0
774 2 1.1074500000000002e+01 1.2077301606043163e+01 3.0030999999995490e+01 0 0 0
776 2 1.1074500000000002e+01 1.0656442593567498e+01 3.0030999999995490e+01 0 0 0
952 2 8.6134999999999984e+00 9.2355835810918343e+00 3.3265306170388754e+01 0 0 0
975 2 9.8440000000000012e+00 8.5251540748539956e+00 3.3265306170388754e+01 0 0 0
976 2 1.1074500000000002e+01 9.2355835810918343e+00 3.3265306170388754e+01 0 0 0
973 2 8.6134999999999984e+00 1.0656442593567498e+01 3.3265306170388754e+01 0 0 0
974 2 9.8440000000000012e+00 1.1366872099805333e+01 3.3265306170388754e+01 0 0 0
997 2 1.1074500000000002e+01 1.0656442593567498e+01 3.3265306170388754e+01 0 0 0
998 2 1.2304999999999998e+01 1.1366872099805333e+01 3.3265306170388754e+01 0 0 0
4869 1 1.3598291407809531e+00 3.4118291588607970e+00 3.6195869019902474e+01 -1 0 0
5328 1 4.0108485122729514e+00 4.0176651455770465e+00 3.5585671946184050e+01 -2 2 -1
6330 1 4.8465710847988108e-01 7.2145832861192383e-01 3.5603439775561341e+01 -1 -1 0
5979 1 5.5313097536988076e+00 1.9319118683273790e+00 3.6425002273245312e+01 -1 -1 0
5011 1 8.1259022393829845e+00 2.3503739042717720e+00 3.5713625761896779e+01 0 1 -1
215 1 1.0044856801504245e+01 3.0762966359287791e-01 3.6019673996853697e+01 1 0 -1
3619 1 9.2106271631140435e-01 8.0760233504432044e+00 3.6389576199503665e+01 0 -1 0
4966 1 4.9871529065514846e+00 6.5550353920697519e+00 3.6332239671219455e+01 1 0 -1
2909 1 7.7546229308906227e+00 6.8675544162158486e+00 3.5654565720692275e+01 1 0 0
260 1 9.2901470228418432e+00 4.7279474395760888e+00 3.6393036324697789e+01 1 0 -1
1905 1 1.2081124625059088e+01 5.1959172329624241e+00 3.5949428187459560e+01 -2 -2 -1
2974 1 3.3688571942297272e+00 8.6713449635908777e+00 3.5585274269714631e+01 2 0 0
1468 1 4.5573154066516581e+00 1.1190398620065190e+01 3.6299771371865120e+01 3 3 -1
1920 1 7.2327078535349365e+00 1.1530628232079161e+01 3.5661630722218561e+01 0 -1 -1
3644 1 1.1059934150708743e+01 1.0138522494631609e+01 3.5673968219391895e+01 1 0 -1
1626 1 8.6313404000917728e+00 9.3967715232531290e+00 3.6326065056321283e+01 -4 0 -1
191 1 1.3966987249543983e+00 3.6491601331485302e+00 3.9085129279004676e+01 2 3 -1
3298 1 5.9227222798192558e-01 9.9348864693819927e-01 4.0017132292933368e+01 0 2 0
2063 1 5.6031470445343450e+00 2.2557834759982445e+00 3.9343493436558177e+01 3 1 0
1661 1 8.2578840133747935e+00 2.9750933807044468e+00 3.9932586044913094e+01 -1 0 -1
2041 1 1.0217589831924593e+01 9.6141795098716687e-01 3.8727180365972814e+01 -1 2 -1
1712 1 1.1271309602533526e+00 8.0004683073139482e+00 3.8991680050353324e+01 0 2 -1
5248 1 4.2439032667198360e+00 4.4449204057184302e+00 4.0044790770659219e+01 -1 -1 0
269 1 5.0696173913286131e+00 6.8101002236946364e+00 3.9200874831189154e+01 -1 0 0
1831 1 7.7274850292683315e+00 7.3138177510644464e+00 4.0102304938666961e+01 2 2 -1
4999 1 9.5149782022925553e+00 5.4431228853999203e+00 3.9150339550764343e+01 1 0 -1
1788 1 1.2280478766319018e+01 5.7686945652768058e+00 4.0051756322673967e+01 0 2 -1
6045 1 3.5811944814488545e+00 8.8922455557843048e+00 3.9849562888338511e+01 2 0 0
259 1 4.3996367254889091e+00 1.1314407327946210e+01 3.8881225968425682e+01 -2 -1 0
58 1 6.9429190226659401e+00 1.1640621487512867e+01 3.9720653381585294e+01 1 0 -1
3451 1 8.6738470276536255e+00 9.5413924010393103e+00 3.9250614766206780e+01 -1 0 -1
3467 1 1.1178225622959232e+01 1.0172572157170750e+01 3.9816329719895720e+01 1 -4 -1
4592 1 3.7166611926751097e-01 1.4214703639701523e+00 4.2828730861800963e+01 2 2 0
3013 1 2.6900246823537599e+00 2.1868554410548162e+00 4.3820124249313352e+01 0 1 0
43 1 7.3223237706150206e+00 7.6129559782432332e-01 4.3847548629726873e+01 -1 4 -1
4683 1 4.6906015059122703e+00 3.3501586333245625e-01 4.3030261304100108e+01 1 -1 0
314 1 8.4649918201208507e+00 2.9296353573680154e+00 4.2640167706608068e+01 1 1 -1
1341 1 1.1017418070155260e+01 3.4706273311626177e+00 4.3552038583523640e+01 -1 1 0
3684 1 2.2446359322362701e+00 6.3388287908537260e+00 4.3846529017191955e+01 0 2 0
4817 1 6.9109074127030494e+00 5.0171842886807836e+00 4.3646924349140093e+01 -3 -2 0
311 1 4.1744836613967591e+00 4.5512063258469109e+00 4.2945894000802596e+01 0 0 -1
4935 1 8.0522219314479457e+00 7.5088974968136446e+00 4.2718839821520803e+01 0 2 0
6146 1 1.2063833539741816e+01 5.8584250478020010e+00 4.2757747243650371e+01 -3 1 0
4627 1 1.0594577834249710e+01 7.7651798627818938e+00 4.3905440523145245e+01 3 0 0
3286 1 1.6704717758933536e+00 1.0690083277462625e+01 4.3684260365545413e+01 -2 1 0
4703 1 3.0545327521135177e+00 8.5809099835928784e+00 4.2625324346575681e+01 -1 0 0
2931 1 7.4606991919628785e+00 1.1650861858771961e+01 4.2518001178639011e+01 1 -1 0
3352 1 5.8245102670787139e+00 9.5335847556189357e+00 4.3210625090228476e+01 1 1 -1
2869 1 1.1798660235104720e+01 1.0349437277248779e+01 4.2537569830470602e+01 1 0 0
3699 1 9.9656438101644742e+00 1.2227804385511513e+01 4.3559612667809873e+01 2 -2 0
6189 1 3.1896501287315089e+00 1.8312062376872253e+00 4.6611872633504433e+01 -1 0 0
2836 1 1.5832060733910338e+00 3.7976953542595706e+00 4.7422414091045852e+01 1 -3 0
2921 1 5.9805921892091005e+00 2.6190220426103865e+00 4.7269050842275860e+01 -2 1 0
381 1 7.5441804363574656e+00 4.1199318134713825e-01 4.6475179221810080e+01 0 0 0
3558 1 1.1193980343166695e+01 3.2533455161442961e+00 4.6189519305701225e+01 -1 -2 -1
4895 1 1.0116459015886500e+01 8.8415579892631946e-01 4.7119326655748225e+01 1 2 -1
412 1 2.4909944175826286e+00 6.5033548438628488e+00 4.6689021392125767e+01 1 0 -1
4788 1 6.8242630926984198e+00 5.0933258804308403e+00 4.6508995640214863e+01 -1 2 0
5297 1 4.9364151509181342e+00 7.3174151917472248e+00 4.7165312289313803e+01 5 -2 0
3289 1 9.5502496178426881e+00 5.4542795268053661e+00 4.7401689798482479e+01 -1 1 0